Generated by trjconv : CNT in water t= 598.00000
33518
    1C        C    1   2.846   2.772   4.751
    1C        C    2   2.902   2.723   4.871
    1C        C    3   2.847   2.775   4.989
    1C        C    4   2.850   2.774   4.263
    1C        C    5   2.900   2.727   4.387
    1C        C    6   2.846   2.769   4.510
    1C        C    7   3.018   2.642   4.629
    1C        C    8   2.900   2.720   4.631
    1C        C    9   3.083   2.608   4.749
    1C        C   10   3.014   2.637   4.869
    1C        C   11   3.183   2.497   4.977
    1C        C   12   3.062   2.568   4.980
    1C        C   13   2.847   2.767   3.776
    1C        C   14   2.901   2.721   3.898
    1C        C   15   2.848   2.773   4.018
    1C        C   16   3.021   2.652   4.141
    1C        C   17   2.902   2.727   4.140
    1C        C   18   3.082   2.615   4.263
    1C        C   19   3.019   2.650   4.385
    1C        C   20   3.212   2.560   4.507
    1C        C   21   3.079   2.610   4.506
    1C        C   22   3.285   2.539   4.627
    1C        C   23   3.214   2.554   4.748
    1C        C   24   3.416   2.487   4.869
    1C        C   25   3.274   2.504   4.867
    1C        C   26   3.493   2.480   4.986
    1C        C   27   2.845   2.763   3.286
    1C        C   28   2.902   2.721   3.408
    1C        C   29   2.852   2.768   3.531
    1C        C   30   3.020   2.642   3.652
    1C        C   31   2.903   2.721   3.654
    1C        C   32   3.079   2.609   3.776
    1C        C   33   3.018   2.642   3.899
    1C        C   34   3.212   2.555   4.017
    1C        C   35   3.080   2.606   4.021
    1C        C   36   3.278   2.537   4.140
    1C        C   37   3.212   2.561   4.263
    1C        C   38   3.420   2.520   4.382
    1C        C   39   3.280   2.539   4.385
    1C        C   40   3.490   2.512   4.504
    1C        C   41   3.423   2.514   4.629
    1C        C   42   3.635   2.485   4.748
    1C        C   43   3.493   2.491   4.749
    1C        C   44   3.712   2.492   4.867
    1C        C   45   3.632   2.481   4.982
    1C        C   46   2.841   2.751   2.798
    1C        C   47   2.897   2.709   2.921
    1C        C   48   2.845   2.762   3.041
    1C        C   49   3.016   2.638   3.164
    1C        C   50   2.899   2.717   3.163
    1C        C   51   3.078   2.599   3.285
    1C        C   52   3.016   2.637   3.406
    1C        C   53   3.210   2.554   3.530
    1C        C   54   3.082   2.614   3.529
    1C        C   55   3.280   2.535   3.652
    1C        C   56   3.212   2.563   3.773
    1C        C   57   3.419   2.512   3.895
    1C        C   58   3.280   2.541   3.894
    1C        C   59   3.488   2.507   4.018
    1C        C   60   3.417   2.514   4.140
    1C        C   61   3.632   2.507   4.263
    1C        C   62   3.491   2.508   4.261
    1C        C   63   3.703   2.514   4.385
    1C        C   64   3.631   2.507   4.507
    1C        C   65   3.839   2.550   4.627
    1C        C   66   3.704   2.508   4.628
    1C        C   67   3.911   2.566   4.747
    1C        C   68   3.849   2.525   4.867
    1C        C   69   4.060   2.584   4.981
    1C        C   70   3.929   2.534   4.981
    1C        C   71   2.825   2.732   2.312
    1C        C   72   2.887   2.693   2.433
    1C        C   73   2.832   2.743   2.553
    1C        C   74   3.010   2.628   2.676
    1C        C   75   2.889   2.702   2.675
    1C        C   76   3.074   2.593   2.796
    1C        C   77   3.012   2.628   2.918
    1C        C   78   3.208   2.553   3.040
    1C        C   79   3.074   2.598   3.042
    1C        C   80   3.276   2.533   3.163
    1C        C   81   3.210   2.548   3.286
    1C        C   82   3.416   2.503   3.406
    1C        C   83   3.276   2.526   3.409
    1C        C   84   3.487   2.503   3.528
    1C        C   85   3.419   2.511   3.652
    1C        C   86   3.632   2.506   3.773
    1C        C   87   3.490   2.504   3.774
    1C        C   88   3.701   2.512   3.896
    1C        C   89   3.630   2.507   4.017
    1C        C   90   3.835   2.555   4.139
    1C        C   91   3.700   2.514   4.140
    1C        C   92   3.902   2.579   4.261
    1C        C   93   3.840   2.548   4.384
    1C        C   94   4.034   2.636   4.501
    1C        C   95   3.908   2.572   4.505
    1C        C   96   4.095   2.670   4.624
    1C        C   97   4.039   2.629   4.746
    1C        C   98   4.203   2.763   4.865
    1C        C   99   4.109   2.654   4.867
    1C        C  100   4.220   2.841   4.980
    1C        C  101   2.824   2.728   2.073
    1C        C  102   2.995   2.596   2.196
    1C        C  103   2.877   2.676   2.192
    1C        C  104   3.069   2.574   2.315
    1C        C  105   3.006   2.616   2.434
    1C        C  106   3.204   2.536   2.552
    1C        C  107   3.074   2.590   2.555
    1C        C  108   3.275   2.522   2.674
    1C        C  109   3.206   2.542   2.796
    1C        C  110   3.414   2.502   2.917
    1C        C  111   3.274   2.526   2.918
    1C        C  112   3.485   2.495   3.039
    1C        C  113   3.415   2.506   3.162
    1C        C  114   3.628   2.509   3.284
    1C        C  115   3.487   2.502   3.283
    1C        C  116   3.699   2.513   3.406
    1C        C  117   3.628   2.506   3.528
    1C        C  118   3.837   2.545   3.649
    1C        C  119   3.700   2.514   3.650
    1C        C  120   3.904   2.568   3.772
    1C        C  121   3.840   2.541   3.895
    1C        C  122   4.029   2.637   4.015
    1C        C  123   3.905   2.570   4.017
    1C        C  124   4.092   2.674   4.135
    1C        C  125   4.028   2.644   4.258
    1C        C  126   4.202   2.766   4.378
    1C        C  127   4.088   2.682   4.379
    1C        C  128   4.250   2.818   4.500
    1C        C  129   4.197   2.768   4.621
    1C        C  130   4.325   2.939   4.743
    1C        C  131   4.245   2.822   4.743
    1C        C  132   4.362   3.005   4.863
    1C        C  133   4.289   2.962   4.974
    1C        C  134   3.176   2.467   2.083
    1C        C  135   3.045   2.516   2.088
    1C        C  136   3.264   2.473   2.192
    1C        C  137   3.201   2.523   2.308
    1C        C  138   3.410   2.487   2.432
    1C        C  139   3.271   2.509   2.431
    1C        C  140   3.483   2.488   2.553
    1C        C  141   3.413   2.492   2.675
    1C        C  142   3.627   2.496   2.795
    1C        C  143   3.486   2.493   2.796
    1C        C  144   3.698   2.504   2.917
    1C        C  145   3.626   2.503   3.038
    1C        C  146   3.834   2.548   3.161
    1C        C  147   3.695   2.518   3.160
    1C        C  148   3.904   2.565   3.282
    1C        C  149   3.837   2.544   3.404
    1C        C  150   4.033   2.624   3.525
    1C        C  151   3.903   2.569   3.526
    1C        C  152   4.091   2.666   3.647
    1C        C  153   4.027   2.637   3.770
    1C        C  154   4.197   2.765   3.890
    1C        C  155   4.084   2.680   3.892
    1C        C  156   4.253   2.809   4.012
    1C        C  157   4.203   2.762   4.136
    1C        C  158   4.345   2.922   4.255
    1C        C  159   4.256   2.812   4.256
    1C        C  160   4.382   2.982   4.377
    1C        C  161   4.336   2.931   4.500
    1C        C  162   4.441   3.116   4.617
    1C        C  163   4.371   2.994   4.621
    1C        C  164   4.471   3.183   4.738
    1C        C  165   4.444   3.120   4.861
    1C        C  166   4.523   3.320   4.976
    1C        C  167   4.487   3.186   4.977
    1C        C  168   3.482   2.450   2.075
    1C        C  169   3.405   2.465   2.191
    1C        C  170   3.623   2.468   2.311
    1C        C  171   3.480   2.471   2.310
    1C        C  172   3.698   2.493   2.428
    1C        C  173   3.625   2.492   2.549
    1C        C  174   3.832   2.537   2.669
    1C        C  175   3.694   2.505   2.671
    1C        C  176   3.899   2.563   2.791
    1C        C  177   3.834   2.542   2.914
    1C        C  178   4.027   2.628   3.035
    1C        C  179   3.899   2.570   3.037
    1C        C  180   4.092   2.663   3.156
    1C        C  181   4.032   2.626   3.278
    1C        C  182   4.202   2.747   3.401
    1C        C  183   4.093   2.658   3.402
    1C        C  184   4.251   2.801   3.522
    1C        C  185   4.201   2.755   3.646
    1C        C  186   4.339   2.919   3.767
    1C        C  187   4.251   2.808   3.767
    1C        C  188   4.378   2.980   3.888
    1C        C  189   4.341   2.920   4.010
    1C        C  190   4.446   3.106   4.128
    1C        C  191   4.383   2.980   4.131
    1C        C  192   4.467   3.174   4.250
    1C        C  193   4.444   3.110   4.374
    1C        C  194   4.505   3.317   4.494
    1C        C  195   4.469   3.180   4.494
    1C        C  196   4.520   3.388   4.615
    1C        C  197   4.511   3.320   4.738
    1C        C  198   4.559   3.534   4.853
    1C        C  199   4.537   3.392   4.857
    1C        C  200   4.591   3.621   4.962
    1C        C  201   3.620   2.426   2.075
    1C        C  202   3.835   2.498   2.189
    1C        C  203   3.698   2.455   2.191
    1C        C  204   3.907   2.535   2.306
    1C        C  205   3.836   2.524   2.427
    1C        C  206   4.028   2.619   2.547
    1C        C  207   3.902   2.555   2.548
    1C        C  208   4.085   2.661   2.669
    1C        C  209   4.028   2.621   2.792
    1C        C  210   4.204   2.742   2.910
    1C        C  211   4.092   2.655   2.913
    1C        C  212   4.254   2.796   3.031
    1C        C  213   4.202   2.752   3.155
    1C        C  214   4.339   2.909   3.275
    1C        C  215   4.251   2.798   3.279
    1C        C  216   4.372   2.973   3.397
    1C        C  217   4.334   2.916   3.521
    1C        C  218   4.436   3.102   3.641
    1C        C  219   4.374   2.975   3.642
    1C        C  220   4.463   3.171   3.762
    1C        C  221   4.438   3.108   3.886
    1C        C  222   4.498   3.312   4.007
    1C        C  223   4.470   3.174   4.007
    1C        C  224   4.510   3.383   4.128
    1C        C  225   4.501   3.311   4.249
    1C        C  226   4.520   3.524   4.370
    1C        C  227   4.514   3.383   4.370
    1C        C  228   4.515   3.599   4.490
    1C        C  229   4.527   3.530   4.612
    1C        C  230   4.502   3.742   4.731
    1C        C  231   4.537   3.604   4.732
    1C        C  232   4.492   3.821   4.848
    1C        C  233   4.549   3.755   4.957
    1C        C  234   4.017   2.614   2.067
    1C        C  235   3.898   2.542   2.072
    1C        C  236   4.087   2.651   2.182
    1C        C  237   4.030   2.607   2.304
    1C        C  238   4.201   2.739   2.422
    1C        C  239   4.089   2.652   2.424
    1C        C  240   4.257   2.784   2.544
    1C        C  241   4.202   2.741   2.666
    1C        C  242   4.341   2.903   2.786
    1C        C  243   4.254   2.792   2.787
    1C        C  244   4.383   2.961   2.908
    1C        C  245   4.344   2.904   3.032
    1C        C  246   4.437   3.096   3.153
    1C        C  247   4.381   2.966   3.153
    1C        C  248   4.459   3.165   3.274
    1C        C  249   4.435   3.099   3.397
    1C        C  250   4.493   3.305   3.516
    1C        C  251   4.460   3.168   3.518
    1C        C  252   4.509   3.375   3.638
    1C        C  253   4.496   3.308   3.762
    1C        C  254   4.522   3.520   3.880
    1C        C  255   4.509   3.380   3.883
    1C        C  256   4.524   3.591   4.003
    1C        C  257   4.520   3.524   4.127
    1C        C  258   4.495   3.736   4.245
    1C        C  259   4.516   3.596   4.248
    1C        C  260   4.472   3.805   4.366
    1C        C  261   4.485   3.737   4.489
    1C        C  262   4.426   3.942   4.605
    1C        C  263   4.475   3.810   4.610
    1C        C  264   4.404   4.014   4.724
    1C        C  265   4.445   3.954   4.845
    1C        C  266   4.315   4.129   4.960
    1C        C  267   4.387   4.009   4.960
    1C        C  268   4.263   2.777   2.064
    1C        C  269   4.204   2.730   2.183
    1C        C  270   4.352   2.890   2.299
    1C        C  271   4.261   2.781   2.301
    1C        C  272   4.382   2.957   2.420
    1C        C  273   4.344   2.895   2.541
    1C        C  274   4.450   3.081   2.663
    1C        C  275   4.381   2.958   2.662
    1C        C  276   4.476   3.150   2.783
    1C        C  277   4.449   3.085   2.906
    1C        C  278   4.503   3.291   3.026
    1C        C  279   4.470   3.153   3.028
    1C        C  280   4.511   3.366   3.146
    1C        C  281   4.496   3.301   3.271
    1C        C  282   4.516   3.513   3.390
    1C        C  283   4.506   3.372   3.392
    1C        C  284   4.515   3.585   3.512
    1C        C  285   4.523   3.515   3.635
    1C        C  286   4.495   3.727   3.754
    1C        C  287   4.518   3.588   3.756
    1C        C  288   4.476   3.797   3.876
    1C        C  289   4.497   3.730   3.998
    1C        C  290   4.426   3.931   4.116
    1C        C  291   4.480   3.800   4.120
    1C        C  292   4.403   4.002   4.236
    1C        C  293   4.430   3.940   4.361
    1C        C  294   4.329   4.128   4.480
    1C        C  295   4.402   4.007   4.482
    1C        C  296   4.285   4.189   4.599
    1C        C  297   4.325   4.132   4.722
    1C        C  298   4.199   4.312   4.838
    1C        C  299   4.280   4.195   4.842
    1C        C  300   4.173   4.401   4.947
    1C        C  301   4.357   2.879   2.061
    1C        C  302   4.471   3.069   2.178
    1C        C  303   4.399   2.945   2.177
    1C        C  304   4.483   3.145   2.298
    1C        C  305   4.448   3.082   2.420
    1C        C  306   4.512   3.285   2.538
    1C        C  307   4.476   3.149   2.541
    1C        C  308   4.520   3.358   2.660
    1C        C  309   4.506   3.288   2.782
    1C        C  310   4.521   3.501   2.900
    1C        C  311   4.512   3.360   2.904
    1C        C  312   4.517   3.574   3.021
    1C        C  313   4.521   3.507   3.146
    1C        C  314   4.487   3.719   3.265
    1C        C  315   4.517   3.581   3.266
    1C        C  316   4.471   3.788   3.387
    1C        C  317   4.486   3.723   3.512
    1C        C  318   4.427   3.929   3.631
    1C        C  319   4.476   3.796   3.632
    1C        C  320   4.398   3.995   3.752
    1C        C  321   4.427   3.930   3.874
    1C        C  322   4.322   4.117   3.992
    1C        C  323   4.395   3.996   3.995
    1C        C  324   4.283   4.177   4.114
    1C        C  325   4.330   4.122   4.235
    1C        C  326   4.188   4.283   4.353
    1C        C  327   4.285   4.181   4.356
    1C        C  328   4.137   4.338   4.473
    1C        C  329   4.192   4.296   4.596
    1C        C  330   4.032   4.443   4.716
    1C        C  331   4.144   4.355   4.714
    1C        C  332   3.973   4.494   4.833
    1C        C  333   4.053   4.474   4.947
    1C        C  334   4.555   3.271   2.063
    1C        C  335   4.532   3.132   2.065
    1C        C  336   4.543   3.353   2.176
    1C        C  337   4.514   3.284   2.296
    1C        C  338   4.531   3.497   2.414
    1C        C  339   4.525   3.356   2.417
    1C        C  340   4.520   3.570   2.534
    1C        C  341   4.520   3.499   2.656
    1C        C  342   4.500   3.711   2.775
    1C        C  343   4.521   3.571   2.778
    1C        C  344   4.481   3.781   2.896
    1C        C  345   4.497   3.713   3.019
    1C        C  346   4.427   3.916   3.140
    1C        C  347   4.473   3.783   3.140
    1C        C  348   4.402   3.985   3.261
    1C        C  349   4.431   3.923   3.384
    1C        C  350   4.325   4.109   3.504
    1C        C  351   4.399   3.989   3.506
    1C        C  352   4.278   4.167   3.623
    1C        C  353   4.319   4.112   3.747
    1C        C  354   4.181   4.273   3.869
    1C        C  355   4.279   4.171   3.869
    1C        C  356   4.127   4.322   3.990
    1C        C  357   4.182   4.276   4.111
    1C        C  358   4.012   4.405   4.231
    1C        C  359   4.131   4.328   4.232
    1C        C  360   3.953   4.444   4.353
    1C        C  361   4.020   4.417   4.475
    1C        C  362   3.832   4.521   4.596
    1C        C  363   3.962   4.464   4.595
    1C        C  364   3.764   4.549   4.716
    1C        C  365   3.842   4.547   4.834
    1C        C  366   3.631   4.603   4.949
    1C        C  367   3.767   4.577   4.949
    1C        C  368   4.518   3.567   2.055
    1C        C  369   4.535   3.493   2.173
    1C        C  370   4.507   3.708   2.288
    1C        C  371   4.528   3.568   2.292
    1C        C  372   4.492   3.780   2.409
    1C        C  373   4.506   3.711   2.532
    1C        C  374   4.429   3.910   2.649
    1C        C  375   4.483   3.780   2.653
    1C        C  376   4.395   3.972   2.771
    1C        C  377   4.429   3.912   2.895
    1C        C  378   4.327   4.099   3.013
    1C        C  379   4.402   3.979   3.016
    1C        C  380   4.277   4.154   3.133
    1C        C  381   4.321   4.101   3.257
    1C        C  382   4.184   4.262   3.378
    1C        C  383   4.283   4.160   3.379
    1C        C  384   4.128   4.313   3.497
    1C        C  385   4.178   4.268   3.621
    1C        C  386   4.007   4.387   3.743
    1C        C  387   4.127   4.312   3.744
    1C        C  388   3.947   4.430   3.863
    1C        C  389   4.012   4.405   3.985
    1C        C  390   3.822   4.496   4.109
    1C        C  391   3.953   4.441   4.108
    1C        C  392   3.753   4.514   4.230
    1C        C  393   3.821   4.496   4.353
    1C        C  394   3.620   4.551   4.474
    1C        C  395   3.761   4.532   4.475
    1C        C  396   3.548   4.560   4.595
    1C        C  397   3.624   4.561   4.715
    1C        C  398   3.413   4.558   4.840
    1C        C  399   3.553   4.580   4.835
    1C        C  400   3.340   4.527   4.956
    1C        C  401   4.501   3.705   2.050
    1C        C  402   4.454   3.916   2.170
    1C        C  403   4.488   3.779   2.168
    1C        C  404   4.414   3.981   2.289
    1C        C  405   4.443   3.912   2.408
    1C        C  406   4.333   4.099   2.528
    1C        C  407   4.409   3.980   2.528
    1C        C  408   4.283   4.152   2.648
    1C        C  409   4.321   4.093   2.771
    1C        C  410   4.181   4.255   2.890
    1C        C  411   4.278   4.152   2.892
    1C        C  412   4.128   4.303   3.012
    1C        C  413   4.178   4.255   3.135
    1C        C  414   4.006   4.380   3.251
    1C        C  415   4.125   4.304   3.256
    1C        C  416   3.944   4.414   3.373
    1C        C  417   4.005   4.383   3.497
    1C        C  418   3.817   4.478   3.619
    1C        C  419   3.944   4.416   3.620
    1C        C  420   3.750   4.506   3.741
    1C        C  421   3.816   4.484   3.864
    1C        C  422   3.613   4.533   3.987
    1C        C  423   3.752   4.509   3.987
    1C        C  424   3.542   4.536   4.110
    1C        C  425   3.613   4.535   4.232
    1C        C  426   3.404   4.550   4.357
    1C        C  427   3.545   4.551   4.355
    1C        C  428   3.333   4.543   4.479
    1C        C  429   3.407   4.554   4.599
    1C        C  430   3.198   4.520   4.720
    1C        C  431   3.337   4.549   4.722
    1C        C  432   3.127   4.500   4.841
    1C        C  433   3.205   4.495   4.958
    1C        C  434   4.392   4.126   2.058
    1C        C  435   4.455   4.001   2.058
    1C        C  436   4.304   4.165   2.163
    1C        C  437   4.335   4.099   2.286
    1C        C  438   4.184   4.251   2.405
    1C        C  439   4.289   4.156   2.407
    1C        C  440   4.128   4.297   2.526
    1C        C  441   4.179   4.249   2.648
    1C        C  442   4.009   4.380   2.767
    1C        C  443   4.124   4.298   2.768
    1C        C  444   3.945   4.413   2.888
    1C        C  445   4.011   4.382   3.009
    1C        C  446   3.815   4.472   3.131
    1C        C  447   3.945   4.417   3.129
    1C        C  448   3.745   4.488   3.253
    1C        C  449   3.814   4.468   3.375
    1C        C  450   3.611   4.525   3.498
    1C        C  451   3.749   4.498   3.497
    1C        C  452   3.541   4.534   3.621
    1C        C  453   3.611   4.530   3.744
    1C        C  454   3.400   4.539   3.867
    1C        C  455   3.541   4.541   3.866
    1C        C  456   3.331   4.535   3.990
    1C        C  457   3.401   4.542   4.112
    1C        C  458   3.195   4.508   4.236
    1C        C  459   3.333   4.540   4.236
    1C        C  460   3.129   4.484   4.359
    1C        C  461   3.195   4.511   4.480
    1C        C  462   2.996   4.437   4.606
    1C        C  463   3.126   4.492   4.602
    1C        C  464   2.930   4.408   4.728
    1C        C  465   2.992   4.451   4.848
    1C        C  466   2.804   4.337   4.961
    1C        C  467   2.908   4.431   4.962
    1C        C  468   4.124   4.287   2.041
    1C        C  469   4.189   4.250   2.160
    1C        C  470   4.009   4.368   2.281
    1C        C  471   4.130   4.293   2.282
    1C        C  472   3.944   4.401   2.401
    1C        C  473   4.008   4.372   2.524
    1C        C  474   3.814   4.463   2.644
    1C        C  475   3.945   4.410   2.645
    1C        C  476   3.748   4.491   2.766
    1C        C  477   3.816   4.470   2.888
    1C        C  478   3.610   4.526   3.010
    1C        C  479   3.748   4.497   3.009
    1C        C  480   3.538   4.528   3.132
    1C        C  481   3.607   4.519   3.254
    1C        C  482   3.397   4.529   3.379
    1C        C  483   3.539   4.532   3.377
    1C        C  484   3.327   4.529   3.501
    1C        C  485   3.400   4.536   3.622
    1C        C  486   3.192   4.501   3.746
    1C        C  487   3.330   4.532   3.744
    1C        C  488   3.127   4.480   3.870
    1C        C  489   3.194   4.499   3.993
    1C        C  490   3.000   4.418   4.118
    1C        C  491   3.125   4.485   4.116
    1C        C  492   2.937   4.388   4.240
    1C        C  493   2.999   4.430   4.361
    1C        C  494   2.828   4.308   4.485
    1C        C  495   2.936   4.398   4.483
    1C        C  496   2.775   4.260   4.607
    1C        C  497   2.819   4.320   4.727
    1C        C  498   2.666   4.167   4.848
    1C        C  499   2.756   4.275   4.845
    1C        C  500   2.599   4.122   4.963
    1C        C  501   4.006   4.361   2.039
    1C        C  502   3.819   4.464   2.156
    1C        C  503   3.945   4.400   2.159
    1C        C  504   3.747   4.478   2.277
    1C        C  505   3.813   4.454   2.400
    1C        C  506   3.608   4.512   2.521
    1C        C  507   3.745   4.478   2.522
    1C        C  508   3.539   4.515   2.644
    1C        C  509   3.609   4.512   2.767
    1C        C  510   3.397   4.523   2.887
    1C        C  511   3.538   4.527   2.888
    1C        C  512   3.325   4.519   3.009
    1C        C  513   3.396   4.532   3.131
    1C        C  514   3.192   4.492   3.258
    1C        C  515   3.329   4.525   3.255
    1C        C  516   3.125   4.468   3.380
    1C        C  517   3.188   4.500   3.503
    1C        C  518   2.995   4.416   3.627
    1C        C  519   3.122   4.479   3.626
    1C        C  520   2.936   4.383   3.751
    1C        C  521   2.999   4.421   3.871
    1C        C  522   2.831   4.293   3.999
    1C        C  523   2.943   4.379   3.994
    1C        C  524   2.783   4.243   4.122
    1C        C  525   2.829   4.297   4.245
    1C        C  526   2.693   4.135   4.367
    1C        C  527   2.779   4.247   4.367
    1C        C  528   2.654   4.081   4.492
    1C        C  529   2.688   4.149   4.611
    1C        C  530   2.586   3.961   4.737
    1C        C  531   2.640   4.092   4.731
    1C        C  532   2.546   3.903   4.861
    1C        C  533   2.536   3.997   4.968
    1C        C  534   3.616   4.556   2.040
    1C        C  535   3.750   4.516   2.047
    1C        C  536   3.537   4.537   2.158
    1C        C  537   3.609   4.510   2.278
    1C        C  538   3.395   4.515   2.400
    1C        C  539   3.537   4.517   2.399
    1C        C  540   3.325   4.508   2.522
    1C        C  541   3.398   4.514   2.643
    1C        C  542   3.187   4.485   2.767
    1C        C  543   3.326   4.512   2.765
    1C        C  544   3.123   4.466   2.891
    1C        C  545   3.189   4.484   3.015
    1C        C  546   2.995   4.403   3.136
    1C        C  547   3.123   4.464   3.138
    1C        C  548   2.935   4.370   3.260
    1C        C  549   2.997   4.407   3.381
    1C        C  550   2.827   4.287   3.508
    1C        C  551   2.937   4.375   3.505
    1C        C  552   2.777   4.239   3.631
    1C        C  553   2.829   4.291   3.752
    1C        C  554   2.697   4.130   3.877
    1C        C  555   2.781   4.244   3.876
    1C        C  556   2.662   4.069   4.000
    1C        C  557   2.698   4.130   4.121
    1C        C  558   2.595   3.949   4.249
    1C        C  559   2.652   4.078   4.244
    1C        C  560   2.573   3.883   4.372
    1C        C  561   2.594   3.953   4.493
    1C        C  562   2.539   3.752   4.618
    1C        C  563   2.571   3.889   4.617
    1C        C  564   2.528   3.683   4.741
    1C        C  565   2.528   3.761   4.861
    1C        C  566   2.537   3.546   4.980
    1C        C  567   2.537   3.685   4.979
    1C        C  568   3.331   4.466   2.044
    1C        C  569   3.398   4.509   2.159
    1C        C  570   3.183   4.475   2.282
    1C        C  571   3.323   4.504   2.279
    1C        C  572   3.115   4.460   2.404
    1C        C  573   3.186   4.486   2.524
    1C        C  574   2.991   4.404   2.649
    1C        C  575   3.117   4.466   2.646
    1C        C  576   2.930   4.367   2.772
    1C        C  577   2.997   4.403   2.891
    1C        C  578   2.825   4.280   3.017
    1C        C  579   2.937   4.365   3.013
    1C        C  580   2.777   4.229   3.140
    1C        C  581   2.826   4.281   3.262
    1C        C  582   2.693   4.121   3.386
    1C        C  583   2.778   4.234   3.386
    1C        C  584   2.655   4.064   3.510
    1C        C  585   2.693   4.125   3.631
    1C        C  586   2.599   3.941   3.760
    1C        C  587   2.663   4.067   3.756
    1C        C  588   2.572   3.876   3.883
    1C        C  589   2.605   3.939   4.005
    1C        C  590   2.548   3.739   4.130
    1C        C  591   2.578   3.877   4.128
    1C        C  592   2.534   3.673   4.254
    1C        C  593   2.541   3.746   4.375
    1C        C  594   2.518   3.537   4.500
    1C        C  595   2.525   3.678   4.498
    1C        C  596   2.526   3.467   4.622
    1C        C  597   2.526   3.541   4.742
    1C        C  598   2.543   3.328   4.863
    1C        C  599   2.538   3.469   4.863
    1C        C  600   2.535   3.248   4.979
    1C        C  601   3.197   4.434   2.046
    1C        C  602   2.982   4.391   2.163
    1C        C  603   3.118   4.436   2.162
    1C        C  604   2.921   4.362   2.288
    1C        C  605   2.986   4.402   2.407
    1C        C  606   2.814   4.281   2.531
    1C        C  607   2.925   4.368   2.530
    1C        C  608   2.767   4.227   2.653
    1C        C  609   2.823   4.275   2.773
    1C        C  610   2.688   4.116   2.895
    1C        C  611   2.771   4.229   2.896
    1C        C  612   2.656   4.054   3.019
    1C        C  613   2.692   4.116   3.140
    1C        C  614   2.597   3.931   3.266
    1C        C  615   2.652   4.061   3.265
    1C        C  616   2.574   3.869   3.391
    1C        C  617   2.597   3.935   3.514
    1C        C  618   2.539   3.736   3.640
    1C        C  619   2.576   3.873   3.639
    1C        C  620   2.528   3.667   3.763
    1C        C  621   2.544   3.737   3.884
    1C        C  622   2.518   3.529   4.011
    1C        C  623   2.531   3.670   4.008
    1C        C  624   2.522   3.461   4.134
    1C        C  625   2.520   3.532   4.256
    1C        C  626   2.542   3.324   4.382
    1C        C  627   2.519   3.463   4.379
    1C        C  628   2.565   3.254   4.502
    1C        C  629   2.554   3.328   4.621
    1C        C  630   2.599   3.119   4.746
    1C        C  631   2.563   3.257   4.743
    1C        C  632   2.618   3.049   4.868
    1C        C  633   2.563   3.111   4.985
    1C        C  634   2.781   4.308   2.056
    1C        C  635   2.892   4.394   2.052
    1C        C  636   2.745   4.235   2.170
    1C        C  637   2.806   4.278   2.290
    1C        C  638   2.671   4.116   2.410
    1C        C  639   2.759   4.226   2.412
    1C        C  640   2.635   4.057   2.533
    1C        C  641   2.679   4.116   2.653
    1C        C  642   2.588   3.926   2.777
    1C        C  643   2.640   4.058   2.776
    1C        C  644   2.565   3.862   2.901
    1C        C  645   2.595   3.927   3.023
    1C        C  646   2.535   3.725   3.151
    1C        C  647   2.572   3.861   3.146
    1C        C  648   2.520   3.658   3.275
    1C        C  649   2.538   3.733   3.393
    1C        C  650   2.524   3.525   3.518
    1C        C  651   2.532   3.666   3.518
    1C        C  652   2.527   3.458   3.643
    1C        C  653   2.526   3.526   3.766
    1C        C  654   2.544   3.317   3.890
    1C        C  655   2.521   3.457   3.889
    1C        C  656   2.558   3.251   4.014
    1C        C  657   2.539   3.321   4.136
    1C        C  658   2.602   3.121   4.261
    1C        C  659   2.554   3.254   4.260
    1C        C  660   2.638   3.055   4.381
    1C        C  661   2.605   3.118   4.503
    1C        C  662   2.704   2.932   4.627
    1C        C  663   2.631   3.053   4.625
    1C        C  664   2.746   2.873   4.748
    1C        C  665   2.697   2.930   4.869
    1C        C  666   2.744   2.869   4.986
    1C        C  667   2.676   4.030   2.054
    1C        C  668   2.682   4.109   2.170
    1C        C  669   2.589   3.915   2.293
    1C        C  670   2.640   4.048   2.290
    1C        C  671   2.564   3.852   2.417
    1C        C  672   2.581   3.926   2.536
    1C        C  673   2.525   3.721   2.661
    1C        C  674   2.560   3.858   2.657
    1C        C  675   2.522   3.653   2.785
    1C        C  676   2.535   3.724   2.906
    1C        C  677   2.520   3.513   3.030
    1C        C  678   2.524   3.655   3.029
    1C        C  679   2.523   3.446   3.154
    1C        C  680   2.516   3.517   3.276
    1C        C  681   2.543   3.309   3.402
    1C        C  682   2.521   3.448   3.400
    1C        C  683   2.567   3.246   3.527
    1C        C  684   2.548   3.318   3.647
    1C        C  685   2.605   3.113   3.772
    1C        C  686   2.560   3.247   3.769
    1C        C  687   2.639   3.053   3.896
    1C        C  688   2.610   3.119   4.017
    1C        C  689   2.715   2.938   4.142
    1C        C  690   2.637   3.056   4.140
    1C        C  691   2.756   2.880   4.264
    1C        C  692   2.708   2.933   4.386
    1C        C  693   2.751   2.874   4.507
    1C        C  694   2.628   3.899   2.059
    1C        C  695   2.531   3.706   2.177
    1C        C  696   2.576   3.839   2.174
    1C        C  697   2.516   3.638   2.300
    1C        C  698   2.526   3.716   2.417
    1C        C  699   2.501   3.508   2.545
    1C        C  700   2.507   3.649   2.540
    1C        C  701   2.510   3.437   2.667
    1C        C  702   2.513   3.512   2.786
    1C        C  703   2.536   3.301   2.913
    1C        C  704   2.518   3.441   2.908
    1C        C  705   2.553   3.233   3.035
    1C        C  706   2.542   3.306   3.156
    1C        C  707   2.599   3.105   3.282
    1C        C  708   2.556   3.239   3.279
    1C        C  709   2.632   3.043   3.405
    1C        C  710   2.609   3.112   3.526
    1C        C  711   2.710   2.930   3.652
    1C        C  712   2.632   3.048   3.650
    1C        C  713   2.756   2.875   3.774
    1C        C  714   2.718   2.936   3.895
    1C        C  715   2.754   2.879   4.019
    1C        C  716   2.450   3.498   2.063
    1C        C  717   2.496   3.630   2.064
    1C        C  718   2.465   3.425   2.185
    1C        C  719   2.484   3.500   2.304
    1C        C  720   2.519   3.291   2.426
    1C        C  721   2.492   3.430   2.427
    1C        C  722   2.538   3.222   2.548
    1C        C  723   2.531   3.297   2.667
    1C        C  724   2.597   3.099   2.793
    1C        C  725   2.548   3.231   2.791
    1C        C  726   2.628   3.034   2.915
    1C        C  727   2.602   3.100   3.037
    1C        C  728   2.709   2.921   3.162
    1C        C  729   2.631   3.039   3.161
    1C        C  730   2.752   2.869   3.287
    1C        C  731   2.710   2.925   3.409
    1C        C  732   2.753   2.870   3.532
    1C        C  733   2.491   3.200   2.074
    1C        C  734   2.492   3.284   2.186
    1C        C  735   2.591   3.089   2.307
    1C        C  736   2.532   3.219   2.306
    1C        C  737   2.616   3.023   2.429
    1C        C  738   2.591   3.091   2.550
    1C        C  739   2.695   2.907   2.672
    1C        C  740   2.622   3.028   2.673
    1C        C  741   2.740   2.850   2.794
    1C        C  742   2.702   2.913   2.914
    1C        C  743   2.746   2.864   3.039
    1C        C  744   2.550   3.074   2.076
    1C        C  745   2.688   2.899   2.190
    1C        C  746   2.618   3.021   2.186
    1C        C  747   2.735   2.842   2.310
    1C        C  748   2.689   2.902   2.430
    1C        C  749   2.737   2.848   2.551
    1C        C  750   2.742   2.840   2.075
    1C        C  751   3.668   2.344   1.961
    1C        O  752   3.662   2.218   1.968
    1C        O  753   3.648   2.395   1.832
    1C        C  754   4.626   3.058   1.979
    1C        O  755   4.614   3.058   1.854
    1C        O  756   4.758   3.031   2.020
    1C        C  757   4.486   4.229   2.007
    1C        O  758   4.585   4.275   2.069
    1C        O  759   4.506   4.237   1.868
    1C        C  760   3.605   4.673   1.950
    1C        O  761   3.621   4.793   1.984
    1C        O  762   3.564   4.667   1.816
    1C        C  763   2.878   4.510   1.961
    1C        O  764   2.893   4.493   1.837
    1C        O  765   2.814   4.627   2.004
    1C        C  766   2.325   3.491   1.983
    1C        O  767   2.323   3.468   1.859
    1C        O  768   2.195   3.524   2.021
    1C        C  769   4.701   3.582   5.053
    1C        O  770   4.686   3.527   5.165
    1C        O  771   4.836   3.614   5.040
    1C        C  772   4.281   4.462   5.028
    1C        O  773   4.296   4.441   5.151
    1C        O  774   4.385   4.542   4.978
    1C        C  775   4.147   2.488   5.053
    1C        O  776   4.151   2.364   5.033
    1C        O  777   4.226   2.531   5.161
    1C        C  778   2.906   4.522   5.078
    1C        O  779   2.848   4.633   5.063
    1C        O  780   2.874   4.477   5.207
    1C        C  781   2.464   3.043   5.071
    1C        O  782   2.366   2.987   5.015
    1C        O  783   2.464   3.015   5.207
    1C        C  784   2.401   4.019   5.025
    1C        O  785   2.310   4.069   4.955
    1C        O  786   2.364   3.985   5.156
    1C        C  787   2.953   2.422   2.020
    1C        O  788   2.891   2.449   1.914
    1C        O  789   2.916   2.301   2.079
    1C        C  790   3.189   2.398   5.087
    1C        O  791   3.162   2.276   5.067
    1C        O  792   3.226   2.438   5.216
    1C        H  793   4.251   3.038   5.040
    1C        H  794   4.219   2.786   5.072
    1C        H  795   4.521   3.126   5.059
    1C        H  796   4.473   3.373   5.054
    1C        H  797   4.512   3.789   5.052
    1C        H  798   4.388   3.962   5.056
    1C        H  799   4.258   4.153   5.047
    1C        H  800   4.014   4.501   5.042
    1C        H  801   3.808   4.548   5.043
    1C        H  802   3.584   4.589   5.044
    1C        H  803   3.392   4.508   5.048
    1C        H  804   3.166   4.438   5.039
    1C        H  805   3.889   2.497   5.073
    1C        H  806   3.682   2.448   5.071
    1C        H  807   2.992   2.541   5.056
    1C        H  808   3.446   2.519   5.073
    1C        H  809   2.862   2.725   5.082
    1C        H  810   2.689   2.890   5.075
    1C        H  811   2.508   3.296   5.071
    1C        H  812   2.489   3.506   5.067
    1C        H  813   2.528   3.732   5.074
    1C        H  814   2.598   4.175   5.056
    1C        H  815   2.798   4.282   5.053
    1C        H  816   2.710   2.877   1.980
    1C        H  817   2.840   2.677   1.980
    1C        H  818   3.200   2.402   2.001
    1C        H  819   3.432   2.426   1.983
    1C        H  820   3.887   2.485   1.982
    1C        H  821   4.026   2.682   1.985
    1C        H  822   4.267   2.711   1.980
    1C        H  823   4.426   2.883   1.979
    1C        H  824   4.611   3.309   1.981
    1C        H  825   4.482   3.512   1.970
    1C        H  826   4.555   3.753   1.971
    1C        H  827   3.789   4.495   1.949
    1C        H  828   3.971   4.399   1.945
    1C        H  829   4.153   4.230   1.955
    1C        H  830   4.518   3.980   1.974
    1C        H  831   2.654   3.840   1.973
    1C        H  832   2.737   4.055   1.970
    1C        H  833   2.744   4.282   1.959
    1C        H  834   3.386   4.421   1.964
    1C        H  835   3.149   4.425   1.951
    1C        H  836   2.558   3.018   1.985
    1C        H  837   2.479   3.247   1.979
    1C        H  838   2.514   3.670   1.966
    2V3OU   H29  839   2.810   3.556   6.543
    2V3OU   C27  840   2.787   3.510   6.643
    2V3OU   H27  841   2.724   3.580   6.704
    2V3OU   H28  842   2.736   3.410   6.638
    2V3OU   O11  843   2.919   3.482   6.689
    2V3OU   C15  844   2.923   3.402   6.802
    2V3OU   C13  845   3.055   3.376   6.846
    2V3OU   C14  846   3.078   3.269   6.933
    2V3OU   C16  847   2.973   3.188   6.973
    2V3OU    H6  848   2.998   3.094   7.024
    2V3OU   C12  849   3.217   3.235   6.970
    2V3OU    O2  850   3.245   3.129   0.002
    2V3OU   C10  851   3.328   3.304   6.901
    2V3OU    C8  852   3.462   3.272   6.921
    2V3OU   O10  853   3.485   3.149   6.976
    2V3OU   H26  854   3.400   3.115   7.008
    2V3OU    C6  855   3.571   3.352   6.874
    2V3OU    C5  856   3.540   3.465   6.800
    2V3OU    C4  857   3.708   3.295   6.870
    2V3OU    H4  858   3.728   3.230   6.960
    2V3OU    H5  859   3.719   3.230   6.778
    2V3OU    C2  860   3.817   3.403   6.871
    2V3OU    O6  861   3.802   3.478   6.992
    2V3OU   H21  862   3.762   3.564   6.974
    2V3OU    C3  863   3.783   3.502   6.760
    2V3OU    H2  864   3.857   3.585   6.752
    2V3OU    H3  865   3.789   3.443   6.665
    2V3OU   C25  866   3.953   3.334   6.859
    2V3OU    O7  867   4.000   3.298   6.751
    2V3OU   C26  868   4.031   3.289   6.981
    2V3OU   H22  869   4.070   3.383   7.028
    2V3OU   H23  870   4.121   3.230   6.950
    2V3OU    O8  871   3.963   3.213   0.050
    2V3OU   H24  872   3.932   3.270   0.122
    2V3OU    C1  873   3.646   3.567   6.770
    2V3OU    H1  874   3.625   3.620   6.673
    2V3OU    O3  875   3.652   3.655   6.883
    2V3OU   C19  876   3.619   3.794   6.883
    2V3OU    H9  877   3.521   3.807   6.829
    2V3OU    O4  878   3.715   3.857   6.801
    2V3OU   C20  879   3.847   3.877   6.853
    2V3OU   H10  880   3.890   3.773   6.858
    2V3OU   C24  881   3.610   3.864   7.019
    2V3OU   H16  882   3.544   3.802   0.056
    2V3OU   H17  883   3.565   3.966   7.004
    2V3OU   C23  884   3.749   3.875   0.052
    2V3OU   H15  885   3.790   3.769   0.065
    2V3OU    N1  886   3.740   3.958   0.171
    2V3OU   H19  887   3.812   3.928   0.234
    2V3OU   H20  888   3.653   3.933   0.212
    2V3OU   C21  889   3.849   3.950   6.987
    2V3OU   H11  890   3.952   3.933   0.001
    2V3OU    O5  891   3.829   4.091   6.982
    2V3OU   H18  892   3.786   4.110   0.039
    2V3OU   C22  893   3.916   3.951   6.738
    2V3OU   H12  894   3.860   4.046   6.720
    2V3OU   H13  895   3.908   3.892   6.643
    2V3OU   H14  896   4.023   3.964   6.766
    2V3OU   C11  897   3.160   3.477   6.825
    2V3OU    O1  898   3.135   3.594   6.787
    2V3OU    C9  899   3.297   3.423   6.831
    2V3OU    C7  900   3.402   3.498   6.778
    2V3OU    O9  901   3.384   3.610   6.700
    2V3OU   H25  902   3.288   3.626   6.713
    2V3OU   C17  903   2.820   3.321   6.853
    2V3OU    H7  904   2.722   3.352   6.819
    2V3OU   C18  905   2.841   3.209   6.933
    2V3OU    H8  906   2.754   3.149   6.962
    3SOL     OW  907   2.406   3.341   5.404
    3SOL    HW1  908   2.352   3.257   5.408
    3SOL    HW2  909   2.345   3.420   5.391
    4SOL     OW  910   1.405   0.505   0.952
    4SOL    HW1  911   1.429   0.471   0.862
    4SOL    HW2  912   1.366   0.431   1.006
    5SOL     OW  913   3.490   1.733   0.321
    5SOL    HW1  914   3.500   1.833   0.313
    5SOL    HW2  915   3.562   1.697   0.379
    6SOL     OW  916   2.809   2.178   1.856
    6SOL    HW1  917   2.860   2.227   1.927
    6SOL    HW2  918   2.766   2.244   1.794
    7SOL     OW  919   2.037   2.800   4.604
    7SOL    HW1  920   2.103   2.874   4.593
    7SOL    HW2  921   1.953   2.836   4.644
    8SOL     OW  922   1.022   1.550   6.208
    8SOL    HW1  923   1.053   1.455   6.208
    8SOL    HW2  924   1.101   1.611   6.213
    9SOL     OW  925   1.734   2.450   5.300
    9SOL    HW1  926   1.731   2.546   5.272
    9SOL    HW2  927   1.828   2.417   5.301
   10SOL     OW  928   6.100   5.039   0.832
   10SOL    HW1  929   6.106   4.977   0.754
   10SOL    HW2  930   6.187   5.037   0.882
   11SOL     OW  931   3.086   0.917   0.701
   11SOL    HW1  932   3.119   0.930   0.607
   11SOL    HW2  933   3.165   0.903   0.761
   12SOL     OW  934   5.892   4.963   1.012
   12SOL    HW1  935   5.960   4.992   0.945
   12SOL    HW2  936   5.874   4.865   1.001
   13SOL     OW  937   4.703   6.092   2.007
   13SOL    HW1  938   4.606   6.083   2.033
   13SOL    HW2  939   4.718   6.048   1.919
   14SOL     OW  940   4.738   5.584   1.496
   14SOL    HW1  941   4.838   5.576   1.493
   14SOL    HW2  942   4.696   5.497   1.472
   15SOL     OW  943   0.523   7.027   0.101
   15SOL    HW1  944   0.551   6.946   0.050
   15SOL    HW2  945   0.532   0.080   0.043
   16SOL     OW  946   2.171   4.780   5.229
   16SOL    HW1  947   2.256   4.730   5.246
   16SOL    HW2  948   2.110   4.724   5.174
   17SOL     OW  949   0.277   2.128   4.282
   17SOL    HW1  950   0.333   2.203   4.246
   17SOL    HW2  951   0.273   2.136   4.382
   18SOL     OW  952   2.770   6.901   4.934
   18SOL    HW1  953   2.683   6.931   4.974
   18SOL    HW2  954   2.839   6.973   4.948
   19SOL     OW  955   4.259   5.907   3.380
   19SOL    HW1  956   4.243   6.000   3.347
   19SOL    HW2  957   4.228   5.842   3.311
   20SOL     OW  958   6.952   1.692   4.673
   20SOL    HW1  959   7.006   1.651   4.599
   20SOL    HW2  960   7.010   1.753   4.727
   21SOL     OW  961   2.124   3.207   2.057
   21SOL    HW1  962   2.139   3.182   2.153
   21SOL    HW2  963   2.189   3.157   2.000
   22SOL     OW  964   0.163   0.225   0.415
   22SOL    HW1  965   0.191   0.307   0.465
   22SOL    HW2  966   0.244   0.181   0.375
   23SOL     OW  967   0.691   5.248   0.639
   23SOL    HW1  968   0.674   5.347   0.644
   23SOL    HW2  969   0.631   5.201   0.703
   24SOL     OW  970   4.706   1.083   5.635
   24SOL    HW1  971   4.630   1.048   5.690
   24SOL    HW2  972   4.673   1.154   5.573
   25SOL     OW  973   2.201   7.005   5.447
   25SOL    HW1  974   2.279   0.014   5.499
   25SOL    HW2  975   2.235   6.964   5.362
   26SOL     OW  976   2.551   6.622   5.531
   26SOL    HW1  977   2.543   6.657   5.624
   26SOL    HW2  978   2.575   6.525   5.534
   27SOL     OW  979   0.336   0.171   1.968
   27SOL    HW1  980   0.401   0.109   1.924
   27SOL    HW2  981   0.290   0.123   2.042
   28SOL     OW  982   2.294   0.236   5.127
   28SOL    HW1  983   2.350   0.283   5.059
   28SOL    HW2  984   2.219   0.296   5.156
   29SOL     OW  985   5.023   0.958   2.062
   29SOL    HW1  986   5.027   0.920   2.154
   29SOL    HW2  987   4.932   0.941   2.022
   30SOL     OW  988   4.308   6.616   4.836
   30SOL    HW1  989   4.224   6.662   4.807
   30SOL    HW2  990   4.286   6.526   4.874
   31SOL     OW  991   5.825   4.025   4.186
   31SOL    HW1  992   5.837   3.940   4.134
   31SOL    HW2  993   5.818   4.003   4.283
   32SOL     OW  994   3.967   1.053   1.569
   32SOL    HW1  995   3.970   0.960   1.533
   32SOL    HW2  996   3.871   1.081   1.582
   33SOL     OW  997   1.996   4.951   5.333
   33SOL    HW1  998   1.913   4.940   5.278
   33SOL    HW2  999   2.061   4.877   5.311
   34SOL     OW 1000   2.609   6.955   5.182
   34SOL    HW1 1001   2.644   7.011   5.258
   34SOL    HW2 1002   2.513   6.979   5.166
   35SOL     OW 1003   0.993   3.506   4.922
   35SOL    HW1 1004   1.072   3.502   4.861
   35SOL    HW2 1005   0.920   3.447   4.886
   36SOL     OW 1006   5.669   1.107   4.783
   36SOL    HW1 1007   5.721   1.167   4.722
   36SOL    HW2 1008   5.571   1.115   4.763
   37SOL     OW 1009   1.204   5.780   3.736
   37SOL    HW1 1010   1.158   5.792   3.648
   37SOL    HW2 1011   1.152   5.827   3.808
   38SOL     OW 1012   0.731   3.325   1.792
   38SOL    HW1 1013   0.660   3.301   1.726
   38SOL    HW2 1014   0.792   3.394   1.753
   39SOL     OW 1015   6.422   5.608   1.600
   39SOL    HW1 1016   6.353   5.537   1.614
   39SOL    HW2 1017   6.390   5.673   1.532
   40SOL     OW 1018   4.318   0.213   5.313
   40SOL    HW1 1019   4.272   0.192   5.399
   40SOL    HW2 1020   4.388   0.144   5.295
   41SOL     OW 1021   0.525   3.503   1.123
   41SOL    HW1 1022   0.449   3.468   1.068
   41SOL    HW2 1023   0.565   3.582   1.078
   42SOL     OW 1024   2.453   3.566   0.991
   42SOL    HW1 1025   2.432   3.638   1.056
   42SOL    HW2 1026   2.542   3.585   0.948
   43SOL     OW 1027   5.092   0.731   2.983
   43SOL    HW1 1028   5.138   0.698   3.065
   43SOL    HW2 1029   5.158   0.777   2.924
   44SOL     OW 1030   6.895   0.721   6.696
   44SOL    HW1 1031   6.918   0.818   6.692
   44SOL    HW2 1032   6.889   0.684   6.604
   45SOL     OW 1033   2.181   3.726   4.679
   45SOL    HW1 1034   2.132   3.719   4.592
   45SOL    HW2 1035   2.158   3.648   4.737
   46SOL     OW 1036   0.792   5.998   4.795
   46SOL    HW1 1037   0.847   6.046   4.726
   46SOL    HW2 1038   0.703   5.975   4.757
   47SOL     OW 1039   0.729   4.287   6.434
   47SOL    HW1 1040   0.762   4.196   6.412
   47SOL    HW2 1041   0.779   4.355   6.381
   48SOL     OW 1042   0.901   4.174   0.294
   48SOL    HW1 1043   0.908   4.271   0.317
   48SOL    HW2 1044   0.822   4.159   0.234
   49SOL     OW 1045   3.986   7.025   6.748
   49SOL    HW1 1046   3.967   0.089   6.781
   49SOL    HW2 1047   4.038   6.975   6.817
   50SOL     OW 1048   4.940   1.957   5.800
   50SOL    HW1 1049   4.863   1.968   5.863
   50SOL    HW2 1050   4.986   1.871   5.819
   51SOL     OW 1051   1.224   6.923   1.368
   51SOL    HW1 1052   1.138   6.882   1.398
   51SOL    HW2 1053   1.243   7.005   1.421
   52SOL     OW 1054   5.062   3.160   2.645
   52SOL    HW1 1055   5.044   3.133   2.550
   52SOL    HW2 1056   5.027   3.253   2.660
   53SOL     OW 1057   4.184   6.650   0.996
   53SOL    HW1 1058   4.280   6.679   0.995
   53SOL    HW2 1059   4.144   6.662   0.905
   54SOL     OW 1060   0.521   0.942   6.267
   54SOL    HW1 1061   0.533   1.002   6.188
   54SOL    HW2 1062   0.441   0.884   6.255
   55SOL     OW 1063   2.799   3.537   6.266
   55SOL    HW1 1064   2.714   3.531   6.319
   55SOL    HW2 1065   2.822   3.447   6.229
   56SOL     OW 1066   1.588   2.237   0.282
   56SOL    HW1 1067   1.666   2.204   0.229
   56SOL    HW2 1068   1.522   2.280   0.221
   57SOL     OW 1069   4.037   6.630   1.804
   57SOL    HW1 1070   3.992   6.548   1.841
   57SOL    HW2 1071   4.068   6.687   1.880
   58SOL     OW 1072   0.942   0.256   0.709
   58SOL    HW1 1073   1.018   0.214   0.759
   58SOL    HW2 1074   0.962   0.253   0.611
   59SOL     OW 1075   4.576   3.969   6.710
   59SOL    HW1 1076   4.588   3.920   6.796
   59SOL    HW2 1077   4.492   4.022   6.713
   60SOL     OW 1078   6.323   2.540   2.198
   60SOL    HW1 1079   6.321   2.576   2.291
   60SOL    HW2 1080   6.409   2.491   2.183
   61SOL     OW 1081   0.780   4.701   2.698
   61SOL    HW1 1082   0.734   4.734   2.780
   61SOL    HW2 1083   0.747   4.752   2.618
   62SOL     OW 1084   5.185   3.962   3.150
   62SOL    HW1 1085   5.091   3.931   3.164
   62SOL    HW2 1086   5.200   3.980   3.053
   63SOL     OW 1087   4.635   0.085   5.881
   63SOL    HW1 1088   4.728   0.084   5.844
   63SOL    HW2 1089   4.619   0.173   5.927
   64SOL     OW 1090   2.133   1.629   6.669
   64SOL    HW1 1091   2.205   1.577   6.623
   64SOL    HW2 1092   2.128   1.603   6.765
   65SOL     OW 1093   0.634   5.264   5.156
   65SOL    HW1 1094   0.687   5.342   5.191
   65SOL    HW2 1095   0.538   5.290   5.148
   66SOL     OW 1096   4.580   1.622   1.726
   66SOL    HW1 1097   4.581   1.686   1.650
   66SOL    HW2 1098   4.655   1.644   1.789
   67SOL     OW 1099   0.080   2.789   2.865
   67SOL    HW1 1100   0.096   2.873   2.916
   67SOL    HW2 1101   0.059   2.812   2.770
   68SOL     OW 1102   6.952   1.315   5.587
   68SOL    HW1 1103   6.919   1.306   5.681
   68SOL    HW2 1104   6.918   1.239   5.532
   69SOL     OW 1105   1.855   0.962   6.067
   69SOL    HW1 1106   1.925   1.027   6.095
   69SOL    HW2 1107   1.886   0.868   6.084
   70SOL     OW 1108   5.136   5.225   2.811
   70SOL    HW1 1109   5.131   5.251   2.908
   70SOL    HW2 1110   5.232   5.220   2.783
   71SOL     OW 1111   5.695   1.497   5.582
   71SOL    HW1 1112   5.650   1.522   5.497
   71SOL    HW2 1113   5.632   1.507   5.658
   72SOL     OW 1114   6.346   2.045   2.336
   72SOL    HW1 1115   6.440   2.066   2.308
   72SOL    HW2 1116   6.312   2.117   2.396
   73SOL     OW 1117   2.204   1.149   0.431
   73SOL    HW1 1118   2.141   1.128   0.506
   73SOL    HW2 1119   2.275   1.211   0.462
   74SOL     OW 1120   2.690   0.740   0.203
   74SOL    HW1 1121   2.726   0.807   0.138
   74SOL    HW2 1122   2.765   0.683   0.237
   75SOL     OW 1123   3.152   3.228   1.335
   75SOL    HW1 1124   3.078   3.204   1.272
   75SOL    HW2 1125   3.138   3.322   1.368
   76SOL     OW 1126   3.043   4.980   6.077
   76SOL    HW1 1127   2.979   4.975   6.000
   76SOL    HW2 1128   3.023   5.061   6.132
   77SOL     OW 1129   0.290   4.729   5.618
   77SOL    HW1 1130   0.211   4.668   5.625
   77SOL    HW2 1131   0.340   4.708   5.534
   78SOL     OW 1132   4.745   1.536   0.749
   78SOL    HW1 1133   4.738   1.503   0.655
   78SOL    HW2 1134   4.777   1.631   0.749
   79SOL     OW 1135   2.255   4.925   4.435
   79SOL    HW1 1136   2.284   4.898   4.526
   79SOL    HW2 1137   2.224   5.021   4.438
   80SOL     OW 1138   4.449   2.045   4.861
   80SOL    HW1 1139   4.376   2.095   4.816
   80SOL    HW2 1140   4.440   1.948   4.843
   81SOL     OW 1141   1.803   5.052   2.781
   81SOL    HW1 1142   1.790   5.134   2.725
   81SOL    HW2 1143   1.814   5.078   2.877
   82SOL     OW 1144   2.609   0.204   1.464
   82SOL    HW1 1145   2.679   0.273   1.481
   82SOL    HW2 1146   2.566   0.221   1.375
   83SOL     OW 1147   6.318   2.479   3.951
   83SOL    HW1 1148   6.329   2.426   4.035
   83SOL    HW2 1149   6.222   2.506   3.941
   84SOL     OW 1150   5.333   2.165   3.138
   84SOL    HW1 1151   5.263   2.206   3.195
   84SOL    HW2 1152   5.291   2.105   3.071
   85SOL     OW 1153   2.215   5.154   2.783
   85SOL    HW1 1154   2.152   5.226   2.752
   85SOL    HW2 1155   2.201   5.138   2.880
   86SOL     OW 1156   5.197   1.111   5.420
   86SOL    HW1 1157   5.113   1.165   5.410
   86SOL    HW2 1158   5.174   1.020   5.455
   87SOL     OW 1159   3.006   1.928   6.516
   87SOL    HW1 1160   2.977   2.013   6.470
   87SOL    HW2 1161   2.933   1.898   6.578
   88SOL     OW 1162   0.849   1.775   0.140
   88SOL    HW1 1163   0.828   1.873   0.146
   88SOL    HW2 1164   0.890   1.745   0.226
   89SOL     OW 1165   4.456   4.325   6.017
   89SOL    HW1 1166   4.500   4.238   5.991
   89SOL    HW2 1167   4.420   4.317   6.110
   90SOL     OW 1168   0.020   3.671   1.971
   90SOL    HW1 1169   7.017   3.648   1.879
   90SOL    HW2 1170   0.107   3.720   1.965
   91SOL     OW 1171   5.369   4.788   0.914
   91SOL    HW1 1172   5.459   4.832   0.920
   91SOL    HW2 1173   5.341   4.784   0.819
   92SOL     OW 1174   6.955   6.212   6.998
   92SOL    HW1 1175   6.962   6.244   0.064
   92SOL    HW2 1176   6.932   6.289   6.938
   93SOL     OW 1177   2.919   3.489   2.520
   93SOL    HW1 1178   2.952   3.423   2.453
   93SOL    HW2 1179   2.942   3.458   2.612
   94SOL     OW 1180   3.960   0.983   4.267
   94SOL    HW1 1181   4.026   0.969   4.193
   94SOL    HW2 1182   3.995   0.940   4.351
   95SOL     OW 1183   0.668   6.802   3.664
   95SOL    HW1 1184   0.759   6.761   3.668
   95SOL    HW2 1185   0.658   6.868   3.739
   96SOL     OW 1186   0.863   7.004   0.741
   96SOL    HW1 1187   0.910   6.993   0.653
   96SOL    HW2 1188   0.793   0.047   0.732
   97SOL     OW 1189   3.894   5.003   5.211
   97SOL    HW1 1190   3.919   5.100   5.210
   97SOL    HW2 1191   3.802   4.992   5.175
   98SOL     OW 1192   6.782   1.995   5.313
   98SOL    HW1 1193   6.717   1.962   5.245
   98SOL    HW2 1194   6.800   1.924   5.381
   99SOL     OW 1195   5.351   4.976   4.831
   99SOL    HW1 1196   5.325   4.983   4.735
   99SOL    HW2 1197   5.397   5.061   4.859
  100SOL     OW 1198   1.738   1.908   5.688
  100SOL    HW1 1199   1.810   1.913   5.757
  100SOL    HW2 1200   1.721   1.999   5.650
  101SOL     OW 1201   5.329   2.550   2.449
  101SOL    HW1 1202   5.277   2.614   2.393
  101SOL    HW2 1203   5.416   2.592   2.475
  102SOL     OW 1204   5.288   6.571   0.826
  102SOL    HW1 1205   5.270   6.638   0.754
  102SOL    HW2 1206   5.374   6.593   0.872
  103SOL     OW 1207   2.047   2.470   1.164
  103SOL    HW1 1208   2.067   2.487   1.068
  103SOL    HW2 1209   2.104   2.529   1.221
  104SOL     OW 1210   0.885   3.817   1.656
  104SOL    HW1 1211   0.829   3.879   1.602
  104SOL    HW2 1212   0.982   3.837   1.640
  105SOL     OW 1213   0.412   1.634   4.379
  105SOL    HW1 1214   0.462   1.556   4.415
  105SOL    HW2 1215   0.316   1.609   4.363
  106SOL     OW 1216   5.547   2.610   1.494
  106SOL    HW1 1217   5.536   2.708   1.507
  106SOL    HW2 1218   5.571   2.590   1.399
  107SOL     OW 1219   4.963   0.426   2.265
  107SOL    HW1 1220   4.881   0.454   2.216
  107SOL    HW2 1221   4.961   0.327   2.281
  108SOL     OW 1222   4.150   0.980   4.760
  108SOL    HW1 1223   4.222   0.946   4.820
  108SOL    HW2 1224   4.070   1.005   4.815
  109SOL     OW 1225   2.355   1.503   3.875
  109SOL    HW1 1226   2.318   1.593   3.898
  109SOL    HW2 1227   2.307   1.433   3.928
  110SOL     OW 1228   4.510   4.609   5.364
  110SOL    HW1 1229   4.459   4.694   5.374
  110SOL    HW2 1230   4.535   4.574   5.454
  111SOL     OW 1231   6.849   3.635   0.001
  111SOL    HW1 1232   6.811   3.566   6.968
  111SOL    HW2 1233   6.915   3.592   0.062
  112SOL     OW 1234   3.758   6.050   5.235
  112SOL    HW1 1235   3.659   6.053   5.222
  112SOL    HW2 1236   3.781   6.087   5.325
  113SOL     OW 1237   1.265   4.679   2.445
  113SOL    HW1 1238   1.235   4.674   2.350
  113SOL    HW2 1239   1.186   4.690   2.505
  114SOL     OW 1240   6.158   1.584   1.651
  114SOL    HW1 1241   6.140   1.555   1.745
  114SOL    HW2 1242   6.107   1.526   1.588
  115SOL     OW 1243   4.530   0.181   3.128
  115SOL    HW1 1244   4.468   0.239   3.180
  115SOL    HW2 1245   4.589   0.130   3.191
  116SOL     OW 1246   5.870   5.703   6.441
  116SOL    HW1 1247   5.924   5.725   6.522
  116SOL    HW2 1248   5.837   5.609   6.447
  117SOL     OW 1249   1.534   1.574   0.276
  117SOL    HW1 1250   1.477   1.657   0.281
  117SOL    HW2 1251   1.556   1.555   0.181
  118SOL     OW 1252   1.024   2.739   1.690
  118SOL    HW1 1253   1.035   2.643   1.667
  118SOL    HW2 1254   0.927   2.763   1.684
  119SOL     OW 1255   4.936   5.112   3.989
  119SOL    HW1 1256   4.868   5.171   4.032
  119SOL    HW2 1257   5.007   5.090   4.056
  120SOL     OW 1258   5.109   1.175   4.128
  120SOL    HW1 1259   5.044   1.246   4.100
  120SOL    HW2 1260   5.170   1.154   4.051
  121SOL     OW 1261   6.490   5.214   6.085
  121SOL    HW1 1262   6.578   5.167   6.075
  121SOL    HW2 1263   6.457   5.243   5.996
  122SOL     OW 1264   0.431   5.694   5.627
  122SOL    HW1 1265   0.484   5.740   5.557
  122SOL    HW2 1266   0.349   5.655   5.586
  123SOL     OW 1267   0.940   1.830   1.145
  123SOL    HW1 1268   0.920   1.871   1.055
  123SOL    HW2 1269   0.881   1.871   1.214
  124SOL     OW 1270   1.631   3.398   6.948
  124SOL    HW1 1271   1.678   3.485   6.960
  124SOL    HW2 1272   1.587   3.397   6.858
  125SOL     OW 1273   4.149   3.290   2.210
  125SOL    HW1 1274   4.149   3.362   2.279
  125SOL    HW2 1275   4.208   3.316   2.133
  126SOL     OW 1276   3.465   3.353   5.271
  126SOL    HW1 1277   3.487   3.295   5.350
  126SOL    HW2 1278   3.394   3.418   5.295
  127SOL     OW 1279   0.242   4.832   6.193
  127SOL    HW1 1280   0.283   4.806   6.106
  127SOL    HW2 1281   0.288   4.783   6.267
  128SOL     OW 1282   4.882   4.225   6.366
  128SOL    HW1 1283   4.847   4.202   6.275
  128SOL    HW2 1284   4.832   4.302   6.403
  129SOL     OW 1285   1.075   4.964   2.961
  129SOL    HW1 1286   1.094   4.917   3.047
  129SOL    HW2 1287   1.116   4.912   2.886
  130SOL     OW 1288   6.481   4.298   4.930
  130SOL    HW1 1289   6.439   4.259   5.012
  130SOL    HW2 1290   6.424   4.373   4.896
  131SOL     OW 1291   0.407   2.867   1.526
  131SOL    HW1 1292   0.488   2.846   1.472
  131SOL    HW2 1293   0.408   2.813   1.610
  132SOL     OW 1294   3.526   3.895   1.965
  132SOL    HW1 1295   3.545   3.913   2.061
  132SOL    HW2 1296   3.503   3.798   1.954
  133SOL     OW 1297   4.790   4.514   6.286
  133SOL    HW1 1298   4.776   4.510   6.385
  133SOL    HW2 1299   4.849   4.592   6.264
  134SOL     OW 1300   0.553   1.833   6.749
  134SOL    HW1 1301   0.462   1.875   6.757
  134SOL    HW2 1302   0.550   1.741   6.787
  135SOL     OW 1303   4.222   5.100   3.965
  135SOL    HW1 1304   4.274   5.015   3.958
  135SOL    HW2 1305   4.219   5.129   4.060
  136SOL     OW 1306   3.338   6.605   6.877
  136SOL    HW1 1307   3.246   6.622   6.912
  136SOL    HW2 1308   3.398   6.580   6.953
  137SOL     OW 1309   1.544   4.471   0.218
  137SOL    HW1 1310   1.639   4.483   0.188
  137SOL    HW2 1311   1.533   4.509   0.310
  138SOL     OW 1312   0.173   6.759   1.981
  138SOL    HW1 1313   0.156   6.764   2.080
  138SOL    HW2 1314   0.148   6.668   1.948
  139SOL     OW 1315   1.343   0.319   1.145
  139SOL    HW1 1316   1.303   0.267   1.070
  139SOL    HW2 1317   1.292   0.301   1.230
  140SOL     OW 1318   2.625   0.349   3.143
  140SOL    HW1 1319   2.594   0.351   3.048
  140SOL    HW2 1320   2.725   0.342   3.145
  141SOL     OW 1321   2.353   2.529   0.938
  141SOL    HW1 1322   2.339   2.533   0.839
  141SOL    HW2 1323   2.298   2.454   0.976
  142SOL     OW 1324   1.424   4.529   6.300
  142SOL    HW1 1325   1.354   4.574   6.244
  142SOL    HW2 1326   1.421   4.566   6.393
  143SOL     OW 1327   4.206   6.174   2.242
  143SOL    HW1 1328   4.305   6.171   2.233
  143SOL    HW2 1329   4.163   6.128   2.164
  144SOL     OW 1330   2.390   4.829   3.190
  144SOL    HW1 1331   2.487   4.830   3.167
  144SOL    HW2 1332   2.347   4.749   3.148
  145SOL     OW 1333   6.142   6.660   2.175
  145SOL    HW1 1334   6.086   6.743   2.179
  145SOL    HW2 1335   6.138   6.622   2.083
  146SOL     OW 1336   6.184   1.360   4.543
  146SOL    HW1 1337   6.217   1.272   4.510
  146SOL    HW2 1338   6.112   1.394   4.482
  147SOL     OW 1339   5.945   6.273   5.639
  147SOL    HW1 1340   6.012   6.300   5.708
  147SOL    HW2 1341   5.955   6.330   5.558
  148SOL     OW 1342   2.662   0.380   3.743
  148SOL    HW1 1343   2.685   0.467   3.788
  148SOL    HW2 1344   2.657   0.395   3.644
  149SOL     OW 1345   2.139   1.785   5.472
  149SOL    HW1 1346   2.106   1.828   5.557
  149SOL    HW2 1347   2.079   1.812   5.397
  150SOL     OW 1348   5.201   3.448   3.953
  150SOL    HW1 1349   5.245   3.484   4.034
  150SOL    HW2 1350   5.104   3.431   3.972
  151SOL     OW 1351   6.369   2.757   1.744
  151SOL    HW1 1352   6.375   2.736   1.647
  151SOL    HW2 1353   6.368   2.856   1.757
  152SOL     OW 1354   6.206   1.268   0.258
  152SOL    HW1 1355   6.260   1.250   0.176
  152SOL    HW2 1356   6.225   1.360   0.291
  153SOL     OW 1357   1.644   1.664   3.695
  153SOL    HW1 1358   1.565   1.671   3.757
  153SOL    HW2 1359   1.617   1.613   3.613
  154SOL     OW 1360   0.122   1.913   3.303
  154SOL    HW1 1361   0.187   1.983   3.273
  154SOL    HW2 1362   0.117   1.913   3.403
  155SOL     OW 1363   6.067   5.495   3.416
  155SOL    HW1 1364   6.098   5.494   3.321
  155SOL    HW2 1365   5.989   5.433   3.426
  156SOL     OW 1366   4.103   6.929   0.706
  156SOL    HW1 1367   4.060   6.839   0.717
  156SOL    HW2 1368   4.108   6.974   0.795
  157SOL     OW 1369   5.789   1.723   0.578
  157SOL    HW1 1370   5.882   1.691   0.564
  157SOL    HW2 1371   5.724   1.656   0.542
  158SOL     OW 1372   1.121   2.617   5.429
  158SOL    HW1 1373   1.022   2.627   5.439
  158SOL    HW2 1374   1.163   2.707   5.417
  159SOL     OW 1375   0.256   4.900   6.830
  159SOL    HW1 1376   0.309   4.967   6.777
  159SOL    HW2 1377   0.317   4.849   6.890
  160SOL     OW 1378   4.410   0.193   1.739
  160SOL    HW1 1379   4.367   0.168   1.826
  160SOL    HW2 1380   4.411   0.113   1.679
  161SOL     OW 1381   5.317   6.604   1.264
  161SOL    HW1 1382   5.340   6.701   1.251
  161SOL    HW2 1383   5.256   6.574   1.191
  162SOL     OW 1384   4.121   0.283   5.080
  162SOL    HW1 1385   4.154   0.242   5.165
  162SOL    HW2 1386   4.027   0.314   5.093
  163SOL     OW 1387   1.572   4.229   3.156
  163SOL    HW1 1388   1.569   4.320   3.197
  163SOL    HW2 1389   1.667   4.200   3.144
  164SOL     OW 1390   1.813   3.155   2.329
  164SOL    HW1 1391   1.788   3.222   2.400
  164SOL    HW2 1392   1.912   3.150   2.322
  165SOL     OW 1393   0.159   6.091   4.853
  165SOL    HW1 1394   0.154   6.078   4.754
  165SOL    HW2 1395   0.069   6.081   4.893
  166SOL     OW 1396   0.466   5.523   4.355
  166SOL    HW1 1397   0.551   5.477   4.381
  166SOL    HW2 1398   0.390   5.486   4.409
  167SOL     OW 1399   0.169   1.410   3.204
  167SOL    HW1 1400   0.211   1.413   3.295
  167SOL    HW2 1401   0.135   1.318   3.186
  168SOL     OW 1402   3.362   4.105   4.871
  168SOL    HW1 1403   3.272   4.097   4.915
  168SOL    HW2 1404   3.351   4.146   4.781
  169SOL     OW 1405   4.580   3.106   5.985
  169SOL    HW1 1406   4.529   3.108   6.071
  169SOL    HW2 1407   4.582   3.012   5.950
  170SOL     OW 1408   6.021   5.222   3.107
  170SOL    HW1 1409   5.933   5.214   3.154
  170SOL    HW2 1410   6.015   5.180   3.017
  171SOL     OW 1411   3.431   2.869   1.080
  171SOL    HW1 1412   3.515   2.816   1.093
  171SOL    HW2 1413   3.434   2.951   1.136
  172SOL     OW 1414   1.837   0.415   0.302
  172SOL    HW1 1415   1.898   0.492   0.281
  172SOL    HW2 1416   1.796   0.428   0.392
  173SOL     OW 1417   5.626   0.877   4.968
  173SOL    HW1 1418   5.658   0.941   4.899
  173SOL    HW2 1419   5.549   0.824   4.931
  174SOL     OW 1420   6.554   5.409   3.753
  174SOL    HW1 1421   6.497   5.464   3.814
  174SOL    HW2 1422   6.628   5.367   3.805
  175SOL     OW 1423   0.263   5.628   1.790
  175SOL    HW1 1424   0.354   5.667   1.797
  175SOL    HW2 1425   0.203   5.672   1.857
  176SOL     OW 1426   5.413   3.516   0.873
  176SOL    HW1 1427   5.338   3.525   0.939
  176SOL    HW2 1428   5.469   3.438   0.898
  177SOL     OW 1429   5.586   2.571   3.995
  177SOL    HW1 1430   5.630   2.625   3.924
  177SOL    HW2 1431   5.487   2.573   3.982
  178SOL     OW 1432   1.030   5.001   4.612
  178SOL    HW1 1433   1.004   5.061   4.536
  178SOL    HW2 1434   1.084   4.925   4.577
  179SOL     OW 1435   3.140   4.059   1.717
  179SOL    HW1 1436   3.223   4.072   1.663
  179SOL    HW2 1437   3.080   4.139   1.705
  180SOL     OW 1438   5.564   0.304   5.342
  180SOL    HW1 1439   5.598   0.398   5.331
  180SOL    HW2 1440   5.604   0.264   5.424
  181SOL     OW 1441   2.785   5.774   5.743
  181SOL    HW1 1442   2.706   5.792   5.685
  181SOL    HW2 1443   2.780   5.829   5.826
  182SOL     OW 1444   3.303   2.682   5.317
  182SOL    HW1 1445   3.222   2.725   5.357
  182SOL    HW2 1446   3.276   2.596   5.273
  183SOL     OW 1447   1.884   0.595   2.793
  183SOL    HW1 1448   1.938   0.589   2.709
  183SOL    HW2 1449   1.861   0.690   2.812
  184SOL     OW 1450   5.673   6.629   3.848
  184SOL    HW1 1451   5.769   6.656   3.838
  184SOL    HW2 1452   5.628   6.691   3.913
  185SOL     OW 1453   0.380   6.100   5.043
  185SOL    HW1 1454   0.465   6.137   5.005
  185SOL    HW2 1455   0.308   6.107   4.974
  186SOL     OW 1456   3.370   4.735   0.262
  186SOL    HW1 1457   3.418   4.748   0.349
  186SOL    HW2 1458   3.275   4.764   0.272
  187SOL     OW 1459   3.657   5.514   0.165
  187SOL    HW1 1460   3.708   5.436   0.128
  187SOL    HW2 1461   3.635   5.577   0.091
  188SOL     OW 1462   1.273   4.160   3.374
  188SOL    HW1 1463   1.292   4.078   3.429
  188SOL    HW2 1464   1.326   4.156   3.289
  189SOL     OW 1465   6.847   3.759   5.726
  189SOL    HW1 1466   6.830   3.683   5.663
  189SOL    HW2 1467   6.807   3.843   5.690
  190SOL     OW 1468   6.245   6.194   0.068
  190SOL    HW1 1469   6.258   6.240   0.156
  190SOL    HW2 1470   6.165   6.232   0.022
  191SOL     OW 1471   1.830   3.923   6.624
  191SOL    HW1 1472   1.927   3.927   6.644
  191SOL    HW2 1473   1.778   3.919   6.710
  192SOL     OW 1474   1.081   6.548   0.120
  192SOL    HW1 1475   1.022   6.629   0.127
  192SOL    HW2 1476   1.076   6.512   0.027
  193SOL     OW 1477   2.893   0.138   1.914
  193SOL    HW1 1478   2.863   0.055   1.867
  193SOL    HW2 1479   2.835   0.152   1.995
  194SOL     OW 1480   4.587   6.932   3.214
  194SOL    HW1 1481   4.531   6.891   3.142
  194SOL    HW2 1482   4.553   6.902   3.303
  195SOL     OW 1483   3.334   0.644   1.362
  195SOL    HW1 1484   3.279   0.726   1.376
  195SOL    HW2 1485   3.401   0.635   1.435
  196SOL     OW 1486   3.723   2.972   1.450
  196SOL    HW1 1487   3.651   2.906   1.468
  196SOL    HW2 1488   3.748   3.019   1.535
  197SOL     OW 1489   0.809   6.504   1.268
  197SOL    HW1 1490   0.738   6.568   1.296
  197SOL    HW2 1491   0.794   6.477   1.173
  198SOL     OW 1492   6.347   0.797   5.024
  198SOL    HW1 1493   6.368   0.699   5.016
  198SOL    HW2 1494   6.431   0.848   5.040
  199SOL     OW 1495   1.325   0.012   3.252
  199SOL    HW1 1496   1.317   0.111   3.258
  199SOL    HW2 1497   1.398   7.016   3.187
  200SOL     OW 1498   2.001   3.117   3.084
  200SOL    HW1 1499   1.962   3.167   3.006
  200SOL    HW2 1500   2.069   3.175   3.129
  201SOL     OW 1501   5.585   1.087   6.936
  201SOL    HW1 1502   5.632   1.136   7.009
  201SOL    HW2 1503   5.534   1.152   6.880
  202SOL     OW 1504   3.614   0.479   2.599
  202SOL    HW1 1505   3.556   0.442   2.671
  202SOL    HW2 1506   3.704   0.502   2.637
  203SOL     OW 1507   5.632   2.443   1.692
  203SOL    HW1 1508   5.643   2.534   1.653
  203SOL    HW2 1509   5.553   2.398   1.650
  204SOL     OW 1510   2.642   5.895   0.949
  204SOL    HW1 1511   2.618   5.943   1.034
  204SOL    HW2 1512   2.621   5.954   0.871
  205SOL     OW 1513   5.074   0.839   0.081
  205SOL    HW1 1514   5.059   0.906   0.008
  205SOL    HW2 1515   5.114   0.884   0.161
  206SOL     OW 1516   0.384   5.437   2.020
  206SOL    HW1 1517   0.327   5.462   2.098
  206SOL    HW2 1518   0.352   5.485   1.938
  207SOL     OW 1519   6.769   2.811   5.884
  207SOL    HW1 1520   6.857   2.859   5.888
  207SOL    HW2 1521   6.696   2.878   5.876
  208SOL     OW 1522   4.953   3.854   1.101
  208SOL    HW1 1523   4.941   3.933   1.040
  208SOL    HW2 1524   4.877   3.790   1.088
  209SOL     OW 1525   6.207   1.017   3.831
  209SOL    HW1 1526   6.243   1.084   3.767
  209SOL    HW2 1527   6.157   1.064   3.904
  210SOL     OW 1528   5.262   3.196   0.111
  210SOL    HW1 1529   5.360   3.175   0.110
  210SOL    HW2 1530   5.243   3.261   0.184
  211SOL     OW 1531   0.136   4.794   2.307
  211SOL    HW1 1532   0.054   4.770   2.359
  211SOL    HW2 1533   0.178   4.875   2.347
  212SOL     OW 1534   0.630   5.260   5.587
  212SOL    HW1 1535   0.723   5.272   5.551
  212SOL    HW2 1536   0.564   5.277   5.514
  213SOL     OW 1537   4.769   2.216   1.719
  213SOL    HW1 1538   4.803   2.184   1.631
  213SOL    HW2 1539   4.846   2.254   1.772
  214SOL     OW 1540   6.962   5.606   3.759
  214SOL    HW1 1541   6.876   5.642   3.723
  214SOL    HW2 1542   6.960   5.506   3.757
  215SOL     OW 1543   3.537   2.883   3.452
  215SOL    HW1 1544   3.518   2.981   3.448
  215SOL    HW2 1545   3.488   2.837   3.378
  216SOL     OW 1546   4.241   6.741   4.557
  216SOL    HW1 1547   4.315   6.798   4.523
  216SOL    HW2 1548   4.276   6.651   4.582
  217SOL     OW 1549   6.254   2.049   4.621
  217SOL    HW1 1550   6.227   2.082   4.711
  217SOL    HW2 1551   6.278   1.952   4.627
  218SOL     OW 1552   2.492   4.912   5.561
  218SOL    HW1 1553   2.579   4.960   5.544
  218SOL    HW2 1554   2.498   4.819   5.525
  219SOL     OW 1555   3.431   6.848   0.023
  219SOL    HW1 1556   3.344   6.849   7.002
  219SOL    HW2 1557   3.427   6.782   0.097
  220SOL     OW 1558   1.510   4.463   0.558
  220SOL    HW1 1559   1.501   4.387   0.623
  220SOL    HW2 1560   1.420   4.502   0.540
  221SOL     OW 1561   6.047   4.293   4.443
  221SOL    HW1 1562   6.068   4.226   4.372
  221SOL    HW2 1563   6.032   4.383   4.401
  222SOL     OW 1564   0.899   0.555   4.968
  222SOL    HW1 1565   0.901   0.524   5.063
  222SOL    HW2 1566   0.960   0.499   4.912
  223SOL     OW 1567   5.760   6.246   1.912
  223SOL    HW1 1568   5.795   6.159   1.877
  223SOL    HW2 1569   5.808   6.269   1.997
  224SOL     OW 1570   5.409   4.199   2.255
  224SOL    HW1 1571   5.488   4.229   2.201
  224SOL    HW2 1572   5.374   4.276   2.309
  225SOL     OW 1573   4.556   5.947   0.926
  225SOL    HW1 1574   4.622   5.883   0.966
  225SOL    HW2 1575   4.478   5.896   0.889
  226SOL     OW 1576   1.314   5.507   3.255
  226SOL    HW1 1577   1.315   5.407   3.259
  226SOL    HW2 1578   1.234   5.537   3.202
  227SOL     OW 1579   1.233   3.556   3.212
  227SOL    HW1 1580   1.233   3.542   3.113
  227SOL    HW2 1581   1.326   3.547   3.247
  228SOL     OW 1582   3.679   5.644   3.384
  228SOL    HW1 1583   3.585   5.653   3.417
  228SOL    HW2 1584   3.711   5.551   3.398
  229SOL     OW 1585   5.695   0.143   2.142
  229SOL    HW1 1586   5.651   0.119   2.229
  229SOL    HW2 1587   5.636   0.114   2.066
  230SOL     OW 1588   1.266   4.584   4.678
  230SOL    HW1 1589   1.196   4.611   4.744
  230SOL    HW2 1590   1.346   4.549   4.727
  231SOL     OW 1591   7.023   2.575   6.794
  231SOL    HW1 1592   0.049   2.586   6.711
  231SOL    HW2 1593   6.996   2.665   6.828
  232SOL     OW 1594   2.224   3.028   0.240
  232SOL    HW1 1595   2.287   2.990   0.307
  232SOL    HW2 1596   2.137   3.049   0.284
  233SOL     OW 1597   3.405   0.201   0.677
  233SOL    HW1 1598   3.326   0.231   0.623
  233SOL    HW2 1599   3.383   0.208   0.774
  234SOL     OW 1600   2.093   5.478   0.645
  234SOL    HW1 1601   2.070   5.481   0.547
  234SOL    HW2 1602   2.019   5.518   0.698
  235SOL     OW 1603   4.384   2.886   5.370
  235SOL    HW1 1604   4.440   2.967   5.350
  235SOL    HW2 1605   4.419   2.808   5.319
  236SOL     OW 1606   0.179   6.613   6.759
  236SOL    HW1 1607   0.145   6.565   6.839
  236SOL    HW2 1608   0.117   6.598   6.682
  237SOL     OW 1609   5.889   0.415   2.845
  237SOL    HW1 1610   5.856   0.504   2.813
  237SOL    HW2 1611   5.988   0.419   2.857
  238SOL     OW 1612   0.431   1.757   3.297
  238SOL    HW1 1613   0.460   1.850   3.276
  238SOL    HW2 1614   0.435   1.702   3.213
  239SOL     OW 1615   6.466   4.837   6.190
  239SOL    HW1 1616   6.408   4.824   6.109
  239SOL    HW2 1617   6.411   4.873   6.265
  240SOL     OW 1618   0.182   3.078   4.227
  240SOL    HW1 1619   0.258   3.117   4.176
  240SOL    HW2 1620   0.108   3.054   4.164
  241SOL     OW 1621   6.142   2.558   4.265
  241SOL    HW1 1622   6.201   2.639   4.263
  241SOL    HW2 1623   6.051   2.583   4.232
  242SOL     OW 1624   1.737   2.179   2.782
  242SOL    HW1 1625   1.754   2.131   2.869
  242SOL    HW2 1626   1.756   2.117   2.706
  243SOL     OW 1627   5.556   1.277   6.739
  243SOL    HW1 1628   5.622   1.331   6.792
  243SOL    HW2 1629   5.591   1.264   6.647
  244SOL     OW 1630   1.734   0.703   5.827
  244SOL    HW1 1631   1.736   0.801   5.842
  244SOL    HW2 1632   1.718   0.684   5.730
  245SOL     OW 1633   4.870   1.926   4.658
  245SOL    HW1 1634   4.832   2.019   4.650
  245SOL    HW2 1635   4.945   1.927   4.724
  246SOL     OW 1636   5.007   4.254   4.530
  246SOL    HW1 1637   5.070   4.191   4.486
  246SOL    HW2 1638   4.943   4.290   4.462
  247SOL     OW 1639   1.283   0.379   2.672
  247SOL    HW1 1640   1.367   0.432   2.661
  247SOL    HW2 1641   1.227   0.420   2.745
  248SOL     OW 1642   6.888   3.357   3.312
  248SOL    HW1 1643   6.934   3.268   3.310
  248SOL    HW2 1644   6.832   3.364   3.394
  249SOL     OW 1645   1.922   6.512   4.538
  249SOL    HW1 1646   1.870   6.594   4.561
  249SOL    HW2 1647   1.882   6.468   4.458
  250SOL     OW 1648   5.830   2.460   0.664
  250SOL    HW1 1649   5.813   2.552   0.629
  250SOL    HW2 1650   5.928   2.445   0.673
  251SOL     OW 1651   2.133   0.082   2.546
  251SOL    HW1 1652   2.066   0.144   2.588
  251SOL    HW2 1653   2.113   7.016   2.573
  252SOL     OW 1654   6.583   3.343   6.666
  252SOL    HW1 1655   6.531   3.365   6.584
  252SOL    HW2 1656   6.616   3.249   6.661
  253SOL     OW 1657   2.004   4.819   5.605
  253SOL    HW1 1658   1.985   4.826   5.507
  253SOL    HW2 1659   2.078   4.754   5.621
  254SOL     OW 1660   5.269   3.613   0.031
  254SOL    HW1 1661   5.256   3.712   0.035
  254SOL    HW2 1662   5.353   3.588   0.080
  255SOL     OW 1663   4.276   2.351   2.246
  255SOL    HW1 1664   4.208   2.385   2.311
  255SOL    HW2 1665   4.245   2.264   2.207
  256SOL     OW 1666   0.251   6.341   0.818
  256SOL    HW1 1667   0.173   6.280   0.836
  256SOL    HW2 1668   0.217   6.427   0.780
  257SOL     OW 1669   2.482   6.243   6.776
  257SOL    HW1 1670   2.462   6.169   6.840
  257SOL    HW2 1671   2.405   6.307   6.774
  258SOL     OW 1672   5.048   5.018   3.699
  258SOL    HW1 1673   5.004   5.040   3.786
  258SOL    HW2 1674   4.992   5.051   3.623
  259SOL     OW 1675   6.042   1.779   1.931
  259SOL    HW1 1676   6.022   1.693   1.978
  259SOL    HW2 1677   6.112   1.829   1.983
  260SOL     OW 1678   6.413   6.708   6.212
  260SOL    HW1 1679   6.324   6.713   6.257
  260SOL    HW2 1680   6.483   6.747   6.272
  261SOL     OW 1681   6.555   1.189   2.972
  261SOL    HW1 1682   6.559   1.174   2.873
  261SOL    HW2 1683   6.541   1.287   2.990
  262SOL     OW 1684   1.529   5.605   0.785
  262SOL    HW1 1685   1.466   5.679   0.809
  262SOL    HW2 1686   1.482   5.517   0.794
  263SOL     OW 1687   0.872   4.561   5.072
  263SOL    HW1 1688   0.870   4.655   5.105
  263SOL    HW2 1689   0.785   4.539   5.028
  264SOL     OW 1690   4.356   4.648   0.481
  264SOL    HW1 1691   4.272   4.682   0.440
  264SOL    HW2 1692   4.400   4.583   0.418
  265SOL     OW 1693   4.036   5.367   4.671
  265SOL    HW1 1694   4.035   5.433   4.595
  265SOL    HW2 1695   3.954   5.311   4.667
  266SOL     OW 1696   4.780   3.569   6.792
  266SOL    HW1 1697   4.793   3.572   6.693
  266SOL    HW2 1698   4.709   3.634   6.818
  267SOL     OW 1699   3.109   1.699   6.435
  267SOL    HW1 1700   3.078   1.790   6.461
  267SOL    HW2 1701   3.183   1.707   6.368
  268SOL     OW 1702   1.497   4.276   2.851
  268SOL    HW1 1703   1.586   4.318   2.870
  268SOL    HW2 1704   1.480   4.204   2.918
  269SOL     OW 1705   3.349   1.188   5.252
  269SOL    HW1 1706   3.298   1.114   5.208
  269SOL    HW2 1707   3.435   1.203   5.203
  270SOL     OW 1708   5.000   5.823   4.648
  270SOL    HW1 1709   4.972   5.918   4.664
  270SOL    HW2 1710   5.081   5.822   4.590
  271SOL     OW 1711   2.443   0.809   0.116
  271SOL    HW1 1712   2.521   0.789   0.176
  271SOL    HW2 1713   2.457   0.766   0.027
  272SOL     OW 1714   5.754   4.023   6.969
  272SOL    HW1 1715   5.815   3.966   6.915
  272SOL    HW2 1716   5.799   4.110   6.991
  273SOL     OW 1717   0.516   5.777   4.271
  273SOL    HW1 1718   0.582   5.772   4.196
  273SOL    HW2 1719   0.484   5.685   4.293
  274SOL     OW 1720   5.161   2.904   2.646
  274SOL    HW1 1721   5.123   2.996   2.655
  274SOL    HW2 1722   5.248   2.899   2.694
  275SOL     OW 1723   5.634   4.979   5.807
  275SOL    HW1 1724   5.691   5.061   5.808
  275SOL    HW2 1725   5.595   4.963   5.898
  276SOL     OW 1726   0.416   0.126   4.887
  276SOL    HW1 1727   0.394   0.054   4.820
  276SOL    HW2 1728   0.454   0.205   4.838
  277SOL     OW 1729   3.822   3.543   5.955
  277SOL    HW1 1730   3.862   3.615   5.897
  277SOL    HW2 1731   3.724   3.537   5.936
  278SOL     OW 1732   6.116   5.174   2.176
  278SOL    HW1 1733   6.179   5.230   2.230
  278SOL    HW2 1734   6.064   5.233   2.115
  279SOL     OW 1735   6.667   3.349   4.127
  279SOL    HW1 1736   6.658   3.390   4.036
  279SOL    HW2 1737   6.747   3.388   4.173
  280SOL     OW 1738   4.243   1.004   2.435
  280SOL    HW1 1739   4.262   0.908   2.414
  280SOL    HW2 1740   4.269   1.022   2.530
  281SOL     OW 1741   5.072   5.355   6.242
  281SOL    HW1 1742   5.050   5.323   6.335
  281SOL    HW2 1743   5.044   5.286   6.176
  282SOL     OW 1744   0.487   1.192   0.065
  282SOL    HW1 1745   0.563   1.236   0.113
  282SOL    HW2 1746   0.522   1.130   7.024
  283SOL     OW 1747   6.322   3.803   2.849
  283SOL    HW1 1748   6.395   3.871   2.854
  283SOL    HW2 1749   6.247   3.839   2.793
  284SOL     OW 1750   5.605   7.018   2.508
  284SOL    HW1 1751   5.582   6.978   2.596
  284SOL    HW2 1752   5.648   0.079   2.522
  285SOL     OW 1753   5.473   6.007   6.447
  285SOL    HW1 1754   5.456   6.094   6.493
  285SOL    HW2 1755   5.478   5.933   6.515
  286SOL     OW 1756   3.160   5.897   5.543
  286SOL    HW1 1757   3.229   5.938   5.602
  286SOL    HW2 1758   3.114   5.823   5.591
  287SOL     OW 1759   4.705   6.773   0.653
  287SOL    HW1 1760   4.770   6.818   0.592
  287SOL    HW2 1761   4.734   6.679   0.669
  288SOL     OW 1762   3.255   0.681   0.328
  288SOL    HW1 1763   3.333   0.618   0.330
  288SOL    HW2 1764   3.170   0.630   0.318
  289SOL     OW 1765   5.964   5.054   4.666
  289SOL    HW1 1766   5.938   5.057   4.762
  289SOL    HW2 1767   6.031   4.981   4.652
  290SOL     OW 1768   2.890   1.409   4.987
  290SOL    HW1 1769   2.794   1.398   5.012
  290SOL    HW2 1770   2.896   1.442   4.892
  291SOL     OW 1771   5.877   1.370   4.760
  291SOL    HW1 1772   5.958   1.379   4.703
  291SOL    HW2 1773   5.812   1.443   4.737
  292SOL     OW 1774   2.778   0.577   4.724
  292SOL    HW1 1775   2.850   0.547   4.662
  292SOL    HW2 1776   2.818   0.605   4.811
  293SOL     OW 1777   5.635   0.744   3.176
  293SOL    HW1 1778   5.570   0.819   3.184
  293SOL    HW2 1779   5.727   0.780   3.163
  294SOL     OW 1780   6.722   0.847   6.075
  294SOL    HW1 1781   6.697   0.925   6.017
  294SOL    HW2 1782   6.810   0.810   6.045
  295SOL     OW 1783   0.538   0.489   5.322
  295SOL    HW1 1784   0.609   0.421   5.342
  295SOL    HW2 1785   0.573   0.580   5.344
  296SOL     OW 1786   6.873   1.446   6.621
  296SOL    HW1 1787   6.966   1.482   6.630
  296SOL    HW2 1788   6.829   1.486   6.541
  297SOL     OW 1789   5.015   4.360   3.061
  297SOL    HW1 1790   4.940   4.365   3.127
  297SOL    HW2 1791   5.022   4.267   3.025
  298SOL     OW 1792   4.455   5.996   5.323
  298SOL    HW1 1793   4.396   6.019   5.245
  298SOL    HW2 1794   4.476   6.080   5.374
  299SOL     OW 1795   6.752   1.570   6.404
  299SOL    HW1 1796   6.756   1.670   6.395
  299SOL    HW2 1797   6.787   1.527   6.320
  300SOL     OW 1798   4.415   6.502   4.618
  300SOL    HW1 1799   4.512   6.479   4.614
  300SOL    HW2 1800   4.386   6.510   4.713
  301SOL     OW 1801   6.960   6.285   5.795
  301SOL    HW1 1802   6.974   6.368   5.742
  301SOL    HW2 1803   7.000   6.207   5.746
  302SOL     OW 1804   0.888   5.916   2.376
  302SOL    HW1 1805   0.967   5.867   2.413
  302SOL    HW2 1806   0.820   5.850   2.345
  303SOL     OW 1807   4.357   5.352   2.261
  303SOL    HW1 1808   4.415   5.431   2.279
  303SOL    HW2 1809   4.406   5.288   2.202
  304SOL     OW 1810   1.671   1.105   5.249
  304SOL    HW1 1811   1.677   1.045   5.329
  304SOL    HW2 1812   1.582   1.151   5.249
  305SOL     OW 1813   3.452   1.306   1.133
  305SOL    HW1 1814   3.432   1.309   1.035
  305SOL    HW2 1815   3.488   1.394   1.163
  306SOL     OW 1816   0.329   6.515   2.166
  306SOL    HW1 1817   0.383   6.596   2.140
  306SOL    HW2 1818   0.333   6.447   2.093
  307SOL     OW 1819   3.573   2.944   4.523
  307SOL    HW1 1820   3.614   3.032   4.498
  307SOL    HW2 1821   3.500   2.960   4.590
  308SOL     OW 1822   6.471   2.894   0.272
  308SOL    HW1 1823   6.391   2.895   0.212
  308SOL    HW2 1824   6.535   2.964   0.243
  309SOL     OW 1825   1.993   5.536   0.377
  309SOL    HW1 1826   1.908   5.491   0.405
  309SOL    HW2 1827   1.972   5.610   0.314
  310SOL     OW 1828   4.203   6.164   5.359
  310SOL    HW1 1829   4.211   6.133   5.454
  310SOL    HW2 1830   4.241   6.094   5.298
  311SOL     OW 1831   1.865   5.680   2.195
  311SOL    HW1 1832   1.805   5.760   2.205
  311SOL    HW2 1833   1.892   5.646   2.285
  312SOL     OW 1834   3.271   0.284   4.789
  312SOL    HW1 1835   3.359   0.241   4.808
  312SOL    HW2 1836   3.202   0.213   4.775
  313SOL     OW 1837   3.140   4.082   3.477
  313SOL    HW1 1838   3.088   3.999   3.498
  313SOL    HW2 1839   3.117   4.153   3.544
  314SOL     OW 1840   1.807   4.444   6.209
  314SOL    HW1 1841   1.777   4.349   6.218
  314SOL    HW2 1842   1.776   4.480   6.121
  315SOL     OW 1843   5.869   0.416   3.838
  315SOL    HW1 1844   5.885   0.511   3.866
  315SOL    HW2 1845   5.782   0.410   3.790
  316SOL     OW 1846   3.848   0.951   4.848
  316SOL    HW1 1847   3.902   0.931   4.930
  316SOL    HW2 1848   3.789   0.873   4.827
  317SOL     OW 1849   0.171   1.452   1.858
  317SOL    HW1 1850   0.217   1.541   1.857
  317SOL    HW2 1851   0.095   1.453   1.794
  318SOL     OW 1852   0.723   1.607   3.756
  318SOL    HW1 1853   0.762   1.667   3.825
  318SOL    HW2 1854   0.639   1.648   3.719
  319SOL     OW 1855   6.961   1.511   1.705
  319SOL    HW1 1856   6.914   1.589   1.748
  319SOL    HW2 1857   6.930   1.426   1.747
  320SOL     OW 1858   5.079   0.690   6.491
  320SOL    HW1 1859   5.164   0.670   6.540
  320SOL    HW2 1860   5.043   0.778   6.521
  321SOL     OW 1861   4.373   3.638   0.758
  321SOL    HW1 1862   4.319   3.721   0.753
  321SOL    HW2 1863   4.320   3.561   0.722
  322SOL     OW 1864   3.039   1.126   0.403
  322SOL    HW1 1865   2.964   1.063   0.387
  322SOL    HW2 1866   3.126   1.077   0.397
  323SOL     OW 1867   0.442   3.862   2.066
  323SOL    HW1 1868   0.501   3.921   2.011
  323SOL    HW2 1869   0.484   3.772   2.074
  324SOL     OW 1870   6.943   0.963   3.702
  324SOL    HW1 1871   6.963   1.041   3.642
  324SOL    HW2 1872   6.904   0.889   3.648
  325SOL     OW 1873   0.051   2.602   0.250
  325SOL    HW1 1874   0.101   2.595   0.337
  325SOL    HW2 1875   7.000   2.540   0.252
  326SOL     OW 1876   6.237   5.766   5.797
  326SOL    HW1 1877   6.219   5.701   5.723
  326SOL    HW2 1878   6.235   5.859   5.761
  327SOL     OW 1879   3.995   6.243   6.583
  327SOL    HW1 1880   4.044   6.158   6.599
  327SOL    HW2 1881   3.915   6.225   6.525
  328SOL     OW 1882   2.654   5.253   3.669
  328SOL    HW1 1883   2.749   5.254   3.700
  328SOL    HW2 1884   2.602   5.187   3.724
  329SOL     OW 1885   3.076   3.957   2.967
  329SOL    HW1 1886   2.984   3.938   2.932
  329SOL    HW2 1887   3.129   4.006   2.897
  330SOL     OW 1888   2.208   3.325   6.746
  330SOL    HW1 1889   2.191   3.338   6.844
  330SOL    HW2 1890   2.133   3.366   6.693
  331SOL     OW 1891   4.698   5.981   4.929
  331SOL    HW1 1892   4.658   5.915   4.992
  331SOL    HW2 1893   4.679   5.953   4.835
  332SOL     OW 1894   5.924   2.374   2.956
  332SOL    HW1 1895   6.003   2.340   3.007
  332SOL    HW2 1896   5.876   2.297   2.913
  333SOL     OW 1897   2.950   6.327   4.067
  333SOL    HW1 1898   3.023   6.353   4.003
  333SOL    HW2 1899   2.990   6.306   4.156
  334SOL     OW 1900   3.566   3.537   4.199
  334SOL    HW1 1901   3.573   3.634   4.223
  334SOL    HW2 1902   3.656   3.494   4.205
  335SOL     OW 1903   4.722   1.093   6.387
  335SOL    HW1 1904   4.689   1.182   6.419
  335SOL    HW2 1905   4.726   1.030   6.464
  336SOL     OW 1906   3.704   1.244   4.340
  336SOL    HW1 1907   3.801   1.260   4.320
  336SOL    HW2 1908   3.691   1.243   4.439
  337SOL     OW 1909   1.062   1.680   5.565
  337SOL    HW1 1910   1.064   1.774   5.533
  337SOL    HW2 1911   0.999   1.672   5.642
  338SOL     OW 1912   4.513   1.947   1.386
  338SOL    HW1 1913   4.518   2.037   1.343
  338SOL    HW2 1914   4.515   1.957   1.485
  339SOL     OW 1915   3.549   4.693   5.874
  339SOL    HW1 1916   3.610   4.723   5.947
  339SOL    HW2 1917   3.479   4.632   5.912
  340SOL     OW 1918   5.635   4.555   4.512
  340SOL    HW1 1919   5.575   4.477   4.495
  340SOL    HW2 1920   5.683   4.541   4.599
  341SOL     OW 1921   5.957   0.511   1.216
  341SOL    HW1 1922   5.858   0.508   1.211
  341SOL    HW2 1923   5.991   0.431   1.267
  342SOL     OW 1924   4.485   0.257   1.064
  342SOL    HW1 1925   4.482   0.355   1.086
  342SOL    HW2 1926   4.536   0.243   0.980
  343SOL     OW 1927   5.725   0.456   1.970
  343SOL    HW1 1928   5.775   0.533   1.929
  343SOL    HW2 1929   5.730   0.377   1.909
  344SOL     OW 1930   6.520   3.154   1.429
  344SOL    HW1 1931   6.615   3.145   1.458
  344SOL    HW2 1932   6.510   3.122   1.335
  345SOL     OW 1933   0.007   3.571   3.223
  345SOL    HW1 1934   6.981   3.492   3.252
  345SOL    HW2 1935   0.017   3.570   3.124
  346SOL     OW 1936   0.602   0.650   3.299
  346SOL    HW1 1937   0.664   0.687   3.369
  346SOL    HW2 1938   0.620   0.552   3.288
  347SOL     OW 1939   1.786   3.997   1.463
  347SOL    HW1 1940   1.716   4.040   1.406
  347SOL    HW2 1941   1.753   3.995   1.558
  348SOL     OW 1942   6.286   4.506   1.192
  348SOL    HW1 1943   6.225   4.546   1.261
  348SOL    HW2 1944   6.265   4.409   1.182
  349SOL     OW 1945   5.828   5.342   6.888
  349SOL    HW1 1946   5.918   5.317   6.853
  349SOL    HW2 1947   5.826   5.441   6.904
  350SOL     OW 1948   2.360   0.912   0.474
  350SOL    HW1 1949   2.291   0.883   0.541
  350SOL    HW2 1950   2.322   0.983   0.416
  351SOL     OW 1951   4.236   4.278   0.556
  351SOL    HW1 1952   4.319   4.294   0.502
  351SOL    HW2 1953   4.156   4.279   0.496
  352SOL     OW 1954   3.725   0.737   2.847
  352SOL    HW1 1955   3.644   0.748   2.789
  352SOL    HW2 1956   3.699   0.701   2.936
  353SOL     OW 1957   2.482   6.039   1.118
  353SOL    HW1 1958   2.386   6.053   1.142
  353SOL    HW2 1959   2.532   6.125   1.126
  354SOL     OW 1960   3.189   2.558   0.734
  354SOL    HW1 1961   3.185   2.484   0.667
  354SOL    HW2 1962   3.281   2.561   0.774
  355SOL     OW 1963   6.648   2.238   2.536
  355SOL    HW1 1964   6.552   2.262   2.543
  355SOL    HW2 1965   6.695   2.265   2.620
  356SOL     OW 1966   2.946   6.901   5.690
  356SOL    HW1 1967   2.916   6.818   5.735
  356SOL    HW2 1968   2.890   6.917   5.608
  357SOL     OW 1969   6.131   5.685   4.378
  357SOL    HW1 1970   6.169   5.745   4.448
  357SOL    HW2 1971   6.109   5.738   4.296
  358SOL     OW 1972   3.247   6.136   6.882
  358SOL    HW1 1973   3.298   6.173   6.961
  358SOL    HW2 1974   3.169   6.083   6.915
  359SOL     OW 1975   2.052   2.236   0.882
  359SOL    HW1 1976   2.034   2.155   0.827
  359SOL    HW2 1977   1.987   2.241   0.958
  360SOL     OW 1978   1.580   4.925   2.442
  360SOL    HW1 1979   1.672   4.904   2.476
  360SOL    HW2 1980   1.565   4.877   2.355
  361SOL     OW 1981   6.122   2.802   2.961
  361SOL    HW1 1982   6.031   2.839   2.944
  361SOL    HW2 1983   6.177   2.870   3.009
  362SOL     OW 1984   3.725   2.898   3.232
  362SOL    HW1 1985   3.663   2.897   3.311
  362SOL    HW2 1986   3.675   2.873   3.149
  363SOL     OW 1987   4.866   5.789   2.084
  363SOL    HW1 1988   4.884   5.767   1.988
  363SOL    HW2 1989   4.910   5.876   2.107
  364SOL     OW 1990   1.123   0.949   6.904
  364SOL    HW1 1991   1.029   0.937   6.937
  364SOL    HW2 1992   1.145   1.047   6.901
  365SOL     OW 1993   4.774   0.339   3.533
  365SOL    HW1 1994   4.774   0.300   3.625
  365SOL    HW2 1995   4.842   0.292   3.477
  366SOL     OW 1996   5.569   0.644   0.357
  366SOL    HW1 1997   5.525   0.559   0.386
  366SOL    HW2 1998   5.665   0.643   0.385
  367SOL     OW 1999   6.576   6.433   7.007
  367SOL    HW1 2000   6.580   6.356   0.043
  367SOL    HW2 2001   6.489   6.431   6.958
  368SOL     OW 2002   2.586   0.995   5.164
  368SOL    HW1 2003   2.516   1.009   5.094
  368SOL    HW2 2004   2.671   1.038   5.135
  369SOL     OW 2005   5.116   3.738   6.213
  369SOL    HW1 2006   5.197   3.682   6.229
  369SOL    HW2 2007   5.075   3.713   6.126
  370SOL     OW 2008   1.537   1.638   4.076
  370SOL    HW1 2009   1.461   1.658   4.014
  370SOL    HW2 2010   1.601   1.715   4.076
  371SOL     OW 2011   2.869   5.053   1.127
  371SOL    HW1 2012   2.921   5.106   1.193
  371SOL    HW2 2013   2.928   5.030   1.049
  372SOL     OW 2014   2.280   5.914   5.842
  372SOL    HW1 2015   2.200   5.963   5.876
  372SOL    HW2 2016   2.276   5.818   5.872
  373SOL     OW 2017   5.496   4.630   2.234
  373SOL    HW1 2018   5.582   4.618   2.185
  373SOL    HW2 2019   5.513   4.672   2.323
  374SOL     OW 2020   2.252   2.902   2.237
  374SOL    HW1 2021   2.214   2.823   2.285
  374SOL    HW2 2022   2.259   2.880   2.139
  375SOL     OW 2023   0.413   5.067   4.244
  375SOL    HW1 2024   0.329   5.012   4.248
  375SOL    HW2 2025   0.389   5.163   4.230
  376SOL     OW 2026   5.316   6.921   3.779
  376SOL    HW1 2027   5.344   6.911   3.875
  376SOL    HW2 2028   5.365   6.854   3.724
  377SOL     OW 2029   2.499   3.209   6.334
  377SOL    HW1 2030   2.442   3.210   6.252
  377SOL    HW2 2031   2.522   3.303   6.360
  378SOL     OW 2032   4.495   0.973   1.172
  378SOL    HW1 2033   4.594   0.963   1.158
  378SOL    HW2 2034   4.448   0.894   1.132
  379SOL     OW 2035   2.970   3.648   0.973
  379SOL    HW1 2036   3.021   3.625   1.056
  379SOL    HW2 2037   3.021   3.619   0.893
  380SOL     OW 2038   5.512   1.908   0.151
  380SOL    HW1 2039   5.571   1.966   0.095
  380SOL    HW2 2040   5.557   1.889   0.238
  381SOL     OW 2041   0.054   3.297   2.177
  381SOL    HW1 2042   0.089   3.385   2.146
  381SOL    HW2 2043   0.038   3.299   2.276
  382SOL     OW 2044   5.874   0.231   0.758
  382SOL    HW1 2045   5.800   0.227   0.691
  382SOL    HW2 2046   5.918   0.321   0.754
  383SOL     OW 2047   5.414   2.877   1.431
  383SOL    HW1 2048   5.465   2.963   1.438
  383SOL    HW2 2049   5.333   2.882   1.489
  384SOL     OW 2050   1.595   2.696   4.303
  384SOL    HW1 2051   1.623   2.669   4.210
  384SOL    HW2 2052   1.540   2.779   4.298
  385SOL     OW 2053   4.596   3.052   6.865
  385SOL    HW1 2054   4.602   3.059   6.965
  385SOL    HW2 2055   4.665   3.110   6.823
  386SOL     OW 2056   2.680   6.286   5.797
  386SOL    HW1 2057   2.723   6.265   5.709
  386SOL    HW2 2058   2.700   6.213   5.862
  387SOL     OW 2059   1.852   6.586   3.673
  387SOL    HW1 2060   1.944   6.547   3.668
  387SOL    HW2 2061   1.819   6.606   3.581
  388SOL     OW 2062   2.142   5.532   5.789
  388SOL    HW1 2063   2.048   5.497   5.789
  388SOL    HW2 2064   2.202   5.467   5.744
  389SOL     OW 2065   4.042   1.625   6.978
  389SOL    HW1 2066   4.019   1.580   6.892
  389SOL    HW2 2067   4.099   1.565   0.005
  390SOL     OW 2068   3.652   1.379   3.583
  390SOL    HW1 2069   3.635   1.341   3.674
  390SOL    HW2 2070   3.690   1.308   3.523
  391SOL     OW 2071   0.662   1.038   0.445
  391SOL    HW1 2072   0.640   0.940   0.444
  391SOL    HW2 2073   0.590   1.087   0.494
  392SOL     OW 2074   4.338   5.420   4.261
  392SOL    HW1 2075   4.302   5.492   4.202
  392SOL    HW2 2076   4.290   5.334   4.241
  393SOL     OW 2077   5.560   2.534   5.764
  393SOL    HW1 2078   5.539   2.525   5.666
  393SOL    HW2 2079   5.615   2.456   5.794
  394SOL     OW 2080   2.312   1.371   0.017
  394SOL    HW1 2081   2.382   1.408   6.984
  394SOL    HW2 2082   2.235   1.436   0.023
  395SOL     OW 2083   0.196   2.767   0.715
  395SOL    HW1 2084   0.293   2.746   0.723
  395SOL    HW2 2085   0.148   2.742   0.799
  396SOL     OW 2086   4.068   2.594   5.630
  396SOL    HW1 2087   3.976   2.635   5.628
  396SOL    HW2 2088   4.062   2.502   5.669
  397SOL     OW 2089   4.834   6.684   7.019
  397SOL    HW1 2090   4.771   6.728   6.955
  397SOL    HW2 2091   4.900   6.629   6.968
  398SOL     OW 2092   5.815   4.125   2.454
  398SOL    HW1 2093   5.865   4.092   2.374
  398SOL    HW2 2094   5.817   4.225   2.456
  399SOL     OW 2095   2.033   5.660   1.470
  399SOL    HW1 2096   2.130   5.673   1.452
  399SOL    HW2 2097   2.015   5.677   1.567
  400SOL     OW 2098   2.352   4.538   6.025
  400SOL    HW1 2099   2.256   4.566   6.030
  400SOL    HW2 2100   2.362   4.448   6.069
  401SOL     OW 2101   6.581   1.684   1.334
  401SOL    HW1 2102   6.498   1.736   1.358
  401SOL    HW2 2103   6.648   1.693   1.408
  402SOL     OW 2104   0.651   5.506   0.635
  402SOL    HW1 2105   0.682   5.555   0.554
  402SOL    HW2 2106   0.635   5.572   0.709
  403SOL     OW 2107   5.434   4.349   0.178
  403SOL    HW1 2108   5.491   4.272   0.150
  403SOL    HW2 2109   5.433   4.354   0.278
  404SOL     OW 2110   6.735   5.895   4.355
  404SOL    HW1 2111   6.762   5.809   4.398
  404SOL    HW2 2112   6.786   5.908   4.270
  405SOL     OW 2113   1.396   1.536   1.367
  405SOL    HW1 2114   1.440   1.599   1.302
  405SOL    HW2 2115   1.328   1.481   1.318
  406SOL     OW 2116   0.685   2.911   3.895
  406SOL    HW1 2117   0.778   2.925   3.927
  406SOL    HW2 2118   0.621   2.928   3.970
  407SOL     OW 2119   3.035   2.122   3.804
  407SOL    HW1 2120   2.951   2.085   3.844
  407SOL    HW2 2121   3.114   2.086   3.854
  408SOL     OW 2122   2.489   0.257   4.123
  408SOL    HW1 2123   2.409   0.218   4.167
  408SOL    HW2 2124   2.552   0.291   4.192
  409SOL     OW 2125   0.453   5.110   4.923
  409SOL    HW1 2126   0.395   5.104   4.842
  409SOL    HW2 2127   0.513   5.029   4.927
  410SOL     OW 2128   2.741   6.813   6.729
  410SOL    HW1 2129   2.751   6.802   6.630
  410SOL    HW2 2130   2.710   6.727   6.769
  411SOL     OW 2131   0.449   4.335   6.171
  411SOL    HW1 2132   0.465   4.433   6.162
  411SOL    HW2 2133   0.445   4.311   6.268
  412SOL     OW 2134   3.727   5.882   3.241
  412SOL    HW1 2135   3.694   5.954   3.302
  412SOL    HW2 2136   3.707   5.793   3.281
  413SOL     OW 2137   2.148   0.818   1.622
  413SOL    HW1 2138   2.232   0.768   1.643
  413SOL    HW2 2139   2.167   0.887   1.552
  414SOL     OW 2140   4.352   4.740   0.755
  414SOL    HW1 2141   4.389   4.684   0.681
  414SOL    HW2 2142   4.399   4.828   0.757
  415SOL     OW 2143   3.681   6.261   3.002
  415SOL    HW1 2144   3.583   6.278   2.996
  415SOL    HW2 2145   3.730   6.349   3.006
  416SOL     OW 2146   3.830   5.933   0.034
  416SOL    HW1 2147   3.837   5.888   6.973
  416SOL    HW2 2148   3.885   5.884   0.101
  417SOL     OW 2149   5.886   5.202   1.720
  417SOL    HW1 2150   5.954   5.189   1.793
  417SOL    HW2 2151   5.907   5.286   1.670
  418SOL     OW 2152   0.107   5.244   6.422
  418SOL    HW1 2153   0.163   5.189   6.361
  418SOL    HW2 2154   0.030   5.190   6.455
  419SOL     OW 2155   5.244   5.202   6.645
  419SOL    HW1 2156   5.260   5.296   6.613
  419SOL    HW2 2157   5.188   5.153   6.578
  420SOL     OW 2158   5.834   3.462   6.955
  420SOL    HW1 2159   5.736   3.482   6.953
  420SOL    HW2 2160   5.885   3.548   6.966
  421SOL     OW 2161   1.634   6.242   5.820
  421SOL    HW1 2162   1.662   6.282   5.733
  421SOL    HW2 2163   1.661   6.145   5.822
  422SOL     OW 2164   6.280   3.621   0.585
  422SOL    HW1 2165   6.294   3.681   0.506
  422SOL    HW2 2166   6.184   3.595   0.590
  423SOL     OW 2167   1.360   2.895   6.064
  423SOL    HW1 2168   1.310   2.870   6.147
  423SOL    HW2 2169   1.301   2.945   6.002
  424SOL     OW 2170   2.140   4.336   5.841
  424SOL    HW1 2171   2.235   4.312   5.821
  424SOL    HW2 2172   2.113   4.297   5.929
  425SOL     OW 2173   1.869   0.659   6.979
  425SOL    HW1 2174   1.858   0.710   0.036
  425SOL    HW2 2175   1.812   0.577   6.981
  426SOL     OW 2176   1.099   3.244   6.832
  426SOL    HW1 2177   1.007   3.266   6.863
  426SOL    HW2 2178   1.109   3.145   6.822
  427SOL     OW 2179   3.972   2.929   0.463
  427SOL    HW1 2180   3.889   2.953   0.412
  427SOL    HW2 2181   4.048   2.985   0.430
  428SOL     OW 2182   3.652   0.758   4.484
  428SOL    HW1 2183   3.561   0.757   4.442
  428SOL    HW2 2184   3.670   0.848   4.524
  429SOL     OW 2185   3.874   5.850   6.793
  429SOL    HW1 2186   3.960   5.885   6.831
  429SOL    HW2 2187   3.858   5.892   6.703
  430SOL     OW 2188   3.008   1.233   4.629
  430SOL    HW1 2189   2.942   1.299   4.593
  430SOL    HW2 2190   3.047   1.181   4.554
  431SOL     OW 2191   3.593   0.668   6.286
  431SOL    HW1 2192   3.639   0.583   6.261
  431SOL    HW2 2193   3.528   0.651   6.360
  432SOL     OW 2194   6.828   0.821   1.152
  432SOL    HW1 2195   6.830   0.918   1.126
  432SOL    HW2 2196   6.777   0.769   1.084
  433SOL     OW 2197   3.958   6.487   4.849
  433SOL    HW1 2198   3.877   6.465   4.903
  433SOL    HW2 2199   3.939   6.471   4.752
  434SOL     OW 2200   6.632   3.532   0.890
  434SOL    HW1 2201   6.609   3.568   0.800
  434SOL    HW2 2202   6.731   3.519   0.896
  435SOL     OW 2203   3.819   3.649   0.875
  435SOL    HW1 2204   3.744   3.630   0.812
  435SOL    HW2 2205   3.883   3.572   0.874
  436SOL     OW 2206   2.767   1.401   0.911
  436SOL    HW1 2207   2.674   1.423   0.940
  436SOL    HW2 2208   2.773   1.303   0.889
  437SOL     OW 2209   6.251   6.369   6.366
  437SOL    HW1 2210   6.330   6.362   6.306
  437SOL    HW2 2211   6.193   6.445   6.337
  438SOL     OW 2212   1.236   3.481   1.248
  438SOL    HW1 2213   1.273   3.562   1.203
  438SOL    HW2 2214   1.277   3.399   1.208
  439SOL     OW 2215   6.077   5.034   1.899
  439SOL    HW1 2216   6.016   4.961   1.869
  439SOL    HW2 2217   6.079   5.038   1.999
  440SOL     OW 2218   1.159   3.016   2.660
  440SOL    HW1 2219   1.126   2.991   2.751
  440SOL    HW2 2220   1.129   3.109   2.639
  441SOL     OW 2221   6.767   1.784   3.027
  441SOL    HW1 2222   6.793   1.689   3.014
  441SOL    HW2 2223   6.676   1.799   2.988
  442SOL     OW 2224   1.433   4.985   6.690
  442SOL    HW1 2225   1.362   4.957   6.625
  442SOL    HW2 2226   1.473   5.071   6.662
  443SOL     OW 2227   0.178   5.895   5.876
  443SOL    HW1 2228   0.147   5.943   5.958
  443SOL    HW2 2229   0.278   5.886   5.879
  444SOL     OW 2230   5.500   2.965   6.570
  444SOL    HW1 2231   5.410   3.003   6.550
  444SOL    HW2 2232   5.570   3.018   6.522
  445SOL     OW 2233   1.799   4.001   2.771
  445SOL    HW1 2234   1.897   3.983   2.761
  445SOL    HW2 2235   1.749   3.914   2.772
  446SOL     OW 2236   1.529   5.533   4.641
  446SOL    HW1 2237   1.541   5.513   4.738
  446SOL    HW2 2238   1.548   5.630   4.624
  447SOL     OW 2239   0.924   5.818   0.465
  447SOL    HW1 2240   0.938   5.894   0.402
  447SOL    HW2 2241   0.877   5.743   0.418
  448SOL     OW 2242   4.851   0.925   5.443
  448SOL    HW1 2243   4.838   0.996   5.374
  448SOL    HW2 2244   4.802   0.950   5.527
  449SOL     OW 2245   6.397   0.883   4.193
  449SOL    HW1 2246   6.385   0.786   4.215
  449SOL    HW2 2247   6.389   0.896   4.095
  450SOL     OW 2248   0.009   5.949   2.748
  450SOL    HW1 2249   0.048   5.927   2.658
  450SOL    HW2 2250   0.046   6.037   2.778
  451SOL     OW 2251   5.886   3.768   4.071
  451SOL    HW1 2252   5.877   3.715   3.987
  451SOL    HW2 2253   5.959   3.730   4.127
  452SOL     OW 2254   6.087   4.747   5.960
  452SOL    HW1 2255   6.015   4.817   5.967
  452SOL    HW2 2256   6.044   4.658   5.943
  453SOL     OW 2257   4.118   1.745   5.836
  453SOL    HW1 2258   4.109   1.840   5.807
  453SOL    HW2 2259   4.167   1.741   5.923
  454SOL     OW 2260   0.632   5.658   6.984
  454SOL    HW1 2261   0.538   5.657   7.016
  454SOL    HW2 2262   0.637   5.702   6.895
  455SOL     OW 2263   5.342   2.168   5.047
  455SOL    HW1 2264   5.416   2.233   5.030
  455SOL    HW2 2265   5.255   2.210   5.024
  456SOL     OW 2266   4.321   5.865   0.837
  456SOL    HW1 2267   4.289   5.960   0.836
  456SOL    HW2 2268   4.286   5.817   0.756
  457SOL     OW 2269   0.594   4.044   1.919
  457SOL    HW1 2270   0.666   4.045   1.849
  457SOL    HW2 2271   0.506   4.065   1.876
  458SOL     OW 2272   1.185   0.201   5.429
  458SOL    HW1 2273   1.176   0.109   5.393
  458SOL    HW2 2274   1.207   0.197   5.527
  459SOL     OW 2275   1.657   0.771   3.360
  459SOL    HW1 2276   1.700   0.842   3.304
  459SOL    HW2 2277   1.590   0.812   3.421
  460SOL     OW 2278   6.490   2.451   2.894
  460SOL    HW1 2279   6.544   2.495   2.823
  460SOL    HW2 2280   6.404   2.416   2.854
  461SOL     OW 2281   5.651   4.230   5.713
  461SOL    HW1 2282   5.654   4.309   5.652
  461SOL    HW2 2283   5.714   4.160   5.679
  462SOL     OW 2284   3.551   2.493   0.091
  462SOL    HW1 2285   3.475   2.508   0.155
  462SOL    HW2 2286   3.617   2.432   0.132
  463SOL     OW 2287   6.310   6.631   1.327
  463SOL    HW1 2288   6.275   6.580   1.248
  463SOL    HW2 2289   6.410   6.637   1.320
  464SOL     OW 2290   1.769   1.787   5.975
  464SOL    HW1 2291   1.753   1.688   5.967
  464SOL    HW2 2292   1.867   1.805   5.965
  465SOL     OW 2293   0.684   3.470   5.779
  465SOL    HW1 2294   0.778   3.461   5.812
  465SOL    HW2 2295   0.681   3.451   5.681
  466SOL     OW 2296   1.964   0.447   3.468
  466SOL    HW1 2297   1.951   0.442   3.370
  466SOL    HW2 2298   2.052   0.406   3.493
  467SOL     OW 2299   1.735   1.290   4.887
  467SOL    HW1 2300   1.760   1.193   4.897
  467SOL    HW2 2301   1.817   1.345   4.874
  468SOL     OW 2302   3.971   3.947   3.484
  468SOL    HW1 2303   4.005   4.040   3.468
  468SOL    HW2 2304   3.875   3.942   3.457
  469SOL     OW 2305   3.134   6.822   6.561
  469SOL    HW1 2306   3.182   6.736   6.579
  469SOL    HW2 2307   3.085   6.815   6.474
  470SOL     OW 2308   4.371   0.056   2.821
  470SOL    HW1 2309   4.381   6.989   2.849
  470SOL    HW2 2310   4.310   0.103   2.884
  471SOL     OW 2311   2.383   2.313   3.583
  471SOL    HW1 2312   2.296   2.352   3.553
  471SOL    HW2 2313   2.456   2.380   3.567
  472SOL     OW 2314   3.348   4.192   5.342
  472SOL    HW1 2315   3.368   4.286   5.369
  472SOL    HW2 2316   3.410   4.164   5.268
  473SOL     OW 2317   0.642   4.930   4.168
  473SOL    HW1 2318   0.595   4.845   4.193
  473SOL    HW2 2319   0.588   5.008   4.200
  474SOL     OW 2320   5.349   5.361   5.311
  474SOL    HW1 2321   5.299   5.274   5.315
  474SOL    HW2 2322   5.394   5.368   5.222
  475SOL     OW 2323   2.918   6.824   0.081
  475SOL    HW1 2324   2.825   6.817   0.045
  475SOL    HW2 2325   2.916   6.815   0.181
  476SOL     OW 2326   6.642   5.729   2.752
  476SOL    HW1 2327   6.669   5.649   2.805
  476SOL    HW2 2328   6.543   5.735   2.748
  477SOL     OW 2329   1.619   4.640   3.230
  477SOL    HW1 2330   1.694   4.666   3.292
  477SOL    HW2 2331   1.532   4.650   3.278
  478SOL     OW 2332   1.706   4.290   3.778
  478SOL    HW1 2333   1.691   4.356   3.705
  478SOL    HW2 2334   1.625   4.234   3.790
  479SOL     OW 2335   4.298   1.864   2.242
  479SOL    HW1 2336   4.316   1.961   2.260
  479SOL    HW2 2337   4.207   1.854   2.201
  480SOL     OW 2338   1.938   6.571   3.947
  480SOL    HW1 2339   1.862   6.530   3.895
  480SOL    HW2 2340   2.022   6.520   3.928
  481SOL     OW 2341   2.143   0.260   0.606
  481SOL    HW1 2342   2.167   0.282   0.511
  481SOL    HW2 2343   2.122   0.344   0.655
  482SOL     OW 2344   6.011   5.606   1.117
  482SOL    HW1 2345   6.053   5.686   1.074
  482SOL    HW2 2346   5.912   5.614   1.114
  483SOL     OW 2347   4.690   1.901   3.308
  483SOL    HW1 2348   4.702   1.974   3.241
  483SOL    HW2 2349   4.594   1.897   3.337
  484SOL     OW 2350   6.188   1.798   3.365
  484SOL    HW1 2351   6.139   1.752   3.291
  484SOL    HW2 2352   6.264   1.851   3.327
  485SOL     OW 2353   2.511   6.062   0.752
  485SOL    HW1 2354   2.433   6.036   0.696
  485SOL    HW2 2355   2.595   6.055   0.697
  486SOL     OW 2356   6.100   0.551   5.655
  486SOL    HW1 2357   6.175   0.551   5.588
  486SOL    HW2 2358   6.043   0.470   5.641
  487SOL     OW 2359   6.711   2.194   6.707
  487SOL    HW1 2360   6.622   2.236   6.724
  487SOL    HW2 2361   6.782   2.243   6.758
  488SOL     OW 2362   1.088   4.719   3.557
  488SOL    HW1 2363   1.091   4.690   3.462
  488SOL    HW2 2364   1.027   4.797   3.567
  489SOL     OW 2365   3.391   5.219   5.997
  489SOL    HW1 2366   3.490   5.236   5.991
  489SOL    HW2 2367   3.363   5.219   6.093
  490SOL     OW 2368   5.208   1.090   4.410
  490SOL    HW1 2369   5.183   1.049   4.322
  490SOL    HW2 2370   5.170   1.182   4.416
  491SOL     OW 2371   0.551   2.940   3.666
  491SOL    HW1 2372   0.616   2.933   3.742
  491SOL    HW2 2373   0.479   2.871   3.678
  492SOL     OW 2374   1.507   1.774   4.785
  492SOL    HW1 2375   1.439   1.786   4.713
  492SOL    HW2 2376   1.597   1.762   4.744
  493SOL     OW 2377   5.559   3.917   4.997
  493SOL    HW1 2378   5.553   3.847   5.067
  493SOL    HW2 2379   5.599   3.878   4.914
  494SOL     OW 2380   5.849   0.869   6.385
  494SOL    HW1 2381   5.827   0.924   6.305
  494SOL    HW2 2382   5.880   0.778   6.356
  495SOL     OW 2383   5.817   4.699   0.201
  495SOL    HW1 2384   5.887   4.697   0.129
  495SOL    HW2 2385   5.861   4.688   0.290
  496SOL     OW 2386   6.013   3.606   2.828
  496SOL    HW1 2387   6.019   3.606   2.928
  496SOL    HW2 2388   6.057   3.524   2.792
  497SOL     OW 2389   4.345   0.243   4.124
  497SOL    HW1 2390   4.429   0.287   4.091
  497SOL    HW2 2391   4.301   0.195   4.049
  498SOL     OW 2392   2.040   3.384   1.243
  498SOL    HW1 2393   2.059   3.475   1.208
  498SOL    HW2 2394   1.977   3.336   1.182
  499SOL     OW 2395   3.822   2.009   5.629
  499SOL    HW1 2396   3.802   2.098   5.669
  499SOL    HW2 2397   3.883   2.020   5.551
  500SOL     OW 2398   1.083   4.659   3.037
  500SOL    HW1 2399   1.052   4.593   2.968
  500SOL    HW2 2400   1.172   4.696   3.010
  501SOL     OW 2401   0.864   4.917   6.093
  501SOL    HW1 2402   0.829   5.009   6.078
  501SOL    HW2 2403   0.946   4.903   6.037
  502SOL     OW 2404   2.196   4.833   5.989
  502SOL    HW1 2405   2.151   4.755   6.033
  502SOL    HW2 2406   2.157   4.918   6.024
  503SOL     OW 2407   6.810   5.203   4.436
  503SOL    HW1 2408   6.785   5.264   4.512
  503SOL    HW2 2409   6.759   5.118   4.443
  504SOL     OW 2410   1.405   5.215   3.994
  504SOL    HW1 2411   1.430   5.119   4.007
  504SOL    HW2 2412   1.347   5.223   3.913
  505SOL     OW 2413   3.536   6.329   4.746
  505SOL    HW1 2414   3.465   6.313   4.677
  505SOL    HW2 2415   3.495   6.327   4.837
  506SOL     OW 2416   2.326   3.156   0.627
  506SOL    HW1 2417   2.279   3.224   0.571
  506SOL    HW2 2418   2.365   3.085   0.569
  507SOL     OW 2419   3.631   1.906   4.259
  507SOL    HW1 2420   3.663   1.837   4.194
  507SOL    HW2 2421   3.674   1.994   4.239
  508SOL     OW 2422   5.534   5.157   4.561
  508SOL    HW1 2423   5.588   5.077   4.589
  508SOL    HW2 2424   5.561   5.185   4.469
  509SOL     OW 2425   4.610   3.254   1.499
  509SOL    HW1 2426   4.618   3.327   1.430
  509SOL    HW2 2427   4.563   3.176   1.458
  510SOL     OW 2428   1.228   3.764   4.029
  510SOL    HW1 2429   1.167   3.718   3.964
  510SOL    HW2 2430   1.288   3.826   3.979
  511SOL     OW 2431   0.227   6.305   1.754
  511SOL    HW1 2432   0.224   6.206   1.768
  511SOL    HW2 2433   0.276   6.324   1.669
  512SOL     OW 2434   2.098   4.223   6.091
  512SOL    HW1 2435   2.053   4.134   6.091
  512SOL    HW2 2436   2.071   4.275   6.172
  513SOL     OW 2437   0.759   5.468   4.791
  513SOL    HW1 2438   0.792   5.376   4.769
  513SOL    HW2 2439   0.780   5.530   4.716
  514SOL     OW 2440   5.360   2.100   3.557
  514SOL    HW1 2441   5.419   2.159   3.611
  514SOL    HW2 2442   5.268   2.138   3.554
  515SOL     OW 2443   3.035   5.909   6.941
  515SOL    HW1 2444   3.070   5.827   6.896
  515SOL    HW2 2445   2.936   5.908   6.943
  516SOL     OW 2446   2.002   4.803   3.459
  516SOL    HW1 2447   1.948   4.777   3.539
  516SOL    HW2 2448   2.099   4.788   3.478
  517SOL     OW 2449   4.880   0.095   5.742
  517SOL    HW1 2450   4.953   0.071   5.805
  517SOL    HW2 2451   4.915   0.153   5.669
  518SOL     OW 2452   2.109   1.571   6.937
  518SOL    HW1 2453   2.112   1.670   6.941
  518SOL    HW2 2454   2.015   1.539   6.951
  519SOL     OW 2455   0.967   6.510   0.581
  519SOL    HW1 2456   0.920   6.578   0.637
  519SOL    HW2 2457   0.944   6.525   0.485
  520SOL     OW 2458   6.599   4.498   5.212
  520SOL    HW1 2459   6.613   4.459   5.303
  520SOL    HW2 2460   6.661   4.453   5.146
  521SOL     OW 2461   6.260   0.947   0.530
  521SOL    HW1 2462   6.215   0.859   0.543
  521SOL    HW2 2463   6.296   0.953   0.437
  522SOL     OW 2464   3.115   4.213   5.611
  522SOL    HW1 2465   3.086   4.257   5.526
  522SOL    HW2 2466   3.076   4.121   5.617
  523SOL     OW 2467   6.574   7.003   3.212
  523SOL    HW1 2468   6.562   6.947   3.294
  523SOL    HW2 2469   6.589   6.944   3.133
  524SOL     OW 2470   4.184   0.270   4.358
  524SOL    HW1 2471   4.220   0.220   4.436
  524SOL    HW2 2472   4.242   0.253   4.278
  525SOL     OW 2473   3.360   3.112   6.483
  525SOL    HW1 2474   3.397   3.080   6.396
  525SOL    HW2 2475   3.293   3.184   6.467
  526SOL     OW 2476   4.992   0.477   4.184
  526SOL    HW1 2477   5.069   0.539   4.171
  526SOL    HW2 2478   4.934   0.511   4.257
  527SOL     OW 2479   0.893   1.305   6.825
  527SOL    HW1 2480   0.844   1.252   6.894
  527SOL    HW2 2481   0.863   1.400   6.828
  528SOL     OW 2482   1.409   2.062   6.197
  528SOL    HW1 2483   1.326   2.092   6.148
  528SOL    HW2 2484   1.447   1.981   6.153
  529SOL     OW 2485   0.271   5.041   4.740
  529SOL    HW1 2486   0.260   4.981   4.819
  529SOL    HW2 2487   0.185   5.087   4.721
  530SOL     OW 2488   6.971   3.385   5.339
  530SOL    HW1 2489   6.947   3.437   5.257
  530SOL    HW2 2490   6.974   3.287   5.317
  531SOL     OW 2491   0.431   6.767   0.644
  531SOL    HW1 2492   0.359   6.793   0.579
  531SOL    HW2 2493   0.520   6.795   0.608
  532SOL     OW 2494   1.876   1.352   5.811
  532SOL    HW1 2495   1.832   1.402   5.886
  532SOL    HW2 2496   1.922   1.416   5.750
  533SOL     OW 2497   4.929   0.683   5.516
  533SOL    HW1 2498   4.864   0.608   5.504
  533SOL    HW2 2499   4.885   0.770   5.494
  534SOL     OW 2500   2.291   5.433   3.434
  534SOL    HW1 2501   2.378   5.445   3.484
  534SOL    HW2 2502   2.292   5.346   3.386
  535SOL     OW 2503   6.872   3.811   2.373
  535SOL    HW1 2504   6.964   3.783   2.401
  535SOL    HW2 2505   6.869   3.819   2.273
  536SOL     OW 2506   1.878   5.992   1.757
  536SOL    HW1 2507   1.876   5.909   1.812
  536SOL    HW2 2508   1.854   6.070   1.815
  537SOL     OW 2509   2.379   0.451   3.030
  537SOL    HW1 2510   2.387   0.434   2.932
  537SOL    HW2 2511   2.415   0.542   3.052
  538SOL     OW 2512   1.547   5.406   3.861
  538SOL    HW1 2513   1.495   5.352   3.927
  538SOL    HW2 2514   1.502   5.494   3.846
  539SOL     OW 2515   1.822   5.618   0.783
  539SOL    HW1 2516   1.724   5.599   0.786
  539SOL    HW2 2517   1.848   5.668   0.866
  540SOL     OW 2518   2.722   2.422   0.668
  540SOL    HW1 2519   2.766   2.433   0.757
  540SOL    HW2 2520   2.752   2.495   0.607
  541SOL     OW 2521   5.353   5.695   4.991
  541SOL    HW1 2522   5.412   5.769   5.021
  541SOL    HW2 2523   5.269   5.695   5.046
  542SOL     OW 2524   5.951   0.022   6.086
  542SOL    HW1 2525   6.015   0.093   6.056
  542SOL    HW2 2526   5.999   6.963   6.097
  543SOL     OW 2527   6.345   0.497   2.548
  543SOL    HW1 2528   6.280   0.513   2.473
  543SOL    HW2 2529   6.296   0.458   2.626
  544SOL     OW 2530   0.638   4.907   0.913
  544SOL    HW1 2531   0.725   4.882   0.869
  544SOL    HW2 2532   0.644   4.889   1.011
  545SOL     OW 2533   2.794   2.036   3.931
  545SOL    HW1 2534   2.734   1.997   4.001
  545SOL    HW2 2535   2.817   2.130   3.956
  546SOL     OW 2536   1.088   2.285   0.202
  546SOL    HW1 2537   1.079   2.339   0.286
  546SOL    HW2 2538   0.998   2.260   0.167
  547SOL     OW 2539   3.329   1.943   0.606
  547SOL    HW1 2540   3.353   2.021   0.548
  547SOL    HW2 2541   3.238   1.956   0.644
  548SOL     OW 2542   2.975   3.782   5.918
  548SOL    HW1 2543   2.925   3.781   6.004
  548SOL    HW2 2544   3.064   3.826   5.931
  549SOL     OW 2545   6.657   4.643   1.739
  549SOL    HW1 2546   6.708   4.651   1.824
  549SOL    HW2 2547   6.576   4.701   1.743
  550SOL     OW 2548   6.567   4.200   1.194
  550SOL    HW1 2549   6.582   4.281   1.136
  550SOL    HW2 2550   6.506   4.136   1.147
  551SOL     OW 2551   0.698   0.049   0.322
  551SOL    HW1 2552   0.665   0.036   0.229
  551SOL    HW2 2553   0.633   0.010   0.387
  552SOL     OW 2554   4.441   5.433   0.265
  552SOL    HW1 2555   4.446   5.359   0.332
  552SOL    HW2 2556   4.533   5.467   0.246
  553SOL     OW 2557   0.804   2.525   1.409
  553SOL    HW1 2558   0.874   2.545   1.341
  553SOL    HW2 2559   0.790   2.605   1.468
  554SOL     OW 2560   4.907   5.064   5.376
  554SOL    HW1 2561   4.911   4.967   5.355
  554SOL    HW2 2562   4.894   5.076   5.475
  555SOL     OW 2563   1.854   4.037   5.789
  555SOL    HW1 2564   1.888   4.101   5.720
  555SOL    HW2 2565   1.927   4.017   5.855
  556SOL     OW 2566   6.188   4.008   3.242
  556SOL    HW1 2567   6.199   3.917   3.202
  556SOL    HW2 2568   6.118   4.059   3.191
  557SOL     OW 2569   6.355   5.396   5.574
  557SOL    HW1 2570   6.318   5.348   5.494
  557SOL    HW2 2571   6.417   5.469   5.543
  558SOL     OW 2572   3.594   3.997   6.081
  558SOL    HW1 2573   3.572   3.943   6.161
  558SOL    HW2 2574   3.590   3.940   5.999
  559SOL     OW 2575   5.025   4.604   5.991
  559SOL    HW1 2576   4.978   4.658   6.061
  559SOL    HW2 2577   5.024   4.653   5.905
  560SOL     OW 2578   4.887   6.477   0.414
  560SOL    HW1 2579   4.836   6.408   0.363
  560SOL    HW2 2580   4.978   6.443   0.436
  561SOL     OW 2581   4.623   6.853   2.344
  561SOL    HW1 2582   4.546   6.917   2.336
  561SOL    HW2 2583   4.697   6.895   2.395
  562SOL     OW 2584   5.232   0.445   1.110
  562SOL    HW1 2585   5.139   0.480   1.115
  562SOL    HW2 2586   5.297   0.520   1.127
  563SOL     OW 2587   3.022   0.568   5.185
  563SOL    HW1 2588   3.090   0.613   5.242
  563SOL    HW2 2589   2.973   0.636   5.131
  564SOL     OW 2590   0.556   1.510   5.398
  564SOL    HW1 2591   0.540   1.504   5.300
  564SOL    HW2 2592   0.520   1.597   5.433
  565SOL     OW 2593   4.026   3.411   5.598
  565SOL    HW1 2594   4.059   3.422   5.691
  565SOL    HW2 2595   3.955   3.341   5.595
  566SOL     OW 2596   6.733   4.228   2.227
  566SOL    HW1 2597   6.663   4.241   2.157
  566SOL    HW2 2598   6.751   4.316   2.272
  567SOL     OW 2599   3.825   3.771   6.242
  567SOL    HW1 2600   3.818   3.684   6.291
  567SOL    HW2 2601   3.737   3.818   6.245
  568SOL     OW 2602   3.032   1.546   6.120
  568SOL    HW1 2603   3.049   1.452   6.092
  568SOL    HW2 2604   2.934   1.566   6.112
  569SOL     OW 2605   2.201   4.617   0.121
  569SOL    HW1 2606   2.119   4.607   0.066
  569SOL    HW2 2607   2.219   4.532   0.170
  570SOL     OW 2608   0.599   5.239   6.540
  570SOL    HW1 2609   0.570   5.329   6.507
  570SOL    HW2 2610   0.667   5.251   6.613
  571SOL     OW 2611   4.631   6.067   2.511
  571SOL    HW1 2612   4.675   5.983   2.479
  571SOL    HW2 2613   4.699   6.125   2.557
  572SOL     OW 2614   1.830   4.294   4.061
  572SOL    HW1 2615   1.784   4.323   3.977
  572SOL    HW2 2616   1.929   4.311   4.052
  573SOL     OW 2617   4.437   2.407   6.927
  573SOL    HW1 2618   4.382   2.487   6.948
  573SOL    HW2 2619   4.530   2.420   6.962
  574SOL     OW 2620   2.483   2.166   3.218
  574SOL    HW1 2621   2.560   2.114   3.181
  574SOL    HW2 2622   2.428   2.107   3.277
  575SOL     OW 2623   4.297   2.380   5.794
  575SOL    HW1 2624   4.259   2.447   5.857
  575SOL    HW2 2625   4.291   2.289   5.834
  576SOL     OW 2626   0.259   3.514   3.340
  576SOL    HW1 2627   0.187   3.508   3.271
  576SOL    HW2 2628   0.217   3.532   3.429
  577SOL     OW 2629   4.001   1.564   3.414
  577SOL    HW1 2630   3.927   1.587   3.477
  577SOL    HW2 2631   4.001   1.629   3.338
  578SOL     OW 2632   0.239   3.693   4.402
  578SOL    HW1 2633   0.146   3.665   4.380
  578SOL    HW2 2634   0.240   3.734   4.494
  579SOL     OW 2635   4.082   3.749   1.436
  579SOL    HW1 2636   4.133   3.678   1.388
  579SOL    HW2 2637   3.989   3.753   1.401
  580SOL     OW 2638   0.104   0.007   6.849
  580SOL    HW1 2639   0.153   0.071   6.909
  580SOL    HW2 2640   0.006   0.014   6.866
  581SOL     OW 2641   3.845   3.390   4.158
  581SOL    HW1 2642   3.867   3.345   4.072
  581SOL    HW2 2643   3.885   3.338   4.234
  582SOL     OW 2644   0.072   3.306   0.275
  582SOL    HW1 2645   0.014   3.344   0.348
  582SOL    HW2 2646   0.050   3.209   0.263
  583SOL     OW 2647   2.623   0.011   6.843
  583SOL    HW1 2648   2.680   6.958   6.833
  583SOL    HW2 2649   2.661   0.086   6.789
  584SOL     OW 2650   2.244   5.222   4.424
  584SOL    HW1 2651   2.193   5.306   4.439
  584SOL    HW2 2652   2.229   5.189   4.331
  585SOL     OW 2653   5.691   1.910   5.545
  585SOL    HW1 2654   5.612   1.862   5.583
  585SOL    HW2 2655   5.758   1.927   5.617
  586SOL     OW 2656   3.388   4.770   1.101
  586SOL    HW1 2657   3.376   4.772   1.200
  586SOL    HW2 2658   3.319   4.711   1.060
  587SOL     OW 2659   2.595   2.941   6.077
  587SOL    HW1 2660   2.502   2.912   6.101
  587SOL    HW2 2661   2.650   2.946   6.160
  588SOL     OW 2662   2.175   0.485   1.887
  588SOL    HW1 2663   2.239   0.529   1.823
  588SOL    HW2 2664   2.224   0.456   1.969
  589SOL     OW 2665   4.863   5.201   1.811
  589SOL    HW1 2666   4.865   5.267   1.886
  589SOL    HW2 2667   4.790   5.224   1.747
  590SOL     OW 2668   0.454   4.648   1.807
  590SOL    HW1 2669   0.479   4.601   1.723
  590SOL    HW2 2670   0.396   4.727   1.785
  591SOL     OW 2671   2.302   0.783   3.110
  591SOL    HW1 2672   2.284   0.776   3.208
  591SOL    HW2 2673   2.366   0.858   3.093
  592SOL     OW 2674   5.480   0.230   6.462
  592SOL    HW1 2675   5.499   0.224   6.560
  592SOL    HW2 2676   5.393   0.276   6.447
  593SOL     OW 2677   0.345   0.749   4.324
  593SOL    HW1 2678   0.324   0.841   4.292
  593SOL    HW2 2679   0.283   0.725   4.400
  594SOL     OW 2680   4.759   2.655   1.457
  594SOL    HW1 2681   4.750   2.721   1.382
  594SOL    HW2 2682   4.756   2.704   1.544
  595SOL     OW 2683   2.814   6.595   4.058
  595SOL    HW1 2684   2.839   6.498   4.056
  595SOL    HW2 2685   2.896   6.651   4.049
  596SOL     OW 2686   0.674   4.822   2.910
  596SOL    HW1 2687   0.598   4.886   2.923
  596SOL    HW2 2688   0.707   4.790   2.999
  597SOL     OW 2689   4.459   2.009   5.160
  597SOL    HW1 2690   4.455   2.079   5.089
  597SOL    HW2 2691   4.378   1.950   5.153
  598SOL     OW 2692   3.460   3.632   1.934
  598SOL    HW1 2693   3.485   3.577   1.855
  598SOL    HW2 2694   3.364   3.616   1.957
  599SOL     OW 2695   6.370   5.655   3.424
  599SOL    HW1 2696   6.456   5.605   3.428
  599SOL    HW2 2697   6.293   5.592   3.435
  600SOL     OW 2698   3.163   1.816   0.292
  600SOL    HW1 2699   3.207   1.814   0.382
  600SOL    HW2 2700   3.074   1.862   0.299
  601SOL     OW 2701   1.242   4.869   1.439
  601SOL    HW1 2702   1.296   4.812   1.376
  601SOL    HW2 2703   1.146   4.839   1.436
  602SOL     OW 2704   6.944   1.150   2.930
  602SOL    HW1 2705   6.866   1.089   2.946
  602SOL    HW2 2706   6.956   1.163   2.831
  603SOL     OW 2707   4.296   1.932   2.795
  603SOL    HW1 2708   4.298   1.881   2.709
  603SOL    HW2 2709   4.378   1.989   2.802
  604SOL     OW 2710   2.257   3.021   5.887
  604SOL    HW1 2711   2.296   2.936   5.849
  604SOL    HW2 2712   2.234   3.007   5.983
  605SOL     OW 2713   5.131   0.209   4.624
  605SOL    HW1 2714   5.067   0.151   4.675
  605SOL    HW2 2715   5.095   0.303   4.621
  606SOL     OW 2716   2.433   7.024   2.169
  606SOL    HW1 2717   2.399   0.068   2.230
  606SOL    HW2 2718   2.357   6.986   2.117
  607SOL     OW 2719   3.765   0.067   4.282
  607SOL    HW1 2720   3.695   0.020   4.229
  607SOL    HW2 2721   3.724   0.106   4.364
  608SOL     OW 2722   6.254   2.810   0.744
  608SOL    HW1 2723   6.336   2.846   0.701
  608SOL    HW2 2724   6.257   2.710   0.742
  609SOL     OW 2725   3.489   4.122   5.133
  609SOL    HW1 2726   3.455   4.113   5.039
  609SOL    HW2 2727   3.586   4.143   5.132
  610SOL     OW 2728   6.790   2.251   5.386
  610SOL    HW1 2729   6.793   2.253   5.486
  610SOL    HW2 2730   6.780   2.157   5.355
  611SOL     OW 2731   6.831   6.964   0.541
  611SOL    HW1 2732   6.868   0.028   0.553
  611SOL    HW2 2733   6.889   6.912   0.478
  612SOL     OW 2734   1.569   4.290   6.388
  612SOL    HW1 2735   1.648   4.257   6.337
  612SOL    HW2 2736   1.535   4.374   6.345
  613SOL     OW 2737   3.768   1.370   6.465
  613SOL    HW1 2738   3.801   1.291   6.517
  613SOL    HW2 2739   3.707   1.425   6.521
  614SOL     OW 2740   5.166   2.981   0.540
  614SOL    HW1 2741   5.170   3.080   0.552
  614SOL    HW2 2742   5.258   2.946   0.523
  615SOL     OW 2743   5.807   5.225   1.084
  615SOL    HW1 2744   5.839   5.131   1.072
  615SOL    HW2 2745   5.855   5.286   1.020
  616SOL     OW 2746   5.462   1.354   4.627
  616SOL    HW1 2747   5.433   1.391   4.715
  616SOL    HW2 2748   5.545   1.401   4.596
  617SOL     OW 2749   6.376   0.133   4.989
  617SOL    HW1 2750   6.394   0.042   4.951
  617SOL    HW2 2751   6.412   0.202   4.927
  618SOL     OW 2752   5.278   4.397   0.898
  618SOL    HW1 2753   5.206   4.369   0.834
  618SOL    HW2 2754   5.238   4.451   0.971
  619SOL     OW 2755   1.210   0.026   0.291
  619SOL    HW1 2756   1.212   6.957   0.318
  619SOL    HW2 2757   1.208   0.033   0.192
  620SOL     OW 2758   4.180   1.924   1.153
  620SOL    HW1 2759   4.277   1.902   1.142
  620SOL    HW2 2760   4.165   1.963   1.244
  621SOL     OW 2761   1.803   6.786   6.220
  621SOL    HW1 2762   1.705   6.778   6.236
  621SOL    HW2 2763   1.828   6.883   6.217
  622SOL     OW 2764   0.528   2.624   5.811
  622SOL    HW1 2765   0.594   2.654   5.879
  622SOL    HW2 2766   0.470   2.701   5.785
  623SOL     OW 2767   5.832   1.190   2.666
  623SOL    HW1 2768   5.795   1.162   2.755
  623SOL    HW2 2769   5.785   1.139   2.593
  624SOL     OW 2770   6.159   0.608   5.911
  624SOL    HW1 2771   6.087   0.655   5.962
  624SOL    HW2 2772   6.127   0.590   5.818
  625SOL     OW 2773   3.508   0.840   1.160
  625SOL    HW1 2774   3.500   0.912   1.091
  625SOL    HW2 2775   3.419   0.796   1.173
  626SOL     OW 2776   0.135   6.957   3.992
  626SOL    HW1 2777   0.119   6.859   3.984
  626SOL    HW2 2778   0.175   6.991   3.906
  627SOL     OW 2779   6.527   4.383   6.106
  627SOL    HW1 2780   6.592   4.433   6.163
  627SOL    HW2 2781   6.459   4.447   6.070
  628SOL     OW 2782   3.737   4.611   0.161
  628SOL    HW1 2783   3.703   4.694   0.116
  628SOL    HW2 2784   3.696   4.530   0.117
  629SOL     OW 2785   2.295   6.812   0.523
  629SOL    HW1 2786   2.391   6.817   0.495
  629SOL    HW2 2787   2.269   6.899   0.566
  630SOL     OW 2788   6.609   2.019   0.006
  630SOL    HW1 2789   6.572   1.939   6.986
  630SOL    HW2 2790   6.558   2.034   0.090
  631SOL     OW 2791   1.757   4.183   2.147
  631SOL    HW1 2792   1.827   4.157   2.214
  631SOL    HW2 2793   1.774   4.135   2.061
  632SOL     OW 2794   4.143   5.181   1.019
  632SOL    HW1 2795   4.210   5.195   0.946
  632SOL    HW2 2796   4.060   5.140   0.980
  633SOL     OW 2797   1.432   5.847   6.636
  633SOL    HW1 2798   1.375   5.817   6.712
  633SOL    HW2 2799   1.390   5.927   6.592
  634SOL     OW 2800   1.835   3.570   5.600
  634SOL    HW1 2801   1.845   3.653   5.546
  634SOL    HW2 2802   1.907   3.505   5.576
  635SOL     OW 2803   0.368   5.873   6.494
  635SOL    HW1 2804   0.302   5.939   6.458
  635SOL    HW2 2805   0.437   5.921   6.548
  636SOL     OW 2806   1.275   2.072   4.900
  636SOL    HW1 2807   1.292   2.111   4.990
  636SOL    HW2 2808   1.359   2.076   4.845
  637SOL     OW 2809   5.913   1.151   1.065
  637SOL    HW1 2810   5.928   1.244   1.100
  637SOL    HW2 2811   5.902   1.155   0.966
  638SOL     OW 2812   0.014   3.962   5.267
  638SOL    HW1 2813   6.995   3.890   5.318
  638SOL    HW2 2814   0.047   3.926   5.180
  639SOL     OW 2815   6.323   3.095   1.162
  639SOL    HW1 2816   6.346   3.181   1.209
  639SOL    HW2 2817   6.224   3.082   1.164
  640SOL     OW 2818   6.074   4.258   2.553
  640SOL    HW1 2819   6.035   4.225   2.639
  640SOL    HW2 2820   6.025   4.341   2.524
  641SOL     OW 2821   2.849   6.094   4.239
  641SOL    HW1 2822   2.831   6.089   4.141
  641SOL    HW2 2823   2.875   6.004   4.273
  642SOL     OW 2824   0.803   5.515   4.204
  642SOL    HW1 2825   0.860   5.453   4.150
  642SOL    HW2 2826   0.757   5.464   4.277
  643SOL     OW 2827   3.940   4.826   0.176
  643SOL    HW1 2828   3.862   4.889   0.178
  643SOL    HW2 2829   3.985   4.831   0.087
  644SOL     OW 2830   5.789   0.725   4.321
  644SOL    HW1 2831   5.745   0.677   4.245
  644SOL    HW2 2832   5.887   0.709   4.318
  645SOL     OW 2833   3.832   5.635   2.593
  645SOL    HW1 2834   3.835   5.604   2.689
  645SOL    HW2 2835   3.857   5.732   2.589
  646SOL     OW 2836   3.550   0.881   5.438
  646SOL    HW1 2837   3.637   0.852   5.476
  646SOL    HW2 2838   3.508   0.949   5.498
  647SOL     OW 2839   1.437   2.212   6.810
  647SOL    HW1 2840   1.420   2.310   6.799
  647SOL    HW2 2841   1.354   2.161   6.789
  648SOL     OW 2842   5.039   2.601   3.750
  648SOL    HW1 2843   4.994   2.605   3.661
  648SOL    HW2 2844   5.008   2.519   3.799
  649SOL     OW 2845   4.272   6.315   1.427
  649SOL    HW1 2846   4.174   6.299   1.416
  649SOL    HW2 2847   4.323   6.250   1.371
  650SOL     OW 2848   2.506   3.704   1.651
  650SOL    HW1 2849   2.565   3.625   1.670
  650SOL    HW2 2850   2.411   3.682   1.676
  651SOL     OW 2851   0.197   1.793   3.073
  651SOL    HW1 2852   0.157   1.820   3.161
  651SOL    HW2 2853   0.246   1.707   3.084
  652SOL     OW 2854   3.805   6.224   0.690
  652SOL    HW1 2855   3.705   6.219   0.697
  652SOL    HW2 2856   3.844   6.132   0.693
  653SOL     OW 2857   1.308   0.290   3.247
  653SOL    HW1 2858   1.322   0.303   3.149
  653SOL    HW2 2859   1.396   0.296   3.294
  654SOL     OW 2860   1.561   0.265   6.544
  654SOL    HW1 2861   1.467   0.252   6.573
  654SOL    HW2 2862   1.584   0.198   6.473
  655SOL     OW 2863   1.258   4.080   1.717
  655SOL    HW1 2864   1.237   4.046   1.625
  655SOL    HW2 2865   1.356   4.095   1.726
  656SOL     OW 2866   2.054   0.466   6.848
  656SOL    HW1 2867   2.149   0.459   6.878
  656SOL    HW2 2868   2.005   0.529   6.908
  657SOL     OW 2869   3.534   3.162   4.305
  657SOL    HW1 2870   3.585   3.139   4.223
  657SOL    HW2 2871   3.507   3.078   4.353
  658SOL     OW 2872   2.883   0.140   5.112
  658SOL    HW1 2873   2.945   0.204   5.159
  658SOL    HW2 2874   2.814   0.109   5.177
  659SOL     OW 2875   1.743   4.561   0.036
  659SOL    HW1 2876   1.720   4.492   6.995
  659SOL    HW2 2877   1.668   4.626   0.044
  660SOL     OW 2878   5.627   3.415   2.383
  660SOL    HW1 2879   5.694   3.421   2.457
  660SOL    HW2 2880   5.546   3.367   2.416
  661SOL     OW 2881   4.912   5.566   3.911
  661SOL    HW1 2882   4.900   5.590   4.007
  661SOL    HW2 2883   4.971   5.486   3.903
  662SOL     OW 2884   6.791   3.012   0.014
  662SOL    HW1 2885   6.757   3.037   0.105
  662SOL    HW2 2886   6.801   2.913   0.008
  663SOL     OW 2887   1.577   4.623   6.067
  663SOL    HW1 2888   1.563   4.589   6.160
  663SOL    HW2 2889   1.528   4.565   6.002
  664SOL     OW 2890   2.344   0.007   5.925
  664SOL    HW1 2891   2.356   6.938   5.946
  664SOL    HW2 2892   2.267   0.018   5.862
  665SOL     OW 2893   2.335   4.545   3.324
  665SOL    HW1 2894   2.363   4.471   3.385
  665SOL    HW2 2895   2.235   4.552   3.323
  666SOL     OW 2896   3.028   0.505   0.186
  666SOL    HW1 2897   3.080   0.420   0.179
  666SOL    HW2 2898   3.003   0.537   0.095
  667SOL     OW 2899   2.043   3.086   2.593
  667SOL    HW1 2900   2.089   3.039   2.668
  667SOL    HW2 2901   1.944   3.075   2.603
  668SOL     OW 2902   5.227   6.975   0.841
  668SOL    HW1 2903   5.284   7.016   0.770
  668SOL    HW2 2904   5.266   6.993   0.931
  669SOL     OW 2905   6.125   6.172   2.028
  669SOL    HW1 2906   6.218   6.208   2.042
  669SOL    HW2 2907   6.058   6.240   2.059
  670SOL     OW 2908   3.716   3.976   3.384
  670SOL    HW1 2909   3.691   4.062   3.339
  670SOL    HW2 2910   3.665   3.900   3.343
  671SOL     OW 2911   1.209   0.285   6.998
  671SOL    HW1 2912   1.187   0.362   0.030
  671SOL    HW2 2913   1.269   0.315   6.925
  672SOL     OW 2914   0.073   2.459   2.655
  672SOL    HW1 2915   0.008   2.534   2.639
  672SOL    HW2 2916   0.166   2.495   2.649
  673SOL     OW 2917   4.880   0.553   6.349
  673SOL    HW1 2918   4.961   0.596   6.389
  673SOL    HW2 2919   4.864   0.590   6.258
  674SOL     OW 2920   7.013   3.070   4.033
  674SOL    HW1 2921   6.915   3.080   4.049
  674SOL    HW2 2922   0.009   3.118   3.948
  675SOL     OW 2923   6.187   6.806   3.582
  675SOL    HW1 2924   6.191   6.739   3.655
  675SOL    HW2 2925   6.239   6.773   3.503
  676SOL     OW 2926   3.371   4.602   6.134
  676SOL    HW1 2927   3.275   4.629   6.126
  676SOL    HW2 2928   3.390   4.530   6.068
  677SOL     OW 2929   5.122   6.357   0.481
  677SOL    HW1 2930   5.164   6.270   0.456
  677SOL    HW2 2931   5.192   6.427   0.489
  678SOL     OW 2932   1.824   0.466   6.601
  678SOL    HW1 2933   1.907   0.484   6.653
  678SOL    HW2 2934   1.786   0.377   6.628
  679SOL     OW 2935   0.324   0.187   2.750
  679SOL    HW1 2936   0.300   0.090   2.761
  679SOL    HW2 2937   0.339   0.228   2.840
  680SOL     OW 2938   6.093   3.406   3.863
  680SOL    HW1 2939   6.120   3.319   3.903
  680SOL    HW2 2940   6.175   3.457   3.836
  681SOL     OW 2941   0.717   5.318   3.588
  681SOL    HW1 2942   0.791   5.337   3.653
  681SOL    HW2 2943   0.632   5.358   3.622
  682SOL     OW 2944   0.825   6.737   5.212
  682SOL    HW1 2945   0.898   6.799   5.182
  682SOL    HW2 2946   0.857   6.643   5.206
  683SOL     OW 2947   5.075   1.617   1.929
  683SOL    HW1 2948   5.151   1.611   1.994
  683SOL    HW2 2949   5.066   1.530   1.880
  684SOL     OW 2950   6.873   5.380   6.588
  684SOL    HW1 2951   6.915   5.303   6.541
  684SOL    HW2 2952   6.884   5.369   6.687
  685SOL     OW 2953   6.251   1.019   4.918
  685SOL    HW1 2954   6.289   0.932   4.950
  685SOL    HW2 2955   6.250   1.020   4.818
  686SOL     OW 2956   5.366   4.374   0.445
  686SOL    HW1 2957   5.363   4.435   0.524
  686SOL    HW2 2958   5.337   4.282   0.473
  687SOL     OW 2959   5.107   3.245   6.927
  687SOL    HW1 2960   5.162   3.210   7.003
  687SOL    HW2 2961   5.092   3.343   6.939
  688SOL     OW 2962   0.296   2.809   5.056
  688SOL    HW1 2963   0.249   2.892   5.088
  688SOL    HW2 2964   0.292   2.739   5.127
  689SOL     OW 2965   5.473   4.799   4.138
  689SOL    HW1 2966   5.472   4.893   4.104
  689SOL    HW2 2967   5.491   4.800   4.237
  690SOL     OW 2968   0.107   2.634   4.655
  690SOL    HW1 2969   0.140   2.550   4.614
  690SOL    HW2 2970   0.057   2.688   4.587
  691SOL     OW 2971   1.283   2.856   6.659
  691SOL    HW1 2972   1.229   2.772   6.655
  691SOL    HW2 2973   1.367   2.844   6.606
  692SOL     OW 2974   2.740   0.576   4.059
  692SOL    HW1 2975   2.741   0.619   3.968
  692SOL    HW2 2976   2.707   0.642   4.126
  693SOL     OW 2977   5.777   1.661   3.049
  693SOL    HW1 2978   5.758   1.563   3.038
  693SOL    HW2 2979   5.870   1.680   3.018
  694SOL     OW 2980   1.036   0.477   2.553
  694SOL    HW1 2981   1.012   0.562   2.599
  694SOL    HW2 2982   1.133   0.458   2.566
  695SOL     OW 2983   4.298   6.288   6.402
  695SOL    HW1 2984   4.284   6.205   6.456
  695SOL    HW2 2985   4.242   6.284   6.320
  696SOL     OW 2986   5.707   5.950   2.577
  696SOL    HW1 2987   5.727   5.876   2.513
  696SOL    HW2 2988   5.635   5.922   2.640
  697SOL     OW 2989   1.180   4.203   2.874
  697SOL    HW1 2990   1.260   4.167   2.923
  697SOL    HW2 2991   1.120   4.128   2.847
  698SOL     OW 2992   4.640   0.029   3.707
  698SOL    HW1 2993   4.557   0.083   3.715
  698SOL    HW2 2994   4.719   0.085   3.730
  699SOL     OW 2995   2.166   5.777   6.195
  699SOL    HW1 2996   2.084   5.811   6.150
  699SOL    HW2 2997   2.222   5.727   6.129
  700SOL     OW 2998   1.474   2.387   4.772
  700SOL    HW1 2999   1.430   2.432   4.694
  700SOL    HW2 3000   1.491   2.291   4.750
  701SOL     OW 3001   0.965   5.157   6.437
  701SOL    HW1 3002   1.055   5.161   6.393
  701SOL    HW2 3003   0.904   5.225   6.395
  702SOL     OW 3004   5.952   5.873   5.725
  702SOL    HW1 3005   5.918   5.816   5.650
  702SOL    HW2 3006   6.046   5.901   5.705
  703SOL     OW 3007   5.932   4.288   5.837
  703SOL    HW1 3008   5.908   4.252   5.747
  703SOL    HW2 3009   5.899   4.382   5.846
  704SOL     OW 3010   2.285   0.412   2.156
  704SOL    HW1 3011   2.327   0.348   2.220
  704SOL    HW2 3012   2.346   0.490   2.141
  705SOL     OW 3013   1.364   2.127   4.441
  705SOL    HW1 3014   1.344   2.039   4.396
  705SOL    HW2 3015   1.281   2.182   4.442
  706SOL     OW 3016   6.067   3.535   3.111
  706SOL    HW1 3017   5.980   3.489   3.096
  706SOL    HW2 3018   6.096   3.523   3.206
  707SOL     OW 3019   4.866   3.068   2.910
  707SOL    HW1 3020   4.822   3.067   2.820
  707SOL    HW2 3021   4.929   3.145   2.916
  708SOL     OW 3022   5.494   0.902   1.711
  708SOL    HW1 3023   5.421   0.970   1.718
  708SOL    HW2 3024   5.511   0.881   1.614
  709SOL     OW 3025   1.587   3.392   6.678
  709SOL    HW1 3026   1.598   3.488   6.650
  709SOL    HW2 3027   1.564   3.337   6.598
  710SOL     OW 3028   3.154   3.416   3.995
  710SOL    HW1 3029   3.144   3.420   4.094
  710SOL    HW2 3030   3.064   3.405   3.953
  711SOL     OW 3031   1.605   1.360   3.717
  711SOL    HW1 3032   1.528   1.300   3.742
  711SOL    HW2 3033   1.582   1.409   3.633
  712SOL     OW 3034   0.291   4.860   3.962
  712SOL    HW1 3035   0.191   4.867   3.955
  712SOL    HW2 3036   0.321   4.902   4.048
  713SOL     OW 3037   2.050   3.916   5.917
  713SOL    HW1 3038   2.042   3.828   5.871
  713SOL    HW2 3039   2.145   3.948   5.912
  714SOL     OW 3040   5.071   4.829   4.547
  714SOL    HW1 3041   5.139   4.903   4.544
  714SOL    HW2 3042   4.980   4.868   4.539
  715SOL     OW 3043   6.547   0.422   5.648
  715SOL    HW1 3044   6.591   0.505   5.613
  715SOL    HW2 3045   6.461   0.446   5.693
  716SOL     OW 3046   6.331   5.924   0.270
  716SOL    HW1 3047   6.239   5.935   0.308
  716SOL    HW2 3048   6.331   5.851   0.202
  717SOL     OW 3049   6.098   3.041   5.563
  717SOL    HW1 3050   6.076   2.975   5.634
  717SOL    HW2 3051   6.143   3.121   5.604
  718SOL     OW 3052   3.545   3.293   1.254
  718SOL    HW1 3053   3.498   3.343   1.182
  718SOL    HW2 3054   3.498   3.207   1.272
  719SOL     OW 3055   7.010   4.337   0.448
  719SOL    HW1 3056   6.974   4.418   0.495
  719SOL    HW2 3057   0.036   4.366   0.369
  720SOL     OW 3058   4.212   0.804   5.886
  720SOL    HW1 3059   4.277   0.821   5.960
  720SOL    HW2 3060   4.245   0.730   5.828
  721SOL     OW 3061   2.130   0.482   5.172
  721SOL    HW1 3062   2.039   0.452   5.145
  721SOL    HW2 3063   2.175   0.527   5.094
  722SOL     OW 3064   4.569   1.588   5.429
  722SOL    HW1 3065   4.583   1.685   5.412
  722SOL    HW2 3066   4.473   1.572   5.455
  723SOL     OW 3067   0.228   3.645   1.730
  723SOL    HW1 3068   0.264   3.692   1.650
  723SOL    HW2 3069   0.198   3.713   1.798
  724SOL     OW 3070   0.500   2.588   4.582
  724SOL    HW1 3071   0.482   2.668   4.525
  724SOL    HW2 3072   0.420   2.528   4.584
  725SOL     OW 3073   2.633   5.413   2.292
  725SOL    HW1 3074   2.636   5.451   2.200
  725SOL    HW2 3075   2.701   5.459   2.349
  726SOL     OW 3076   5.592   5.697   0.482
  726SOL    HW1 3077   5.567   5.762   0.554
  726SOL    HW2 3078   5.509   5.657   0.443
  727SOL     OW 3079   1.281   5.030   4.282
  727SOL    HW1 3080   1.340   5.024   4.363
  727SOL    HW2 3081   1.337   5.018   4.200
  728SOL     OW 3082   6.191   2.317   6.467
  728SOL    HW1 3083   6.097   2.314   6.499
  728SOL    HW2 3084   6.252   2.291   6.542
  729SOL     OW 3085   3.972   1.158   0.469
  729SOL    HW1 3086   4.037   1.124   0.537
  729SOL    HW2 3087   3.949   1.253   0.489
  730SOL     OW 3088   6.185   1.082   3.432
  730SOL    HW1 3089   6.187   1.142   3.352
  730SOL    HW2 3090   6.260   1.106   3.494
  731SOL     OW 3091   0.139   1.931   3.580
  731SOL    HW1 3092   0.067   1.979   3.630
  731SOL    HW2 3093   0.228   1.949   3.623
  732SOL     OW 3094   0.308   4.125   3.926
  732SOL    HW1 3095   0.401   4.120   3.964
  732SOL    HW2 3096   0.300   4.060   3.850
  733SOL     OW 3097   5.656   4.453   4.776
  733SOL    HW1 3098   5.610   4.365   4.763
  733SOL    HW2 3099   5.603   4.510   4.839
  734SOL     OW 3100   0.922   0.414   0.356
  734SOL    HW1 3101   1.000   0.465   0.322
  734SOL    HW2 3102   0.950   0.321   0.379
  735SOL     OW 3103   3.331   4.468   0.116
  735SOL    HW1 3104   3.248   4.473   0.062
  735SOL    HW2 3105   3.362   4.560   0.139
  736SOL     OW 3106   5.287   1.423   1.793
  736SOL    HW1 3107   5.314   1.479   1.872
  736SOL    HW2 3108   5.272   1.482   1.714
  737SOL     OW 3109   5.307   4.011   0.081
  737SOL    HW1 3110   5.264   4.045   7.025
  737SOL    HW2 3111   5.244   4.023   0.158
  738SOL     OW 3112   6.979   3.597   3.996
  738SOL    HW1 3113   0.038   3.562   3.960
  738SOL    HW2 3114   6.991   3.691   4.026
  739SOL     OW 3115   4.852   5.550   6.132
  739SOL    HW1 3116   4.944   5.590   6.130
  739SOL    HW2 3117   4.857   5.453   6.108
  740SOL     OW 3118   5.882   6.765   0.688
  740SOL    HW1 3119   5.865   6.825   0.609
  740SOL    HW2 3120   5.812   6.695   0.692
  741SOL     OW 3121   1.577   0.686   3.746
  741SOL    HW1 3122   1.643   0.700   3.820
  741SOL    HW2 3123   1.488   0.722   3.773
  742SOL     OW 3124   1.325   6.161   2.355
  742SOL    HW1 3125   1.273   6.235   2.312
  742SOL    HW2 3126   1.320   6.170   2.454
  743SOL     OW 3127   1.508   3.178   2.116
  743SOL    HW1 3128   1.592   3.124   2.107
  743SOL    HW2 3129   1.429   3.118   2.107
  744SOL     OW 3130   6.803   4.938   1.345
  744SOL    HW1 3131   6.774   4.996   1.269
  744SOL    HW2 3132   6.849   4.993   1.414
  745SOL     OW 3133   1.227   6.451   1.642
  745SOL    HW1 3134   1.178   6.366   1.619
  745SOL    HW2 3135   1.314   6.452   1.593
  746SOL     OW 3136   2.910   0.078   3.528
  746SOL    HW1 3137   2.971   7.028   3.516
  746SOL    HW2 3138   2.862   0.069   3.616
  747SOL     OW 3139   0.190   3.917   0.560
  747SOL    HW1 3140   0.115   3.973   0.526
  747SOL    HW2 3141   0.206   3.939   0.657
  748SOL     OW 3142   4.100   3.750   4.023
  748SOL    HW1 3143   4.188   3.798   4.017
  748SOL    HW2 3144   4.033   3.795   3.965
  749SOL     OW 3145   4.536   3.138   5.342
  749SOL    HW1 3146   4.557   3.188   5.426
  749SOL    HW2 3147   4.597   3.169   5.269
  750SOL     OW 3148   2.951   3.079   1.962
  750SOL    HW1 3149   2.887   3.139   2.010
  750SOL    HW2 3150   3.018   3.043   2.027
  751SOL     OW 3151   5.269   1.057   0.777
  751SOL    HW1 3152   5.312   1.118   0.711
  751SOL    HW2 3153   5.318   1.062   0.864
  752SOL     OW 3154   4.426   0.386   2.225
  752SOL    HW1 3155   4.472   0.299   2.214
  752SOL    HW2 3156   4.327   0.373   2.219
  753SOL     OW 3157   3.085   1.863   1.747
  753SOL    HW1 3158   3.119   1.770   1.737
  753SOL    HW2 3159   3.043   1.873   1.838
  754SOL     OW 3160   5.136   5.223   0.004
  754SOL    HW1 3161   5.181   5.311   7.016
  754SOL    HW2 3162   5.201   5.158   0.041
  755SOL     OW 3163   5.834   5.087   2.397
  755SOL    HW1 3164   5.775   5.164   2.371
  755SOL    HW2 3165   5.841   5.023   2.320
  756SOL     OW 3166   2.721   6.342   4.790
  756SOL    HW1 3167   2.693   6.253   4.826
  756SOL    HW2 3168   2.740   6.404   4.866
  757SOL     OW 3169   0.024   1.169   4.095
  757SOL    HW1 3170   0.015   1.213   4.005
  757SOL    HW2 3171   6.965   1.176   4.144
  758SOL     OW 3172   3.995   1.686   0.454
  758SOL    HW1 3173   4.028   1.603   0.500
  758SOL    HW2 3174   4.002   1.673   0.355
  759SOL     OW 3175   2.177   0.571   1.245
  759SOL    HW1 3176   2.113   0.551   1.170
  759SOL    HW2 3177   2.242   0.496   1.254
  760SOL     OW 3178   5.162   1.267   5.676
  760SOL    HW1 3179   5.063   1.285   5.672
  760SOL    HW2 3180   5.190   1.219   5.593
  761SOL     OW 3181   4.980   0.908   6.609
  761SOL    HW1 3182   4.889   0.947   6.617
  761SOL    HW2 3183   5.048   0.981   6.601
  762SOL     OW 3184   2.449   4.488   5.035
  762SOL    HW1 3185   2.504   4.554   4.984
  762SOL    HW2 3186   2.460   4.397   4.994
  763SOL     OW 3187   0.729   4.471   1.071
  763SOL    HW1 3188   0.786   4.517   1.139
  763SOL    HW2 3189   0.633   4.472   1.101
  764SOL     OW 3190   5.886   1.395   2.266
  764SOL    HW1 3191   5.938   1.397   2.352
  764SOL    HW2 3192   5.916   1.317   2.211
  765SOL     OW 3193   0.877   6.206   2.665
  765SOL    HW1 3194   0.862   6.303   2.651
  765SOL    HW2 3195   0.936   6.170   2.592
  766SOL     OW 3196   0.695   6.075   0.319
  766SOL    HW1 3197   0.685   5.976   0.324
  766SOL    HW2 3198   0.620   6.119   0.369
  767SOL     OW 3199   5.521   6.334   1.768
  767SOL    HW1 3200   5.612   6.312   1.802
  767SOL    HW2 3201   5.472   6.389   1.835
  768SOL     OW 3202   2.667   6.109   4.904
  768SOL    HW1 3203   2.570   6.084   4.902
  768SOL    HW2 3204   2.713   6.059   4.978
  769SOL     OW 3205   3.434   0.496   0.380
  769SOL    HW1 3206   3.450   0.492   0.479
  769SOL    HW2 3207   3.436   0.404   0.342
  770SOL     OW 3208   4.165   4.704   5.349
  770SOL    HW1 3209   4.098   4.773   5.377
  770SOL    HW2 3210   4.196   4.653   5.429
  771SOL     OW 3211   0.339   6.971   4.692
  771SOL    HW1 3212   0.253   6.995   4.647
  771SOL    HW2 3213   0.402   6.931   4.626
  772SOL     OW 3214   0.810   3.131   6.668
  772SOL    HW1 3215   0.813   3.042   6.713
  772SOL    HW2 3216   0.831   3.202   6.735
  773SOL     OW 3217   0.138   3.329   1.911
  773SOL    HW1 3218   0.230   3.362   1.887
  773SOL    HW2 3219   0.143   3.271   1.992
  774SOL     OW 3220   1.323   1.648   1.875
  774SOL    HW1 3221   1.226   1.623   1.872
  774SOL    HW2 3222   1.350   1.687   1.787
  775SOL     OW 3223   1.943   2.478   4.237
  775SOL    HW1 3224   1.969   2.552   4.299
  775SOL    HW2 3225   1.876   2.419   4.281
  776SOL     OW 3226   2.465   1.368   5.305
  776SOL    HW1 3227   2.391   1.417   5.351
  776SOL    HW2 3228   2.500   1.296   5.365
  777SOL     OW 3229   4.665   0.509   6.712
  777SOL    HW1 3230   4.760   0.483   6.734
  777SOL    HW2 3231   4.651   0.503   6.614
  778SOL     OW 3232   5.168   6.132   5.249
  778SOL    HW1 3233   5.246   6.190   5.224
  778SOL    HW2 3234   5.088   6.158   5.195
  779SOL     OW 3235   0.911   7.024   2.394
  779SOL    HW1 3236   0.908   6.995   2.489
  779SOL    HW2 3237   0.843   0.068   2.379
  780SOL     OW 3238   5.794   2.456   5.486
  780SOL    HW1 3239   5.702   2.439   5.452
  780SOL    HW2 3240   5.789   2.507   5.572
  781SOL     OW 3241   1.188   3.816   0.218
  781SOL    HW1 3242   1.132   3.778   0.291
  781SOL    HW2 3243   1.183   3.756   0.138
  782SOL     OW 3244   0.317   5.107   0.640
  782SOL    HW1 3245   0.361   5.050   0.570
  782SOL    HW2 3246   0.369   5.101   0.725
  783SOL     OW 3247   1.345   5.560   0.507
  783SOL    HW1 3248   1.247   5.566   0.527
  783SOL    HW2 3249   1.390   5.643   0.540
  784SOL     OW 3250   5.294   5.541   3.032
  784SOL    HW1 3251   5.246   5.625   3.005
  784SOL    HW2 3252   5.369   5.564   3.094
  785SOL     OW 3253   6.664   2.962   3.148
  785SOL    HW1 3254   6.721   2.935   3.070
  785SOL    HW2 3255   6.582   2.905   3.150
  786SOL     OW 3256   5.892   0.030   1.320
  786SOL    HW1 3257   5.861   6.995   1.391
  786SOL    HW2 3258   5.968   7.016   1.270
  787SOL     OW 3259   5.005   1.300   5.404
  787SOL    HW1 3260   4.967   1.311   5.312
  787SOL    HW2 3261   4.961   1.365   5.466
  788SOL     OW 3262   6.481   4.952   3.116
  788SOL    HW1 3263   6.481   4.960   3.216
  788SOL    HW2 3264   6.526   4.867   3.090
  789SOL     OW 3265   5.892   2.736   0.256
  789SOL    HW1 3266   5.977   2.789   0.257
  789SOL    HW2 3267   5.913   2.640   0.241
  790SOL     OW 3268   2.861   0.765   4.416
  790SOL    HW1 3269   2.775   0.740   4.370
  790SOL    HW2 3270   2.923   0.686   4.415
  791SOL     OW 3271   3.285   1.248   3.696
  791SOL    HW1 3272   3.291   1.348   3.697
  791SOL    HW2 3273   3.318   1.212   3.783
  792SOL     OW 3274   4.869   0.782   3.829
  792SOL    HW1 3275   4.951   0.812   3.781
  792SOL    HW2 3276   4.846   0.689   3.800
  793SOL     OW 3277   0.622   6.392   6.452
  793SOL    HW1 3278   0.645   6.343   6.536
  793SOL    HW2 3279   0.536   6.440   6.464
  794SOL     OW 3280   3.543   5.258   5.134
  794SOL    HW1 3281   3.457   5.296   5.099
  794SOL    HW2 3282   3.529   5.161   5.156
  795SOL     OW 3283   4.918   5.607   0.085
  795SOL    HW1 3284   5.003   5.660   0.084
  795SOL    HW2 3285   4.877   5.609   7.022
  796SOL     OW 3286   1.403   1.885   6.411
  796SOL    HW1 3287   1.374   1.959   6.350
  796SOL    HW2 3288   1.480   1.836   6.370
  797SOL     OW 3289   6.196   3.252   5.693
  797SOL    HW1 3290   6.261   3.292   5.628
  797SOL    HW2 3291   6.246   3.218   5.773
  798SOL     OW 3292   6.113   0.442   4.177
  798SOL    HW1 3293   6.038   0.481   4.123
  798SOL    HW2 3294   6.154   0.366   4.128
  799SOL     OW 3295   6.738   4.319   4.012
  799SOL    HW1 3296   6.794   4.391   3.972
  799SOL    HW2 3297   6.744   4.236   3.955
  800SOL     OW 3298   0.440   2.357   2.107
  800SOL    HW1 3299   0.433   2.402   2.197
  800SOL    HW2 3300   0.501   2.278   2.114
  801SOL     OW 3301   0.115   3.622   3.590
  801SOL    HW1 3302   0.089   3.692   3.523
  801SOL    HW2 3303   0.135   3.665   3.678
  802SOL     OW 3304   6.930   0.718   0.841
  802SOL    HW1 3305   6.955   0.774   0.762
  802SOL    HW2 3306   7.006   0.717   0.906
  803SOL     OW 3307   2.581   6.270   4.536
  803SOL    HW1 3308   2.645   6.292   4.610
  803SOL    HW2 3309   2.491   6.308   4.557
  804SOL     OW 3310   5.746   5.551   0.843
  804SOL    HW1 3311   5.816   5.499   0.793
  804SOL    HW2 3312   5.695   5.489   0.902
  805SOL     OW 3313   2.432   2.152   6.351
  805SOL    HW1 3314   2.509   2.208   6.383
  805SOL    HW2 3315   2.346   2.194   6.379
  806SOL     OW 3316   4.022   6.248   0.112
  806SOL    HW1 3317   3.933   6.294   0.107
  806SOL    HW2 3318   4.063   6.265   0.201
  807SOL     OW 3319   6.549   1.009   3.168
  807SOL    HW1 3320   6.535   1.081   3.101
  807SOL    HW2 3321   6.480   0.937   3.155
  808SOL     OW 3322   5.948   3.824   5.167
  808SOL    HW1 3323   5.875   3.893   5.162
  808SOL    HW2 3324   5.993   3.830   5.256
  809SOL     OW 3325   0.035   6.040   5.699
  809SOL    HW1 3326   6.993   5.969   5.694
  809SOL    HW2 3327   0.106   6.012   5.765
  810SOL     OW 3328   5.493   4.870   6.034
  810SOL    HW1 3329   5.434   4.790   6.025
  810SOL    HW2 3330   5.572   4.846   6.091
  811SOL     OW 3331   2.804   4.820   2.519
  811SOL    HW1 3332   2.850   4.807   2.432
  811SOL    HW2 3333   2.868   4.860   2.585
  812SOL     OW 3334   7.024   0.131   2.984
  812SOL    HW1 3335   7.015   0.147   2.886
  812SOL    HW2 3336   0.048   0.205   3.026
  813SOL     OW 3337   4.897   4.559   2.119
  813SOL    HW1 3338   4.862   4.478   2.073
  813SOL    HW2 3339   4.832   4.590   2.188
  814SOL     OW 3340   4.928   5.071   1.526
  814SOL    HW1 3341   5.021   5.074   1.561
  814SOL    HW2 3342   4.892   4.978   1.533
  815SOL     OW 3343   0.670   1.253   1.356
  815SOL    HW1 3344   0.588   1.259   1.299
  815SOL    HW2 3345   0.710   1.162   1.348
  816SOL     OW 3346   6.518   0.872   0.796
  816SOL    HW1 3347   6.470   0.867   0.708
  816SOL    HW2 3348   6.519   0.966   0.828
  817SOL     OW 3349   6.976   1.925   2.454
  817SOL    HW1 3350   7.000   1.976   2.536
  817SOL    HW2 3351   0.029   1.917   2.395
  818SOL     OW 3352   5.583   2.039   3.385
  818SOL    HW1 3353   5.601   2.038   3.287
  818SOL    HW2 3354   5.484   2.045   3.400
  819SOL     OW 3355   0.444   5.071   2.899
  819SOL    HW1 3356   0.473   5.053   2.993
  819SOL    HW2 3357   0.426   5.168   2.887
  820SOL     OW 3358   2.782   3.348   6.025
  820SOL    HW1 3359   2.726   3.413   5.973
  820SOL    HW2 3360   2.755   3.255   6.003
  821SOL     OW 3361   1.421   4.237   0.341
  821SOL    HW1 3362   1.453   4.330   0.318
  821SOL    HW2 3363   1.398   4.189   0.257
  822SOL     OW 3364   0.703   3.001   5.743
  822SOL    HW1 3365   0.663   3.090   5.760
  822SOL    HW2 3366   0.783   3.011   5.684
  823SOL     OW 3367   4.917   4.127   1.620
  823SOL    HW1 3368   4.845   4.120   1.689
  823SOL    HW2 3369   4.952   4.220   1.616
  824SOL     OW 3370   6.220   4.017   6.831
  824SOL    HW1 3371   6.213   3.947   6.903
  824SOL    HW2 3372   6.210   3.973   6.742
  825SOL     OW 3373   2.272   3.028   1.685
  825SOL    HW1 3374   2.229   3.018   1.595
  825SOL    HW2 3375   2.371   3.014   1.676
  826SOL     OW 3376   1.241   1.350   6.655
  826SOL    HW1 3377   1.267   1.318   6.746
  826SOL    HW2 3378   1.162   1.411   6.662
  827SOL     OW 3379   4.049   4.336   0.942
  827SOL    HW1 3380   3.952   4.346   0.964
  827SOL    HW2 3381   4.094   4.425   0.943
  828SOL     OW 3382   5.926   1.578   5.437
  828SOL    HW1 3383   5.964   1.508   5.377
  828SOL    HW2 3384   5.841   1.545   5.478
  829SOL     OW 3385   4.494   4.593   5.913
  829SOL    HW1 3386   4.573   4.643   5.948
  829SOL    HW2 3387   4.486   4.506   5.961
  830SOL     OW 3388   4.186   3.684   6.653
  830SOL    HW1 3389   4.275   3.664   6.612
  830SOL    HW2 3390   4.113   3.661   6.589
  831SOL     OW 3391   5.440   1.931   5.801
  831SOL    HW1 3392   5.439   1.896   5.708
  831SOL    HW2 3393   5.359   1.988   5.817
  832SOL     OW 3394   3.392   1.311   5.721
  832SOL    HW1 3395   3.427   1.383   5.781
  832SOL    HW2 3396   3.389   1.345   5.626
  833SOL     OW 3397   1.123   0.886   5.183
  833SOL    HW1 3398   1.081   0.863   5.095
  833SOL    HW2 3399   1.196   0.821   5.203
  834SOL     OW 3400   2.810   4.596   5.839
  834SOL    HW1 3401   2.831   4.677   5.785
  834SOL    HW2 3402   2.729   4.613   5.896
  835SOL     OW 3403   3.987   1.773   2.560
  835SOL    HW1 3404   4.054   1.707   2.593
  835SOL    HW2 3405   3.896   1.746   2.592
  836SOL     OW 3406   2.041   1.100   5.738
  836SOL    HW1 3407   2.119   1.140   5.786
  836SOL    HW2 3408   1.960   1.157   5.753
  837SOL     OW 3409   3.934   1.520   4.398
  837SOL    HW1 3410   4.011   1.574   4.366
  837SOL    HW2 3411   3.929   1.435   4.345
  838SOL     OW 3412   0.545   6.268   2.183
  838SOL    HW1 3413   0.518   6.179   2.219
  838SOL    HW2 3414   0.477   6.300   2.118
  839SOL     OW 3415   2.032   1.666   1.996
  839SOL    HW1 3416   2.062   1.740   2.055
  839SOL    HW2 3417   2.101   1.652   1.924
  840SOL     OW 3418   2.229   0.715   4.615
  840SOL    HW1 3419   2.318   0.697   4.659
  840SOL    HW2 3420   2.161   0.737   4.685
  841SOL     OW 3421   6.690   3.088   0.260
  841SOL    HW1 3422   6.710   3.062   0.355
  841SOL    HW2 3423   6.705   3.186   0.248
  842SOL     OW 3424   3.949   5.149   4.304
  842SOL    HW1 3425   3.949   5.051   4.285
  842SOL    HW2 3426   3.868   5.173   4.358
  843SOL     OW 3427   6.700   3.004   0.857
  843SOL    HW1 3428   6.630   2.963   0.916
  843SOL    HW2 3429   6.760   2.932   0.822
  844SOL     OW 3430   5.574   4.443   6.373
  844SOL    HW1 3431   5.588   4.368   6.437
  844SOL    HW2 3432   5.511   4.510   6.413
  845SOL     OW 3433   2.095   5.013   5.771
  845SOL    HW1 3434   2.062   5.025   5.864
  845SOL    HW2 3435   2.075   4.920   5.740
  846SOL     OW 3436   5.037   2.206   0.141
  846SOL    HW1 3437   5.117   2.182   0.197
  846SOL    HW2 3438   4.978   2.126   0.131
  847SOL     OW 3439   4.913   3.494   1.482
  847SOL    HW1 3440   5.005   3.521   1.452
  847SOL    HW2 3441   4.906   3.394   1.479
  848SOL     OW 3442   5.980   6.574   5.431
  848SOL    HW1 3443   6.002   6.671   5.437
  848SOL    HW2 3444   6.053   6.526   5.383
  849SOL     OW 3445   1.028   0.113   3.461
  849SOL    HW1 3446   1.004   0.037   3.401
  849SOL    HW2 3447   1.075   0.078   3.542
  850SOL     OW 3448   2.864   0.741   3.065
  850SOL    HW1 3449   2.856   0.819   3.003
  850SOL    HW2 3450   2.822   0.765   3.153
  851SOL     OW 3451   6.477   1.491   6.020
  851SOL    HW1 3452   6.405   1.466   5.955
  851SOL    HW2 3453   6.520   1.408   6.055
  852SOL     OW 3454   3.606   4.985   4.729
  852SOL    HW1 3455   3.651   4.984   4.639
  852SOL    HW2 3456   3.675   4.969   4.800
  853SOL     OW 3457   1.293   3.698   1.065
  853SOL    HW1 3458   1.392   3.704   1.080
  853SOL    HW2 3459   1.273   3.701   0.967
  854SOL     OW 3460   6.661   4.707   1.454
  854SOL    HW1 3461   6.693   4.779   1.393
  854SOL    HW2 3462   6.566   4.724   1.480
  855SOL     OW 3463   4.859   0.182   0.406
  855SOL    HW1 3464   4.880   0.199   0.309
  855SOL    HW2 3465   4.771   0.135   0.413
  856SOL     OW 3466   1.996   1.306   5.386
  856SOL    HW1 3467   1.944   1.244   5.446
  856SOL    HW2 3468   2.060   1.252   5.331
  857SOL     OW 3469   6.865   4.874   2.447
  857SOL    HW1 3470   6.924   4.897   2.524
  857SOL    HW2 3471   6.786   4.935   2.446
  858SOL     OW 3472   3.809   3.353   2.102
  858SOL    HW1 3473   3.839   3.397   2.187
  858SOL    HW2 3474   3.833   3.256   2.105
  859SOL     OW 3475   6.237   4.071   1.497
  859SOL    HW1 3476   6.297   4.009   1.446
  859SOL    HW2 3477   6.275   4.086   1.588
  860SOL     OW 3478   1.546   4.295   6.038
  860SOL    HW1 3479   1.459   4.335   6.010
  860SOL    HW2 3480   1.562   4.211   5.987
  861SOL     OW 3481   4.445   4.968   6.647
  861SOL    HW1 3482   4.387   4.898   6.689
  861SOL    HW2 3483   4.495   4.928   6.571
  862SOL     OW 3484   4.237   4.784   3.682
  862SOL    HW1 3485   4.227   4.801   3.583
  862SOL    HW2 3486   4.282   4.696   3.696
  863SOL     OW 3487   6.689   2.973   1.217
  863SOL    HW1 3488   6.736   3.048   1.171
  863SOL    HW2 3489   6.638   2.920   1.150
  864SOL     OW 3490   1.448   6.813   1.472
  864SOL    HW1 3491   1.374   6.843   1.411
  864SOL    HW2 3492   1.444   6.865   1.557
  865SOL     OW 3493   0.792   1.231   3.543
  865SOL    HW1 3494   0.745   1.143   3.534
  865SOL    HW2 3495   0.836   1.236   3.633
  866SOL     OW 3496   3.715   0.597   2.100
  866SOL    HW1 3497   3.651   0.593   2.023
  866SOL    HW2 3498   3.712   0.688   2.142
  867SOL     OW 3499   3.488   1.707   6.444
  867SOL    HW1 3500   3.518   1.612   6.454
  867SOL    HW2 3501   3.427   1.731   6.520
  868SOL     OW 3502   4.941   2.246   3.608
  868SOL    HW1 3503   4.977   2.208   3.523
  868SOL    HW2 3504   4.850   2.283   3.593
  869SOL     OW 3505   6.285   3.344   0.847
  869SOL    HW1 3506   6.367   3.310   0.895
  869SOL    HW2 3507   6.262   3.435   0.881
  870SOL     OW 3508   6.135   1.829   0.461
  870SOL    HW1 3509   6.065   1.775   0.415
  870SOL    HW2 3510   6.224   1.785   0.450
  871SOL     OW 3511   0.190   4.395   0.919
  871SOL    HW1 3512   0.201   4.452   0.837
  871SOL    HW2 3513   0.136   4.445   0.986
  872SOL     OW 3514   5.877   1.734   1.691
  872SOL    HW1 3515   5.824   1.748   1.775
  872SOL    HW2 3516   5.969   1.771   1.703
  873SOL     OW 3517   4.083   0.071   3.702
  873SOL    HW1 3518   4.149   0.033   3.638
  873SOL    HW2 3519   4.030   7.026   3.745
  874SOL     OW 3520   1.076   3.594   6.279
  874SOL    HW1 3521   0.998   3.577   6.218
  874SOL    HW2 3522   1.081   3.522   6.347
  875SOL     OW 3523   6.305   5.931   6.952
  875SOL    HW1 3524   6.215   5.919   6.910
  875SOL    HW2 3525   6.301   6.002   7.022
  876SOL     OW 3526   2.616   2.458   1.916
  876SOL    HW1 3527   2.713   2.454   1.941
  876SOL    HW2 3528   2.560   2.467   1.998
  877SOL     OW 3529   6.007   5.459   5.911
  877SOL    HW1 3530   6.072   5.400   5.863
  877SOL    HW2 3531   6.035   5.467   6.007
  878SOL     OW 3532   4.182   3.179   1.607
  878SOL    HW1 3533   4.101   3.124   1.629
  878SOL    HW2 3534   4.241   3.185   1.688
  879SOL     OW 3535   5.560   3.268   2.859
  879SOL    HW1 3536   5.478   3.217   2.832
  879SOL    HW2 3537   5.574   3.259   2.958
  880SOL     OW 3538   3.870   0.035   1.133
  880SOL    HW1 3539   3.804   6.987   1.138
  880SOL    HW2 3540   3.960   7.027   1.110
  881SOL     OW 3541   4.759   5.796   3.288
  881SOL    HW1 3542   4.778   5.712   3.339
  881SOL    HW2 3543   4.735   5.774   3.194
  882SOL     OW 3544   1.143   2.378   5.052
  882SOL    HW1 3545   1.104   2.362   4.962
  882SOL    HW2 3546   1.117   2.469   5.084
  883SOL     OW 3547   2.694   5.078   0.243
  883SOL    HW1 3548   2.610   5.130   0.259
  883SOL    HW2 3549   2.712   5.019   0.322
  884SOL     OW 3550   4.549   4.198   1.460
  884SOL    HW1 3551   4.507   4.118   1.503
  884SOL    HW2 3552   4.627   4.169   1.405
  885SOL     OW 3553   3.934   5.543   6.665
  885SOL    HW1 3554   3.876   5.577   6.591
  885SOL    HW2 3555   3.883   5.546   6.751
  886SOL     OW 3556   3.912   2.692   6.497
  886SOL    HW1 3557   3.898   2.676   6.595
  886SOL    HW2 3558   3.856   2.769   6.467
  887SOL     OW 3559   6.503   6.398   5.046
  887SOL    HW1 3560   6.494   6.480   5.102
  887SOL    HW2 3561   6.530   6.321   5.103
  888SOL     OW 3562   6.393   1.382   3.811
  888SOL    HW1 3563   6.338   1.382   3.895
  888SOL    HW2 3564   6.425   1.475   3.793
  889SOL     OW 3565   0.799   0.221   4.813
  889SOL    HW1 3566   0.826   0.227   4.717
  889SOL    HW2 3567   0.714   0.273   4.826
  890SOL     OW 3568   2.722   3.409   0.544
  890SOL    HW1 3569   2.646   3.391   0.607
  890SOL    HW2 3570   2.802   3.358   0.573
  891SOL     OW 3571   6.707   3.299   5.633
  891SOL    HW1 3572   6.722   3.201   5.643
  891SOL    HW2 3573   6.767   3.349   5.697
  892SOL     OW 3574   2.389   4.355   2.029
  892SOL    HW1 3575   2.408   4.309   2.115
  892SOL    HW2 3576   2.433   4.445   2.028
  893SOL     OW 3577   1.994   0.809   1.836
  893SOL    HW1 3578   1.953   0.900   1.845
  893SOL    HW2 3579   2.049   0.804   1.753
  894SOL     OW 3580   1.220   5.467   3.789
  894SOL    HW1 3581   1.209   5.517   3.703
  894SOL    HW2 3582   1.219   5.369   3.771
  895SOL     OW 3583   2.774   1.441   4.550
  895SOL    HW1 3584   2.785   1.501   4.471
  895SOL    HW2 3585   2.677   1.421   4.563
  896SOL     OW 3586   4.654   6.816   2.732
  896SOL    HW1 3587   4.674   6.852   2.824
  896SOL    HW2 3588   4.633   6.891   2.670
  897SOL     OW 3589   6.412   0.585   6.705
  897SOL    HW1 3590   6.487   0.571   6.640
  897SOL    HW2 3591   6.435   0.661   6.766
  898SOL     OW 3592   5.622   5.927   3.476
  898SOL    HW1 3593   5.643   5.859   3.546
  898SOL    HW2 3594   5.523   5.936   3.465
  899SOL     OW 3595   1.848   4.811   0.216
  899SOL    HW1 3596   1.876   4.730   0.268
  899SOL    HW2 3597   1.851   4.789   0.119
  900SOL     OW 3598   0.096   5.344   3.363
  900SOL    HW1 3599   0.194   5.338   3.380
  900SOL    HW2 3600   0.071   5.439   3.344
  901SOL     OW 3601   6.325   2.512   3.336
  901SOL    HW1 3602   6.237   2.537   3.298
  901SOL    HW2 3603   6.370   2.445   3.277
  902SOL     OW 3604   1.724   6.020   6.901
  902SOL    HW1 3605   1.766   5.949   6.845
  902SOL    HW2 3606   1.795   6.066   6.955
  903SOL     OW 3607   1.144   5.007   0.091
  903SOL    HW1 3608   1.068   5.060   0.130
  903SOL    HW2 3609   1.188   5.061   0.019
  904SOL     OW 3610   1.192   2.207   3.774
  904SOL    HW1 3611   1.164   2.137   3.839
  904SOL    HW2 3612   1.179   2.174   3.681
  905SOL     OW 3613   6.316   4.380   3.513
  905SOL    HW1 3614   6.373   4.334   3.445
  905SOL    HW2 3615   6.303   4.319   3.591
  906SOL     OW 3616   0.140   3.675   5.595
  906SOL    HW1 3617   0.086   3.592   5.607
  906SOL    HW2 3618   0.235   3.650   5.575
  907SOL     OW 3619   6.806   4.548   2.918
  907SOL    HW1 3620   6.749   4.596   2.851
  907SOL    HW2 3621   6.792   4.450   2.910
  908SOL     OW 3622   2.437   1.109   3.030
  908SOL    HW1 3623   2.438   1.204   3.063
  908SOL    HW2 3624   2.373   1.101   2.953
  909SOL     OW 3625   2.986   6.745   2.444
  909SOL    HW1 3626   3.014   6.743   2.348
  909SOL    HW2 3627   2.981   6.841   2.475
  910SOL     OW 3628   1.258   0.898   1.968
  910SOL    HW1 3629   1.221   0.809   1.993
  910SOL    HW2 3630   1.226   0.924   1.877
  911SOL     OW 3631   1.043   2.641   1.214
  911SOL    HW1 3632   1.076   2.555   1.253
  911SOL    HW2 3633   1.109   2.714   1.232
  912SOL     OW 3634   2.629   0.685   1.377
  912SOL    HW1 3635   2.616   0.602   1.323
  912SOL    HW2 3636   2.726   0.699   1.393
  913SOL     OW 3637   2.421   1.354   1.692
  913SOL    HW1 3638   2.492   1.375   1.759
  913SOL    HW2 3639   2.335   1.335   1.739
  914SOL     OW 3640   3.180   4.944   2.449
  914SOL    HW1 3641   3.255   4.950   2.515
  914SOL    HW2 3642   3.128   4.860   2.464
  915SOL     OW 3643   3.214   2.217   1.733
  915SOL    HW1 3644   3.137   2.174   1.780
  915SOL    HW2 3645   3.298   2.201   1.786
  916SOL     OW 3646   6.849   3.977   2.703
  916SOL    HW1 3647   6.944   4.000   2.687
  916SOL    HW2 3648   6.795   3.997   2.621
  917SOL     OW 3649   4.298   0.460   4.938
  917SOL    HW1 3650   4.259   0.552   4.938
  917SOL    HW2 3651   4.244   0.401   4.999
  918SOL     OW 3652   0.241   2.587   5.208
  918SOL    HW1 3653   0.275   2.496   5.230
  918SOL    HW2 3654   0.157   2.605   5.258
  919SOL     OW 3655   1.043   0.542   1.135
  919SOL    HW1 3656   1.020   0.532   1.232
  919SOL    HW2 3657   1.107   0.470   1.109
  920SOL     OW 3658   1.069   1.682   2.815
  920SOL    HW1 3659   1.025   1.767   2.787
  920SOL    HW2 3660   1.107   1.636   2.735
  921SOL     OW 3661   4.234   4.383   0.178
  921SOL    HW1 3662   4.296   4.384   0.100
  921SOL    HW2 3663   4.139   4.386   0.147
  922SOL     OW 3664   2.605   5.692   6.532
  922SOL    HW1 3665   2.704   5.698   6.534
  922SOL    HW2 3666   2.566   5.759   6.596
  923SOL     OW 3667   3.741   1.356   0.282
  923SOL    HW1 3668   3.792   1.344   0.196
  923SOL    HW2 3669   3.780   1.431   0.334
  924SOL     OW 3670   4.911   5.026   0.933
  924SOL    HW1 3671   4.992   5.085   0.942
  924SOL    HW2 3672   4.929   4.938   0.977
  925SOL     OW 3673   5.644   1.875   1.298
  925SOL    HW1 3674   5.720   1.869   1.362
  925SOL    HW2 3675   5.674   1.922   1.215
  926SOL     OW 3676   4.331   5.855   1.646
  926SOL    HW1 3677   4.279   5.878   1.564
  926SOL    HW2 3678   4.428   5.851   1.624
  927SOL     OW 3679   5.114   5.627   5.772
  927SOL    HW1 3680   5.205   5.633   5.733
  927SOL    HW2 3681   5.065   5.549   5.733
  928SOL     OW 3682   5.995   0.896   2.062
  928SOL    HW1 3683   5.930   0.897   1.986
  928SOL    HW2 3684   6.088   0.908   2.027
  929SOL     OW 3685   6.514   1.865   2.884
  929SOL    HW1 3686   6.580   1.860   2.809
  929SOL    HW2 3687   6.519   1.955   2.928
  930SOL     OW 3688   5.939   4.013   2.171
  930SOL    HW1 3689   5.876   4.046   2.101
  930SOL    HW2 3690   6.026   4.063   2.165
  931SOL     OW 3691   0.187   2.829   0.186
  931SOL    HW1 3692   0.160   2.734   0.201
  931SOL    HW2 3693   0.149   2.861   0.099
  932SOL     OW 3694   4.290   6.751   0.576
  932SOL    HW1 3695   4.208   6.809   0.577
  932SOL    HW2 3696   4.360   6.792   0.634
  933SOL     OW 3697   0.651   6.725   2.962
  933SOL    HW1 3698   0.739   6.710   2.917
  933SOL    HW2 3699   0.646   6.666   3.043
  934SOL     OW 3700   4.418   1.792   4.772
  934SOL    HW1 3701   4.456   1.717   4.718
  934SOL    HW2 3702   4.341   1.759   4.827
  935SOL     OW 3703   1.327   4.086   4.034
  935SOL    HW1 3704   1.310   4.068   4.131
  935SOL    HW2 3705   1.387   4.016   3.997
  936SOL     OW 3706   0.956   1.535   0.958
  936SOL    HW1 3707   0.885   1.598   0.925
  936SOL    HW2 3708   0.917   1.475   1.028
  937SOL     OW 3709   4.749   2.083   3.093
  937SOL    HW1 3710   4.820   2.152   3.080
  937SOL    HW2 3711   4.759   2.012   3.023
  938SOL     OW 3712   0.718   0.588   6.172
  938SOL    HW1 3713   0.796   0.596   6.234
  938SOL    HW2 3714   0.719   0.664   6.106
  939SOL     OW 3715   0.438   1.093   4.777
  939SOL    HW1 3716   0.376   1.028   4.820
  939SOL    HW2 3717   0.532   1.070   4.802
  940SOL     OW 3718   6.303   0.021   3.521
  940SOL    HW1 3719   6.267   0.111   3.498
  940SOL    HW2 3720   6.230   6.992   3.558
  941SOL     OW 3721   6.098   2.515   4.895
  941SOL    HW1 3722   6.001   2.489   4.895
  941SOL    HW2 3723   6.120   2.558   4.982
  942SOL     OW 3724   4.278   6.664   6.090
  942SOL    HW1 3725   4.257   6.569   6.065
  942SOL    HW2 3726   4.234   6.687   6.177
  943SOL     OW 3727   5.195   2.273   6.549
  943SOL    HW1 3728   5.118   2.267   6.485
  943SOL    HW2 3729   5.250   2.190   6.542
  944SOL     OW 3730   5.201   4.603   3.815
  944SOL    HW1 3731   5.143   4.541   3.868
  944SOL    HW2 3732   5.202   4.693   3.858
  945SOL     OW 3733   6.888   3.249   6.321
  945SOL    HW1 3734   6.814   3.283   6.378
  945SOL    HW2 3735   6.964   3.315   6.322
  946SOL     OW 3736   5.986   3.257   6.183
  946SOL    HW1 3737   6.000   3.269   6.085
  946SOL    HW2 3738   5.920   3.183   6.198
  947SOL     OW 3739   1.746   2.003   6.483
  947SOL    HW1 3740   1.837   1.962   6.480
  947SOL    HW2 3741   1.723   2.038   6.392
  948SOL     OW 3742   3.627   1.480   0.961
  948SOL    HW1 3743   3.607   1.409   0.894
  948SOL    HW2 3744   3.714   1.459   1.006
  949SOL     OW 3745   4.992   4.867   5.847
  949SOL    HW1 3746   5.022   4.920   5.927
  949SOL    HW2 3747   4.897   4.838   5.859
  950SOL     OW 3748   3.402   5.124   0.308
  950SOL    HW1 3749   3.303   5.114   0.320
  950SOL    HW2 3750   3.422   5.152   0.214
  951SOL     OW 3751   0.213   3.813   3.031
  951SOL    HW1 3752   0.144   3.880   3.060
  951SOL    HW2 3753   0.172   3.746   2.970
  952SOL     OW 3754   4.081   0.747   1.118
  952SOL    HW1 3755   4.158   0.781   1.063
  952SOL    HW2 3756   4.053   0.658   1.085
  953SOL     OW 3757   4.610   6.536   6.006
  953SOL    HW1 3758   4.538   6.471   5.983
  953SOL    HW2 3759   4.602   6.563   6.102
  954SOL     OW 3760   7.009   6.315   1.581
  954SOL    HW1 3761   0.063   6.302   1.637
  954SOL    HW2 3762   6.932   6.266   1.623
  955SOL     OW 3763   1.153   0.093   3.711
  955SOL    HW1 3764   1.247   0.122   3.727
  955SOL    HW2 3765   1.122   0.036   3.786
  956SOL     OW 3766   1.891   2.855   1.553
  956SOL    HW1 3767   1.793   2.870   1.554
  956SOL    HW2 3768   1.928   2.876   1.463
  957SOL     OW 3769   3.017   6.496   4.418
  957SOL    HW1 3770   2.933   6.478   4.469
  957SOL    HW2 3771   3.011   6.586   4.376
  958SOL     OW 3772   4.340   2.168   6.862
  958SOL    HW1 3773   4.414   2.113   6.901
  958SOL    HW2 3774   4.353   2.264   6.887
  959SOL     OW 3775   1.604   3.968   0.502
  959SOL    HW1 3776   1.546   3.921   0.568
  959SOL    HW2 3777   1.696   3.979   0.541
  960SOL     OW 3778   1.562   3.494   5.530
  960SOL    HW1 3779   1.646   3.513   5.582
  960SOL    HW2 3780   1.587   3.450   5.444
  961SOL     OW 3781   3.741   6.533   6.288
  961SOL    HW1 3782   3.790   6.566   6.208
  961SOL    HW2 3783   3.796   6.463   6.334
  962SOL     OW 3784   0.362   0.593   3.881
  962SOL    HW1 3785   0.292   0.524   3.862
  962SOL    HW2 3786   0.360   0.663   3.810
  963SOL     OW 3787   5.559   0.031   3.455
  963SOL    HW1 3788   5.493   0.103   3.479
  963SOL    HW2 3789   5.576   7.002   3.535
  964SOL     OW 3790   5.903   4.429   1.825
  964SOL    HW1 3791   5.810   4.429   1.861
  964SOL    HW2 3792   5.900   4.430   1.725
  965SOL     OW 3793   1.298   2.327   0.593
  965SOL    HW1 3794   1.273   2.230   0.595
  965SOL    HW2 3795   1.397   2.336   0.588
  966SOL     OW 3796   4.942   2.350   1.905
  966SOL    HW1 3797   5.038   2.368   1.926
  966SOL    HW2 3798   4.890   2.435   1.917
  967SOL     OW 3799   0.517   5.695   2.991
  967SOL    HW1 3800   0.460   5.741   2.923
  967SOL    HW2 3801   0.603   5.666   2.948
  968SOL     OW 3802   0.407   4.314   1.055
  968SOL    HW1 3803   0.372   4.236   1.106
  968SOL    HW2 3804   0.331   4.370   1.023
  969SOL     OW 3805   3.348   6.718   6.201
  969SOL    HW1 3806   3.409   6.695   6.125
  969SOL    HW2 3807   3.400   6.725   6.286
  970SOL     OW 3808   5.453   3.781   6.016
  970SOL    HW1 3809   5.476   3.721   5.940
  970SOL    HW2 3810   5.440   3.726   6.099
  971SOL     OW 3811   0.729   1.593   6.878
  971SOL    HW1 3812   0.815   1.643   6.877
  971SOL    HW2 3813   0.674   1.621   6.957
  972SOL     OW 3814   3.504   6.597   6.436
  972SOL    HW1 3815   3.518   6.625   6.531
  972SOL    HW2 3816   3.592   6.590   6.390
  973SOL     OW 3817   6.517   3.516   5.928
  973SOL    HW1 3818   6.457   3.589   5.959
  973SOL    HW2 3819   6.610   3.531   5.963
  974SOL     OW 3820   2.372   0.911   4.066
  974SOL    HW1 3821   2.295   0.889   4.127
  974SOL    HW2 3822   2.396   0.831   4.012
  975SOL     OW 3823   2.980   6.774   4.342
  975SOL    HW1 3824   3.054   6.801   4.403
  975SOL    HW2 3825   3.012   6.771   4.248
  976SOL     OW 3826   0.207   5.440   4.996
  976SOL    HW1 3827   0.170   5.394   5.077
  976SOL    HW2 3828   0.307   5.444   5.002
  977SOL     OW 3829   0.264   1.706   1.846
  977SOL    HW1 3830   0.235   1.704   1.750
  977SOL    HW2 3831   0.198   1.758   1.899
  978SOL     OW 3832   6.373   2.763   3.937
  978SOL    HW1 3833   6.358   2.664   3.941
  978SOL    HW2 3834   6.470   2.783   3.952
  979SOL     OW 3835   5.849   1.629   2.138
  979SOL    HW1 3836   5.870   1.540   2.177
  979SOL    HW2 3837   5.820   1.618   2.042
  980SOL     OW 3838   6.078   5.602   5.398
  980SOL    HW1 3839   6.150   5.650   5.449
  980SOL    HW2 3840   5.990   5.618   5.442
  981SOL     OW 3841   6.264   3.156   6.872
  981SOL    HW1 3842   6.247   3.237   6.816
  981SOL    HW2 3843   6.276   3.077   6.813
  982SOL     OW 3844   1.575   4.757   0.070
  982SOL    HW1 3845   1.511   4.749   0.146
  982SOL    HW2 3846   1.580   4.852   0.040
  983SOL     OW 3847   5.462   1.863   4.025
  983SOL    HW1 3848   5.473   1.848   3.926
  983SOL    HW2 3849   5.506   1.949   4.050
  984SOL     OW 3850   4.962   3.291   4.947
  984SOL    HW1 3851   4.885   3.241   4.987
  984SOL    HW2 3852   5.040   3.230   4.936
  985SOL     OW 3853   2.060   3.821   0.775
  985SOL    HW1 3854   2.103   3.892   0.720
  985SOL    HW2 3855   2.071   3.843   0.872
  986SOL     OW 3856   5.818   4.198   4.582
  986SOL    HW1 3857   5.904   4.244   4.561
  986SOL    HW2 3858   5.811   4.182   4.681
  987SOL     OW 3859   2.305   1.115   2.764
  987SOL    HW1 3860   2.385   1.147   2.713
  987SOL    HW2 3861   2.250   1.193   2.793
  988SOL     OW 3862   3.817   4.034   1.590
  988SOL    HW1 3863   3.724   4.068   1.604
  988SOL    HW2 3864   3.816   3.960   1.522
  989SOL     OW 3865   0.931   1.178   5.494
  989SOL    HW1 3866   0.840   1.158   5.529
  989SOL    HW2 3867   0.936   1.273   5.464
  990SOL     OW 3868   3.984   6.360   1.963
  990SOL    HW1 3869   3.959   6.297   1.889
  990SOL    HW2 3870   3.901   6.389   2.011
  991SOL     OW 3871   6.049   1.577   6.270
  991SOL    HW1 3872   5.996   1.648   6.318
  991SOL    HW2 3873   6.136   1.616   6.239
  992SOL     OW 3874   0.378   2.492   0.245
  992SOL    HW1 3875   0.421   2.517   0.159
  992SOL    HW2 3876   0.388   2.567   0.310
  993SOL     OW 3877   3.941   6.617   4.231
  993SOL    HW1 3878   3.927   6.716   4.233
  993SOL    HW2 3879   3.862   6.571   4.271
  994SOL     OW 3880   3.197   4.052   4.265
  994SOL    HW1 3881   3.248   4.088   4.187
  994SOL    HW2 3882   3.146   3.970   4.237
  995SOL     OW 3883   1.492   1.545   5.393
  995SOL    HW1 3884   1.407   1.511   5.435
  995SOL    HW2 3885   1.470   1.593   5.308
  996SOL     OW 3886   2.720   2.829   0.942
  996SOL    HW1 3887   2.677   2.747   0.982
  996SOL    HW2 3888   2.683   2.910   0.986
  997SOL     OW 3889   6.588   1.418   0.402
  997SOL    HW1 3890   6.539   1.443   0.485
  997SOL    HW2 3891   6.575   1.321   0.383
  998SOL     OW 3892   4.346   6.604   3.796
  998SOL    HW1 3893   4.268   6.589   3.858
  998SOL    HW2 3894   4.421   6.647   3.847
  999SOL     OW 3895   0.158   4.634   6.540
  999SOL    HW1 3896   0.223   4.706   6.518
  999SOL    HW2 3897   0.065   4.664   6.516
 1000SOL     OW 3898   4.119   1.460   5.797
 1000SOL    HW1 3899   4.033   1.416   5.819
 1000SOL    HW2 3900   4.122   1.552   5.837
 1001SOL     OW 3901   5.454   0.479   4.600
 1001SOL    HW1 3902   5.544   0.504   4.563
 1001SOL    HW2 3903   5.457   0.384   4.632
 1002SOL     OW 3904   0.333   1.294   0.383
 1002SOL    HW1 3905   0.312   1.238   0.303
 1002SOL    HW2 3906   0.382   1.239   0.450
 1003SOL     OW 3907   4.825   5.248   2.097
 1003SOL    HW1 3908   4.726   5.258   2.108
 1003SOL    HW2 3909   4.858   5.179   2.162
 1004SOL     OW 3910   6.018   5.971   6.837
 1004SOL    HW1 3911   6.021   6.057   6.786
 1004SOL    HW2 3912   6.025   5.991   6.935
 1005SOL     OW 3913   5.082   6.678   2.656
 1005SOL    HW1 3914   5.024   6.721   2.586
 1005SOL    HW2 3915   5.121   6.594   2.619
 1006SOL     OW 3916   1.986   6.084   0.053
 1006SOL    HW1 3917   1.961   6.136   0.134
 1006SOL    HW2 3918   2.012   5.991   0.080
 1007SOL     OW 3919   5.882   2.563   2.604
 1007SOL    HW1 3920   5.970   2.609   2.604
 1007SOL    HW2 3921   5.873   2.506   2.522
 1008SOL     OW 3922   3.742   1.053   5.202
 1008SOL    HW1 3923   3.708   1.137   5.159
 1008SOL    HW2 3924   3.786   1.076   5.288
 1009SOL     OW 3925   3.315   6.332   5.686
 1009SOL    HW1 3926   3.264   6.416   5.707
 1009SOL    HW2 3927   3.388   6.319   5.753
 1010SOL     OW 3928   5.245   6.250   6.313
 1010SOL    HW1 3929   5.202   6.184   6.251
 1010SOL    HW2 3930   5.307   6.308   6.261
 1011SOL     OW 3931   2.747   4.969   4.838
 1011SOL    HW1 3932   2.660   4.997   4.798
 1011SOL    HW2 3933   2.745   4.988   4.937
 1012SOL     OW 3934   2.777   6.013   0.659
 1012SOL    HW1 3935   2.762   5.918   0.630
 1012SOL    HW2 3936   2.874   6.035   0.653
 1013SOL     OW 3937   1.136   0.269   1.317
 1013SOL    HW1 3938   1.092   0.356   1.338
 1013SOL    HW2 3939   1.162   0.223   1.402
 1014SOL     OW 3940   5.984   6.251   6.730
 1014SOL    HW1 3941   5.891   6.241   6.695
 1014SOL    HW2 3942   6.050   6.247   6.655
 1015SOL     OW 3943   2.693   0.117   4.704
 1015SOL    HW1 3944   2.782   0.137   4.746
 1015SOL    HW2 3945   2.653   0.201   4.667
 1016SOL     OW 3946   4.209   3.392   1.908
 1016SOL    HW1 3947   4.161   3.447   1.839
 1016SOL    HW2 3948   4.282   3.340   1.865
 1017SOL     OW 3949   5.006   6.706   5.953
 1017SOL    HW1 3950   5.050   6.794   5.934
 1017SOL    HW2 3951   4.909   6.710   5.926
 1018SOL     OW 3952   1.020   1.957   1.395
 1018SOL    HW1 3953   1.084   1.940   1.471
 1018SOL    HW2 3954   0.930   1.922   1.419
 1019SOL     OW 3955   5.987   0.561   6.825
 1019SOL    HW1 3956   5.921   0.567   6.750
 1019SOL    HW2 3957   6.055   0.491   6.803
 1020SOL     OW 3958   3.686   2.133   1.044
 1020SOL    HW1 3959   3.776   2.090   1.037
 1020SOL    HW2 3960   3.652   2.126   1.138
 1021SOL     OW 3961   5.122   1.469   1.485
 1021SOL    HW1 3962   5.068   1.424   1.557
 1021SOL    HW2 3963   5.102   1.567   1.485
 1022SOL     OW 3964   2.531   3.721   6.737
 1022SOL    HW1 3965   2.439   3.710   6.774
 1022SOL    HW2 3966   2.527   3.777   6.654
 1023SOL     OW 3967   6.767   1.189   4.179
 1023SOL    HW1 3968   6.757   1.250   4.100
 1023SOL    HW2 3969   6.761   1.242   4.263
 1024SOL     OW 3970   6.663   2.591   4.221
 1024SOL    HW1 3971   6.755   2.629   4.215
 1024SOL    HW2 3972   6.668   2.496   4.254
 1025SOL     OW 3973   2.575   3.984   1.397
 1025SOL    HW1 3974   2.641   3.925   1.352
 1025SOL    HW2 3975   2.601   3.997   1.493
 1026SOL     OW 3976   0.630   3.255   0.053
 1026SOL    HW1 3977   0.539   3.234   0.017
 1026SOL    HW2 3978   0.623   3.333   0.116
 1027SOL     OW 3979   1.974   4.554   1.344
 1027SOL    HW1 3980   1.941   4.515   1.429
 1027SOL    HW2 3981   2.010   4.646   1.361
 1028SOL     OW 3982   0.794   4.924   0.516
 1028SOL    HW1 3983   0.771   4.829   0.534
 1028SOL    HW2 3984   0.854   4.959   0.588
 1029SOL     OW 3985   3.909   0.625   4.701
 1029SOL    HW1 3986   3.907   0.626   4.601
 1029SOL    HW2 3987   3.822   0.660   4.737
 1030SOL     OW 3988   4.300   4.724   4.772
 1030SOL    HW1 3989   4.203   4.699   4.776
 1030SOL    HW2 3990   4.355   4.652   4.816
 1031SOL     OW 3991   2.570   5.678   1.088
 1031SOL    HW1 3992   2.593   5.764   1.041
 1031SOL    HW2 3993   2.473   5.677   1.111
 1032SOL     OW 3994   1.112   2.799   4.632
 1032SOL    HW1 3995   1.189   2.848   4.673
 1032SOL    HW2 3996   1.125   2.700   4.646
 1033SOL     OW 3997   3.360   6.859   2.157
 1033SOL    HW1 3998   3.400   6.832   2.070
 1033SOL    HW2 3999   3.282   6.799   2.178
 1034SOL     OW 4000   0.070   5.024   2.953
 1034SOL    HW1 4001   0.132   4.948   2.972
 1034SOL    HW2 4002   0.089   5.099   3.017
 1035SOL     OW 4003   2.978   1.976   3.580
 1035SOL    HW1 4004   2.979   2.031   3.664
 1035SOL    HW2 4005   2.884   1.964   3.550
 1036SOL     OW 4006   4.859   6.481   6.732
 1036SOL    HW1 4007   4.778   6.536   6.712
 1036SOL    HW2 4008   4.933   6.505   6.668
 1037SOL     OW 4009   4.219   1.098   5.859
 1037SOL    HW1 4010   4.184   1.005   5.854
 1037SOL    HW2 4011   4.194   1.139   5.947
 1038SOL     OW 4012   3.111   1.764   4.938
 1038SOL    HW1 4013   3.136   1.717   5.023
 1038SOL    HW2 4014   3.014   1.788   4.941
 1039SOL     OW 4015   5.292   1.653   2.081
 1039SOL    HW1 4016   5.351   1.572   2.079
 1039SOL    HW2 4017   5.341   1.729   2.124
 1040SOL     OW 4018   6.380   4.831   4.520
 1040SOL    HW1 4019   6.450   4.840   4.591
 1040SOL    HW2 4020   6.423   4.838   4.430
 1041SOL     OW 4021   1.669   0.233   4.458
 1041SOL    HW1 4022   1.595   0.273   4.403
 1041SOL    HW2 4023   1.679   0.136   4.436
 1042SOL     OW 4024   4.154   4.855   0.570
 1042SOL    HW1 4025   4.148   4.781   0.504
 1042SOL    HW2 4026   4.201   4.823   0.652
 1043SOL     OW 4027   4.580   0.361   6.134
 1043SOL    HW1 4028   4.541   0.446   6.098
 1043SOL    HW2 4029   4.518   0.322   6.203
 1044SOL     OW 4030   4.089   3.234   4.274
 1044SOL    HW1 4031   4.126   3.327   4.278
 1044SOL    HW2 4032   4.094   3.192   4.365
 1045SOL     OW 4033   2.095   1.326   2.836
 1045SOL    HW1 4034   2.038   1.253   2.798
 1045SOL    HW2 4035   2.053   1.360   2.920
 1046SOL     OW 4036   2.430   0.696   2.000
 1046SOL    HW1 4037   2.464   0.776   1.952
 1046SOL    HW2 4038   2.463   0.613   1.955
 1047SOL     OW 4039   0.562   6.462   2.369
 1047SOL    HW1 4040   0.640   6.432   2.423
 1047SOL    HW2 4041   0.540   6.393   2.300
 1048SOL     OW 4042   0.050   3.913   4.992
 1048SOL    HW1 4043   0.032   4.011   5.006
 1048SOL    HW2 4044   0.056   3.894   4.894
 1049SOL     OW 4045   1.122   3.822   5.411
 1049SOL    HW1 4046   1.170   3.908   5.392
 1049SOL    HW2 4047   1.115   3.809   5.510
 1050SOL     OW 4048   3.080   0.870   1.595
 1050SOL    HW1 4049   3.085   0.968   1.612
 1050SOL    HW2 4050   3.106   0.820   1.678
 1051SOL     OW 4051   5.049   3.103   1.668
 1051SOL    HW1 4052   4.962   3.141   1.637
 1051SOL    HW2 4053   5.104   3.176   1.709
 1052SOL     OW 4054   1.948   6.301   3.273
 1052SOL    HW1 4055   1.907   6.258   3.354
 1052SOL    HW2 4056   2.017   6.367   3.301
 1053SOL     OW 4057   3.671   5.805   2.962
 1053SOL    HW1 4058   3.656   5.821   3.060
 1053SOL    HW2 4059   3.704   5.889   2.919
 1054SOL     OW 4060   3.286   5.908   5.301
 1054SOL    HW1 4061   3.252   5.915   5.395
 1054SOL    HW2 4062   3.380   5.873   5.301
 1055SOL     OW 4063   3.423   5.099   4.901
 1055SOL    HW1 4064   3.358   5.029   4.929
 1055SOL    HW2 4065   3.482   5.063   4.829
 1056SOL     OW 4066   3.184   6.046   0.402
 1056SOL    HW1 4067   3.187   5.966   0.463
 1056SOL    HW2 4068   3.137   6.022   0.318
 1057SOL     OW 4069   3.794   3.849   1.360
 1057SOL    HW1 4070   3.735   3.770   1.378
 1057SOL    HW2 4071   3.812   3.856   1.262
 1058SOL     OW 4072   2.482   0.469   1.874
 1058SOL    HW1 4073   2.474   0.439   1.779
 1058SOL    HW2 4074   2.511   0.392   1.931
 1059SOL     OW 4075   3.656   0.677   0.354
 1059SOL    HW1 4076   3.752   0.648   0.362
 1059SOL    HW2 4077   3.597   0.597   0.353
 1060SOL     OW 4078   3.771   1.627   4.142
 1060SOL    HW1 4079   3.836   1.702   4.154
 1060SOL    HW2 4080   3.704   1.630   4.217
 1061SOL     OW 4081   2.951   5.831   1.730
 1061SOL    HW1 4082   2.989   5.747   1.691
 1061SOL    HW2 4083   2.860   5.812   1.768
 1062SOL     OW 4084   6.193   4.099   5.262
 1062SOL    HW1 4085   6.138   4.099   5.178
 1062SOL    HW2 4086   6.244   4.013   5.267
 1063SOL     OW 4087   4.356   2.104   5.885
 1063SOL    HW1 4088   4.449   2.136   5.900
 1063SOL    HW2 4089   4.304   2.111   5.970
 1064SOL     OW 4090   0.270   2.836   2.198
 1064SOL    HW1 4091   0.258   2.932   2.172
 1064SOL    HW2 4092   0.358   2.804   2.164
 1065SOL     OW 4093   4.022   5.808   0.163
 1065SOL    HW1 4094   4.086   5.868   0.115
 1065SOL    HW2 4095   4.026   5.716   0.124
 1066SOL     OW 4096   5.403   6.290   3.550
 1066SOL    HW1 4097   5.344   6.370   3.538
 1066SOL    HW2 4098   5.393   6.256   3.644
 1067SOL     OW 4099   3.787   4.565   0.907
 1067SOL    HW1 4100   3.732   4.530   0.831
 1067SOL    HW2 4101   3.739   4.641   0.951
 1068SOL     OW 4102   1.361   5.076   2.115
 1068SOL    HW1 4103   1.431   5.087   2.044
 1068SOL    HW2 4104   1.280   5.130   2.091
 1069SOL     OW 4105   3.822   3.410   3.020
 1069SOL    HW1 4106   3.777   3.499   3.015
 1069SOL    HW2 4107   3.883   3.399   2.942
 1070SOL     OW 4108   1.314   6.060   0.194
 1070SOL    HW1 4109   1.221   6.089   0.172
 1070SOL    HW2 4110   1.326   5.965   0.164
 1071SOL     OW 4111   4.677   4.960   3.791
 1071SOL    HW1 4112   4.705   4.914   3.874
 1071SOL    HW2 4113   4.577   4.958   3.783
 1072SOL     OW 4114   4.235   5.115   3.542
 1072SOL    HW1 4115   4.203   5.124   3.636
 1072SOL    HW2 4116   4.266   5.204   3.509
 1073SOL     OW 4117   3.075   5.571   4.239
 1073SOL    HW1 4118   3.006   5.507   4.274
 1073SOL    HW2 4119   3.152   5.575   4.303
 1074SOL     OW 4120   2.690   4.849   3.956
 1074SOL    HW1 4121   2.599   4.821   3.924
 1074SOL    HW2 4122   2.760   4.814   3.894
 1075SOL     OW 4123   1.114   4.453   2.713
 1075SOL    HW1 4124   1.099   4.369   2.764
 1075SOL    HW2 4125   1.183   4.509   2.760
 1076SOL     OW 4126   5.157   3.769   3.630
 1076SOL    HW1 4127   5.172   3.773   3.532
 1076SOL    HW2 4128   5.126   3.858   3.663
 1077SOL     OW 4129   4.151   0.332   2.158
 1077SOL    HW1 4130   4.095   0.258   2.195
 1077SOL    HW2 4131   4.093   0.410   2.134
 1078SOL     OW 4132   6.024   2.365   1.670
 1078SOL    HW1 4133   6.108   2.412   1.694
 1078SOL    HW2 4134   5.956   2.431   1.640
 1079SOL     OW 4135   1.640   4.759   3.725
 1079SOL    HW1 4136   1.700   4.824   3.678
 1079SOL    HW2 4137   1.548   4.797   3.730
 1080SOL     OW 4138   2.501   5.279   4.310
 1080SOL    HW1 4139   2.544   5.198   4.349
 1080SOL    HW2 4140   2.413   5.296   4.356
 1081SOL     OW 4141   0.931   0.653   0.556
 1081SOL    HW1 4142   1.020   0.698   0.565
 1081SOL    HW2 4143   0.936   0.584   0.484
 1082SOL     OW 4144   2.255   0.975   1.415
 1082SOL    HW1 4145   2.302   0.916   1.349
 1082SOL    HW2 4146   2.320   1.041   1.453
 1083SOL     OW 4147   3.646   4.129   2.156
 1083SOL    HW1 4148   3.705   4.191   2.105
 1083SOL    HW2 4149   3.553   4.164   2.156
 1084SOL     OW 4150   5.706   3.783   1.400
 1084SOL    HW1 4151   5.632   3.782   1.332
 1084SOL    HW2 4152   5.696   3.705   1.461
 1085SOL     OW 4153   1.401   6.828   3.648
 1085SOL    HW1 4154   1.467   6.782   3.589
 1085SOL    HW2 4155   1.352   6.897   3.595
 1086SOL     OW 4156   2.877   6.658   2.899
 1086SOL    HW1 4157   2.807   6.588   2.897
 1086SOL    HW2 4158   2.834   6.748   2.902
 1087SOL     OW 4159   3.739   3.014   5.402
 1087SOL    HW1 4160   3.643   3.039   5.418
 1087SOL    HW2 4161   3.762   3.028   5.306
 1088SOL     OW 4162   6.874   5.511   2.153
 1088SOL    HW1 4163   6.843   5.571   2.079
 1088SOL    HW2 4164   6.797   5.487   2.212
 1089SOL     OW 4165   6.979   0.635   3.114
 1089SOL    HW1 4166   6.919   0.703   3.071
 1089SOL    HW2 4167   6.950   0.544   3.087
 1090SOL     OW 4168   3.094   1.939   6.912
 1090SOL    HW1 4169   3.036   2.011   6.949
 1090SOL    HW2 4170   3.187   1.974   6.898
 1091SOL     OW 4171   1.670   2.060   6.069
 1091SOL    HW1 4172   1.680   1.961   6.059
 1091SOL    HW2 4173   1.692   2.104   5.982
 1092SOL     OW 4174   2.705   5.243   0.921
 1092SOL    HW1 4175   2.654   5.313   0.972
 1092SOL    HW2 4176   2.733   5.170   0.984
 1093SOL     OW 4177   6.613   1.479   1.616
 1093SOL    HW1 4178   6.708   1.447   1.620
 1093SOL    HW2 4179   6.612   1.579   1.615
 1094SOL     OW 4180   0.471   5.921   2.823
 1094SOL    HW1 4181   0.491   5.948   2.917
 1094SOL    HW2 4182   0.549   5.943   2.764
 1095SOL     OW 4183   1.817   2.957   5.095
 1095SOL    HW1 4184   1.880   2.923   5.165
 1095SOL    HW2 4185   1.830   3.056   5.085
 1096SOL     OW 4186   3.675   2.867   2.128
 1096SOL    HW1 4187   3.712   2.830   2.214
 1096SOL    HW2 4188   3.612   2.800   2.088
 1097SOL     OW 4189   2.847   4.965   5.885
 1097SOL    HW1 4190   2.767   5.025   5.878
 1097SOL    HW2 4191   2.856   4.911   5.801
 1098SOL     OW 4192   2.982   0.004   2.452
 1098SOL    HW1 4193   3.042   7.024   2.373
 1098SOL    HW2 4194   3.030   0.053   2.525
 1099SOL     OW 4195   3.485   0.429   2.161
 1099SOL    HW1 4196   3.494   0.501   2.092
 1099SOL    HW2 4197   3.389   0.401   2.167
 1100SOL     OW 4198   0.065   0.629   0.371
 1100SOL    HW1 4199   7.026   0.555   0.380
 1100SOL    HW2 4200   0.024   0.707   0.324
 1101SOL     OW 4201   5.824   4.709   0.914
 1101SOL    HW1 4202   5.724   4.700   0.913
 1101SOL    HW2 4203   5.865   4.631   0.867
 1102SOL     OW 4204   6.835   4.807   4.329
 1102SOL    HW1 4205   6.932   4.790   4.310
 1102SOL    HW2 4206   6.793   4.724   4.366
 1103SOL     OW 4207   0.462   2.637   6.381
 1103SOL    HW1 4208   0.497   2.619   6.473
 1103SOL    HW2 4209   0.518   2.588   6.314
 1104SOL     OW 4210   2.741   5.065   5.444
 1104SOL    HW1 4211   2.691   5.150   5.461
 1104SOL    HW2 4212   2.787   5.071   5.355
 1105SOL     OW 4213   3.799   5.622   0.672
 1105SOL    HW1 4214   3.792   5.551   0.741
 1105SOL    HW2 4215   3.756   5.706   0.706
 1106SOL     OW 4216   0.932   2.503   6.474
 1106SOL    HW1 4217   0.879   2.466   6.398
 1106SOL    HW2 4218   0.874   2.507   6.556
 1107SOL     OW 4219   6.784   6.718   1.651
 1107SOL    HW1 4220   6.843   6.788   1.692
 1107SOL    HW2 4221   6.694   6.757   1.632
 1108SOL     OW 4222   1.299   0.848   6.396
 1108SOL    HW1 4223   1.214   0.798   6.413
 1108SOL    HW2 4224   1.284   0.917   6.325
 1109SOL     OW 4225   4.164   1.219   3.215
 1109SOL    HW1 4226   4.239   1.164   3.179
 1109SOL    HW2 4227   4.098   1.160   3.261
 1110SOL     OW 4228   3.856   3.556   3.306
 1110SOL    HW1 4229   3.903   3.644   3.300
 1110SOL    HW2 4230   3.763   3.570   3.343
 1111SOL     OW 4231   3.993   0.334   6.562
 1111SOL    HW1 4232   3.968   0.427   6.589
 1111SOL    HW2 4233   3.925   0.300   6.496
 1112SOL     OW 4234   0.385   1.522   2.819
 1112SOL    HW1 4235   0.310   1.570   2.774
 1112SOL    HW2 4236   0.399   1.433   2.776
 1113SOL     OW 4237   0.907   5.548   1.968
 1113SOL    HW1 4238   0.974   5.542   2.042
 1113SOL    HW2 4239   0.825   5.496   1.993
 1114SOL     OW 4240   5.790   0.460   5.369
 1114SOL    HW1 4241   5.839   0.541   5.337
 1114SOL    HW2 4242   5.749   0.479   5.459
 1115SOL     OW 4243   1.733   4.930   0.458
 1115SOL    HW1 4244   1.762   4.917   0.363
 1115SOL    HW2 4245   1.717   4.841   0.500
 1116SOL     OW 4246   2.838   6.596   6.178
 1116SOL    HW1 4247   2.936   6.578   6.176
 1116SOL    HW2 4248   2.815   6.662   6.106
 1117SOL     OW 4249   2.997   2.428   0.484
 1117SOL    HW1 4250   3.096   2.436   0.472
 1117SOL    HW2 4251   2.952   2.446   0.396
 1118SOL     OW 4252   1.969   1.881   1.324
 1118SOL    HW1 4253   1.947   1.939   1.402
 1118SOL    HW2 4254   1.885   1.850   1.281
 1119SOL     OW 4255   3.699   3.991   3.813
 1119SOL    HW1 4256   3.618   4.047   3.798
 1119SOL    HW2 4257   3.706   3.968   3.910
 1120SOL     OW 4258   3.225   1.101   3.056
 1120SOL    HW1 4259   3.186   1.016   3.091
 1120SOL    HW2 4260   3.189   1.178   3.110
 1121SOL     OW 4261   5.046   3.726   2.563
 1121SOL    HW1 4262   5.020   3.813   2.604
 1121SOL    HW2 4263   5.143   3.726   2.542
 1122SOL     OW 4264   4.882   4.931   0.280
 1122SOL    HW1 4265   4.855   4.910   0.187
 1122SOL    HW2 4266   4.879   4.848   0.336
 1123SOL     OW 4267   4.655   0.294   2.004
 1123SOL    HW1 4268   4.744   0.248   1.998
 1123SOL    HW2 4269   4.586   0.229   2.037
 1124SOL     OW 4270   2.360   5.102   3.566
 1124SOL    HW1 4271   2.385   5.094   3.663
 1124SOL    HW2 4272   2.316   5.190   3.551
 1125SOL     OW 4273   3.394   4.643   5.608
 1125SOL    HW1 4274   3.443   4.657   5.694
 1125SOL    HW2 4275   3.400   4.725   5.552
 1126SOL     OW 4276   6.141   0.530   2.368
 1126SOL    HW1 4277   6.147   0.628   2.347
 1126SOL    HW2 4278   6.116   0.480   2.285
 1127SOL     OW 4279   2.805   5.580   6.085
 1127SOL    HW1 4280   2.756   5.547   6.166
 1127SOL    HW2 4281   2.805   5.680   6.084
 1128SOL     OW 4282   3.107   1.246   5.445
 1128SOL    HW1 4283   3.150   1.298   5.519
 1128SOL    HW2 4284   3.178   1.195   5.395
 1129SOL     OW 4285   4.465   5.707   6.860
 1129SOL    HW1 4286   4.428   5.619   6.832
 1129SOL    HW2 4287   4.432   5.779   6.798
 1130SOL     OW 4288   1.140   4.975   5.437
 1130SOL    HW1 4289   1.050   4.931   5.435
 1130SOL    HW2 4290   1.148   5.032   5.518
 1131SOL     OW 4291   1.320   4.316   5.692
 1131SOL    HW1 4292   1.248   4.261   5.649
 1131SOL    HW2 4293   1.379   4.354   5.621
 1132SOL     OW 4294   5.343   6.944   4.357
 1132SOL    HW1 4295   5.327   7.025   4.412
 1132SOL    HW2 4296   5.440   6.923   4.354
 1133SOL     OW 4297   6.975   1.657   6.995
 1133SOL    HW1 4298   0.045   1.645   7.010
 1133SOL    HW2 4299   6.960   1.703   6.907
 1134SOL     OW 4300   0.084   4.157   5.985
 1134SOL    HW1 4301   0.115   4.080   5.929
 1134SOL    HW2 4302   0.150   4.231   5.979
 1135SOL     OW 4303   6.766   1.875   4.583
 1135SOL    HW1 4304   6.673   1.842   4.565
 1135SOL    HW2 4305   6.813   1.811   4.644
 1136SOL     OW 4306   4.397   5.628   3.833
 1136SOL    HW1 4307   4.466   5.560   3.809
 1136SOL    HW2 4308   4.441   5.710   3.869
 1137SOL     OW 4309   0.493   0.688   6.716
 1137SOL    HW1 4310   0.414   0.737   6.752
 1137SOL    HW2 4311   0.576   0.741   6.735
 1138SOL     OW 4312   0.745   2.106   5.909
 1138SOL    HW1 4313   0.802   2.147   5.981
 1138SOL    HW2 4314   0.788   2.120   5.820
 1139SOL     OW 4315   0.374   0.572   2.855
 1139SOL    HW1 4316   0.275   0.563   2.849
 1139SOL    HW2 4317   0.408   0.620   2.774
 1140SOL     OW 4318   4.090   1.737   2.885
 1140SOL    HW1 4319   4.171   1.795   2.873
 1140SOL    HW2 4320   4.118   1.641   2.891
 1141SOL     OW 4321   0.403   0.424   5.858
 1141SOL    HW1 4322   0.327   0.404   5.796
 1141SOL    HW2 4323   0.474   0.355   5.847
 1142SOL     OW 4324   5.756   6.605   5.611
 1142SOL    HW1 4325   5.701   6.604   5.527
 1142SOL    HW2 4326   5.849   6.574   5.590
 1143SOL     OW 4327   5.116   2.295   1.235
 1143SOL    HW1 4328   5.050   2.368   1.255
 1143SOL    HW2 4329   5.191   2.299   1.302
 1144SOL     OW 4330   1.137   6.743   4.634
 1144SOL    HW1 4331   1.084   6.660   4.620
 1144SOL    HW2 4332   1.232   6.720   4.655
 1145SOL     OW 4333   3.347   4.887   5.115
 1145SOL    HW1 4334   3.280   4.961   5.117
 1145SOL    HW2 4335   3.320   4.816   5.181
 1146SOL     OW 4336   6.165   2.381   1.993
 1146SOL    HW1 4337   6.223   2.396   2.073
 1146SOL    HW2 4338   6.221   2.349   1.917
 1147SOL     OW 4339   6.611   3.879   2.895
 1147SOL    HW1 4340   6.568   3.956   2.943
 1147SOL    HW2 4341   6.681   3.912   2.833
 1148SOL     OW 4342   6.377   6.184   5.745
 1148SOL    HW1 4343   6.471   6.148   5.741
 1148SOL    HW2 4344   6.359   6.219   5.838
 1149SOL     OW 4345   4.987   3.445   2.600
 1149SOL    HW1 4346   4.995   3.545   2.604
 1149SOL    HW2 4347   4.991   3.416   2.504
 1150SOL     OW 4348   3.099   5.527   5.045
 1150SOL    HW1 4349   3.071   5.493   4.955
 1150SOL    HW2 4350   3.032   5.500   5.114
 1151SOL     OW 4351   1.818   5.783   0.557
 1151SOL    HW1 4352   1.820   5.718   0.633
 1151SOL    HW2 4353   1.758   5.860   0.580
 1152SOL     OW 4354   6.850   0.737   3.549
 1152SOL    HW1 4355   6.792   0.729   3.467
 1152SOL    HW2 4356   6.927   0.673   3.542
 1153SOL     OW 4357   0.755   4.696   1.762
 1153SOL    HW1 4358   0.659   4.674   1.778
 1153SOL    HW2 4359   0.790   4.641   1.686
 1154SOL     OW 4360   1.518   3.783   2.161
 1154SOL    HW1 4361   1.559   3.716   2.100
 1154SOL    HW2 4362   1.541   3.760   2.256
 1155SOL     OW 4363   5.112   1.210   2.283
 1155SOL    HW1 4364   5.196   1.174   2.242
 1155SOL    HW2 4365   5.053   1.133   2.308
 1156SOL     OW 4366   2.803   1.457   3.918
 1156SOL    HW1 4367   2.816   1.517   3.839
 1156SOL    HW2 4368   2.866   1.379   3.911
 1157SOL     OW 4369   1.869   3.600   3.312
 1157SOL    HW1 4370   1.781   3.644   3.333
 1157SOL    HW2 4371   1.862   3.552   3.225
 1158SOL     OW 4372   4.810   5.340   5.267
 1158SOL    HW1 4373   4.802   5.240   5.266
 1158SOL    HW2 4374   4.886   5.367   5.327
 1159SOL     OW 4375   6.374   4.348   3.220
 1159SOL    HW1 4376   6.289   4.329   3.170
 1159SOL    HW2 4377   6.448   4.295   3.180
 1160SOL     OW 4378   3.125   2.256   1.487
 1160SOL    HW1 4379   3.052   2.323   1.497
 1160SOL    HW2 4380   3.171   2.243   1.575
 1161SOL     OW 4381   4.199   1.625   2.635
 1161SOL    HW1 4382   4.298   1.630   2.628
 1161SOL    HW2 4383   4.172   1.534   2.666
 1162SOL     OW 4384   3.636   4.661   1.395
 1162SOL    HW1 4385   3.710   4.637   1.333
 1162SOL    HW2 4386   3.601   4.752   1.372
 1163SOL     OW 4387   4.497   6.785   3.451
 1163SOL    HW1 4388   4.567   6.723   3.489
 1163SOL    HW2 4389   4.406   6.749   3.471
 1164SOL     OW 4390   0.097   4.242   4.738
 1164SOL    HW1 4391   0.061   4.336   4.737
 1164SOL    HW2 4392   0.040   4.184   4.680
 1165SOL     OW 4393   0.206   5.084   2.461
 1165SOL    HW1 4394   0.151   5.158   2.499
 1165SOL    HW2 4395   0.270   5.051   2.530
 1166SOL     OW 4396   3.498   1.040   5.723
 1166SOL    HW1 4397   3.484   1.137   5.701
 1166SOL    HW2 4398   3.412   0.999   5.753
 1167SOL     OW 4399   4.841   1.499   5.493
 1167SOL    HW1 4400   4.905   1.573   5.475
 1167SOL    HW2 4401   4.748   1.530   5.470
 1168SOL     OW 4402   5.572   1.706   4.388
 1168SOL    HW1 4403   5.584   1.666   4.479
 1168SOL    HW2 4404   5.642   1.775   4.372
 1169SOL     OW 4405   2.083   2.865   1.046
 1169SOL    HW1 4406   2.040   2.796   0.987
 1169SOL    HW2 4407   2.176   2.835   1.070
 1170SOL     OW 4408   2.420   1.465   1.429
 1170SOL    HW1 4409   2.511   1.505   1.419
 1170SOL    HW2 4410   2.408   1.433   1.523
 1171SOL     OW 4411   4.879   0.590   0.820
 1171SOL    HW1 4412   4.874   0.571   0.722
 1171SOL    HW2 4413   4.811   0.659   0.845
 1172SOL     OW 4414   3.424   3.524   5.833
 1172SOL    HW1 4415   3.356   3.595   5.820
 1172SOL    HW2 4416   3.436   3.507   5.931
 1173SOL     OW 4417   5.337   5.796   0.281
 1173SOL    HW1 4418   5.269   5.777   0.351
 1173SOL    HW2 4419   5.295   5.843   0.204
 1174SOL     OW 4420   4.184   6.425   5.938
 1174SOL    HW1 4421   4.156   6.463   5.851
 1174SOL    HW2 4422   4.146   6.333   5.949
 1175SOL     OW 4423   6.689   5.698   5.352
 1175SOL    HW1 4424   6.644   5.735   5.271
 1175SOL    HW2 4425   6.741   5.616   5.327
 1176SOL     OW 4426   6.043   3.028   1.203
 1176SOL    HW1 4427   5.946   3.048   1.195
 1176SOL    HW2 4428   6.057   2.950   1.264
 1177SOL     OW 4429   7.024   3.256   4.977
 1177SOL    HW1 4430   6.962   3.177   4.971
 1177SOL    HW2 4431   6.979   3.328   5.030
 1178SOL     OW 4432   5.127   4.309   2.268
 1178SOL    HW1 4433   5.042   4.269   2.233
 1178SOL    HW2 4434   5.145   4.395   2.221
 1179SOL     OW 4435   1.813   5.432   6.059
 1179SOL    HW1 4436   1.727   5.380   6.066
 1179SOL    HW2 4437   1.796   5.528   6.084
 1180SOL     OW 4438   2.152   1.391   4.477
 1180SOL    HW1 4439   2.136   1.415   4.381
 1180SOL    HW2 4440   2.071   1.414   4.531
 1181SOL     OW 4441   1.022   4.425   2.185
 1181SOL    HW1 4442   1.024   4.522   2.209
 1181SOL    HW2 4443   1.096   4.405   2.121
 1182SOL     OW 4444   6.928   3.981   3.864
 1182SOL    HW1 4445   6.983   4.063   3.882
 1182SOL    HW2 4446   6.976   3.901   3.899
 1183SOL     OW 4447   4.414   6.247   0.507
 1183SOL    HW1 4448   4.440   6.334   0.549
 1183SOL    HW2 4449   4.394   6.262   0.410
 1184SOL     OW 4450   4.223   3.183   6.629
 1184SOL    HW1 4451   4.186   3.097   6.593
 1184SOL    HW2 4452   4.156   3.225   6.689
 1185SOL     OW 4453   3.492   1.075   6.536
 1185SOL    HW1 4454   3.459   1.169   6.526
 1185SOL    HW2 4455   3.414   1.013   6.547
 1186SOL     OW 4456   4.215   6.398   4.951
 1186SOL    HW1 4457   4.203   6.384   5.049
 1186SOL    HW2 4458   4.126   6.411   4.907
 1187SOL     OW 4459   0.639   2.660   4.837
 1187SOL    HW1 4460   0.591   2.613   4.763
 1187SOL    HW2 4461   0.717   2.710   4.799
 1188SOL     OW 4462   2.160   0.942   5.118
 1188SOL    HW1 4463   2.077   0.894   5.089
 1188SOL    HW2 4464   2.213   0.883   5.179
 1189SOL     OW 4465   1.559   0.870   1.216
 1189SOL    HW1 4466   1.533   0.938   1.148
 1189SOL    HW2 4467   1.502   0.789   1.205
 1190SOL     OW 4468   2.740   6.371   1.354
 1190SOL    HW1 4469   2.835   6.401   1.345
 1190SOL    HW2 4470   2.737   6.287   1.408
 1191SOL     OW 4471   1.667   3.941   1.750
 1191SOL    HW1 4472   1.598   4.013   1.759
 1191SOL    HW2 4473   1.729   3.944   1.829
 1192SOL     OW 4474   3.905   5.872   2.365
 1192SOL    HW1 4475   3.942   5.895   2.455
 1192SOL    HW2 4476   3.838   5.798   2.374
 1193SOL     OW 4477   3.580   2.137   3.543
 1193SOL    HW1 4478   3.679   2.144   3.539
 1193SOL    HW2 4479   3.547   2.095   3.458
 1194SOL     OW 4480   6.843   2.758   2.085
 1194SOL    HW1 4481   6.865   2.837   2.142
 1194SOL    HW2 4482   6.744   2.756   2.068
 1195SOL     OW 4483   4.777   0.752   6.789
 1195SOL    HW1 4484   4.874   0.747   6.763
 1195SOL    HW2 4485   4.729   0.672   6.753
 1196SOL     OW 4486   1.462   5.670   3.819
 1196SOL    HW1 4487   1.479   5.708   3.910
 1196SOL    HW2 4488   1.364   5.677   3.798
 1197SOL     OW 4489   3.918   5.047   6.964
 1197SOL    HW1 4490   3.902   5.113   6.890
 1197SOL    HW2 4491   4.014   5.048   6.990
 1198SOL     OW 4492   3.240   1.704   3.271
 1198SOL    HW1 4493   3.241   1.630   3.338
 1198SOL    HW2 4494   3.243   1.792   3.319
 1199SOL     OW 4495   3.472   4.173   3.800
 1199SOL    HW1 4496   3.501   4.268   3.808
 1199SOL    HW2 4497   3.455   4.152   3.703
 1200SOL     OW 4498   4.505   4.094   0.972
 1200SOL    HW1 4499   4.545   4.185   0.986
 1200SOL    HW2 4500   4.539   4.032   1.043
 1201SOL     OW 4501   2.050   1.540   5.192
 1201SOL    HW1 4502   1.956   1.570   5.177
 1201SOL    HW2 4503   2.051   1.459   5.250
 1202SOL     OW 4504   5.338   5.986   4.103
 1202SOL    HW1 4505   5.339   5.983   4.202
 1202SOL    HW2 4506   5.431   6.000   4.069
 1203SOL     OW 4507   4.921   0.284   1.742
 1203SOL    HW1 4508   4.830   0.246   1.723
 1203SOL    HW2 4509   4.968   0.303   1.656
 1204SOL     OW 4510   2.693   0.378   0.183
 1204SOL    HW1 4511   2.691   0.405   0.279
 1204SOL    HW2 4512   2.622   0.310   0.166
 1205SOL     OW 4513   0.745   2.774   6.515
 1205SOL    HW1 4514   0.730   2.850   6.579
 1205SOL    HW2 4515   0.679   2.702   6.533
 1206SOL     OW 4516   6.472   2.030   5.141
 1206SOL    HW1 4517   6.523   1.949   5.171
 1206SOL    HW2 4518   6.483   2.041   5.042
 1207SOL     OW 4519   5.861   5.701   5.530
 1207SOL    HW1 4520   5.847   5.632   5.600
 1207SOL    HW2 4521   5.792   5.690   5.458
 1208SOL     OW 4522   4.136   3.506   3.488
 1208SOL    HW1 4523   4.142   3.508   3.587
 1208SOL    HW2 4524   4.043   3.485   3.460
 1209SOL     OW 4525   0.487   3.566   4.742
 1209SOL    HW1 4526   0.462   3.656   4.708
 1209SOL    HW2 4527   0.578   3.541   4.711
 1210SOL     OW 4528   2.591   0.253   4.430
 1210SOL    HW1 4529   2.656   0.295   4.367
 1210SOL    HW2 4530   2.592   0.302   4.517
 1211SOL     OW 4531   6.698   4.077   3.725
 1211SOL    HW1 4532   6.776   4.034   3.770
 1211SOL    HW2 4533   6.708   4.070   3.626
 1212SOL     OW 4534   1.111   3.342   2.267
 1212SOL    HW1 4535   1.188   3.346   2.330
 1212SOL    HW2 4536   1.090   3.433   2.233
 1213SOL     OW 4537   6.723   3.843   4.967
 1213SOL    HW1 4538   6.755   3.866   5.059
 1213SOL    HW2 4539   6.661   3.915   4.934
 1214SOL     OW 4540   0.698   2.323   0.784
 1214SOL    HW1 4541   0.669   2.229   0.764
 1214SOL    HW2 4542   0.630   2.367   0.841
 1215SOL     OW 4543   1.057   0.418   1.944
 1215SOL    HW1 4544   1.017   0.399   1.855
 1215SOL    HW2 4545   1.088   0.332   1.986
 1216SOL     OW 4546   1.990   0.059   0.779
 1216SOL    HW1 4547   1.962   0.134   0.839
 1216SOL    HW2 4548   2.051   0.094   0.708
 1217SOL     OW 4549   0.938   2.690   3.656
 1217SOL    HW1 4550   0.987   2.615   3.611
 1217SOL    HW2 4551   0.847   2.660   3.682
 1218SOL     OW 4552   6.828   4.560   3.841
 1218SOL    HW1 4553   6.899   4.631   3.839
 1218SOL    HW2 4554   6.738   4.603   3.851
 1219SOL     OW 4555   1.429   5.552   2.772
 1219SOL    HW1 4556   1.497   5.532   2.842
 1219SOL    HW2 4557   1.384   5.639   2.793
 1220SOL     OW 4558   5.952   4.820   3.131
 1220SOL    HW1 4559   5.968   4.886   3.204
 1220SOL    HW2 4560   6.037   4.802   3.083
 1221SOL     OW 4561   4.516   5.346   0.720
 1221SOL    HW1 4562   4.567   5.379   0.800
 1221SOL    HW2 4563   4.421   5.329   0.746
 1222SOL     OW 4564   7.027   4.712   1.303
 1222SOL    HW1 4565   0.026   4.690   1.397
 1222SOL    HW2 4566   6.943   4.766   1.304
 1223SOL     OW 4567   1.290   3.991   5.173
 1223SOL    HW1 4568   1.345   4.052   5.116
 1223SOL    HW2 4569   1.245   4.044   5.245
 1224SOL     OW 4570   4.087   5.384   1.692
 1224SOL    HW1 4571   4.070   5.323   1.614
 1224SOL    HW2 4572   4.000   5.415   1.729
 1225SOL     OW 4573   5.448   1.844   6.316
 1225SOL    HW1 4574   5.377   1.808   6.256
 1225SOL    HW2 4575   5.451   1.790   6.400
 1226SOL     OW 4576   6.097   5.183   1.341
 1226SOL    HW1 4577   6.041   5.262   1.364
 1226SOL    HW2 4578   6.149   5.202   1.257
 1227SOL     OW 4579   6.374   4.513   0.630
 1227SOL    HW1 4580   6.279   4.542   0.616
 1227SOL    HW2 4581   6.407   4.547   0.718
 1228SOL     OW 4582   4.148   3.863   5.332
 1228SOL    HW1 4583   4.150   3.771   5.292
 1228SOL    HW2 4584   4.140   3.855   5.431
 1229SOL     OW 4585   1.834   5.180   1.846
 1229SOL    HW1 4586   1.855   5.114   1.775
 1229SOL    HW2 4587   1.919   5.217   1.884
 1230SOL     OW 4588   5.714   4.549   0.549
 1230SOL    HW1 4589   5.719   4.452   0.522
 1230SOL    HW2 4590   5.666   4.556   0.637
 1231SOL     OW 4591   2.320   0.787   0.945
 1231SOL    HW1 4592   2.414   0.752   0.947
 1231SOL    HW2 4593   2.279   0.778   1.036
 1232SOL     OW 4594   2.064   2.209   6.000
 1232SOL    HW1 4595   2.079   2.303   5.973
 1232SOL    HW2 4596   2.140   2.152   5.970
 1233SOL     OW 4597   6.995   5.456   5.467
 1233SOL    HW1 4598   6.920   5.445   5.402
 1233SOL    HW2 4599   6.967   5.518   5.541
 1234SOL     OW 4600   6.911   4.536   4.925
 1234SOL    HW1 4601   6.975   4.498   4.991
 1234SOL    HW2 4602   6.960   4.557   4.840
 1235SOL     OW 4603   6.659   5.035   0.368
 1235SOL    HW1 4604   6.688   5.082   0.284
 1235SOL    HW2 4605   6.565   5.059   0.389
 1236SOL     OW 4606   0.127   1.135   3.102
 1236SOL    HW1 4607   0.055   1.161   3.037
 1236SOL    HW2 4608   0.098   1.054   3.152
 1237SOL     OW 4609   0.794   0.607   5.581
 1237SOL    HW1 4610   0.799   0.651   5.491
 1237SOL    HW2 4611   0.704   0.624   5.622
 1238SOL     OW 4612   0.069   0.456   4.402
 1238SOL    HW1 4613   0.113   0.537   4.440
 1238SOL    HW2 4614   7.004   0.478   4.373
 1239SOL     OW 4615   4.312   5.376   3.536
 1239SOL    HW1 4616   4.256   5.409   3.461
 1239SOL    HW2 4617   4.289   5.425   3.620
 1240SOL     OW 4618   0.997   3.765   2.060
 1240SOL    HW1 4619   0.963   3.855   2.088
 1240SOL    HW2 4620   1.094   3.771   2.036
 1241SOL     OW 4621   3.029   5.428   6.048
 1241SOL    HW1 4622   2.951   5.488   6.060
 1241SOL    HW2 4623   3.050   5.420   5.951
 1242SOL     OW 4624   2.288   5.992   0.600
 1242SOL    HW1 4625   2.238   6.009   0.685
 1242SOL    HW2 4626   2.235   5.928   0.543
 1243SOL     OW 4627   1.122   4.461   4.394
 1243SOL    HW1 4628   1.049   4.490   4.332
 1243SOL    HW2 4629   1.083   4.432   4.481
 1244SOL     OW 4630   6.255   6.203   4.997
 1244SOL    HW1 4631   6.219   6.277   4.941
 1244SOL    HW2 4632   6.331   6.237   5.053
 1245SOL     OW 4633   3.902   6.630   1.569
 1245SOL    HW1 4634   3.873   6.535   1.580
 1245SOL    HW2 4635   3.925   6.668   1.658
 1246SOL     OW 4636   4.961   2.297   3.197
 1246SOL    HW1 4637   5.012   2.367   3.247
 1246SOL    HW2 4638   4.931   2.333   3.109
 1247SOL     OW 4639   4.523   6.290   2.825
 1247SOL    HW1 4640   4.524   6.193   2.851
 1247SOL    HW2 4641   4.591   6.306   2.754
 1248SOL     OW 4642   0.239   0.453   5.384
 1248SOL    HW1 4643   0.255   0.444   5.285
 1248SOL    HW2 4644   0.322   0.488   5.428
 1249SOL     OW 4645   6.631   6.912   0.162
 1249SOL    HW1 4646   6.708   6.875   0.109
 1249SOL    HW2 4647   6.590   6.839   0.217
 1250SOL     OW 4648   0.571   4.251   4.770
 1250SOL    HW1 4649   0.485   4.248   4.718
 1250SOL    HW2 4650   0.636   4.186   4.732
 1251SOL     OW 4651   1.758   0.297   3.528
 1251SOL    HW1 4652   1.841   0.340   3.491
 1251SOL    HW2 4653   1.740   0.333   3.619
 1252SOL     OW 4654   3.231   4.677   6.867
 1252SOL    HW1 4655   3.176   4.596   6.886
 1252SOL    HW2 4656   3.207   4.749   6.933
 1253SOL     OW 4657   3.150   5.377   0.411
 1253SOL    HW1 4658   3.122   5.433   0.488
 1253SOL    HW2 4659   3.170   5.435   0.332
 1254SOL     OW 4660   6.508   1.401   4.338
 1254SOL    HW1 4661   6.510   1.307   4.302
 1254SOL    HW2 4662   6.416   1.438   4.329
 1255SOL     OW 4663   5.571   2.089   6.519
 1255SOL    HW1 4664   5.633   2.161   6.546
 1255SOL    HW2 4665   5.524   2.053   6.599
 1256SOL     OW 4666   6.908   6.309   6.314
 1256SOL    HW1 4667   6.935   6.317   6.410
 1256SOL    HW2 4668   6.904   6.400   6.272
 1257SOL     OW 4669   6.695   6.699   2.254
 1257SOL    HW1 4670   6.770   6.645   2.216
 1257SOL    HW2 4671   6.640   6.737   2.179
 1258SOL     OW 4672   5.059   5.079   6.450
 1258SOL    HW1 4673   4.960   5.068   6.464
 1258SOL    HW2 4674   5.103   4.989   6.453
 1259SOL     OW 4675   6.049   6.835   4.175
 1259SOL    HW1 4676   6.146   6.823   4.155
 1259SOL    HW2 4677   6.035   6.925   4.216
 1260SOL     OW 4678   3.031   0.360   0.961
 1260SOL    HW1 4679   2.941   0.378   0.999
 1260SOL    HW2 4680   3.038   0.264   0.933
 1261SOL     OW 4681   1.219   3.448   5.108
 1261SOL    HW1 4682   1.203   3.452   5.206
 1261SOL    HW2 4683   1.138   3.482   5.059
 1262SOL     OW 4684   5.222   6.616   0.237
 1262SOL    HW1 4685   5.190   6.529   0.198
 1262SOL    HW2 4686   5.244   6.602   0.334
 1263SOL     OW 4687   6.801   0.875   1.421
 1263SOL    HW1 4688   6.827   0.860   1.325
 1263SOL    HW2 4689   6.795   0.787   1.468
 1264SOL     OW 4690   6.057   2.382   4.464
 1264SOL    HW1 4691   6.090   2.448   4.397
 1264SOL    HW2 4692   5.969   2.345   4.435
 1265SOL     OW 4693   6.177   6.209   3.723
 1265SOL    HW1 4694   6.147   6.253   3.808
 1265SOL    HW2 4695   6.273   6.230   3.707
 1266SOL     OW 4696   2.639   1.373   5.112
 1266SOL    HW1 4697   2.652   1.471   5.098
 1266SOL    HW2 4698   2.561   1.359   5.174
 1267SOL     OW 4699   6.896   4.354   1.874
 1267SOL    HW1 4700   6.913   4.263   1.913
 1267SOL    HW2 4701   6.958   4.369   1.798
 1268SOL     OW 4702   6.105   5.088   6.458
 1268SOL    HW1 4703   6.021   5.080   6.512
 1268SOL    HW2 4704   6.082   5.123   6.367
 1269SOL     OW 4705   1.015   3.698   5.725
 1269SOL    HW1 4706   1.115   3.699   5.732
 1269SOL    HW2 4707   0.980   3.608   5.752
 1270SOL     OW 4708   1.070   2.575   3.980
 1270SOL    HW1 4709   1.024   2.627   3.908
 1270SOL    HW2 4710   1.002   2.521   4.030
 1271SOL     OW 4711   5.311   4.341   2.806
 1271SOL    HW1 4712   5.279   4.285   2.883
 1271SOL    HW2 4713   5.291   4.293   2.720
 1272SOL     OW 4714   6.015   0.483   0.809
 1272SOL    HW1 4715   5.940   0.520   0.862
 1272SOL    HW2 4716   6.093   0.546   0.811
 1273SOL     OW 4717   2.686   6.315   4.291
 1273SOL    HW1 4718   2.761   6.254   4.267
 1273SOL    HW2 4719   2.660   6.301   4.386
 1274SOL     OW 4720   5.484   2.121   1.115
 1274SOL    HW1 4721   5.400   2.104   1.166
 1274SOL    HW2 4722   5.519   2.212   1.138
 1275SOL     OW 4723   3.687   1.142   3.344
 1275SOL    HW1 4724   3.666   1.066   3.405
 1275SOL    HW2 4725   3.626   1.141   3.265
 1276SOL     OW 4726   5.157   6.295   2.889
 1276SOL    HW1 4727   5.076   6.350   2.909
 1276SOL    HW2 4728   5.163   6.279   2.791
 1277SOL     OW 4729   0.807   1.798   5.140
 1277SOL    HW1 4730   0.863   1.727   5.183
 1277SOL    HW2 4731   0.864   1.852   5.077
 1278SOL     OW 4732   2.924   1.552   4.757
 1278SOL    HW1 4733   2.995   1.614   4.723
 1278SOL    HW2 4734   2.884   1.503   4.679
 1279SOL     OW 4735   1.690   4.669   0.541
 1279SOL    HW1 4736   1.727   4.673   0.634
 1279SOL    HW2 4737   1.628   4.591   0.533
 1280SOL     OW 4738   0.668   6.132   2.982
 1280SOL    HW1 4739   0.722   6.202   2.934
 1280SOL    HW2 4740   0.573   6.136   2.951
 1281SOL     OW 4741   1.383   6.195   4.259
 1281SOL    HW1 4742   1.326   6.183   4.340
 1281SOL    HW2 4743   1.354   6.131   4.188
 1282SOL     OW 4744   1.681   6.802   2.584
 1282SOL    HW1 4745   1.670   6.726   2.648
 1282SOL    HW2 4746   1.612   6.871   2.602
 1283SOL     OW 4747   5.697   4.415   5.487
 1283SOL    HW1 4748   5.719   4.367   5.402
 1283SOL    HW2 4749   5.631   4.487   5.468
 1284SOL     OW 4750   2.873   2.271   3.034
 1284SOL    HW1 4751   2.866   2.351   3.094
 1284SOL    HW2 4752   2.919   2.197   3.083
 1285SOL     OW 4753   6.162   2.354   5.596
 1285SOL    HW1 4754   6.110   2.426   5.642
 1285SOL    HW2 4755   6.255   2.386   5.579
 1286SOL     OW 4756   5.120   5.444   1.153
 1286SOL    HW1 4757   5.060   5.397   1.217
 1286SOL    HW2 4758   5.069   5.514   1.103
 1287SOL     OW 4759   5.826   3.704   5.952
 1287SOL    HW1 4760   5.918   3.736   5.932
 1287SOL    HW2 4761   5.788   3.757   6.028
 1288SOL     OW 4762   0.277   3.175   3.426
 1288SOL    HW1 4763   0.260   3.235   3.348
 1288SOL    HW2 4764   0.374   3.152   3.429
 1289SOL     OW 4765   0.507   5.075   3.187
 1289SOL    HW1 4766   0.431   5.139   3.178
 1289SOL    HW2 4767   0.592   5.127   3.200
 1290SOL     OW 4768   0.201   0.068   1.640
 1290SOL    HW1 4769   0.137   0.051   1.715
 1290SOL    HW2 4770   0.251   0.153   1.657
 1291SOL     OW 4771   1.726   5.247   1.515
 1291SOL    HW1 4772   1.680   5.314   1.572
 1291SOL    HW2 4773   1.822   5.274   1.502
 1292SOL     OW 4774   1.506   6.872   0.323
 1292SOL    HW1 4775   1.427   6.818   0.296
 1292SOL    HW2 4776   1.582   6.811   0.346
 1293SOL     OW 4777   6.415   0.976   6.521
 1293SOL    HW1 4778   6.483   0.920   6.473
 1293SOL    HW2 4779   6.323   0.939   6.504
 1294SOL     OW 4780   0.774   1.451   4.316
 1294SOL    HW1 4781   0.676   1.432   4.312
 1294SOL    HW2 4782   0.820   1.383   4.372
 1295SOL     OW 4783   4.976   3.861   0.305
 1295SOL    HW1 4784   4.932   3.776   0.333
 1295SOL    HW2 4785   4.950   3.935   0.368
 1296SOL     OW 4786   3.782   0.922   0.461
 1296SOL    HW1 4787   3.823   0.958   0.377
 1296SOL    HW2 4788   3.731   0.839   0.439
 1297SOL     OW 4789   5.488   0.624   6.034
 1297SOL    HW1 4790   5.388   0.620   6.022
 1297SOL    HW2 4791   5.525   0.531   6.039
 1298SOL     OW 4792   6.170   2.574   3.069
 1298SOL    HW1 4793   6.133   2.646   3.011
 1298SOL    HW2 4794   6.113   2.565   3.151
 1299SOL     OW 4795   1.880   4.449   4.383
 1299SOL    HW1 4796   1.847   4.535   4.345
 1299SOL    HW2 4797   1.815   4.376   4.362
 1300SOL     OW 4798   3.625   3.338   3.300
 1300SOL    HW1 4799   3.558   3.302   3.236
 1300SOL    HW2 4800   3.582   3.404   3.361
 1301SOL     OW 4801   0.605   0.783   1.524
 1301SOL    HW1 4802   0.652   0.765   1.437
 1301SOL    HW2 4803   0.656   0.852   1.576
 1302SOL     OW 4804   2.837   5.273   5.691
 1302SOL    HW1 4805   2.776   5.344   5.727
 1302SOL    HW2 4806   2.814   5.185   5.732
 1303SOL     OW 4807   2.514   0.145   1.888
 1303SOL    HW1 4808   2.583   0.159   1.818
 1303SOL    HW2 4809   2.557   0.110   1.971
 1304SOL     OW 4810   3.442   0.861   6.102
 1304SOL    HW1 4811   3.369   0.929   6.104
 1304SOL    HW2 4812   3.498   0.870   6.184
 1305SOL     OW 4813   5.901   6.357   4.289
 1305SOL    HW1 4814   5.920   6.284   4.355
 1305SOL    HW2 4815   5.885   6.443   4.337
 1306SOL     OW 4816   1.219   5.433   3.503
 1306SOL    HW1 4817   1.266   5.493   3.438
 1306SOL    HW2 4818   1.232   5.338   3.477
 1307SOL     OW 4819   0.745   0.744   5.335
 1307SOL    HW1 4820   0.819   0.810   5.344
 1307SOL    HW2 4821   0.698   0.758   5.247
 1308SOL     OW 4822   4.244   6.339   3.584
 1308SOL    HW1 4823   4.218   6.297   3.672
 1308SOL    HW2 4824   4.252   6.268   3.515
 1309SOL     OW 4825   6.592   2.956   4.194
 1309SOL    HW1 4826   6.583   2.869   4.145
 1309SOL    HW2 4827   6.657   3.015   4.146
 1310SOL     OW 4828   5.411   4.114   6.269
 1310SOL    HW1 4829   5.412   4.206   6.229
 1310SOL    HW2 4830   5.492   4.064   6.240
 1311SOL     OW 4831   5.603   4.895   0.269
 1311SOL    HW1 4832   5.658   4.826   0.222
 1311SOL    HW2 4833   5.550   4.946   0.202
 1312SOL     OW 4834   5.880   1.662   1.382
 1312SOL    HW1 4835   5.877   1.753   1.422
 1312SOL    HW2 4836   5.920   1.598   1.447
 1313SOL     OW 4837   4.486   5.229   4.980
 1313SOL    HW1 4838   4.448   5.139   4.958
 1313SOL    HW2 4839   4.412   5.293   4.999
 1314SOL     OW 4840   6.897   1.423   6.205
 1314SOL    HW1 4841   6.872   1.328   6.191
 1314SOL    HW2 4842   6.996   1.431   6.216
 1315SOL     OW 4843   1.168   6.977   3.969
 1315SOL    HW1 4844   1.231   6.966   4.046
 1315SOL    HW2 4845   1.165   6.893   3.916
 1316SOL     OW 4846   3.671   5.483   4.272
 1316SOL    HW1 4847   3.725   5.567   4.268
 1316SOL    HW2 4848   3.659   5.446   4.179
 1317SOL     OW 4849   0.190   3.259   3.153
 1317SOL    HW1 4850   0.269   3.218   3.107
 1317SOL    HW2 4851   0.109   3.248   3.096
 1318SOL     OW 4852   0.477   6.416   2.672
 1318SOL    HW1 4853   0.546   6.414   2.746
 1318SOL    HW2 4854   0.505   6.481   2.602
 1319SOL     OW 4855   0.250   6.640   0.818
 1319SOL    HW1 4856   0.292   6.648   0.908
 1319SOL    HW2 4857   0.305   6.689   0.751
 1320SOL     OW 4858   6.193   4.862   5.321
 1320SOL    HW1 4859   6.267   4.930   5.315
 1320SOL    HW2 4860   6.218   4.781   5.268
 1321SOL     OW 4861   3.739   0.891   1.324
 1321SOL    HW1 4862   3.782   0.966   1.273
 1321SOL    HW2 4863   3.648   0.872   1.285
 1322SOL     OW 4864   5.398   1.006   5.979
 1322SOL    HW1 4865   5.484   0.962   5.955
 1322SOL    HW2 4866   5.360   0.963   6.061
 1323SOL     OW 4867   6.753   0.403   4.592
 1323SOL    HW1 4868   6.739   0.499   4.617
 1323SOL    HW2 4869   6.813   0.360   4.660
 1324SOL     OW 4870   1.510   2.336   0.891
 1324SOL    HW1 4871   1.604   2.301   0.889
 1324SOL    HW2 4872   1.502   2.414   0.829
 1325SOL     OW 4873   5.055   5.117   3.344
 1325SOL    HW1 4874   5.058   5.215   3.324
 1325SOL    HW2 4875   4.976   5.098   3.403
 1326SOL     OW 4876   4.831   4.052   4.084
 1326SOL    HW1 4877   4.910   3.992   4.082
 1326SOL    HW2 4878   4.755   4.010   4.034
 1327SOL     OW 4879   3.256   5.940   3.572
 1327SOL    HW1 4880   3.255   6.032   3.533
 1327SOL    HW2 4881   3.163   5.904   3.576
 1328SOL     OW 4882   2.452   1.655   1.653
 1328SOL    HW1 4883   2.445   1.752   1.626
 1328SOL    HW2 4884   2.533   1.615   1.610
 1329SOL     OW 4885   1.124   5.708   1.612
 1329SOL    HW1 4886   1.095   5.702   1.516
 1329SOL    HW2 4887   1.207   5.655   1.625
 1330SOL     OW 4888   6.691   6.231   1.475
 1330SOL    HW1 4889   6.644   6.305   1.523
 1330SOL    HW2 4890   6.756   6.270   1.409
 1331SOL     OW 4891   0.753   1.893   1.331
 1331SOL    HW1 4892   0.696   1.811   1.334
 1331SOL    HW2 4893   0.710   1.962   1.272
 1332SOL     OW 4894   4.089   1.983   0.316
 1332SOL    HW1 4895   4.058   2.030   0.398
 1332SOL    HW2 4896   4.011   1.962   0.257
 1333SOL     OW 4897   3.938   3.668   5.566
 1333SOL    HW1 4898   4.023   3.718   5.582
 1333SOL    HW2 4899   3.950   3.572   5.591
 1334SOL     OW 4900   1.846   3.529   3.651
 1334SOL    HW1 4901   1.937   3.570   3.661
 1334SOL    HW2 4902   1.821   3.486   3.738
 1335SOL     OW 4903   1.838   5.817   3.784
 1335SOL    HW1 4904   1.914   5.833   3.721
 1335SOL    HW2 4905   1.862   5.743   3.846
 1336SOL     OW 4906   0.195   6.660   4.573
 1336SOL    HW1 4907   0.286   6.628   4.546
 1336SOL    HW2 4908   0.158   6.719   4.501
 1337SOL     OW 4909   2.787   0.269   6.835
 1337SOL    HW1 4910   2.808   0.237   6.927
 1337SOL    HW2 4911   2.870   0.266   6.779
 1338SOL     OW 4912   4.008   4.374   0.417
 1338SOL    HW1 4913   4.030   4.436   0.493
 1338SOL    HW2 4914   4.049   4.410   0.333
 1339SOL     OW 4915   0.353   4.452   6.607
 1339SOL    HW1 4916   0.357   4.415   6.700
 1339SOL    HW2 4917   0.270   4.507   6.597
 1340SOL     OW 4918   2.632   1.532   6.069
 1340SOL    HW1 4919   2.596   1.456   6.014
 1340SOL    HW2 4920   2.712   1.502   6.120
 1341SOL     OW 4921   5.066   1.738   3.897
 1341SOL    HW1 4922   4.978   1.773   3.864
 1341SOL    HW2 4923   5.066   1.738   3.997
 1342SOL     OW 4924   0.775   5.563   0.372
 1342SOL    HW1 4925   0.854   5.595   0.320
 1342SOL    HW2 4926   0.773   5.463   0.370
 1343SOL     OW 4927   3.182   5.939   3.141
 1343SOL    HW1 4928   3.274   5.972   3.119
 1343SOL    HW2 4929   3.132   6.010   3.192
 1344SOL     OW 4930   4.399   1.585   2.206
 1344SOL    HW1 4931   4.485   1.567   2.159
 1344SOL    HW2 4932   4.389   1.684   2.220
 1345SOL     OW 4933   6.663   5.511   1.751
 1345SOL    HW1 4934   6.564   5.500   1.741
 1345SOL    HW2 4935   6.709   5.432   1.712
 1346SOL     OW 4936   6.372   1.865   3.189
 1346SOL    HW1 4937   6.326   1.919   3.119
 1346SOL    HW2 4938   6.468   1.892   3.195
 1347SOL     OW 4939   4.181   1.016   3.660
 1347SOL    HW1 4940   4.191   1.113   3.640
 1347SOL    HW2 4941   4.085   0.995   3.675
 1348SOL     OW 4942   5.814   6.300   4.650
 1348SOL    HW1 4943   5.893   6.254   4.610
 1348SOL    HW2 4944   5.823   6.300   4.750
 1349SOL     OW 4945   5.115   1.134   6.604
 1349SOL    HW1 4946   5.064   1.220   6.605
 1349SOL    HW2 4947   5.174   1.131   6.524
 1350SOL     OW 4948   4.186   1.698   4.955
 1350SOL    HW1 4949   4.204   1.610   4.998
 1350SOL    HW2 4950   4.088   1.707   4.937
 1351SOL     OW 4951   1.298   1.812   4.627
 1351SOL    HW1 4952   1.202   1.794   4.647
 1351SOL    HW2 4953   1.317   1.792   4.531
 1352SOL     OW 4954   1.380   6.650   4.723
 1352SOL    HW1 4955   1.442   6.589   4.675
 1352SOL    HW2 4956   1.433   6.723   4.768
 1353SOL     OW 4957   2.901   3.267   5.721
 1353SOL    HW1 4958   2.927   3.362   5.739
 1353SOL    HW2 4959   2.831   3.265   5.650
 1354SOL     OW 4960   0.601   6.353   6.931
 1354SOL    HW1 4961   0.658   6.301   6.868
 1354SOL    HW2 4962   0.527   6.295   6.965
 1355SOL     OW 4963   4.475   3.857   0.210
 1355SOL    HW1 4964   4.514   3.948   0.228
 1355SOL    HW2 4965   4.448   3.815   0.296
 1356SOL     OW 4966   3.851   3.032   2.864
 1356SOL    HW1 4967   3.761   2.989   2.870
 1356SOL    HW2 4968   3.896   3.003   2.779
 1357SOL     OW 4969   4.199   2.448   6.188
 1357SOL    HW1 4970   4.264   2.467   6.262
 1357SOL    HW2 4971   4.106   2.463   6.221
 1358SOL     OW 4972   2.274   3.006   4.563
 1358SOL    HW1 4973   2.336   2.929   4.547
 1358SOL    HW2 4974   2.238   3.038   4.475
 1359SOL     OW 4975   1.086   1.612   6.669
 1359SOL    HW1 4976   1.083   1.671   6.749
 1359SOL    HW2 4977   1.080   1.668   6.586
 1360SOL     OW 4978   2.900   3.776   5.094
 1360SOL    HW1 4979   2.872   3.868   5.067
 1360SOL    HW2 4980   2.998   3.775   5.113
 1361SOL     OW 4981   1.298   6.138   1.308
 1361SOL    HW1 4982   1.235   6.213   1.332
 1361SOL    HW2 4983   1.376   6.175   1.258
 1362SOL     OW 4984   3.740   1.083   6.203
 1362SOL    HW1 4985   3.730   1.037   6.291
 1362SOL    HW2 4986   3.805   1.032   6.146
 1363SOL     OW 4987   6.392   5.835   1.414
 1363SOL    HW1 4988   6.343   5.881   1.341
 1363SOL    HW2 4989   6.472   5.889   1.440
 1364SOL     OW 4990   1.453   3.150   1.132
 1364SOL    HW1 4991   1.529   3.100   1.174
 1364SOL    HW2 4992   1.375   3.089   1.121
 1365SOL     OW 4993   1.538   3.117   6.213
 1365SOL    HW1 4994   1.478   3.109   6.134
 1365SOL    HW2 4995   1.568   3.026   6.241
 1366SOL     OW 4996   4.087   1.060   2.085
 1366SOL    HW1 4997   4.185   1.072   2.098
 1366SOL    HW2 4998   4.070   1.022   1.994
 1367SOL     OW 4999   2.236   0.414   3.893
 1367SOL    HW1 5000   2.299   0.341   3.921
 1367SOL    HW2 5001   2.260   0.445   3.801
 1368SOL     OW 5002   2.071   5.805   4.832
 1368SOL    HW1 5003   2.065   5.905   4.829
 1368SOL    HW2 5004   1.981   5.766   4.817
 1369SOL     OW 5005   2.630   5.530   3.256
 1369SOL    HW1 5006   2.704   5.523   3.190
 1369SOL    HW2 5007   2.542   5.529   3.209
 1370SOL     OW 5008   6.468   3.003   2.909
 1370SOL    HW1 5009   6.479   3.101   2.928
 1370SOL    HW2 5010   6.430   2.958   2.989
 1371SOL     OW 5011   6.495   1.954   6.347
 1371SOL    HW1 5012   6.516   2.052   6.345
 1371SOL    HW2 5013   6.478   1.925   6.442
 1372SOL     OW 5014   4.979   1.986   1.963
 1372SOL    HW1 5015   5.031   1.943   2.038
 1372SOL    HW2 5016   5.042   2.015   1.892
 1373SOL     OW 5017   3.874   2.741   0.988
 1373SOL    HW1 5018   3.796   2.745   1.049
 1373SOL    HW2 5019   3.945   2.804   1.020
 1374SOL     OW 5020   3.446   3.320   4.017
 1374SOL    HW1 5021   3.350   3.345   4.023
 1374SOL    HW2 5022   3.502   3.387   4.066
 1375SOL     OW 5023   6.491   3.772   5.458
 1375SOL    HW1 5024   6.449   3.705   5.520
 1375SOL    HW2 5025   6.426   3.845   5.440
 1376SOL     OW 5026   2.732   4.684   6.486
 1376SOL    HW1 5027   2.753   4.657   6.391
 1376SOL    HW2 5028   2.678   4.768   6.485
 1377SOL     OW 5029   1.112   1.832   3.604
 1377SOL    HW1 5030   1.092   1.774   3.526
 1377SOL    HW2 5031   1.028   1.877   3.635
 1378SOL     OW 5032   5.300   2.838   3.253
 1378SOL    HW1 5033   5.254   2.926   3.260
 1378SOL    HW2 5034   5.240   2.772   3.207
 1379SOL     OW 5035   5.556   5.461   6.599
 1379SOL    HW1 5036   5.644   5.428   6.566
 1379SOL    HW2 5037   5.487   5.451   6.527
 1380SOL     OW 5038   6.607   6.736   3.808
 1380SOL    HW1 5039   6.667   6.671   3.762
 1380SOL    HW2 5040   6.656   6.822   3.822
 1381SOL     OW 5041   0.133   2.981   6.124
 1381SOL    HW1 5042   0.227   3.013   6.114
 1381SOL    HW2 5043   0.086   2.989   6.035
 1382SOL     OW 5044   4.344   1.850   5.416
 1382SOL    HW1 5045   4.299   1.879   5.501
 1382SOL    HW2 5046   4.285   1.872   5.338
 1383SOL     OW 5047   5.416   0.054   0.609
 1383SOL    HW1 5048   5.483   0.125   0.631
 1383SOL    HW2 5049   5.371   0.076   0.522
 1384SOL     OW 5050   5.434   1.866   2.202
 1384SOL    HW1 5051   5.409   1.855   2.298
 1384SOL    HW2 5052   5.531   1.886   2.195
 1385SOL     OW 5053   6.820   6.922   2.372
 1385SOL    HW1 5054   6.751   6.854   2.346
 1385SOL    HW2 5055   6.891   6.877   2.426
 1386SOL     OW 5056   2.001   0.773   3.920
 1386SOL    HW1 5057   2.067   0.766   3.995
 1386SOL    HW2 5058   2.047   0.752   3.833
 1387SOL     OW 5059   1.187   5.332   1.451
 1387SOL    HW1 5060   1.264   5.359   1.509
 1387SOL    HW2 5061   1.217   5.260   1.388
 1388SOL     OW 5062   6.365   0.565   1.558
 1388SOL    HW1 5063   6.425   0.489   1.532
 1388SOL    HW2 5064   6.401   0.650   1.519
 1389SOL     OW 5065   6.645   0.194   0.603
 1389SOL    HW1 5066   6.616   0.144   0.521
 1389SOL    HW2 5067   6.745   0.198   0.605
 1390SOL     OW 5068   1.269   1.464   4.519
 1390SOL    HW1 5069   1.279   1.561   4.494
 1390SOL    HW2 5070   1.335   1.409   4.467
 1391SOL     OW 5071   1.005   3.560   3.612
 1391SOL    HW1 5072   0.912   3.594   3.627
 1391SOL    HW2 5073   1.004   3.489   3.542
 1392SOL     OW 5074   5.273   5.745   3.928
 1392SOL    HW1 5075   5.317   5.833   3.948
 1392SOL    HW2 5076   5.182   5.761   3.890
 1393SOL     OW 5077   3.747   4.599   6.672
 1393SOL    HW1 5078   3.662   4.626   6.716
 1393SOL    HW2 5079   3.811   4.675   6.673
 1394SOL     OW 5080   0.939   6.887   6.607
 1394SOL    HW1 5081   1.033   6.853   6.618
 1394SOL    HW2 5082   0.875   6.811   6.612
 1395SOL     OW 5083   3.981   5.103   6.177
 1395SOL    HW1 5084   3.896   5.083   6.225
 1395SOL    HW2 5085   4.014   5.020   6.132
 1396SOL     OW 5086   4.664   5.531   2.810
 1396SOL    HW1 5087   4.575   5.507   2.770
 1396SOL    HW2 5088   4.726   5.453   2.802
 1397SOL     OW 5089   6.014   6.170   4.452
 1397SOL    HW1 5090   5.998   6.109   4.529
 1397SOL    HW2 5091   6.081   6.129   4.390
 1398SOL     OW 5092   1.893   0.217   5.295
 1398SOL    HW1 5093   1.953   0.272   5.352
 1398SOL    HW2 5094   1.879   0.262   5.207
 1399SOL     OW 5095   2.862   5.530   2.396
 1399SOL    HW1 5096   2.880   5.515   2.299
 1399SOL    HW2 5097   2.880   5.626   2.418
 1400SOL     OW 5098   1.450   0.900   3.080
 1400SOL    HW1 5099   1.393   0.956   3.021
 1400SOL    HW2 5100   1.398   0.821   3.112
 1401SOL     OW 5101   6.870   2.409   4.372
 1401SOL    HW1 5102   6.970   2.408   4.375
 1401SOL    HW2 5103   6.835   2.474   4.440
 1402SOL     OW 5104   5.350   2.394   6.935
 1402SOL    HW1 5105   5.336   2.489   6.905
 1402SOL    HW2 5106   5.442   2.364   6.911
 1403SOL     OW 5107   3.731   0.888   2.147
 1403SOL    HW1 5108   3.645   0.903   2.195
 1403SOL    HW2 5109   3.806   0.930   2.199
 1404SOL     OW 5110   4.618   1.031   6.112
 1404SOL    HW1 5111   4.550   1.066   6.177
 1404SOL    HW2 5112   4.703   1.082   6.122
 1405SOL     OW 5113   3.138   2.876   0.686
 1405SOL    HW1 5114   3.079   2.855   0.764
 1405SOL    HW2 5115   3.177   2.792   0.649
 1406SOL     OW 5116   0.569   3.458   1.546
 1406SOL    HW1 5117   0.647   3.452   1.484
 1406SOL    HW2 5118   0.501   3.521   1.508
 1407SOL     OW 5119   6.651   2.516   2.434
 1407SOL    HW1 5120   6.622   2.421   2.439
 1407SOL    HW2 5121   6.738   2.522   2.385
 1408SOL     OW 5122   6.873   4.312   0.025
 1408SOL    HW1 5123   6.973   4.316   0.021
 1408SOL    HW2 5124   6.834   4.342   6.966
 1409SOL     OW 5125   6.856   1.480   3.769
 1409SOL    HW1 5126   6.812   1.570   3.762
 1409SOL    HW2 5127   6.895   1.456   3.680
 1410SOL     OW 5128   0.376   1.660   6.223
 1410SOL    HW1 5129   0.474   1.658   6.243
 1410SOL    HW2 5130   0.345   1.755   6.216
 1411SOL     OW 5131   1.680   1.213   0.975
 1411SOL    HW1 5132   1.763   1.178   1.017
 1411SOL    HW2 5133   1.673   1.312   0.990
 1412SOL     OW 5134   1.993   1.809   0.415
 1412SOL    HW1 5135   1.947   1.735   0.367
 1412SOL    HW2 5136   1.928   1.883   0.435
 1413SOL     OW 5137   3.391   6.913   3.613
 1413SOL    HW1 5138   3.366   6.987   3.551
 1413SOL    HW2 5139   3.478   6.934   3.657
 1414SOL     OW 5140   1.520   0.504   2.626
 1414SOL    HW1 5141   1.518   0.557   2.711
 1414SOL    HW2 5142   1.611   0.466   2.613
 1415SOL     OW 5143   5.636   6.484   4.532
 1415SOL    HW1 5144   5.627   6.571   4.582
 1415SOL    HW2 5145   5.697   6.423   4.582
 1416SOL     OW 5146   4.752   6.024   3.847
 1416SOL    HW1 5147   4.829   6.019   3.783
 1416SOL    HW2 5148   4.685   5.954   3.822
 1417SOL     OW 5149   3.218   3.677   5.764
 1417SOL    HW1 5150   3.171   3.744   5.707
 1417SOL    HW2 5151   3.152   3.625   5.817
 1418SOL     OW 5152   3.524   4.129   4.355
 1418SOL    HW1 5153   3.532   4.033   4.384
 1418SOL    HW2 5154   3.484   4.133   4.263
 1419SOL     OW 5155   3.504   6.096   4.142
 1419SOL    HW1 5156   3.499   6.171   4.076
 1419SOL    HW2 5157   3.413   6.077   4.179
 1420SOL     OW 5158   0.362   6.721   2.946
 1420SOL    HW1 5159   0.346   6.815   2.978
 1420SOL    HW2 5160   0.460   6.701   2.950
 1421SOL     OW 5161   3.641   0.754   3.111
 1421SOL    HW1 5162   3.620   0.663   3.145
 1421SOL    HW2 5163   3.560   0.812   3.117
 1422SOL     OW 5164   2.702   5.519   0.270
 1422SOL    HW1 5165   2.735   5.467   0.348
 1422SOL    HW2 5166   2.640   5.591   0.302
 1423SOL     OW 5167   4.552   0.365   2.654
 1423SOL    HW1 5168   4.539   0.461   2.629
 1423SOL    HW2 5169   4.464   0.324   2.677
 1424SOL     OW 5170   6.623   5.412   2.219
 1424SOL    HW1 5171   6.556   5.450   2.155
 1424SOL    HW2 5172   6.634   5.315   2.202
 1425SOL     OW 5173   1.824   0.105   4.125
 1425SOL    HW1 5174   1.881   0.135   4.048
 1425SOL    HW2 5175   1.730   0.138   4.111
 1426SOL     OW 5176   1.602   1.033   6.155
 1426SOL    HW1 5177   1.695   1.048   6.120
 1426SOL    HW2 5178   1.584   0.934   6.158
 1427SOL     OW 5179   4.871   2.640   6.089
 1427SOL    HW1 5180   4.776   2.659   6.114
 1427SOL    HW2 5181   4.909   2.719   6.042
 1428SOL     OW 5182   5.669   0.540   1.157
 1428SOL    HW1 5183   5.607   0.614   1.182
 1428SOL    HW2 5184   5.625   0.481   1.089
 1429SOL     OW 5185   5.516   5.619   1.479
 1429SOL    HW1 5186   5.524   5.615   1.579
 1429SOL    HW2 5187   5.565   5.700   1.446
 1430SOL     OW 5188   2.950   5.014   2.685
 1430SOL    HW1 5189   2.992   4.997   2.773
 1430SOL    HW2 5190   2.977   5.105   2.652
 1431SOL     OW 5191   2.055   1.085   0.648
 1431SOL    HW1 5192   1.967   1.092   0.695
 1431SOL    HW2 5193   2.098   0.998   0.671
 1432SOL     OW 5194   3.091   6.767   1.543
 1432SOL    HW1 5195   3.126   6.685   1.589
 1432SOL    HW2 5196   3.144   6.846   1.570
 1433SOL     OW 5197   5.279   6.977   3.434
 1433SOL    HW1 5198   5.228   7.025   3.362
 1433SOL    HW2 5199   5.316   6.892   3.397
 1434SOL     OW 5200   0.560   0.825   5.144
 1434SOL    HW1 5201   0.462   0.803   5.136
 1434SOL    HW2 5202   0.593   0.859   5.056
 1435SOL     OW 5203   7.025   2.180   3.978
 1435SOL    HW1 5204   0.047   2.127   4.047
 1435SOL    HW2 5205   6.999   2.120   3.902
 1436SOL     OW 5206   5.370   3.503   1.302
 1436SOL    HW1 5207   5.292   3.561   1.324
 1436SOL    HW2 5208   5.339   3.424   1.248
 1437SOL     OW 5209   4.529   0.672   2.574
 1437SOL    HW1 5210   4.429   0.681   2.569
 1437SOL    HW2 5211   4.570   0.761   2.589
 1438SOL     OW 5212   3.119   6.717   2.184
 1438SOL    HW1 5213   3.048   6.649   2.168
 1438SOL    HW2 5214   3.091   6.804   2.145
 1439SOL     OW 5215   0.707   5.511   2.641
 1439SOL    HW1 5216   0.643   5.542   2.571
 1439SOL    HW2 5217   0.782   5.460   2.598
 1440SOL     OW 5218   2.381   2.994   1.028
 1440SOL    HW1 5219   2.291   3.036   1.016
 1440SOL    HW2 5220   2.370   2.903   1.069
 1441SOL     OW 5221   4.864   6.601   6.387
 1441SOL    HW1 5222   4.848   6.692   6.349
 1441SOL    HW2 5223   4.927   6.607   6.464
 1442SOL     OW 5224   4.575   5.860   1.490
 1442SOL    HW1 5225   4.641   5.934   1.504
 1442SOL    HW2 5226   4.620   5.772   1.504
 1443SOL     OW 5227   6.881   2.819   2.383
 1443SOL    HW1 5228   6.934   2.774   2.455
 1443SOL    HW2 5229   6.802   2.762   2.360
 1444SOL     OW 5230   0.529   6.593   4.743
 1444SOL    HW1 5231   0.628   6.595   4.755
 1444SOL    HW2 5232   0.486   6.648   4.814
 1445SOL     OW 5233   0.563   2.117   1.306
 1445SOL    HW1 5234   0.595   2.176   1.380
 1445SOL    HW2 5235   0.629   2.120   1.231
 1446SOL     OW 5236   6.184   5.890   1.824
 1446SOL    HW1 5237   6.157   5.850   1.737
 1446SOL    HW2 5238   6.128   5.850   1.897
 1447SOL     OW 5239   0.114   6.681   4.044
 1447SOL    HW1 5240   0.118   6.646   3.950
 1447SOL    HW2 5241   0.145   6.611   4.107
 1448SOL     OW 5242   1.825   0.790   5.308
 1448SOL    HW1 5243   1.744   0.843   5.285
 1448SOL    HW2 5244   1.855   0.813   5.400
 1449SOL     OW 5245   2.099   3.091   2.332
 1449SOL    HW1 5246   2.149   3.011   2.298
 1449SOL    HW2 5247   2.086   3.082   2.431
 1450SOL     OW 5248   3.140   2.166   2.425
 1450SOL    HW1 5249   3.204   2.203   2.358
 1450SOL    HW2 5250   3.048   2.200   2.406
 1451SOL     OW 5251   4.016   1.995   2.706
 1451SOL    HW1 5252   4.106   1.987   2.750
 1451SOL    HW2 5253   3.999   1.915   2.649
 1452SOL     OW 5254   4.187   3.056   5.492
 1452SOL    HW1 5255   4.273   3.007   5.478
 1452SOL    HW2 5256   4.112   2.990   5.498
 1453SOL     OW 5257   1.830   2.920   4.814
 1453SOL    HW1 5258   1.893   2.970   4.755
 1453SOL    HW2 5259   1.836   2.955   4.908
 1454SOL     OW 5260   3.351   2.131   2.237
 1454SOL    HW1 5261   3.409   2.197   2.190
 1454SOL    HW2 5262   3.407   2.056   2.271
 1455SOL     OW 5263   6.820   5.902   2.897
 1455SOL    HW1 5264   6.898   5.934   2.844
 1455SOL    HW2 5265   6.756   5.855   2.836
 1456SOL     OW 5266   6.277   5.847   3.904
 1456SOL    HW1 5267   6.318   5.916   3.964
 1456SOL    HW2 5268   6.263   5.886   3.813
 1457SOL     OW 5269   1.639   5.447   5.568
 1457SOL    HW1 5270   1.721   5.395   5.592
 1457SOL    HW2 5271   1.569   5.385   5.533
 1458SOL     OW 5272   7.027   5.108   4.973
 1458SOL    HW1 5273   6.955   5.041   4.993
 1458SOL    HW2 5274   0.029   5.150   5.059
 1459SOL     OW 5275   0.203   6.056   5.433
 1459SOL    HW1 5276   0.128   6.042   5.498
 1459SOL    HW2 5277   0.176   6.125   5.366
 1460SOL     OW 5278   1.840   6.647   5.238
 1460SOL    HW1 5279   1.832   6.548   5.228
 1460SOL    HW2 5280   1.824   6.672   5.333
 1461SOL     OW 5281   5.835   3.960   3.181
 1461SOL    HW1 5282   5.878   3.870   3.177
 1461SOL    HW2 5283   5.740   3.953   3.151
 1462SOL     OW 5284   0.991   1.760   2.250
 1462SOL    HW1 5285   0.999   1.818   2.169
 1462SOL    HW2 5286   0.922   1.690   2.235
 1463SOL     OW 5287   2.008   4.546   6.970
 1463SOL    HW1 5288   1.915   4.551   7.008
 1463SOL    HW2 5289   2.004   4.513   6.876
 1464SOL     OW 5290   0.815   4.114   5.584
 1464SOL    HW1 5291   0.864   4.109   5.497
 1464SOL    HW2 5292   0.820   4.207   5.620
 1465SOL     OW 5293   1.909   3.171   5.706
 1465SOL    HW1 5294   1.859   3.213   5.631
 1465SOL    HW2 5295   2.006   3.165   5.683
 1466SOL     OW 5296   5.528   1.137   2.659
 1466SOL    HW1 5297   5.577   1.217   2.623
 1466SOL    HW2 5298   5.443   1.125   2.608
 1467SOL     OW 5299   0.601   0.556   3.720
 1467SOL    HW1 5300   0.532   0.571   3.791
 1467SOL    HW2 5301   0.631   0.644   3.683
 1468SOL     OW 5302   3.657   6.764   3.967
 1468SOL    HW1 5303   3.634   6.702   4.043
 1468SOL    HW2 5304   3.730   6.723   3.913
 1469SOL     OW 5305   5.157   4.571   3.370
 1469SOL    HW1 5306   5.142   4.667   3.393
 1469SOL    HW2 5307   5.089   4.515   3.417
 1470SOL     OW 5308   5.964   1.439   1.545
 1470SOL    HW1 5309   6.009   1.350   1.540
 1470SOL    HW2 5310   5.879   1.430   1.597
 1471SOL     OW 5311   4.953   6.097   0.325
 1471SOL    HW1 5312   5.019   6.151   0.376
 1471SOL    HW2 5313   4.956   6.002   0.356
 1472SOL     OW 5314   1.967   0.205   0.095
 1472SOL    HW1 5315   1.900   0.257   0.148
 1472SOL    HW2 5316   1.920   0.155   0.022
 1473SOL     OW 5317   1.356   6.038   3.757
 1473SOL    HW1 5318   1.301   5.976   3.813
 1473SOL    HW2 5319   1.428   5.986   3.710
 1474SOL     OW 5320   1.622   4.355   1.565
 1474SOL    HW1 5321   1.547   4.403   1.612
 1474SOL    HW2 5322   1.585   4.298   1.493
 1475SOL     OW 5323   6.620   6.774   6.402
 1475SOL    HW1 5324   6.608   6.698   6.466
 1475SOL    HW2 5325   6.691   6.751   6.336
 1476SOL     OW 5326   6.099   0.002   6.732
 1476SOL    HW1 5327   6.128   6.944   6.774
 1476SOL    HW2 5328   6.135   0.079   6.785
 1477SOL     OW 5329   3.674   4.279   1.788
 1477SOL    HW1 5330   3.771   4.277   1.762
 1477SOL    HW2 5331   3.630   4.358   1.747
 1478SOL     OW 5332   4.192   3.835   6.407
 1478SOL    HW1 5333   4.101   3.803   6.433
 1478SOL    HW2 5334   4.241   3.761   6.360
 1479SOL     OW 5335   4.135   4.807   1.173
 1479SOL    HW1 5336   4.152   4.763   1.262
 1479SOL    HW2 5337   4.217   4.855   1.143
 1480SOL     OW 5338   2.838   1.629   3.728
 1480SOL    HW1 5339   2.837   1.678   3.815
 1480SOL    HW2 5340   2.909   1.667   3.669
 1481SOL     OW 5341   4.075   1.776   5.509
 1481SOL    HW1 5342   4.039   1.751   5.599
 1481SOL    HW2 5343   4.035   1.863   5.481
 1482SOL     OW 5344   6.762   1.038   1.003
 1482SOL    HW1 5345   6.754   0.991   0.915
 1482SOL    HW2 5346   6.680   1.092   1.020
 1483SOL     OW 5347   5.927   6.177   0.384
 1483SOL    HW1 5348   5.882   6.226   0.458
 1483SOL    HW2 5349   5.862   6.165   0.308
 1484SOL     OW 5350   3.132   6.546   5.740
 1484SOL    HW1 5351   3.165   6.641   5.746
 1484SOL    HW2 5352   3.047   6.537   5.791
 1485SOL     OW 5353   5.479   3.829   3.418
 1485SOL    HW1 5354   5.501   3.764   3.345
 1485SOL    HW2 5355   5.380   3.841   3.423
 1486SOL     OW 5356   6.389   6.214   4.423
 1486SOL    HW1 5357   6.325   6.143   4.398
 1486SOL    HW2 5358   6.352   6.303   4.397
 1487SOL     OW 5359   5.903   7.006   6.543
 1487SOL    HW1 5360   5.899   0.067   6.497
 1487SOL    HW2 5361   5.969   7.011   6.618
 1488SOL     OW 5362   6.801   2.895   2.677
 1488SOL    HW1 5363   6.835   2.928   2.589
 1488SOL    HW2 5364   6.706   2.924   2.689
 1489SOL     OW 5365   3.170   5.553   6.571
 1489SOL    HW1 5366   3.160   5.462   6.612
 1489SOL    HW2 5367   3.152   5.547   6.473
 1490SOL     OW 5368   5.939   2.651   1.889
 1490SOL    HW1 5369   6.021   2.609   1.929
 1490SOL    HW2 5370   5.864   2.585   1.894
 1491SOL     OW 5371   5.719   3.843   4.771
 1491SOL    HW1 5372   5.781   3.856   4.693
 1491SOL    HW2 5373   5.710   3.745   4.790
 1492SOL     OW 5374   1.342   2.930   2.146
 1492SOL    HW1 5375   1.256   2.901   2.188
 1492SOL    HW2 5376   1.357   2.881   2.061
 1493SOL     OW 5377   6.452   1.932   6.639
 1493SOL    HW1 5378   6.507   1.903   6.717
 1493SOL    HW2 5379   6.355   1.924   6.661
 1494SOL     OW 5380   1.628   3.069   6.667
 1494SOL    HW1 5381   1.712   3.086   6.615
 1494SOL    HW2 5382   1.548   3.081   6.608
 1495SOL     OW 5383   6.144   3.836   3.939
 1495SOL    HW1 5384   6.157   3.934   3.951
 1495SOL    HW2 5385   6.055   3.809   3.976
 1496SOL     OW 5386   6.715   5.483   5.934
 1496SOL    HW1 5387   6.693   5.387   5.915
 1496SOL    HW2 5388   6.633   5.538   5.922
 1497SOL     OW 5389   4.615   2.511   2.642
 1497SOL    HW1 5390   4.571   2.507   2.552
 1497SOL    HW2 5391   4.667   2.596   2.650
 1498SOL     OW 5392   3.684   4.065   0.805
 1498SOL    HW1 5393   3.587   4.055   0.829
 1498SOL    HW2 5394   3.694   4.059   0.705
 1499SOL     OW 5395   1.707   4.656   4.259
 1499SOL    HW1 5396   1.655   4.692   4.182
 1499SOL    HW2 5397   1.649   4.655   4.341
 1500SOL     OW 5398   2.599   5.721   1.518
 1500SOL    HW1 5399   2.564   5.690   1.606
 1500SOL    HW2 5400   2.677   5.782   1.534
 1501SOL     OW 5401   5.491   1.433   1.478
 1501SOL    HW1 5402   5.392   1.443   1.483
 1501SOL    HW2 5403   5.525   1.480   1.397
 1502SOL     OW 5404   0.805   6.850   5.861
 1502SOL    HW1 5405   0.773   6.842   5.955
 1502SOL    HW2 5406   0.905   6.857   5.860
 1503SOL     OW 5407   6.405   6.263   2.310
 1503SOL    HW1 5408   6.407   6.163   2.315
 1503SOL    HW2 5409   6.443   6.301   2.395
 1504SOL     OW 5410   1.457   0.555   3.510
 1504SOL    HW1 5411   1.497   0.614   3.580
 1504SOL    HW2 5412   1.430   0.609   3.431
 1505SOL     OW 5413   6.894   4.355   4.536
 1505SOL    HW1 5414   6.873   4.257   4.541
 1505SOL    HW2 5415   6.859   4.392   4.450
 1506SOL     OW 5416   0.898   1.067   0.593
 1506SOL    HW1 5417   0.875   1.026   0.682
 1506SOL    HW2 5418   0.815   1.077   0.539
 1507SOL     OW 5419   2.367   2.214   3.858
 1507SOL    HW1 5420   2.396   2.258   3.773
 1507SOL    HW2 5421   2.290   2.265   3.897
 1508SOL     OW 5422   1.614   0.615   1.422
 1508SOL    HW1 5423   1.580   0.526   1.392
 1508SOL    HW2 5424   1.589   0.685   1.355
 1509SOL     OW 5425   4.317   0.680   4.648
 1509SOL    HW1 5426   4.244   0.712   4.709
 1509SOL    HW2 5427   4.346   0.756   4.589
 1510SOL     OW 5428   2.745   6.668   5.350
 1510SOL    HW1 5429   2.791   6.753   5.377
 1510SOL    HW2 5430   2.667   6.652   5.409
 1511SOL     OW 5431   3.754   4.184   5.121
 1511SOL    HW1 5432   3.770   4.269   5.172
 1511SOL    HW2 5433   3.808   4.110   5.161
 1512SOL     OW 5434   5.542   6.656   0.820
 1512SOL    HW1 5435   5.603   6.692   0.891
 1512SOL    HW2 5436   5.534   6.723   0.746
 1513SOL     OW 5437   2.812   6.277   5.529
 1513SOL    HW1 5438   2.848   6.188   5.503
 1513SOL    HW2 5439   2.883   6.347   5.519
 1514SOL     OW 5440   3.208   1.256   0.042
 1514SOL    HW1 5441   3.292   1.201   0.046
 1514SOL    HW2 5442   3.194   1.302   0.129
 1515SOL     OW 5443   3.534   0.780   1.531
 1515SOL    HW1 5444   3.621   0.749   1.571
 1515SOL    HW2 5445   3.542   0.875   1.502
 1516SOL     OW 5446   0.487   6.580   6.755
 1516SOL    HW1 5447   0.388   6.566   6.746
 1516SOL    HW2 5448   0.530   6.497   6.789
 1517SOL     OW 5449   1.802   5.716   2.970
 1517SOL    HW1 5450   1.893   5.712   2.928
 1517SOL    HW2 5451   1.739   5.763   2.908
 1518SOL     OW 5452   2.473   2.533   6.883
 1518SOL    HW1 5453   2.409   2.460   6.904
 1518SOL    HW2 5454   2.565   2.507   6.912
 1519SOL     OW 5455   0.709   4.389   6.953
 1519SOL    HW1 5456   0.630   4.447   6.974
 1519SOL    HW2 5457   0.782   4.408   7.018
 1520SOL     OW 5458   0.274   0.269   3.003
 1520SOL    HW1 5459   0.307   0.194   3.061
 1520SOL    HW2 5460   0.263   0.351   3.059
 1521SOL     OW 5461   2.632   5.037   6.935
 1521SOL    HW1 5462   2.713   5.027   6.993
 1521SOL    HW2 5463   2.588   4.947   6.924
 1522SOL     OW 5464   6.373   6.066   4.085
 1522SOL    HW1 5465   6.283   6.106   4.101
 1522SOL    HW2 5466   6.430   6.130   4.035
 1523SOL     OW 5467   2.566   6.593   0.619
 1523SOL    HW1 5468   2.562   6.555   0.712
 1523SOL    HW2 5469   2.531   6.525   0.554
 1524SOL     OW 5470   1.673   1.920   4.603
 1524SOL    HW1 5471   1.695   1.930   4.506
 1524SOL    HW2 5472   1.724   1.843   4.641
 1525SOL     OW 5473   6.014   4.250   0.417
 1525SOL    HW1 5474   6.062   4.197   0.347
 1525SOL    HW2 5475   6.010   4.198   0.502
 1526SOL     OW 5476   0.457   1.340   2.197
 1526SOL    HW1 5477   0.413   1.398   2.266
 1526SOL    HW2 5478   0.526   1.393   2.148
 1527SOL     OW 5479   5.040   1.053   4.889
 1527SOL    HW1 5480   5.106   1.033   4.817
 1527SOL    HW2 5481   5.058   1.145   4.926
 1528SOL     OW 5482   2.937   3.333   2.310
 1528SOL    HW1 5483   2.861   3.269   2.318
 1528SOL    HW2 5484   2.926   3.386   2.226
 1529SOL     OW 5485   4.536   0.727   5.703
 1529SOL    HW1 5486   4.530   0.817   5.746
 1529SOL    HW2 5487   4.453   0.675   5.723
 1530SOL     OW 5488   2.574   6.812   2.317
 1530SOL    HW1 5489   2.572   6.889   2.254
 1530SOL    HW2 5490   2.535   6.731   2.272
 1531SOL     OW 5491   5.819   6.604   4.367
 1531SOL    HW1 5492   5.752   6.546   4.414
 1531SOL    HW2 5493   5.840   6.683   4.424
 1532SOL     OW 5494   3.297   5.502   2.247
 1532SOL    HW1 5495   3.214   5.447   2.249
 1532SOL    HW2 5496   3.277   5.593   2.283
 1533SOL     OW 5497   6.017   5.723   1.972
 1533SOL    HW1 5498   5.919   5.719   1.990
 1533SOL    HW2 5499   6.067   5.672   2.042
 1534SOL     OW 5500   2.632   4.953   6.468
 1534SOL    HW1 5501   2.689   4.958   6.386
 1534SOL    HW2 5502   2.680   4.995   6.545
 1535SOL     OW 5503   5.390   5.239   3.287
 1535SOL    HW1 5504   5.306   5.222   3.235
 1535SOL    HW2 5505   5.368   5.243   3.385
 1536SOL     OW 5506   3.802   4.743   6.300
 1536SOL    HW1 5507   3.750   4.662   6.327
 1536SOL    HW2 5508   3.787   4.816   6.367
 1537SOL     OW 5509   2.771   6.225   1.992
 1537SOL    HW1 5510   2.829   6.157   2.037
 1537SOL    HW2 5511   2.753   6.300   2.055
 1538SOL     OW 5512   2.645   1.247   0.508
 1538SOL    HW1 5513   2.632   1.167   0.567
 1538SOL    HW2 5514   2.729   1.294   0.534
 1539SOL     OW 5515   6.795   3.088   0.546
 1539SOL    HW1 5516   6.865   3.047   0.605
 1539SOL    HW2 5517   6.725   3.131   0.603
 1540SOL     OW 5518   4.094   5.865   3.569
 1540SOL    HW1 5519   4.128   5.896   3.658
 1540SOL    HW2 5520   4.155   5.897   3.497
 1541SOL     OW 5521   4.436   2.469   5.589
 1541SOL    HW1 5522   4.383   2.545   5.552
 1541SOL    HW2 5523   4.391   2.434   5.671
 1542SOL     OW 5524   0.885   4.435   2.906
 1542SOL    HW1 5525   0.912   4.471   2.816
 1542SOL    HW2 5526   0.847   4.344   2.894
 1543SOL     OW 5527   4.268   5.251   0.793
 1543SOL    HW1 5528   4.215   5.188   0.736
 1543SOL    HW2 5529   4.244   5.346   0.770
 1544SOL     OW 5530   3.770   3.130   3.674
 1544SOL    HW1 5531   3.676   3.159   3.692
 1544SOL    HW2 5532   3.773   3.031   3.665
 1545SOL     OW 5533   6.161   4.472   0.902
 1545SOL    HW1 5534   6.189   4.541   0.969
 1545SOL    HW2 5535   6.066   4.488   0.874
 1546SOL     OW 5536   6.739   6.195   5.930
 1546SOL    HW1 5537   6.824   6.221   5.886
 1546SOL    HW2 5538   6.715   6.101   5.906
 1547SOL     OW 5539   1.135   2.534   6.950
 1547SOL    HW1 5540   1.119   2.612   7.011
 1547SOL    HW2 5541   1.231   2.507   6.955
 1548SOL     OW 5542   6.708   2.011   0.363
 1548SOL    HW1 5543   6.746   1.930   0.319
 1548SOL    HW2 5544   6.622   2.036   0.318
 1549SOL     OW 5545   4.891   0.224   4.198
 1549SOL    HW1 5546   4.956   0.149   4.214
 1549SOL    HW2 5547   4.926   0.307   4.241
 1550SOL     OW 5548   3.136   3.833   4.812
 1550SOL    HW1 5549   3.074   3.764   4.849
 1550SOL    HW2 5550   3.124   3.919   4.863
 1551SOL     OW 5551   0.347   5.424   6.050
 1551SOL    HW1 5552   0.261   5.440   6.002
 1551SOL    HW2 5553   0.335   5.440   6.148
 1552SOL     OW 5554   2.421   3.792   1.176
 1552SOL    HW1 5555   2.403   3.721   1.245
 1552SOL    HW2 5556   2.440   3.879   1.222
 1553SOL     OW 5557   1.076   2.231   5.777
 1553SOL    HW1 5558   1.017   2.152   5.762
 1553SOL    HW2 5559   1.158   2.222   5.721
 1554SOL     OW 5560   4.727   2.358   3.451
 1554SOL    HW1 5561   4.681   2.292   3.392
 1554SOL    HW2 5562   4.658   2.412   3.499
 1555SOL     OW 5563   6.225   4.405   5.388
 1555SOL    HW1 5564   6.144   4.437   5.338
 1555SOL    HW2 5565   6.233   4.306   5.378
 1556SOL     OW 5566   2.327   1.050   5.454
 1556SOL    HW1 5567   2.411   1.093   5.421
 1556SOL    HW2 5568   2.303   0.973   5.395
 1557SOL     OW 5569   1.031   1.277   6.216
 1557SOL    HW1 5570   0.944   1.232   6.238
 1557SOL    HW2 5571   1.093   1.270   6.295
 1558SOL     OW 5572   6.835   0.081   4.235
 1558SOL    HW1 5573   6.889   0.098   4.152
 1558SOL    HW2 5574   6.782   7.025   4.223
 1559SOL     OW 5575   1.691   1.496   5.957
 1559SOL    HW1 5576   1.744   1.448   6.027
 1559SOL    HW2 5577   1.612   1.440   5.931
 1560SOL     OW 5578   0.104   0.030   1.379
 1560SOL    HW1 5579   0.032   6.990   1.383
 1560SOL    HW2 5580   0.162   0.023   1.461
 1561SOL     OW 5581   5.765   6.649   1.773
 1561SOL    HW1 5582   5.759   6.592   1.691
 1561SOL    HW2 5583   5.726   6.738   1.755
 1562SOL     OW 5584   5.996   0.043   4.297
 1562SOL    HW1 5585   5.996   0.087   4.207
 1562SOL    HW2 5586   6.051   0.098   4.361
 1563SOL     OW 5587   2.497   0.576   6.425
 1563SOL    HW1 5588   2.505   0.479   6.402
 1563SOL    HW2 5589   2.501   0.587   6.524
 1564SOL     OW 5590   1.513   1.992   2.804
 1564SOL    HW1 5591   1.485   2.081   2.767
 1564SOL    HW2 5592   1.524   1.927   2.729
 1565SOL     OW 5593   6.144   3.789   1.743
 1565SOL    HW1 5594   6.185   3.780   1.834
 1565SOL    HW2 5595   6.217   3.799   1.675
 1566SOL     OW 5596   5.737   4.543   2.124
 1566SOL    HW1 5597   5.823   4.543   2.174
 1566SOL    HW2 5598   5.707   4.448   2.110
 1567SOL     OW 5599   6.476   5.266   5.787
 1567SOL    HW1 5600   6.437   5.315   5.709
 1567SOL    HW2 5601   6.519   5.182   5.755
 1568SOL     OW 5602   0.545   6.250   1.166
 1568SOL    HW1 5603   0.609   6.307   1.218
 1568SOL    HW2 5604   0.470   6.306   1.131
 1569SOL     OW 5605   4.032   5.604   4.941
 1569SOL    HW1 5606   4.068   5.518   4.903
 1569SOL    HW2 5607   4.081   5.681   4.901
 1570SOL     OW 5608   2.589   2.377   1.524
 1570SOL    HW1 5609   2.550   2.334   1.442
 1570SOL    HW2 5610   2.685   2.401   1.506
 1571SOL     OW 5611   0.413   2.947   6.451
 1571SOL    HW1 5612   0.384   2.856   6.482
 1571SOL    HW2 5613   0.366   2.969   6.366
 1572SOL     OW 5614   0.665   5.845   4.487
 1572SOL    HW1 5615   0.632   5.912   4.554
 1572SOL    HW2 5616   0.596   5.831   4.417
 1573SOL     OW 5617   4.426   0.614   6.841
 1573SOL    HW1 5618   4.512   0.577   6.807
 1573SOL    HW2 5619   4.426   0.713   6.832
 1574SOL     OW 5620   5.024   3.194   2.362
 1574SOL    HW1 5621   5.041   3.149   2.274
 1574SOL    HW2 5622   5.011   3.292   2.347
 1575SOL     OW 5623   3.252   2.730   6.875
 1575SOL    HW1 5624   3.281   2.795   6.804
 1575SOL    HW2 5625   3.328   2.668   6.896
 1576SOL     OW 5626   5.779   5.453   3.433
 1576SOL    HW1 5627   5.764   5.537   3.382
 1576SOL    HW2 5628   5.738   5.461   3.524
 1577SOL     OW 5629   2.172   0.868   0.725
 1577SOL    HW1 5630   2.237   0.856   0.800
 1577SOL    HW2 5631   2.088   0.817   0.744
 1578SOL     OW 5632   5.925   6.273   5.226
 1578SOL    HW1 5633   6.014   6.313   5.247
 1578SOL    HW2 5634   5.913   6.268   5.127
 1579SOL     OW 5635   6.358   1.575   3.181
 1579SOL    HW1 5636   6.384   1.535   3.268
 1579SOL    HW2 5637   6.352   1.675   3.190
 1580SOL     OW 5638   2.873   3.886   5.693
 1580SOL    HW1 5639   2.948   3.906   5.631
 1580SOL    HW2 5640   2.909   3.850   5.779
 1581SOL     OW 5641   5.898   3.083   4.165
 1581SOL    HW1 5642   5.953   3.020   4.221
 1581SOL    HW2 5643   5.841   3.140   4.225
 1582SOL     OW 5644   6.573   6.146   3.893
 1582SOL    HW1 5645   6.533   6.207   3.825
 1582SOL    HW2 5646   6.669   6.128   3.869
 1583SOL     OW 5647   3.021   3.214   0.940
 1583SOL    HW1 5648   3.024   3.188   1.036
 1583SOL    HW2 5649   2.926   3.229   0.912
 1584SOL     OW 5650   1.553   6.678   6.914
 1584SOL    HW1 5651   1.471   6.630   6.946
 1584SOL    HW2 5652   1.559   6.673   6.815
 1585SOL     OW 5653   6.003   1.254   5.792
 1585SOL    HW1 5654   6.032   1.349   5.798
 1585SOL    HW2 5655   5.940   1.243   5.716
 1586SOL     OW 5656   3.887   3.097   3.159
 1586SOL    HW1 5657   3.888   3.088   3.059
 1586SOL    HW2 5658   3.831   3.024   3.198
 1587SOL     OW 5659   1.746   0.116   5.513
 1587SOL    HW1 5660   1.765   0.120   5.415
 1587SOL    HW2 5661   1.800   0.186   5.560
 1588SOL     OW 5662   0.178   3.635   0.616
 1588SOL    HW1 5663   0.082   3.606   0.625
 1588SOL    HW2 5664   0.182   3.734   0.604
 1589SOL     OW 5665   5.498   4.915   2.376
 1589SOL    HW1 5666   5.420   4.872   2.421
 1589SOL    HW2 5667   5.573   4.925   2.442
 1590SOL     OW 5668   2.391   6.211   4.825
 1590SOL    HW1 5669   2.395   6.245   4.731
 1590SOL    HW2 5670   2.428   6.280   4.887
 1591SOL     OW 5671   2.133   3.905   0.016
 1591SOL    HW1 5672   2.036   3.928   0.011
 1591SOL    HW2 5673   2.158   3.883   0.110
 1592SOL     OW 5674   3.735   3.765   4.538
 1592SOL    HW1 5675   3.684   3.838   4.584
 1592SOL    HW2 5676   3.814   3.803   4.492
 1593SOL     OW 5677   0.928   4.660   4.008
 1593SOL    HW1 5678   0.923   4.604   3.926
 1593SOL    HW2 5679   1.016   4.708   4.010
 1594SOL     OW 5680   0.495   5.343   2.803
 1594SOL    HW1 5681   0.418   5.391   2.761
 1594SOL    HW2 5682   0.577   5.355   2.746
 1595SOL     OW 5683   6.460   3.296   5.570
 1595SOL    HW1 5684   6.455   3.253   5.480
 1595SOL    HW2 5685   6.555   3.300   5.600
 1596SOL     OW 5686   3.506   4.975   6.270
 1596SOL    HW1 5687   3.469   4.907   6.333
 1596SOL    HW2 5688   3.436   5.041   6.245
 1597SOL     OW 5689   2.091   6.577   1.343
 1597SOL    HW1 5690   2.070   6.575   1.246
 1597SOL    HW2 5691   2.011   6.608   1.395
 1598SOL     OW 5692   6.975   5.347   1.854
 1598SOL    HW1 5693   6.958   5.409   1.931
 1598SOL    HW2 5694   7.016   5.398   1.778
 1599SOL     OW 5695   3.188   5.300   0.026
 1599SOL    HW1 5696   3.153   5.393   0.040
 1599SOL    HW2 5697   3.287   5.299   0.039
 1600SOL     OW 5698   3.716   1.301   5.127
 1600SOL    HW1 5699   3.635   1.360   5.113
 1600SOL    HW2 5700   3.774   1.341   5.198
 1601SOL     OW 5701   1.601   5.470   4.891
 1601SOL    HW1 5702   1.656   5.392   4.923
 1601SOL    HW2 5703   1.591   5.536   4.966
 1602SOL     OW 5704   0.289   3.095   1.395
 1602SOL    HW1 5705   0.336   3.008   1.411
 1602SOL    HW2 5706   0.320   3.162   1.462
 1603SOL     OW 5707   5.885   0.390   1.565
 1603SOL    HW1 5708   5.867   0.333   1.646
 1603SOL    HW2 5709   5.957   0.349   1.510
 1604SOL     OW 5710   1.105   5.166   3.404
 1604SOL    HW1 5711   1.066   5.239   3.347
 1604SOL    HW2 5712   1.195   5.140   3.368
 1605SOL     OW 5713   5.081   5.329   2.103
 1605SOL    HW1 5714   5.111   5.357   2.194
 1605SOL    HW2 5715   4.981   5.317   2.103
 1606SOL     OW 5716   6.447   5.143   4.478
 1606SOL    HW1 5717   6.501   5.059   4.486
 1606SOL    HW2 5718   6.504   5.222   4.500
 1607SOL     OW 5719   6.395   3.785   1.643
 1607SOL    HW1 5720   6.485   3.828   1.655
 1607SOL    HW2 5721   6.407   3.692   1.609
 1608SOL     OW 5722   2.059   6.622   1.074
 1608SOL    HW1 5723   2.058   6.675   0.989
 1608SOL    HW2 5724   2.069   6.525   1.052
 1609SOL     OW 5725   6.032   2.294   5.366
 1609SOL    HW1 5726   6.063   2.299   5.461
 1609SOL    HW2 5727   5.963   2.365   5.350
 1610SOL     OW 5728   4.257   0.257   3.251
 1610SOL    HW1 5729   4.166   0.266   3.292
 1610SOL    HW2 5730   4.303   0.346   3.253
 1611SOL     OW 5731   4.418   3.987   1.571
 1611SOL    HW1 5732   4.343   3.944   1.620
 1611SOL    HW2 5733   4.444   3.930   1.493
 1612SOL     OW 5734   3.331   0.200   4.378
 1612SOL    HW1 5735   3.388   0.181   4.458
 1612SOL    HW2 5736   3.320   0.116   4.325
 1613SOL     OW 5737   2.546   6.862   1.320
 1613SOL    HW1 5738   2.603   6.923   1.375
 1613SOL    HW2 5739   2.605   6.800   1.268
 1614SOL     OW 5740   6.410   2.146   6.037
 1614SOL    HW1 5741   6.369   2.066   5.995
 1614SOL    HW2 5742   6.352   2.176   6.114
 1615SOL     OW 5743   6.882   5.762   5.000
 1615SOL    HW1 5744   6.952   5.777   5.070
 1615SOL    HW2 5745   6.792   5.781   5.039
 1616SOL     OW 5746   2.039   2.287   5.221
 1616SOL    HW1 5747   1.988   2.351   5.162
 1616SOL    HW2 5748   2.084   2.218   5.164
 1617SOL     OW 5749   3.023   0.483   2.422
 1617SOL    HW1 5750   2.968   0.558   2.388
 1617SOL    HW2 5751   3.067   0.510   2.508
 1618SOL     OW 5752   5.157   2.881   1.545
 1618SOL    HW1 5753   5.097   2.951   1.584
 1618SOL    HW2 5754   5.148   2.796   1.598
 1619SOL     OW 5755   1.744   2.877   4.476
 1619SOL    HW1 5756   1.688   2.817   4.420
 1619SOL    HW2 5757   1.689   2.915   4.550
 1620SOL     OW 5758   3.508   5.970   1.404
 1620SOL    HW1 5759   3.552   5.970   1.314
 1620SOL    HW2 5760   3.563   5.915   1.467
 1621SOL     OW 5761   2.308   2.586   1.551
 1621SOL    HW1 5762   2.309   2.498   1.599
 1621SOL    HW2 5763   2.389   2.592   1.492
 1622SOL     OW 5764   2.407   2.637   5.564
 1622SOL    HW1 5765   2.381   2.550   5.524
 1622SOL    HW2 5766   2.498   2.663   5.533
 1623SOL     OW 5767   2.355   1.996   4.690
 1623SOL    HW1 5768   2.300   1.983   4.608
 1623SOL    HW2 5769   2.430   2.058   4.670
 1624SOL     OW 5770   1.799   0.815   0.162
 1624SOL    HW1 5771   1.852   0.893   0.131
 1624SOL    HW2 5772   1.702   0.838   0.162
 1625SOL     OW 5773   1.773   0.231   0.914
 1625SOL    HW1 5774   1.737   0.139   0.919
 1625SOL    HW2 5775   1.781   0.270   1.006
 1626SOL     OW 5776   2.353   3.922   5.920
 1626SOL    HW1 5777   2.407   3.962   5.995
 1626SOL    HW2 5778   2.350   3.823   5.930
 1627SOL     OW 5779   4.983   4.466   2.609
 1627SOL    HW1 5780   4.968   4.484   2.706
 1627SOL    HW2 5781   5.062   4.405   2.599
 1628SOL     OW 5782   3.930   3.383   0.250
 1628SOL    HW1 5783   3.968   3.346   0.335
 1628SOL    HW2 5784   3.970   3.473   0.232
 1629SOL     OW 5785   1.892   2.494   3.231
 1629SOL    HW1 5786   1.860   2.479   3.137
 1629SOL    HW2 5787   1.990   2.512   3.230
 1630SOL     OW 5788   5.678   4.518   3.993
 1630SOL    HW1 5789   5.619   4.532   3.913
 1630SOL    HW2 5790   5.656   4.430   4.035
 1631SOL     OW 5791   0.670   1.028   5.517
 1631SOL    HW1 5792   0.578   1.067   5.504
 1631SOL    HW2 5793   0.705   0.996   5.430
 1632SOL     OW 5794   3.642   6.466   6.855
 1632SOL    HW1 5795   3.641   6.563   6.830
 1632SOL    HW2 5796   3.573   6.418   6.802
 1633SOL     OW 5797   6.693   3.686   2.575
 1633SOL    HW1 5798   6.722   3.754   2.508
 1633SOL    HW2 5799   6.668   3.601   2.528
 1634SOL     OW 5800   3.580   0.448   0.908
 1634SOL    HW1 5801   3.631   0.466   0.992
 1634SOL    HW2 5802   3.493   0.403   0.931
 1635SOL     OW 5803   2.369   4.338   3.499
 1635SOL    HW1 5804   2.381   4.317   3.596
 1635SOL    HW2 5805   2.324   4.261   3.454
 1636SOL     OW 5806   2.311   6.922   0.866
 1636SOL    HW1 5807   2.290   6.993   0.933
 1636SOL    HW2 5808   2.316   6.962   0.774
 1637SOL     OW 5809   0.505   3.178   2.196
 1637SOL    HW1 5810   0.555   3.091   2.198
 1637SOL    HW2 5811   0.559   3.246   2.146
 1638SOL     OW 5812   0.406   2.388   5.715
 1638SOL    HW1 5813   0.402   2.372   5.616
 1638SOL    HW2 5814   0.451   2.475   5.734
 1639SOL     OW 5815   3.527   5.255   3.243
 1639SOL    HW1 5816   3.437   5.216   3.222
 1639SOL    HW2 5817   3.588   5.183   3.275
 1640SOL     OW 5818   5.648   0.095   0.939
 1640SOL    HW1 5819   5.711   0.153   0.887
 1640SOL    HW2 5820   5.575   0.063   0.879
 1641SOL     OW 5821   6.542   2.815   4.757
 1641SOL    HW1 5822   6.591   2.839   4.673
 1641SOL    HW2 5823   6.471   2.748   4.736
 1642SOL     OW 5824   0.285   2.499   1.339
 1642SOL    HW1 5825   0.289   2.406   1.377
 1642SOL    HW2 5826   0.377   2.529   1.314
 1643SOL     OW 5827   4.766   0.331   5.095
 1643SOL    HW1 5828   4.708   0.401   5.053
 1643SOL    HW2 5829   4.733   0.240   5.068
 1644SOL     OW 5830   3.842   1.444   1.174
 1644SOL    HW1 5831   3.888   1.373   1.121
 1644SOL    HW2 5832   3.895   1.528   1.171
 1645SOL     OW 5833   2.398   5.580   5.541
 1645SOL    HW1 5834   2.463   5.553   5.470
 1645SOL    HW2 5835   2.344   5.658   5.510
 1646SOL     OW 5836   3.264   3.375   0.487
 1646SOL    HW1 5837   3.254   3.465   0.528
 1646SOL    HW2 5838   3.215   3.372   0.400
 1647SOL     OW 5839   6.213   2.676   1.964
 1647SOL    HW1 5840   6.273   2.698   1.887
 1647SOL    HW2 5841   6.253   2.600   2.016
 1648SOL     OW 5842   2.918   0.743   3.518
 1648SOL    HW1 5843   2.852   0.784   3.454
 1648SOL    HW2 5844   2.921   0.798   3.602
 1649SOL     OW 5845   3.054   0.553   4.414
 1649SOL    HW1 5846   3.153   0.562   4.430
 1649SOL    HW2 5847   3.039   0.524   4.320
 1650SOL     OW 5848   2.441   6.401   4.214
 1650SOL    HW1 5849   2.528   6.358   4.241
 1650SOL    HW2 5850   2.432   6.489   4.262
 1651SOL     OW 5851   1.699   6.875   2.188
 1651SOL    HW1 5852   1.742   6.934   2.256
 1651SOL    HW2 5853   1.610   6.912   2.164
 1652SOL     OW 5854   3.878   3.779   1.104
 1652SOL    HW1 5855   3.868   3.733   1.015
 1652SOL    HW2 5856   3.907   3.712   1.172
 1653SOL     OW 5857   1.451   4.247   0.727
 1653SOL    HW1 5858   1.398   4.209   0.652
 1653SOL    HW2 5859   1.524   4.183   0.753
 1654SOL     OW 5860   0.562   2.469   4.242
 1654SOL    HW1 5861   0.576   2.402   4.169
 1654SOL    HW2 5862   0.540   2.422   4.327
 1655SOL     OW 5863   4.309   4.253   5.345
 1655SOL    HW1 5864   4.334   4.273   5.439
 1655SOL    HW2 5865   4.306   4.338   5.292
 1656SOL     OW 5866   6.678   3.159   2.511
 1656SOL    HW1 5867   6.601   3.166   2.448
 1656SOL    HW2 5868   6.649   3.190   2.602
 1657SOL     OW 5869   0.416   0.534   6.098
 1657SOL    HW1 5870   0.425   0.492   6.008
 1657SOL    HW2 5871   0.506   0.557   6.133
 1658SOL     OW 5872   5.812   6.763   3.238
 1658SOL    HW1 5873   5.820   6.768   3.138
 1658SOL    HW2 5874   5.780   6.851   3.273
 1659SOL     OW 5875   6.229   2.943   6.198
 1659SOL    HW1 5876   6.174   2.982   6.272
 1659SOL    HW2 5877   6.324   2.934   6.229
 1660SOL     OW 5878   2.439   5.854   3.955
 1660SOL    HW1 5879   2.367   5.787   3.936
 1660SOL    HW2 5880   2.397   5.941   3.981
 1661SOL     OW 5881   2.565   1.233   3.579
 1661SOL    HW1 5882   2.465   1.227   3.580
 1661SOL    HW2 5883   2.593   1.329   3.569
 1662SOL     OW 5884   0.450   1.364   3.727
 1662SOL    HW1 5885   0.517   1.379   3.654
 1662SOL    HW2 5886   0.492   1.310   3.800
 1663SOL     OW 5887   0.990   0.274   3.033
 1663SOL    HW1 5888   0.988   0.370   3.005
 1663SOL    HW2 5889   0.905   0.229   3.004
 1664SOL     OW 5890   1.608   6.007   4.259
 1664SOL    HW1 5891   1.566   6.097   4.266
 1664SOL    HW2 5892   1.668   6.005   4.179
 1665SOL     OW 5893   0.066   1.156   3.819
 1665SOL    HW1 5894   0.035   1.063   3.803
 1665SOL    HW2 5895   0.131   1.183   3.748
 1666SOL     OW 5896   5.799   2.246   0.015
 1666SOL    HW1 5897   5.880   2.300   7.019
 1666SOL    HW2 5898   5.766   2.273   0.105
 1667SOL     OW 5899   6.559   0.181   0.901
 1667SOL    HW1 5900   6.538   0.159   0.806
 1667SOL    HW2 5901   6.491   0.140   0.961
 1668SOL     OW 5902   2.438   0.002   4.796
 1668SOL    HW1 5903   2.523   0.030   4.752
 1668SOL    HW2 5904   2.366   0.069   4.775
 1669SOL     OW 5905   5.000   5.391   6.808
 1669SOL    HW1 5906   4.909   5.394   6.848
 1669SOL    HW2 5907   5.060   5.334   6.864
 1670SOL     OW 5908   6.606   4.039   6.623
 1670SOL    HW1 5909   6.575   4.072   6.533
 1670SOL    HW2 5910   6.564   4.095   6.694
 1671SOL     OW 5911   6.073   4.213   1.337
 1671SOL    HW1 5912   6.119   4.217   1.248
 1671SOL    HW2 5913   6.132   4.167   1.403
 1672SOL     OW 5914   2.006   4.373   3.087
 1672SOL    HW1 5915   1.945   4.328   3.151
 1672SOL    HW2 5916   1.956   4.394   3.002
 1673SOL     OW 5917   6.606   3.707   3.237
 1673SOL    HW1 5918   6.589   3.724   3.334
 1673SOL    HW2 5919   6.629   3.610   3.224
 1674SOL     OW 5920   2.219   6.176   0.428
 1674SOL    HW1 5921   2.275   6.126   0.494
 1674SOL    HW2 5922   2.258   6.267   0.413
 1675SOL     OW 5923   4.921   2.262   6.382
 1675SOL    HW1 5924   4.839   2.240   6.434
 1675SOL    HW2 5925   4.939   2.190   6.315
 1676SOL     OW 5926   2.987   1.646   3.130
 1676SOL    HW1 5927   2.934   1.581   3.184
 1676SOL    HW2 5928   3.055   1.689   3.188
 1677SOL     OW 5929   5.492   7.008   5.764
 1677SOL    HW1 5930   5.442   7.024   5.679
 1677SOL    HW2 5931   5.588   6.988   5.744
 1678SOL     OW 5932   4.608   6.621   1.838
 1678SOL    HW1 5933   4.560   6.656   1.757
 1678SOL    HW2 5934   4.646   6.531   1.818
 1679SOL     OW 5935   6.488   4.420   0.399
 1679SOL    HW1 5936   6.466   4.458   0.489
 1679SOL    HW2 5937   6.583   4.387   0.399
 1680SOL     OW 5938   7.020   2.061   5.797
 1680SOL    HW1 5939   0.023   2.008   5.718
 1680SOL    HW2 5940   6.978   2.000   5.863
 1681SOL     OW 5941   4.602   5.137   1.297
 1681SOL    HW1 5942   4.515   5.121   1.251
 1681SOL    HW2 5943   4.663   5.059   1.281
 1682SOL     OW 5944   0.602   3.717   5.883
 1682SOL    HW1 5945   0.630   3.626   5.853
 1682SOL    HW2 5946   0.636   3.785   5.817
 1683SOL     OW 5947   6.023   5.406   5.207
 1683SOL    HW1 5948   5.933   5.365   5.217
 1683SOL    HW2 5949   6.033   5.482   5.271
 1684SOL     OW 5950   0.727   0.176   4.316
 1684SOL    HW1 5951   0.643   0.227   4.333
 1684SOL    HW2 5952   0.796   0.203   4.382
 1685SOL     OW 5953   1.214   1.922   7.011
 1685SOL    HW1 5954   1.276   1.987   0.024
 1685SOL    HW2 5955   1.152   1.969   6.949
 1686SOL     OW 5956   1.526   0.421   6.090
 1686SOL    HW1 5957   1.598   0.407   6.158
 1686SOL    HW2 5958   1.448   0.364   6.112
 1687SOL     OW 5959   2.580   0.077   2.526
 1687SOL    HW1 5960   2.584   7.014   2.566
 1687SOL    HW2 5961   2.605   0.145   2.595
 1688SOL     OW 5962   0.179   1.642   2.688
 1688SOL    HW1 5963   0.199   1.725   2.637
 1688SOL    HW2 5964   0.103   1.660   2.751
 1689SOL     OW 5965   2.104   2.126   1.490
 1689SOL    HW1 5966   2.130   2.222   1.501
 1689SOL    HW2 5967   2.005   2.118   1.482
 1690SOL     OW 5968   1.386   1.706   6.976
 1690SOL    HW1 5969   1.376   1.622   0.000
 1690SOL    HW2 5970   1.309   1.767   6.994
 1691SOL     OW 5971   4.607   4.398   3.730
 1691SOL    HW1 5972   4.638   4.360   3.817
 1691SOL    HW2 5973   4.641   4.491   3.721
 1692SOL     OW 5974   0.761   6.250   3.809
 1692SOL    HW1 5975   0.682   6.285   3.861
 1692SOL    HW2 5976   0.736   6.162   3.767
 1693SOL     OW 5977   3.820   2.134   4.165
 1693SOL    HW1 5978   3.915   2.164   4.158
 1693SOL    HW2 5979   3.776   2.145   4.076
 1694SOL     OW 5980   6.410   6.203   5.243
 1694SOL    HW1 5981   6.430   6.254   5.327
 1694SOL    HW2 5982   6.333   6.141   5.259
 1695SOL     OW 5983   3.903   1.528   6.278
 1695SOL    HW1 5984   3.837   1.501   6.348
 1695SOL    HW2 5985   3.896   1.467   6.200
 1696SOL     OW 5986   3.711   5.559   2.123
 1696SOL    HW1 5987   3.808   5.552   2.101
 1696SOL    HW2 5988   3.700   5.581   2.220
 1697SOL     OW 5989   1.538   1.808   1.703
 1697SOL    HW1 5990   1.584   1.720   1.716
 1697SOL    HW2 5991   1.456   1.795   1.647
 1698SOL     OW 5992   4.985   1.754   6.846
 1698SOL    HW1 5993   5.056   1.702   6.893
 1698SOL    HW2 5994   5.027   1.829   6.796
 1699SOL     OW 5995   2.540   5.025   1.747
 1699SOL    HW1 5996   2.634   4.991   1.742
 1699SOL    HW2 5997   2.494   4.985   1.827
 1700SOL     OW 5998   5.972   3.417   4.912
 1700SOL    HW1 5999   6.065   3.402   4.878
 1700SOL    HW2 6000   5.959   3.367   4.998
 1701SOL     OW 6001   5.415   3.355   4.576
 1701SOL    HW1 6002   5.406   3.257   4.562
 1701SOL    HW2 6003   5.325   3.399   4.568
 1702SOL     OW 6004   5.250   2.321   1.655
 1702SOL    HW1 6005   5.299   2.256   1.713
 1702SOL    HW2 6006   5.155   2.291   1.645
 1703SOL     OW 6007   2.104   3.903   1.600
 1703SOL    HW1 6008   2.165   3.848   1.657
 1703SOL    HW2 6009   2.073   3.983   1.651
 1704SOL     OW 6010   6.236   1.916   2.100
 1704SOL    HW1 6011   6.313   1.941   2.041
 1704SOL    HW2 6012   6.257   1.941   2.195
 1705SOL     OW 6013   3.360   2.765   1.770
 1705SOL    HW1 6014   3.323   2.701   1.703
 1705SOL    HW2 6015   3.290   2.785   1.838
 1706SOL     OW 6016   2.843   0.647   6.402
 1706SOL    HW1 6017   2.857   0.561   6.450
 1706SOL    HW2 6018   2.788   0.709   6.458
 1707SOL     OW 6019   4.844   1.634   2.279
 1707SOL    HW1 6020   4.839   1.628   2.379
 1707SOL    HW2 6021   4.926   1.684   2.253
 1708SOL     OW 6022   0.279   3.998   0.812
 1708SOL    HW1 6023   0.332   3.947   0.879
 1708SOL    HW2 6024   0.196   4.035   0.856
 1709SOL     OW 6025   3.401   5.070   3.864
 1709SOL    HW1 6026   3.446   5.006   3.926
 1709SOL    HW2 6027   3.381   5.155   3.912
 1710SOL     OW 6028   6.619   4.111   4.794
 1710SOL    HW1 6029   6.553   4.051   4.750
 1710SOL    HW2 6030   6.571   4.179   4.849
 1711SOL     OW 6031   0.639   4.729   6.050
 1711SOL    HW1 6032   0.617   4.725   6.147
 1711SOL    HW2 6033   0.686   4.815   6.030
 1712SOL     OW 6034   1.956   4.442   2.073
 1712SOL    HW1 6035   1.965   4.451   1.974
 1712SOL    HW2 6036   1.869   4.396   2.095
 1713SOL     OW 6037   2.078   3.428   0.897
 1713SOL    HW1 6038   1.990   3.407   0.854
 1713SOL    HW2 6039   2.066   3.501   0.964
 1714SOL     OW 6040   4.466   0.751   0.733
 1714SOL    HW1 6041   4.471   0.788   0.640
 1714SOL    HW2 6042   4.555   0.762   0.777
 1715SOL     OW 6043   1.775   3.759   3.519
 1715SOL    HW1 6044   1.815   3.677   3.560
 1715SOL    HW2 6045   1.846   3.828   3.506
 1716SOL     OW 6046   0.345   0.049   0.665
 1716SOL    HW1 6047   0.281   7.010   0.627
 1716SOL    HW2 6048   0.319   0.141   0.636
 1717SOL     OW 6049   3.258   0.923   0.441
 1717SOL    HW1 6050   3.274   0.825   0.429
 1717SOL    HW2 6051   3.344   0.968   0.466
 1718SOL     OW 6052   1.445   3.970   5.611
 1718SOL    HW1 6053   1.431   3.874   5.586
 1718SOL    HW2 6054   1.477   4.022   5.532
 1719SOL     OW 6055   2.516   2.247   0.664
 1719SOL    HW1 6056   2.470   2.290   0.586
 1719SOL    HW2 6057   2.591   2.305   0.695
 1720SOL     OW 6058   6.566   2.027   2.158
 1720SOL    HW1 6059   6.637   1.956   2.155
 1720SOL    HW2 6060   6.511   2.022   2.074
 1721SOL     OW 6061   1.070   5.658   4.478
 1721SOL    HW1 6062   1.092   5.670   4.382
 1721SOL    HW2 6063   1.137   5.707   4.534
 1722SOL     OW 6064   4.401   0.457   1.901
 1722SOL    HW1 6065   4.397   0.387   1.829
 1722SOL    HW2 6066   4.450   0.421   1.980
 1723SOL     OW 6067   5.745   1.274   3.355
 1723SOL    HW1 6068   5.726   1.177   3.369
 1723SOL    HW2 6069   5.751   1.320   3.443
 1724SOL     OW 6070   5.790   6.815   0.072
 1724SOL    HW1 6071   5.866   6.879   0.083
 1724SOL    HW2 6072   5.815   6.727   0.111
 1725SOL     OW 6073   4.634   5.493   2.376
 1725SOL    HW1 6074   4.581   5.502   2.461
 1725SOL    HW2 6075   4.638   5.581   2.329
 1726SOL     OW 6076   6.333   4.648   5.228
 1726SOL    HW1 6077   6.410   4.592   5.198
 1726SOL    HW2 6078   6.289   4.605   5.306
 1727SOL     OW 6079   2.569   4.698   5.994
 1727SOL    HW1 6080   2.543   4.787   5.958
 1727SOL    HW2 6081   2.493   4.634   5.980
 1728SOL     OW 6082   4.970   6.514   3.488
 1728SOL    HW1 6083   4.894   6.553   3.541
 1728SOL    HW2 6084   4.953   6.527   3.391
 1729SOL     OW 6085   6.849   3.321   3.736
 1729SOL    HW1 6086   6.853   3.382   3.657
 1729SOL    HW2 6087   6.771   3.345   3.794
 1730SOL     OW 6088   4.877   2.221   5.173
 1730SOL    HW1 6089   4.907   2.127   5.192
 1730SOL    HW2 6090   4.868   2.234   5.074
 1731SOL     OW 6091   0.732   6.830   6.139
 1731SOL    HW1 6092   0.704   6.748   6.188
 1731SOL    HW2 6093   0.812   6.870   6.185
 1732SOL     OW 6094   1.512   4.381   6.654
 1732SOL    HW1 6095   1.536   4.328   6.572
 1732SOL    HW2 6096   1.512   4.478   6.633
 1733SOL     OW 6097   1.739   4.182   6.213
 1733SOL    HW1 6098   1.700   4.172   6.121
 1733SOL    HW2 6099   1.729   4.097   6.263
 1734SOL     OW 6100   5.136   4.118   0.394
 1734SOL    HW1 6101   5.068   4.055   0.431
 1734SOL    HW2 6102   5.093   4.178   0.326
 1735SOL     OW 6103   4.788   4.791   0.027
 1735SOL    HW1 6104   4.833   4.704   0.045
 1735SOL    HW2 6105   4.837   4.840   6.983
 1736SOL     OW 6106   3.926   3.477   0.538
 1736SOL    HW1 6107   3.951   3.457   0.633
 1736SOL    HW2 6108   3.841   3.429   0.515
 1737SOL     OW 6109   0.698   6.389   2.869
 1737SOL    HW1 6110   0.692   6.453   2.945
 1737SOL    HW2 6111   0.773   6.417   2.809
 1738SOL     OW 6112   0.043   1.473   2.381
 1738SOL    HW1 6113   0.124   1.524   2.407
 1738SOL    HW2 6114   0.064   1.375   2.379
 1739SOL     OW 6115   3.739   1.518   6.889
 1739SOL    HW1 6116   3.681   1.501   6.809
 1739SOL    HW2 6117   3.759   1.616   6.896
 1740SOL     OW 6118   0.992   1.699   6.945
 1740SOL    HW1 6119   0.933   1.720   7.023
 1740SOL    HW2 6120   1.029   1.784   6.908
 1741SOL     OW 6121   0.528   0.648   2.575
 1741SOL    HW1 6122   0.593   0.594   2.626
 1741SOL    HW2 6123   0.538   0.629   2.477
 1742SOL     OW 6124   5.909   5.937   3.455
 1742SOL    HW1 6125   5.967   6.019   3.457
 1742SOL    HW2 6126   5.817   5.960   3.487
 1743SOL     OW 6127   4.351   1.635   6.658
 1743SOL    HW1 6128   4.362   1.563   6.588
 1743SOL    HW2 6129   4.436   1.687   6.666
 1744SOL     OW 6130   4.475   6.690   1.602
 1744SOL    HW1 6131   4.542   6.653   1.538
 1744SOL    HW2 6132   4.384   6.682   1.564
 1745SOL     OW 6133   0.544   1.746   5.228
 1745SOL    HW1 6134   0.641   1.765   5.214
 1745SOL    HW2 6135   0.522   1.656   5.189
 1746SOL     OW 6136   2.919   1.354   0.507
 1746SOL    HW1 6137   2.998   1.410   0.530
 1746SOL    HW2 6138   2.948   1.259   0.493
 1747SOL     OW 6139   4.295   0.369   4.691
 1747SOL    HW1 6140   4.303   0.379   4.790
 1747SOL    HW2 6141   4.323   0.453   4.646
 1748SOL     OW 6142   5.246   0.927   1.136
 1748SOL    HW1 6143   5.185   0.922   1.216
 1748SOL    HW2 6144   5.198   0.892   1.055
 1749SOL     OW 6145   5.447   0.124   6.030
 1749SOL    HW1 6146   5.392   0.101   5.949
 1749SOL    HW2 6147   5.543   0.136   6.003
 1750SOL     OW 6148   3.836   1.107   3.000
 1750SOL    HW1 6149   3.884   1.068   2.922
 1750SOL    HW2 6150   3.861   1.203   3.011
 1751SOL     OW 6151   2.851   5.769   4.574
 1751SOL    HW1 6152   2.861   5.849   4.514
 1751SOL    HW2 6153   2.797   5.699   4.527
 1752SOL     OW 6154   6.618   2.648   6.113
 1752SOL    HW1 6155   6.676   2.649   6.195
 1752SOL    HW2 6156   6.671   2.614   6.036
 1753SOL     OW 6157   1.341   0.438   2.251
 1753SOL    HW1 6158   1.347   0.410   2.155
 1753SOL    HW2 6159   1.332   0.357   2.308
 1754SOL     OW 6160   3.006   3.714   3.298
 1754SOL    HW1 6161   3.003   3.780   3.223
 1754SOL    HW2 6162   2.948   3.636   3.275
 1755SOL     OW 6163   0.429   4.277   6.798
 1755SOL    HW1 6164   0.515   4.253   6.755
 1755SOL    HW2 6165   0.371   4.196   6.803
 1756SOL     OW 6166   5.120   5.643   6.255
 1756SOL    HW1 6167   5.126   5.665   6.157
 1756SOL    HW2 6168   5.123   5.543   6.266
 1757SOL     OW 6169   3.985   0.376   4.809
 1757SOL    HW1 6170   3.973   0.460   4.756
 1757SOL    HW2 6171   4.074   0.336   4.789
 1758SOL     OW 6172   2.054   0.665   3.011
 1758SOL    HW1 6173   2.048   0.570   2.979
 1758SOL    HW2 6174   2.138   0.677   3.065
 1759SOL     OW 6175   6.381   5.576   6.155
 1759SOL    HW1 6176   6.302   5.637   6.160
 1759SOL    HW2 6177   6.371   5.502   6.221
 1760SOL     OW 6178   4.692   6.596   3.550
 1760SOL    HW1 6179   4.636   6.525   3.592
 1760SOL    HW2 6180   4.714   6.666   3.618
 1761SOL     OW 6181   6.477   3.177   0.937
 1761SOL    HW1 6182   6.527   3.111   0.881
 1761SOL    HW2 6183   6.438   3.131   1.017
 1762SOL     OW 6184   5.975   2.465   0.231
 1762SOL    HW1 6185   6.005   2.456   0.136
 1762SOL    HW2 6186   5.995   2.381   0.281
 1763SOL     OW 6187   1.988   2.094   4.410
 1763SOL    HW1 6188   1.962   2.163   4.478
 1763SOL    HW2 6189   1.912   2.031   4.395
 1764SOL     OW 6190   6.780   4.566   3.367
 1764SOL    HW1 6191   6.686   4.597   3.376
 1764SOL    HW2 6192   6.788   4.472   3.401
 1765SOL     OW 6193   2.475   2.579   6.435
 1765SOL    HW1 6194   2.538   2.509   6.469
 1765SOL    HW2 6195   2.523   2.638   6.370
 1766SOL     OW 6196   5.980   4.326   6.094
 1766SOL    HW1 6197   6.068   4.293   6.128
 1766SOL    HW2 6198   5.960   4.284   6.005
 1767SOL     OW 6199   6.840   4.218   1.599
 1767SOL    HW1 6200   6.859   4.179   1.689
 1767SOL    HW2 6201   6.793   4.306   1.610
 1768SOL     OW 6202   6.282   0.032   3.176
 1768SOL    HW1 6203   6.232   0.092   3.238
 1768SOL    HW2 6204   6.373   0.069   3.159
 1769SOL     OW 6205   4.608   0.812   4.165
 1769SOL    HW1 6206   4.565   0.726   4.193
 1769SOL    HW2 6207   4.591   0.883   4.233
 1770SOL     OW 6208   3.440   5.477   5.803
 1770SOL    HW1 6209   3.380   5.406   5.767
 1770SOL    HW2 6210   3.459   5.458   5.899
 1771SOL     OW 6211   5.102   5.447   0.237
 1771SOL    HW1 6212   5.194   5.451   0.196
 1771SOL    HW2 6213   5.034   5.452   0.164
 1772SOL     OW 6214   2.442   5.838   2.283
 1772SOL    HW1 6215   2.393   5.925   2.281
 1772SOL    HW2 6216   2.379   5.764   2.260
 1773SOL     OW 6217   2.049   6.598   0.258
 1773SOL    HW1 6218   1.969   6.612   0.199
 1773SOL    HW2 6219   2.036   6.647   0.345
 1774SOL     OW 6220   2.806   5.739   1.252
 1774SOL    HW1 6221   2.782   5.808   1.320
 1774SOL    HW2 6222   2.727   5.681   1.234
 1775SOL     OW 6223   0.504   5.333   0.258
 1775SOL    HW1 6224   0.475   5.405   0.321
 1775SOL    HW2 6225   0.555   5.264   0.308
 1776SOL     OW 6226   3.182   6.405   5.284
 1776SOL    HW1 6227   3.184   6.429   5.187
 1776SOL    HW2 6228   3.149   6.311   5.294
 1777SOL     OW 6229   4.716   0.166   6.336
 1777SOL    HW1 6230   4.690   0.210   6.422
 1777SOL    HW2 6231   4.794   0.215   6.297
 1778SOL     OW 6232   0.887   3.483   6.107
 1778SOL    HW1 6233   0.839   3.565   6.077
 1778SOL    HW2 6234   0.823   3.423   6.156
 1779SOL     OW 6235   4.516   5.670   4.858
 1779SOL    HW1 6236   4.591   5.698   4.918
 1779SOL    HW2 6237   4.453   5.612   4.910
 1780SOL     OW 6238   3.993   2.056   6.567
 1780SOL    HW1 6239   4.075   2.111   6.579
 1780SOL    HW2 6240   4.018   1.969   6.523
 1781SOL     OW 6241   2.150   6.361   3.911
 1781SOL    HW1 6242   2.224   6.356   3.978
 1781SOL    HW2 6243   2.175   6.425   3.838
 1782SOL     OW 6244   3.261   0.967   5.111
 1782SOL    HW1 6245   3.191   0.939   5.045
 1782SOL    HW2 6246   3.335   1.013   5.062
 1783SOL     OW 6247   2.224   5.719   6.874
 1783SOL    HW1 6248   2.287   5.650   6.841
 1783SOL    HW2 6249   2.196   5.778   6.798
 1784SOL     OW 6250   1.172   6.973   6.026
 1784SOL    HW1 6251   1.104   6.995   6.097
 1784SOL    HW2 6252   1.126   6.964   5.938
 1785SOL     OW 6253   7.003   4.891   2.690
 1785SOL    HW1 6254   6.963   4.940   2.767
 1785SOL    HW2 6255   0.055   4.942   2.656
 1786SOL     OW 6256   4.329   2.459   1.746
 1786SOL    HW1 6257   4.370   2.374   1.713
 1786SOL    HW2 6258   4.341   2.465   1.845
 1787SOL     OW 6259   4.568   0.501   5.029
 1787SOL    HW1 6260   4.578   0.563   5.107
 1787SOL    HW2 6261   4.472   0.473   5.022
 1788SOL     OW 6262   1.785   4.927   5.116
 1788SOL    HW1 6263   1.728   5.004   5.146
 1788SOL    HW2 6264   1.784   4.923   5.016
 1789SOL     OW 6265   5.340   6.036   1.175
 1789SOL    HW1 6266   5.382   5.959   1.221
 1789SOL    HW2 6267   5.248   6.051   1.210
 1790SOL     OW 6268   2.287   6.813   3.221
 1790SOL    HW1 6269   2.279   6.718   3.252
 1790SOL    HW2 6270   2.335   6.816   3.134
 1791SOL     OW 6271   1.167   6.943   2.894
 1791SOL    HW1 6272   1.191   0.006   2.928
 1791SOL    HW2 6273   1.248   6.901   2.854
 1792SOL     OW 6274   0.561   4.115   4.068
 1792SOL    HW1 6275   0.597   4.043   4.127
 1792SOL    HW2 6276   0.635   4.151   4.010
 1793SOL     OW 6277   0.005   0.692   3.870
 1793SOL    HW1 6278   6.998   0.772   3.820
 1793SOL    HW2 6279   0.070   0.722   3.939
 1794SOL     OW 6280   4.594   6.614   6.670
 1794SOL    HW1 6281   4.536   6.533   6.675
 1794SOL    HW2 6282   4.576   6.663   6.585
 1795SOL     OW 6283   0.771   2.891   6.802
 1795SOL    HW1 6284   0.683   2.922   6.837
 1795SOL    HW2 6285   0.829   2.863   6.878
 1796SOL     OW 6286   4.382   0.482   5.362
 1796SOL    HW1 6287   4.306   0.538   5.331
 1796SOL    HW2 6288   4.355   0.385   5.361
 1797SOL     OW 6289   0.066   0.510   2.500
 1797SOL    HW1 6290   0.142   0.573   2.518
 1797SOL    HW2 6291   0.026   0.480   2.586
 1798SOL     OW 6292   6.097   2.122   3.326
 1798SOL    HW1 6293   6.067   2.027   3.338
 1798SOL    HW2 6294   6.151   2.150   3.405
 1799SOL     OW 6295   2.753   6.756   1.206
 1799SOL    HW1 6296   2.799   6.667   1.213
 1799SOL    HW2 6297   2.800   6.822   1.264
 1800SOL     OW 6298   2.873   4.761   2.249
 1800SOL    HW1 6299   2.942   4.813   2.198
 1800SOL    HW2 6300   2.818   4.708   2.185
 1801SOL     OW 6301   5.536   6.152   0.602
 1801SOL    HW1 6302   5.609   6.123   0.664
 1801SOL    HW2 6303   5.468   6.205   0.652
 1802SOL     OW 6304   5.506   5.302   4.279
 1802SOL    HW1 6305   5.602   5.325   4.261
 1802SOL    HW2 6306   5.453   5.386   4.287
 1803SOL     OW 6307   6.126   4.864   0.616
 1803SOL    HW1 6308   6.037   4.825   0.594
 1803SOL    HW2 6309   6.183   4.865   0.535
 1804SOL     OW 6310   2.965   4.023   6.317
 1804SOL    HW1 6311   2.892   4.089   6.302
 1804SOL    HW2 6312   2.952   3.979   6.406
 1805SOL     OW 6313   6.877   2.354   6.844
 1805SOL    HW1 6314   6.944   2.284   6.867
 1805SOL    HW2 6315   6.923   2.432   6.802
 1806SOL     OW 6316   6.867   6.533   0.331
 1806SOL    HW1 6317   6.910   6.475   0.263
 1806SOL    HW2 6318   6.769   6.514   0.334
 1807SOL     OW 6319   6.791   1.588   5.757
 1807SOL    HW1 6320   6.692   1.576   5.769
 1807SOL    HW2 6321   6.830   1.630   5.839
 1808SOL     OW 6322   2.310   4.774   4.670
 1808SOL    HW1 6323   2.216   4.781   4.703
 1808SOL    HW2 6324   2.345   4.682   4.685
 1809SOL     OW 6325   4.047   0.262   5.930
 1809SOL    HW1 6326   4.115   0.191   5.910
 1809SOL    HW2 6327   4.087   0.330   5.992
 1810SOL     OW 6328   3.748   6.245   3.892
 1810SOL    HW1 6329   3.817   6.176   3.871
 1810SOL    HW2 6330   3.793   6.333   3.910
 1811SOL     OW 6331   4.486   5.146   2.883
 1811SOL    HW1 6332   4.545   5.163   2.962
 1811SOL    HW2 6333   4.492   5.050   2.857
 1812SOL     OW 6334   4.685   4.641   5.099
 1812SOL    HW1 6335   4.761   4.618   5.039
 1812SOL    HW2 6336   4.685   4.740   5.115
 1813SOL     OW 6337   0.158   6.439   5.071
 1813SOL    HW1 6338   0.140   6.456   4.974
 1813SOL    HW2 6339   0.166   6.526   5.120
 1814SOL     OW 6340   4.099   6.733   2.700
 1814SOL    HW1 6341   4.196   6.753   2.716
 1814SOL    HW2 6342   4.073   6.762   2.608
 1815SOL     OW 6343   0.313   1.181   2.762
 1815SOL    HW1 6344   0.365   1.149   2.841
 1815SOL    HW2 6345   0.370   1.243   2.708
 1816SOL     OW 6346   1.416   5.330   0.770
 1816SOL    HW1 6347   1.321   5.316   0.741
 1816SOL    HW2 6348   1.477   5.286   0.704
 1817SOL     OW 6349   1.132   4.332   1.760
 1817SOL    HW1 6350   1.185   4.249   1.743
 1817SOL    HW2 6351   1.117   4.381   1.674
 1818SOL     OW 6352   0.222   2.164   3.240
 1818SOL    HW1 6353   0.151   2.226   3.273
 1818SOL    HW2 6354   0.239   2.182   3.143
 1819SOL     OW 6355   1.365   4.210   2.373
 1819SOL    HW1 6356   1.384   4.238   2.280
 1819SOL    HW2 6357   1.440   4.237   2.433
 1820SOL     OW 6358   5.636   6.627   2.353
 1820SOL    HW1 6359   5.690   6.705   2.321
 1820SOL    HW2 6360   5.628   6.559   2.280
 1821SOL     OW 6361   1.835   2.058   3.445
 1821SOL    HW1 6362   1.748   2.047   3.399
 1821SOL    HW2 6363   1.843   1.989   3.518
 1822SOL     OW 6364   3.409   3.381   2.437
 1822SOL    HW1 6365   3.387   3.420   2.526
 1822SOL    HW2 6366   3.507   3.361   2.433
 1823SOL     OW 6367   3.570   6.616   2.641
 1823SOL    HW1 6368   3.561   6.687   2.571
 1823SOL    HW2 6369   3.652   6.562   2.623
 1824SOL     OW 6370   4.807   1.386   1.913
 1824SOL    HW1 6371   4.898   1.361   1.946
 1824SOL    HW2 6372   4.766   1.452   1.975
 1825SOL     OW 6373   0.343   0.167   1.295
 1825SOL    HW1 6374   0.257   0.121   1.316
 1825SOL    HW2 6375   0.416   0.100   1.286
 1826SOL     OW 6376   2.422   5.348   6.173
 1826SOL    HW1 6377   2.327   5.371   6.195
 1826SOL    HW2 6378   2.435   5.353   6.074
 1827SOL     OW 6379   5.186   0.484   0.492
 1827SOL    HW1 6380   5.217   0.568   0.538
 1827SOL    HW2 6381   5.176   0.411   0.559
 1828SOL     OW 6382   3.141   2.883   0.060
 1828SOL    HW1 6383   3.202   2.960   0.039
 1828SOL    HW2 6384   3.151   2.812   7.018
 1829SOL     OW 6385   5.326   5.478   2.755
 1829SOL    HW1 6386   5.284   5.561   2.719
 1829SOL    HW2 6387   5.310   5.472   2.853
 1830SOL     OW 6388   4.603   0.703   4.472
 1830SOL    HW1 6389   4.540   0.757   4.528
 1830SOL    HW2 6390   4.551   0.650   4.405
 1831SOL     OW 6391   4.799   0.827   3.240
 1831SOL    HW1 6392   4.862   0.872   3.303
 1831SOL    HW2 6393   4.845   0.814   3.152
 1832SOL     OW 6394   6.410   2.874   6.504
 1832SOL    HW1 6395   6.347   2.799   6.486
 1832SOL    HW2 6396   6.451   2.904   6.418
 1833SOL     OW 6397   6.123   2.000   6.062
 1833SOL    HW1 6398   6.072   2.054   5.995
 1833SOL    HW2 6399   6.204   1.961   6.019
 1834SOL     OW 6400   2.470   4.322   0.152
 1834SOL    HW1 6401   2.531   4.384   0.200
 1834SOL    HW2 6402   2.518   4.281   0.074
 1835SOL     OW 6403   2.239   4.697   0.463
 1835SOL    HW1 6404   2.208   4.605   0.439
 1835SOL    HW2 6405   2.234   4.756   0.382
 1836SOL     OW 6406   0.637   6.248   0.560
 1836SOL    HW1 6407   0.594   6.329   0.600
 1836SOL    HW2 6408   0.696   6.205   0.628
 1837SOL     OW 6409   6.892   3.472   4.250
 1837SOL    HW1 6410   6.889   3.533   4.171
 1837SOL    HW2 6411   6.986   3.444   4.267
 1838SOL     OW 6412   1.017   3.474   4.476
 1838SOL    HW1 6413   0.941   3.410   4.475
 1838SOL    HW2 6414   1.099   3.427   4.510
 1839SOL     OW 6415   1.925   1.353   6.829
 1839SOL    HW1 6416   1.903   1.420   6.758
 1839SOL    HW2 6417   1.841   1.308   6.860
 1840SOL     OW 6418   1.012   5.589   1.363
 1840SOL    HW1 6419   1.053   5.505   1.399
 1840SOL    HW2 6420   0.934   5.566   1.304
 1841SOL     OW 6421   2.112   2.590   3.823
 1841SOL    HW1 6422   2.134   2.574   3.727
 1841SOL    HW2 6423   2.121   2.505   3.875
 1842SOL     OW 6424   1.767   5.770   6.316
 1842SOL    HW1 6425   1.810   5.704   6.377
 1842SOL    HW2 6426   1.746   5.854   6.366
 1843SOL     OW 6427   5.270   2.149   5.705
 1843SOL    HW1 6428   5.204   2.222   5.687
 1843SOL    HW2 6429   5.346   2.156   5.641
 1844SOL     OW 6430   5.509   5.086   3.640
 1844SOL    HW1 6431   5.605   5.077   3.612
 1844SOL    HW2 6432   5.492   5.028   3.719
 1845SOL     OW 6433   5.431   6.272   1.076
 1845SOL    HW1 6434   5.393   6.200   1.133
 1845SOL    HW2 6435   5.371   6.353   1.078
 1846SOL     OW 6436   3.583   0.821   5.870
 1846SOL    HW1 6437   3.529   0.851   5.949
 1846SOL    HW2 6438   3.571   0.886   5.795
 1847SOL     OW 6439   1.384   5.924   6.349
 1847SOL    HW1 6440   1.310   5.948   6.286
 1847SOL    HW2 6441   1.395   5.825   6.351
 1848SOL     OW 6442   2.456   1.494   4.253
 1848SOL    HW1 6443   2.479   1.397   4.244
 1848SOL    HW2 6444   2.504   1.546   4.183
 1849SOL     OW 6445   2.596   1.117   5.410
 1849SOL    HW1 6446   2.600   1.067   5.323
 1849SOL    HW2 6447   2.676   1.176   5.417
 1850SOL     OW 6448   4.580   2.538   1.263
 1850SOL    HW1 6449   4.655   2.554   1.327
 1850SOL    HW2 6450   4.505   2.491   1.310
 1851SOL     OW 6451   6.352   4.628   2.856
 1851SOL    HW1 6452   6.364   4.593   2.764
 1851SOL    HW2 6453   6.301   4.562   2.911
 1852SOL     OW 6454   5.674   1.943   6.183
 1852SOL    HW1 6455   5.597   1.925   6.245
 1852SOL    HW2 6456   5.746   1.875   6.199
 1853SOL     OW 6457   1.661   5.241   0.085
 1853SOL    HW1 6458   1.752   5.258   0.123
 1853SOL    HW2 6459   1.610   5.183   0.147
 1854SOL     OW 6460   2.639   5.292   4.588
 1854SOL    HW1 6461   2.613   5.260   4.679
 1854SOL    HW2 6462   2.575   5.361   4.557
 1855SOL     OW 6463   6.170   4.431   1.908
 1855SOL    HW1 6464   6.163   4.425   2.008
 1855SOL    HW2 6465   6.079   4.420   1.868
 1856SOL     OW 6466   5.024   2.948   0.234
 1856SOL    HW1 6467   5.030   3.038   0.276
 1856SOL    HW2 6468   5.044   2.878   0.303
 1857SOL     OW 6469   5.459   1.814   3.758
 1857SOL    HW1 6470   5.377   1.800   3.704
 1857SOL    HW2 6471   5.531   1.853   3.700
 1858SOL     OW 6472   5.656   3.605   2.160
 1858SOL    HW1 6473   5.613   3.557   2.236
 1858SOL    HW2 6474   5.736   3.655   2.193
 1859SOL     OW 6475   5.801   2.348   4.259
 1859SOL    HW1 6476   5.802   2.347   4.159
 1859SOL    HW2 6477   5.746   2.271   4.292
 1860SOL     OW 6478   3.857   2.028   4.927
 1860SOL    HW1 6479   3.856   1.935   4.890
 1860SOL    HW2 6480   3.769   2.071   4.909
 1861SOL     OW 6481   4.691   6.985   1.875
 1861SOL    HW1 6482   4.620   6.940   1.929
 1861SOL    HW2 6483   4.708   6.933   1.791
 1862SOL     OW 6484   3.189   2.866   1.309
 1862SOL    HW1 6485   3.157   2.955   1.341
 1862SOL    HW2 6486   3.278   2.877   1.263
 1863SOL     OW 6487   1.869   1.551   1.193
 1863SOL    HW1 6488   1.965   1.563   1.168
 1863SOL    HW2 6489   1.862   1.530   1.290
 1864SOL     OW 6490   6.883   6.589   3.203
 1864SOL    HW1 6491   6.827   6.517   3.245
 1864SOL    HW2 6492   6.949   6.623   3.270
 1865SOL     OW 6493   6.009   3.132   6.944
 1865SOL    HW1 6494   5.979   3.039   6.923
 1865SOL    HW2 6495   6.103   3.145   6.911
 1866SOL     OW 6496   6.448   5.818   1.785
 1866SOL    HW1 6497   6.353   5.843   1.805
 1866SOL    HW2 6498   6.449   5.749   1.712
 1867SOL     OW 6499   1.384   3.993   6.785
 1867SOL    HW1 6500   1.479   3.972   6.806
 1867SOL    HW2 6501   1.364   4.087   6.814
 1868SOL     OW 6502   6.606   4.299   5.387
 1868SOL    HW1 6503   6.622   4.280   5.484
 1868SOL    HW2 6504   6.689   4.280   5.335
 1869SOL     OW 6505   5.935   1.290   5.020
 1869SOL    HW1 6506   5.877   1.209   5.029
 1869SOL    HW2 6507   5.931   1.325   4.926
 1870SOL     OW 6508   1.687   3.491   5.245
 1870SOL    HW1 6509   1.724   3.411   5.199
 1870SOL    HW2 6510   1.628   3.542   5.183
 1871SOL     OW 6511   2.115   1.309   0.948
 1871SOL    HW1 6512   2.078   1.356   0.868
 1871SOL    HW2 6513   2.192   1.253   0.921
 1872SOL     OW 6514   1.469   5.200   6.297
 1872SOL    HW1 6515   1.528   5.281   6.301
 1872SOL    HW2 6516   1.445   5.180   6.202
 1873SOL     OW 6517   5.793   6.240   6.259
 1873SOL    HW1 6518   5.787   6.166   6.325
 1873SOL    HW2 6519   5.704   6.256   6.217
 1874SOL     OW 6520   1.024   4.000   2.839
 1874SOL    HW1 6521   1.030   3.967   2.745
 1874SOL    HW2 6522   0.937   4.047   2.852
 1875SOL     OW 6523   0.119   0.233   2.462
 1875SOL    HW1 6524   0.123   0.330   2.486
 1875SOL    HW2 6525   0.064   0.221   2.380
 1876SOL     OW 6526   2.024   6.155   4.282
 1876SOL    HW1 6527   2.123   6.168   4.279
 1876SOL    HW2 6528   2.003   6.059   4.268
 1877SOL     OW 6529   0.119   0.369   4.667
 1877SOL    HW1 6530   0.109   0.395   4.571
 1877SOL    HW2 6531   0.213   0.341   4.684
 1878SOL     OW 6532   6.441   3.559   5.659
 1878SOL    HW1 6533   6.443   3.466   5.621
 1878SOL    HW2 6534   6.458   3.555   5.758
 1879SOL     OW 6535   2.082   5.776   5.188
 1879SOL    HW1 6536   2.048   5.830   5.111
 1879SOL    HW2 6537   2.066   5.826   5.273
 1880SOL     OW 6538   6.712   0.681   4.036
 1880SOL    HW1 6539   6.627   0.707   3.990
 1880SOL    HW2 6540   6.773   0.761   4.041
 1881SOL     OW 6541   0.567   2.299   0.003
 1881SOL    HW1 6542   0.468   2.318   0.006
 1881SOL    HW2 6543   0.597   2.296   6.935
 1882SOL     OW 6544   0.787   6.230   0.111
 1882SOL    HW1 6545   0.753   6.322   0.094
 1882SOL    HW2 6546   0.727   6.184   0.177
 1883SOL     OW 6547   0.161   2.598   4.305
 1883SOL    HW1 6548   0.175   2.691   4.339
 1883SOL    HW2 6549   0.229   2.577   4.235
 1884SOL     OW 6550   6.019   1.708   0.804
 1884SOL    HW1 6551   6.090   1.640   0.822
 1884SOL    HW2 6552   5.964   1.722   0.886
 1885SOL     OW 6553   3.290   1.337   4.629
 1885SOL    HW1 6554   3.199   1.296   4.639
 1885SOL    HW2 6555   3.294   1.421   4.682
 1886SOL     OW 6556   0.694   7.018   3.267
 1886SOL    HW1 6557   0.761   7.007   3.193
 1886SOL    HW2 6558   0.730   6.978   3.351
 1887SOL     OW 6559   2.484   5.306   6.464
 1887SOL    HW1 6560   2.467   5.276   6.370
 1887SOL    HW2 6561   2.407   5.360   6.496
 1888SOL     OW 6562   2.188   0.329   3.523
 1888SOL    HW1 6563   2.226   0.326   3.431
 1888SOL    HW2 6564   2.193   0.238   3.564
 1889SOL     OW 6565   0.527   3.543   2.723
 1889SOL    HW1 6566   0.575   3.455   2.713
 1889SOL    HW2 6567   0.485   3.567   2.635
 1890SOL     OW 6568   2.167   5.466   4.492
 1890SOL    HW1 6569   2.189   5.469   4.589
 1890SOL    HW2 6570   2.086   5.522   4.475
 1891SOL     OW 6571   3.978   3.842   4.413
 1891SOL    HW1 6572   3.962   3.911   4.341
 1891SOL    HW2 6573   3.970   3.751   4.373
 1892SOL     OW 6574   6.696   0.890   2.683
 1892SOL    HW1 6575   6.780   0.848   2.649
 1892SOL    HW2 6576   6.619   0.863   2.624
 1893SOL     OW 6577   3.243   3.519   3.753
 1893SOL    HW1 6578   3.342   3.530   3.746
 1893SOL    HW2 6579   3.222   3.465   3.834
 1894SOL     OW 6580   2.700   2.695   5.667
 1894SOL    HW1 6581   2.707   2.718   5.570
 1894SOL    HW2 6582   2.691   2.779   5.721
 1895SOL     OW 6583   1.075   6.208   1.637
 1895SOL    HW1 6584   1.135   6.129   1.626
 1895SOL    HW2 6585   0.993   6.197   1.581
 1896SOL     OW 6586   6.688   2.519   0.929
 1896SOL    HW1 6587   6.609   2.548   0.982
 1896SOL    HW2 6588   6.663   2.439   0.874
 1897SOL     OW 6589   2.588   4.607   3.195
 1897SOL    HW1 6590   2.638   4.674   3.249
 1897SOL    HW2 6591   2.510   4.572   3.248
 1898SOL     OW 6592   1.866   5.788   1.936
 1898SOL    HW1 6593   1.943   5.830   1.982
 1898SOL    HW2 6594   1.791   5.774   2.001
 1899SOL     OW 6595   6.903   0.975   2.218
 1899SOL    HW1 6596   6.932   0.903   2.280
 1899SOL    HW2 6597   6.856   0.935   2.139
 1900SOL     OW 6598   3.265   6.117   6.415
 1900SOL    HW1 6599   3.183   6.144   6.364
 1900SOL    HW2 6600   3.239   6.090   6.507
 1901SOL     OW 6601   3.906   2.980   2.599
 1901SOL    HW1 6602   3.951   3.036   2.530
 1901SOL    HW2 6603   3.918   2.883   2.577
 1902SOL     OW 6604   1.362   6.945   5.287
 1902SOL    HW1 6605   1.321   7.021   5.236
 1902SOL    HW2 6606   1.418   6.890   5.225
 1903SOL     OW 6607   0.262   2.420   4.560
 1903SOL    HW1 6608   0.260   2.431   4.461
 1903SOL    HW2 6609   0.293   2.328   4.583
 1904SOL     OW 6610   5.701   6.109   2.245
 1904SOL    HW1 6611   5.755   6.038   2.202
 1904SOL    HW2 6612   5.685   6.085   2.341
 1905SOL     OW 6613   0.205   2.683   3.092
 1905SOL    HW1 6614   0.167   2.724   3.009
 1905SOL    HW2 6615   0.182   2.740   3.171
 1906SOL     OW 6616   0.581   6.239   3.445
 1906SOL    HW1 6617   0.535   6.318   3.486
 1906SOL    HW2 6618   0.546   6.155   3.487
 1907SOL     OW 6619   6.502   2.889   0.638
 1907SOL    HW1 6620   6.573   2.820   0.629
 1907SOL    HW2 6621   6.544   2.980   0.636
 1908SOL     OW 6622   4.559   0.564   1.595
 1908SOL    HW1 6623   4.608   0.478   1.584
 1908SOL    HW2 6624   4.498   0.578   1.517
 1909SOL     OW 6625   6.335   5.378   4.598
 1909SOL    HW1 6626   6.318   5.433   4.680
 1909SOL    HW2 6627   6.426   5.400   4.562
 1910SOL     OW 6628   0.456   6.607   4.480
 1910SOL    HW1 6629   0.487   6.609   4.575
 1910SOL    HW2 6630   0.509   6.540   4.429
 1911SOL     OW 6631   5.820   6.210   4.087
 1911SOL    HW1 6632   5.813   6.270   4.008
 1911SOL    HW2 6633   5.853   6.261   4.166
 1912SOL     OW 6634   3.833   4.796   2.306
 1912SOL    HW1 6635   3.868   4.727   2.370
 1912SOL    HW2 6636   3.837   4.886   2.349
 1913SOL     OW 6637   2.804   4.316   6.802
 1913SOL    HW1 6638   2.836   4.390   6.743
 1913SOL    HW2 6639   2.845   4.230   6.772
 1914SOL     OW 6640   4.395   4.913   0.254
 1914SOL    HW1 6641   4.450   4.973   0.196
 1914SOL    HW2 6642   4.317   4.964   0.291
 1915SOL     OW 6643   4.338   1.515   6.901
 1915SOL    HW1 6644   4.330   1.612   6.925
 1915SOL    HW2 6645   4.346   1.506   6.801
 1916SOL     OW 6646   3.599   1.500   3.247
 1916SOL    HW1 6647   3.652   1.416   3.242
 1916SOL    HW2 6648   3.522   1.495   3.183
 1917SOL     OW 6649   2.754   4.026   1.664
 1917SOL    HW1 6650   2.759   3.957   1.592
 1917SOL    HW2 6651   2.663   4.023   1.706
 1918SOL     OW 6652   4.873   3.588   3.986
 1918SOL    HW1 6653   4.885   3.645   3.905
 1918SOL    HW2 6654   4.869   3.492   3.960
 1919SOL     OW 6655   6.189   0.408   6.726
 1919SOL    HW1 6656   6.263   0.474   6.718
 1919SOL    HW2 6657   6.120   0.426   6.655
 1920SOL     OW 6658   4.956   3.498   0.584
 1920SOL    HW1 6659   5.054   3.513   0.598
 1920SOL    HW2 6660   4.905   3.537   0.661
 1921SOL     OW 6661   2.694   1.951   6.923
 1921SOL    HW1 6662   2.768   1.992   6.976
 1921SOL    HW2 6663   2.611   1.950   6.978
 1922SOL     OW 6664   3.919   3.567   4.361
 1922SOL    HW1 6665   3.869   3.540   4.278
 1922SOL    HW2 6666   3.871   3.531   4.441
 1923SOL     OW 6667   2.976   0.279   4.198
 1923SOL    HW1 6668   3.020   0.363   4.167
 1923SOL    HW2 6669   2.952   0.223   4.118
 1924SOL     OW 6670   5.015   1.342   1.235
 1924SOL    HW1 6671   5.043   1.391   1.318
 1924SOL    HW2 6672   4.970   1.257   1.260
 1925SOL     OW 6673   1.119   4.223   0.930
 1925SOL    HW1 6674   1.171   4.140   0.949
 1925SOL    HW2 6675   1.183   4.298   0.912
 1926SOL     OW 6676   2.552   6.592   1.667
 1926SOL    HW1 6677   2.648   6.616   1.683
 1926SOL    HW2 6678   2.532   6.596   1.569
 1927SOL     OW 6679   2.034   4.815   1.395
 1927SOL    HW1 6680   2.124   4.818   1.352
 1927SOL    HW2 6681   2.035   4.873   1.477
 1928SOL     OW 6682   1.286   3.986   2.652
 1928SOL    HW1 6683   1.210   3.977   2.587
 1928SOL    HW2 6684   1.300   4.082   2.676
 1929SOL     OW 6685   3.149   0.450   3.326
 1929SOL    HW1 6686   3.108   0.380   3.267
 1929SOL    HW2 6687   3.097   0.456   3.411
 1930SOL     OW 6688   3.215   3.802   6.991
 1930SOL    HW1 6689   3.119   3.783   6.974
 1930SOL    HW2 6690   3.266   3.716   6.993
 1931SOL     OW 6691   5.810   3.659   3.241
 1931SOL    HW1 6692   5.815   3.559   3.235
 1931SOL    HW2 6693   5.880   3.692   3.305
 1932SOL     OW 6694   4.582   1.216   1.908
 1932SOL    HW1 6695   4.660   1.262   1.865
 1932SOL    HW2 6696   4.512   1.283   1.932
 1933SOL     OW 6697   1.812   1.105   0.758
 1933SOL    HW1 6698   1.775   1.152   0.838
 1933SOL    HW2 6699   1.739   1.088   0.692
 1934SOL     OW 6700   6.174   0.332   0.148
 1934SOL    HW1 6701   6.213   0.317   0.238
 1934SOL    HW2 6702   6.117   0.414   0.149
 1935SOL     OW 6703   5.678   5.699   3.326
 1935SOL    HW1 6704   5.766   5.723   3.284
 1935SOL    HW2 6705   5.656   5.766   3.397
 1936SOL     OW 6706   6.060   3.018   6.399
 1936SOL    HW1 6707   6.044   2.935   6.453
 1936SOL    HW2 6708   5.973   3.051   6.362
 1937SOL     OW 6709   1.072   5.532   6.560
 1937SOL    HW1 6710   1.157   5.478   6.555
 1937SOL    HW2 6711   1.079   5.610   6.498
 1938SOL     OW 6712   6.658   1.088   6.842
 1938SOL    HW1 6713   6.614   1.008   6.882
 1938SOL    HW2 6714   6.591   1.143   6.794
 1939SOL     OW 6715   0.229   0.734   4.061
 1939SOL    HW1 6716   0.285   0.743   4.143
 1939SOL    HW2 6717   0.276   0.677   3.994
 1940SOL     OW 6718   0.942   5.429   2.516
 1940SOL    HW1 6719   0.990   5.502   2.564
 1940SOL    HW2 6720   0.974   5.341   2.550
 1941SOL     OW 6721   6.332   1.160   3.647
 1941SOL    HW1 6722   6.350   1.241   3.703
 1941SOL    HW2 6723   6.418   1.121   3.616
 1942SOL     OW 6724   1.031   6.782   1.546
 1942SOL    HW1 6725   0.967   6.705   1.546
 1942SOL    HW2 6726   1.087   6.778   1.629
 1943SOL     OW 6727   1.055   4.173   3.675
 1943SOL    HW1 6728   0.967   4.200   3.635
 1943SOL    HW2 6729   1.083   4.085   3.637
 1944SOL     OW 6730   0.161   3.819   3.848
 1944SOL    HW1 6731   0.209   3.890   3.796
 1944SOL    HW2 6732   0.216   3.792   3.927
 1945SOL     OW 6733   4.598   1.894   2.106
 1945SOL    HW1 6734   4.563   1.851   2.190
 1945SOL    HW2 6735   4.568   1.989   2.103
 1946SOL     OW 6736   6.214   4.651   6.748
 1946SOL    HW1 6737   6.254   4.598   6.823
 1946SOL    HW2 6738   6.155   4.722   6.785
 1947SOL     OW 6739   5.362   6.214   2.498
 1947SOL    HW1 6740   5.338   6.255   2.410
 1947SOL    HW2 6741   5.432   6.270   2.543
 1948SOL     OW 6742   4.763   2.812   2.861
 1948SOL    HW1 6743   4.704   2.740   2.898
 1948SOL    HW2 6744   4.756   2.894   2.918
 1949SOL     OW 6745   3.054   4.396   6.297
 1949SOL    HW1 6746   2.977   4.459   6.285
 1949SOL    HW2 6747   3.077   4.391   6.394
 1950SOL     OW 6748   3.841   2.991   4.406
 1950SOL    HW1 6749   3.811   2.999   4.311
 1950SOL    HW2 6750   3.781   2.929   4.455
 1951SOL     OW 6751   1.100   5.191   6.011
 1951SOL    HW1 6752   1.013   5.143   5.998
 1951SOL    HW2 6753   1.084   5.289   6.022
 1952SOL     OW 6754   5.597   3.602   6.892
 1952SOL    HW1 6755   5.638   3.634   6.807
 1952SOL    HW2 6756   5.530   3.669   6.924
 1953SOL     OW 6757   6.914   0.968   6.383
 1953SOL    HW1 6758   7.007   0.936   6.368
 1953SOL    HW2 6759   6.916   1.054   6.434
 1954SOL     OW 6760   4.094   6.504   3.289
 1954SOL    HW1 6761   4.167   6.441   3.264
 1954SOL    HW2 6762   4.124   6.598   3.272
 1955SOL     OW 6763   0.448   3.590   3.943
 1955SOL    HW1 6764   0.506   3.646   3.884
 1955SOL    HW2 6765   0.474   3.494   3.934
 1956SOL     OW 6766   4.655   1.252   1.403
 1956SOL    HW1 6767   4.652   1.276   1.501
 1956SOL    HW2 6768   4.625   1.331   1.349
 1957SOL     OW 6769   0.738   3.584   4.643
 1957SOL    HW1 6770   0.787   3.506   4.681
 1957SOL    HW2 6771   0.804   3.656   4.619
 1958SOL     OW 6772   5.606   1.559   0.458
 1958SOL    HW1 6773   5.669   1.578   0.383
 1958SOL    HW2 6774   5.517   1.600   0.439
 1959SOL     OW 6775   1.857   1.410   6.186
 1959SOL    HW1 6776   1.786   1.446   6.246
 1959SOL    HW2 6777   1.893   1.325   6.223
 1960SOL     OW 6778   4.817   3.970   2.152
 1960SOL    HW1 6779   4.853   3.894   2.207
 1960SOL    HW2 6780   4.813   3.943   2.056
 1961SOL     OW 6781   6.654   3.714   4.458
 1961SOL    HW1 6782   6.633   3.630   4.508
 1961SOL    HW2 6783   6.708   3.775   4.516
 1962SOL     OW 6784   0.148   6.986   2.507
 1962SOL    HW1 6785   0.126   0.051   2.481
 1962SOL    HW2 6786   0.227   6.955   2.455
 1963SOL     OW 6787   0.868   1.115   6.618
 1963SOL    HW1 6788   0.899   1.172   6.694
 1963SOL    HW2 6789   0.780   1.149   6.584
 1964SOL     OW 6790   5.549   2.944   0.653
 1964SOL    HW1 6791   5.552   2.936   0.752
 1964SOL    HW2 6792   5.636   2.982   0.620
 1965SOL     OW 6793   5.677   4.951   4.909
 1965SOL    HW1 6794   5.774   4.974   4.920
 1965SOL    HW2 6795   5.622   5.016   4.962
 1966SOL     OW 6796   1.691   4.839   6.695
 1966SOL    HW1 6797   1.594   4.858   6.681
 1966SOL    HW2 6798   1.729   4.906   6.758
 1967SOL     OW 6799   6.203   2.932   4.055
 1967SOL    HW1 6800   6.243   2.858   4.002
 1967SOL    HW2 6801   6.149   2.895   4.130
 1968SOL     OW 6802   3.010   1.752   5.523
 1968SOL    HW1 6803   2.981   1.713   5.611
 1968SOL    HW2 6804   2.931   1.764   5.464
 1969SOL     OW 6805   0.475   6.563   1.696
 1969SOL    HW1 6806   0.540   6.490   1.717
 1969SOL    HW2 6807   0.406   6.529   1.631
 1970SOL     OW 6808   5.264   4.238   2.559
 1970SOL    HW1 6809   5.203   4.192   2.494
 1970SOL    HW2 6810   5.289   4.328   2.523
 1971SOL     OW 6811   1.465   5.844   4.478
 1971SOL    HW1 6812   1.533   5.886   4.417
 1971SOL    HW2 6813   1.374   5.851   4.437
 1972SOL     OW 6814   5.399   2.498   3.473
 1972SOL    HW1 6815   5.454   2.430   3.521
 1972SOL    HW2 6816   5.400   2.584   3.524
 1973SOL     OW 6817   4.600   1.955   6.938
 1973SOL    HW1 6818   4.661   1.882   6.968
 1973SOL    HW2 6819   4.589   2.021   7.012
 1974SOL     OW 6820   2.293   6.141   4.298
 1974SOL    HW1 6821   2.287   6.061   4.358
 1974SOL    HW2 6822   2.360   6.205   4.335
 1975SOL     OW 6823   1.517   2.051   2.450
 1975SOL    HW1 6824   1.479   2.137   2.414
 1975SOL    HW2 6825   1.615   2.047   2.427
 1976SOL     OW 6826   2.590   0.385   4.679
 1976SOL    HW1 6827   2.655   0.461   4.677
 1976SOL    HW2 6828   2.542   0.385   4.767
 1977SOL     OW 6829   1.258   4.487   0.423
 1977SOL    HW1 6830   1.196   4.558   0.455
 1977SOL    HW2 6831   1.206   4.420   0.370
 1978SOL     OW 6832   2.770   0.745   2.131
 1978SOL    HW1 6833   2.692   0.798   2.099
 1978SOL    HW2 6834   2.793   0.676   2.062
 1979SOL     OW 6835   5.361   2.687   6.913
 1979SOL    HW1 6836   5.295   2.735   6.971
 1979SOL    HW2 6837   5.446   2.674   6.963
 1980SOL     OW 6838   4.393   6.920   1.025
 1980SOL    HW1 6839   4.447   6.955   1.101
 1980SOL    HW2 6840   4.433   6.835   0.992
 1981SOL     OW 6841   4.290   2.756   1.700
 1981SOL    HW1 6842   4.354   2.828   1.727
 1981SOL    HW2 6843   4.326   2.667   1.729
 1982SOL     OW 6844   3.260   1.672   6.155
 1982SOL    HW1 6845   3.181   1.611   6.155
 1982SOL    HW2 6846   3.234   1.761   6.119
 1983SOL     OW 6847   0.033   1.928   0.359
 1983SOL    HW1 6848   6.990   1.874   0.313
 1983SOL    HW2 6849   0.014   1.930   0.457
 1984SOL     OW 6850   4.520   3.389   6.116
 1984SOL    HW1 6851   4.483   3.423   6.030
 1984SOL    HW2 6852   4.445   3.373   6.181
 1985SOL     OW 6853   5.125   5.736   5.442
 1985SOL    HW1 6854   5.134   5.762   5.345
 1985SOL    HW2 6855   5.034   5.698   5.458
 1986SOL     OW 6856   3.312   3.367   3.460
 1986SOL    HW1 6857   3.324   3.402   3.367
 1986SOL    HW2 6858   3.214   3.352   3.478
 1987SOL     OW 6859   1.457   2.352   1.718
 1987SOL    HW1 6860   1.399   2.333   1.639
 1987SOL    HW2 6861   1.412   2.323   1.801
 1988SOL     OW 6862   1.084   1.356   1.977
 1988SOL    HW1 6863   1.089   1.352   2.077
 1988SOL    HW2 6864   0.994   1.325   1.946
 1989SOL     OW 6865   3.203   4.998   3.431
 1989SOL    HW1 6866   3.182   5.063   3.358
 1989SOL    HW2 6867   3.266   5.040   3.496
 1990SOL     OW 6868   4.555   0.124   0.510
 1990SOL    HW1 6869   4.463   0.163   0.508
 1990SOL    HW2 6870   4.597   0.139   0.599
 1991SOL     OW 6871   2.976   5.124   2.367
 1991SOL    HW1 6872   3.071   5.116   2.399
 1991SOL    HW2 6873   2.923   5.177   2.433
 1992SOL     OW 6874   0.415   1.168   3.124
 1992SOL    HW1 6875   0.317   1.175   3.143
 1992SOL    HW2 6876   0.429   1.102   3.050
 1993SOL     OW 6877   1.557   0.987   0.969
 1993SOL    HW1 6878   1.613   1.068   0.981
 1993SOL    HW2 6879   1.484   1.006   0.903
 1994SOL     OW 6880   2.921   3.643   1.723
 1994SOL    HW1 6881   2.922   3.734   1.763
 1994SOL    HW2 6882   3.014   3.612   1.708
 1995SOL     OW 6883   6.390   0.831   3.914
 1995SOL    HW1 6884   6.478   0.873   3.895
 1995SOL    HW2 6885   6.317   0.897   3.896
 1996SOL     OW 6886   4.579   0.091   0.806
 1996SOL    HW1 6887   4.495   0.088   0.861
 1996SOL    HW2 6888   4.629   0.005   0.817
 1997SOL     OW 6889   2.790   1.898   2.762
 1997SOL    HW1 6890   2.869   1.868   2.816
 1997SOL    HW2 6891   2.724   1.945   2.821
 1998SOL     OW 6892   2.268   3.611   0.804
 1998SOL    HW1 6893   2.178   3.567   0.812
 1998SOL    HW2 6894   2.329   3.576   0.874
 1999SOL     OW 6895   0.564   0.161   5.378
 1999SOL    HW1 6896   0.539   0.148   5.282
 1999SOL    HW2 6897   0.502   0.107   5.436
 2000SOL     OW 6898   4.156   4.268   6.648
 2000SOL    HW1 6899   4.227   4.249   6.716
 2000SOL    HW2 6900   4.161   4.198   6.576
 2001SOL     OW 6901   1.004   1.259   0.129
 2001SOL    HW1 6902   0.913   1.220   0.147
 2001SOL    HW2 6903   1.052   1.272   0.215
 2002SOL     OW 6904   5.218   4.724   6.691
 2002SOL    HW1 6905   5.317   4.733   6.686
 2002SOL    HW2 6906   5.187   4.743   6.784
 2003SOL     OW 6907   0.051   5.544   1.690
 2003SOL    HW1 6908   7.027   5.623   1.659
 2003SOL    HW2 6909   0.139   5.574   1.727
 2004SOL     OW 6910   3.250   0.792   2.808
 2004SOL    HW1 6911   3.231   0.694   2.808
 2004SOL    HW2 6912   3.233   0.829   2.900
 2005SOL     OW 6913   1.398   6.336   0.167
 2005SOL    HW1 6914   1.494   6.330   0.137
 2005SOL    HW2 6915   1.357   6.244   0.166
 2006SOL     OW 6916   6.320   0.368   2.022
 2006SOL    HW1 6917   6.318   0.465   2.000
 2006SOL    HW2 6918   6.396   0.349   2.085
 2007SOL     OW 6919   5.480   4.780   5.659
 2007SOL    HW1 6920   5.512   4.865   5.703
 2007SOL    HW2 6921   5.383   4.788   5.639
 2008SOL     OW 6922   1.777   2.462   2.982
 2008SOL    HW1 6923   1.710   2.525   2.943
 2008SOL    HW2 6924   1.846   2.440   2.913
 2009SOL     OW 6925   5.936   6.983   3.551
 2009SOL    HW1 6926   5.945   7.007   3.647
 2009SOL    HW2 6927   5.994   6.904   3.531
 2010SOL     OW 6928   6.575   1.079   1.558
 2010SOL    HW1 6929   6.507   1.152   1.560
 2010SOL    HW2 6930   6.667   1.119   1.560
 2011SOL     OW 6931   0.791   0.322   5.402
 2011SOL    HW1 6932   0.847   0.323   5.485
 2011SOL    HW2 6933   0.727   0.246   5.406
 2012SOL     OW 6934   0.488   2.521   0.560
 2012SOL    HW1 6935   0.584   2.547   0.544
 2012SOL    HW2 6936   0.485   2.427   0.594
 2013SOL     OW 6937   0.513   2.501   2.340
 2013SOL    HW1 6938   0.603   2.460   2.342
 2013SOL    HW2 6939   0.521   2.599   2.320
 2014SOL     OW 6940   4.032   2.226   3.018
 2014SOL    HW1 6941   4.043   2.203   3.114
 2014SOL    HW2 6942   3.996   2.148   2.968
 2015SOL     OW 6943   3.855   6.021   1.341
 2015SOL    HW1 6944   3.803   5.960   1.402
 2015SOL    HW2 6945   3.886   5.970   1.261
 2016SOL     OW 6946   2.553   0.701   4.560
 2016SOL    HW1 6947   2.628   0.657   4.607
 2016SOL    HW2 6948   2.534   0.790   4.602
 2017SOL     OW 6949   1.022   6.942   4.466
 2017SOL    HW1 6950   1.070   6.863   4.502
 2017SOL    HW2 6951   0.930   6.947   4.504
 2018SOL     OW 6952   0.556   1.506   5.093
 2018SOL    HW1 6953   0.556   1.408   5.073
 2018SOL    HW2 6954   0.628   1.550   5.039
 2019SOL     OW 6955   0.877   4.623   0.312
 2019SOL    HW1 6956   0.837   4.611   0.402
 2019SOL    HW2 6957   0.967   4.666   0.321
 2020SOL     OW 6958   2.096   6.912   1.483
 2020SOL    HW1 6959   2.013   6.879   1.527
 2020SOL    HW2 6960   2.078   6.932   1.387
 2021SOL     OW 6961   6.984   5.173   3.934
 2021SOL    HW1 6962   0.004   5.092   3.969
 2021SOL    HW2 6963   0.019   5.250   3.933
 2022SOL     OW 6964   2.199   3.228   4.059
 2022SOL    HW1 6965   2.190   3.162   4.133
 2022SOL    HW2 6966   2.192   3.181   3.971
 2023SOL     OW 6967   1.372   5.511   5.883
 2023SOL    HW1 6968   1.355   5.604   5.851
 2023SOL    HW2 6969   1.305   5.488   5.955
 2024SOL     OW 6970   6.176   5.429   3.170
 2024SOL    HW1 6971   6.111   5.356   3.149
 2024SOL    HW2 6972   6.264   5.390   3.195
 2025SOL     OW 6973   1.728   0.487   4.832
 2025SOL    HW1 6974   1.678   0.407   4.799
 2025SOL    HW2 6975   1.770   0.535   4.754
 2026SOL     OW 6976   1.771   6.514   5.719
 2026SOL    HW1 6977   1.820   6.436   5.680
 2026SOL    HW2 6978   1.807   6.534   5.810
 2027SOL     OW 6979   5.627   6.729   2.941
 2027SOL    HW1 6980   5.611   6.642   2.895
 2027SOL    HW2 6981   5.724   6.750   2.942
 2028SOL     OW 6982   2.438   5.827   4.776
 2028SOL    HW1 6983   2.534   5.814   4.800
 2028SOL    HW2 6984   2.381   5.816   4.858
 2029SOL     OW 6985   7.001   1.768   6.747
 2029SOL    HW1 6986   6.945   1.840   6.706
 2029SOL    HW2 6987   7.013   1.694   6.682
 2030SOL     OW 6988   1.405   6.504   2.596
 2030SOL    HW1 6989   1.338   6.504   2.671
 2030SOL    HW2 6990   1.365   6.461   2.516
 2031SOL     OW 6991   6.882   0.940   3.977
 2031SOL    HW1 6992   6.924   0.947   3.886
 2031SOL    HW2 6993   6.897   1.025   4.027
 2032SOL     OW 6994   2.920   2.720   6.186
 2032SOL    HW1 6995   2.990   2.690   6.251
 2032SOL    HW2 6996   2.954   2.800   6.136
 2033SOL     OW 6997   3.216   6.610   1.294
 2033SOL    HW1 6998   3.181   6.693   1.337
 2033SOL    HW2 6999   3.151   6.535   1.309
 2034SOL     OW 7000   0.863   3.954   5.009
 2034SOL    HW1 7001   0.961   3.955   4.993
 2034SOL    HW2 7002   0.826   4.047   5.001
 2035SOL     OW 7003   4.730   6.389   3.069
 2035SOL    HW1 7004   4.644   6.436   3.089
 2035SOL    HW2 7005   4.720   6.335   2.985
 2036SOL     OW 7006   6.902   4.113   5.727
 2036SOL    HW1 7007   6.960   4.045   5.772
 2036SOL    HW2 7008   6.831   4.066   5.674
 2037SOL     OW 7009   0.829   2.278   6.833
 2037SOL    HW1 7010   0.916   2.250   6.792
 2037SOL    HW2 7011   0.833   2.262   6.931
 2038SOL     OW 7012   2.221   0.694   5.904
 2038SOL    HW1 7013   2.291   0.659   5.966
 2038SOL    HW2 7014   2.252   0.781   5.866
 2039SOL     OW 7015   5.109   5.848   4.146
 2039SOL    HW1 7016   5.190   5.890   4.105
 2039SOL    HW2 7017   5.039   5.917   4.160
 2040SOL     OW 7018   2.981   1.560   0.941
 2040SOL    HW1 7019   2.904   1.500   0.922
 2040SOL    HW2 7020   3.061   1.505   0.964
 2041SOL     OW 7021   2.383   0.091   6.535
 2041SOL    HW1 7022   2.327   0.162   6.577
 2041SOL    HW2 7023   2.433   0.129   6.457
 2042SOL     OW 7024   6.987   0.461   5.413
 2042SOL    HW1 7025   0.056   0.440   5.398
 2042SOL    HW2 7026   6.977   0.515   5.497
 2043SOL     OW 7027   1.532   3.178   0.705
 2043SOL    HW1 7028   1.461   3.221   0.650
 2043SOL    HW2 7029   1.499   3.168   0.799
 2044SOL     OW 7030   3.254   1.175   1.966
 2044SOL    HW1 7031   3.172   1.132   2.002
 2044SOL    HW2 7032   3.255   1.167   1.866
 2045SOL     OW 7033   1.672   6.490   3.851
 2045SOL    HW1 7034   1.607   6.430   3.805
 2045SOL    HW2 7035   1.733   6.532   3.784
 2046SOL     OW 7036   6.787   2.184   5.683
 2046SOL    HW1 7037   6.872   2.142   5.716
 2046SOL    HW2 7038   6.776   2.274   5.726
 2047SOL     OW 7039   6.504   0.276   2.180
 2047SOL    HW1 7040   6.459   0.263   2.268
 2047SOL    HW2 7041   6.535   0.188   2.145
 2048SOL     OW 7042   2.308   1.186   3.514
 2048SOL    HW1 7043   2.218   1.224   3.495
 2048SOL    HW2 7044   2.315   1.094   3.474
 2049SOL     OW 7045   4.511   2.301   5.064
 2049SOL    HW1 7046   4.574   2.378   5.073
 2049SOL    HW2 7047   4.550   2.233   5.002
 2050SOL     OW 7048   6.749   1.374   2.684
 2050SOL    HW1 7049   6.684   1.299   2.696
 2050SOL    HW2 7050   6.725   1.425   2.601
 2051SOL     OW 7051   3.508   6.982   6.329
 2051SOL    HW1 7052   3.486   7.019   6.239
 2051SOL    HW2 7053   3.605   6.957   6.331
 2052SOL     OW 7054   0.631   4.201   0.947
 2052SOL    HW1 7055   0.551   4.251   0.978
 2052SOL    HW2 7056   0.699   4.265   0.911
 2053SOL     OW 7057   4.819   4.785   1.553
 2053SOL    HW1 7058   4.724   4.776   1.584
 2053SOL    HW2 7059   4.875   4.716   1.598
 2054SOL     OW 7060   2.939   3.625   4.048
 2054SOL    HW1 7061   2.928   3.534   4.009
 2054SOL    HW2 7062   2.925   3.622   4.147
 2055SOL     OW 7063   2.943   3.009   5.835
 2055SOL    HW1 7064   2.961   3.103   5.804
 2055SOL    HW2 7065   2.849   2.984   5.812
 2056SOL     OW 7066   2.947   5.404   1.154
 2056SOL    HW1 7067   2.987   5.483   1.200
 2056SOL    HW2 7068   2.988   5.320   1.189
 2057SOL     OW 7069   6.187   3.166   4.589
 2057SOL    HW1 7070   6.260   3.178   4.521
 2057SOL    HW2 7071   6.098   3.178   4.544
 2058SOL     OW 7072   5.157   1.012   3.657
 2058SOL    HW1 7073   5.255   1.006   3.676
 2058SOL    HW2 7074   5.126   1.106   3.670
 2059SOL     OW 7075   2.996   1.687   5.799
 2059SOL    HW1 7076   2.989   1.727   5.891
 2059SOL    HW2 7077   3.093   1.673   5.776
 2060SOL     OW 7078   1.376   2.330   6.007
 2060SOL    HW1 7079   1.321   2.248   6.024
 2060SOL    HW2 7080   1.424   2.320   5.920
 2061SOL     OW 7081   2.645   2.383   3.267
 2061SOL    HW1 7082   2.565   2.325   3.252
 2061SOL    HW2 7083   2.724   2.325   3.289
 2062SOL     OW 7084   4.602   4.990   4.152
 2062SOL    HW1 7085   4.646   4.920   4.208
 2062SOL    HW2 7086   4.584   4.952   4.061
 2063SOL     OW 7087   1.177   1.407   4.191
 2063SOL    HW1 7088   1.272   1.376   4.186
 2063SOL    HW2 7089   1.127   1.351   4.257
 2064SOL     OW 7090   0.587   3.990   4.446
 2064SOL    HW1 7091   0.571   4.088   4.437
 2064SOL    HW2 7092   0.588   3.947   4.356
 2065SOL     OW 7093   3.118   3.049   5.384
 2065SOL    HW1 7094   3.025   3.066   5.350
 2065SOL    HW2 7095   3.151   3.130   5.432
 2066SOL     OW 7096   2.504   2.364   4.837
 2066SOL    HW1 7097   2.458   2.347   4.750
 2066SOL    HW2 7098   2.458   2.312   4.909
 2067SOL     OW 7099   5.678   4.886   3.059
 2067SOL    HW1 7100   5.775   4.869   3.072
 2067SOL    HW2 7101   5.629   4.865   3.143
 2068SOL     OW 7102   2.612   6.832   4.085
 2068SOL    HW1 7103   2.682   6.790   4.143
 2068SOL    HW2 7104   2.603   6.778   4.001
 2069SOL     OW 7105   5.141   1.735   2.847
 2069SOL    HW1 7106   5.162   1.716   2.943
 2069SOL    HW2 7107   5.214   1.790   2.807
 2070SOL     OW 7108   0.512   5.755   1.805
 2070SOL    HW1 7109   0.517   5.839   1.751
 2070SOL    HW2 7110   0.565   5.767   1.889
 2071SOL     OW 7111   6.988   2.756   3.691
 2071SOL    HW1 7112   6.914   2.693   3.715
 2071SOL    HW2 7113   6.950   2.836   3.645
 2072SOL     OW 7114   5.216   2.985   5.979
 2072SOL    HW1 7115   5.124   2.947   5.987
 2072SOL    HW2 7116   5.283   2.916   6.005
 2073SOL     OW 7117   3.160   5.986   6.667
 2073SOL    HW1 7118   3.149   5.895   6.708
 2073SOL    HW2 7119   3.117   6.055   6.725
 2074SOL     OW 7120   3.331   4.342   5.693
 2074SOL    HW1 7121   3.305   4.431   5.659
 2074SOL    HW2 7122   3.268   4.272   5.659
 2075SOL     OW 7123   4.774   0.936   1.111
 2075SOL    HW1 7124   4.844   0.958   1.043
 2075SOL    HW2 7125   4.817   0.907   1.196
 2076SOL     OW 7126   6.370   0.279   3.001
 2076SOL    HW1 7127   6.295   0.217   2.981
 2076SOL    HW2 7128   6.456   0.240   2.967
 2077SOL     OW 7129   0.767   4.493   1.550
 2077SOL    HW1 7130   0.677   4.482   1.506
 2077SOL    HW2 7131   0.806   4.403   1.568
 2078SOL     OW 7132   0.489   2.735   0.850
 2078SOL    HW1 7133   0.513   2.774   0.761
 2078SOL    HW2 7134   0.516   2.639   0.853
 2079SOL     OW 7135   4.682   1.725   3.994
 2079SOL    HW1 7136   4.633   1.671   3.926
 2079SOL    HW2 7137   4.758   1.772   3.951
 2080SOL     OW 7138   2.330   2.669   4.266
 2080SOL    HW1 7139   2.243   2.707   4.296
 2080SOL    HW2 7140   2.359   2.715   4.182
 2081SOL     OW 7141   0.314   6.006   2.588
 2081SOL    HW1 7142   0.350   5.975   2.676
 2081SOL    HW2 7143   0.275   6.098   2.599
 2082SOL     OW 7144   6.411   6.620   3.947
 2082SOL    HW1 7145   6.478   6.660   3.884
 2082SOL    HW2 7146   6.449   6.537   3.988
 2083SOL     OW 7147   1.329   5.792   2.897
 2083SOL    HW1 7148   1.260   5.757   2.961
 2083SOL    HW2 7149   1.285   5.829   2.816
 2084SOL     OW 7150   6.114   2.115   1.229
 2084SOL    HW1 7151   6.072   2.138   1.317
 2084SOL    HW2 7152   6.051   2.140   1.155
 2085SOL     OW 7153   6.668   4.792   6.629
 2085SOL    HW1 7154   6.584   4.739   6.642
 2085SOL    HW2 7155   6.644   4.886   6.604
 2086SOL     OW 7156   5.549   1.538   5.360
 2086SOL    HW1 7157   5.460   1.495   5.372
 2086SOL    HW2 7158   5.537   1.628   5.318
 2087SOL     OW 7159   4.834   1.362   5.941
 2087SOL    HW1 7160   4.902   1.325   5.877
 2087SOL    HW2 7161   4.745   1.321   5.922
 2088SOL     OW 7162   0.674   3.925   5.745
 2088SOL    HW1 7163   0.708   3.975   5.665
 2088SOL    HW2 7164   0.666   3.989   5.822
 2089SOL     OW 7165   3.112   5.404   4.025
 2089SOL    HW1 7166   3.101   5.468   4.102
 2089SOL    HW2 7167   3.025   5.357   4.010
 2090SOL     OW 7168   5.725   2.586   6.253
 2090SOL    HW1 7169   5.670   2.528   6.192
 2090SOL    HW2 7170   5.821   2.558   6.247
 2091SOL     OW 7171   5.660   0.230   0.550
 2091SOL    HW1 7172   5.704   0.174   0.479
 2091SOL    HW2 7173   5.652   0.324   0.518
 2092SOL     OW 7174   3.464   3.213   2.816
 2092SOL    HW1 7175   3.555   3.227   2.775
 2092SOL    HW2 7176   3.397   3.197   2.744
 2093SOL     OW 7177   5.727   6.965   6.849
 2093SOL    HW1 7178   5.629   6.966   6.829
 2093SOL    HW2 7179   5.754   6.872   6.876
 2094SOL     OW 7180   4.434   2.787   0.842
 2094SOL    HW1 7181   4.444   2.751   0.935
 2094SOL    HW2 7182   4.505   2.856   0.826
 2095SOL     OW 7183   3.817   5.771   4.765
 2095SOL    HW1 7184   3.782   5.844   4.824
 2095SOL    HW2 7185   3.869   5.706   4.820
 2096SOL     OW 7186   3.289   0.623   3.191
 2096SOL    HW1 7187   3.378   0.579   3.180
 2096SOL    HW2 7188   3.228   0.562   3.241
 2097SOL     OW 7189   2.750   5.507   5.819
 2097SOL    HW1 7190   2.771   5.508   5.917
 2097SOL    HW2 7191   2.767   5.598   5.781
 2098SOL     OW 7192   1.379   6.990   4.153
 2098SOL    HW1 7193   1.477   6.978   4.140
 2098SOL    HW2 7194   1.359   6.999   4.251
 2099SOL     OW 7195   4.572   1.825   6.507
 2099SOL    HW1 7196   4.665   1.861   6.515
 2099SOL    HW2 7197   4.568   1.759   6.432
 2100SOL     OW 7198   4.995   0.078   0.772
 2100SOL    HW1 7199   4.984   0.060   0.675
 2100SOL    HW2 7200   5.068   0.020   0.809
 2101SOL     OW 7201   0.714   0.239   3.047
 2101SOL    HW1 7202   0.676   0.151   3.019
 2101SOL    HW2 7203   0.656   0.313   3.013
 2102SOL     OW 7204   3.605   2.874   2.983
 2102SOL    HW1 7205   3.596   2.878   2.883
 2102SOL    HW2 7206   3.521   2.909   3.026
 2103SOL     OW 7207   1.438   0.347   1.512
 2103SOL    HW1 7208   1.516   0.305   1.557
 2103SOL    HW2 7209   1.464   0.379   1.421
 2104SOL     OW 7210   1.009   4.665   2.565
 2104SOL    HW1 7211   1.045   4.574   2.586
 2104SOL    HW2 7212   0.930   4.684   2.624
 2105SOL     OW 7213   5.573   6.214   5.801
 2105SOL    HW1 7214   5.497   6.155   5.830
 2105SOL    HW2 7215   5.657   6.185   5.848
 2106SOL     OW 7216   3.442   3.997   1.084
 2106SOL    HW1 7217   3.437   4.062   1.008
 2106SOL    HW2 7218   3.493   3.916   1.054
 2107SOL     OW 7219   6.104   4.090   4.285
 2107SOL    HW1 7220   6.106   4.086   4.185
 2107SOL    HW2 7221   6.026   4.038   4.319
 2108SOL     OW 7222   3.976   6.353   5.187
 2108SOL    HW1 7223   3.900   6.316   5.241
 2108SOL    HW2 7224   4.059   6.353   5.242
 2109SOL     OW 7225   2.363   6.475   2.407
 2109SOL    HW1 7226   2.299   6.399   2.400
 2109SOL    HW2 7227   2.385   6.509   2.316
 2110SOL     OW 7228   3.980   5.970   0.491
 2110SOL    HW1 7229   3.971   5.870   0.486
 2110SOL    HW2 7230   3.916   6.012   0.427
 2111SOL     OW 7231   0.757   2.596   0.527
 2111SOL    HW1 7232   0.825   2.549   0.583
 2111SOL    HW2 7233   0.738   2.686   0.566
 2112SOL     OW 7234   0.191   0.088   6.271
 2112SOL    HW1 7235   0.290   0.076   6.277
 2112SOL    HW2 7236   0.169   0.155   6.199
 2113SOL     OW 7237   6.896   1.642   4.171
 2113SOL    HW1 7238   6.961   1.593   4.113
 2113SOL    HW2 7239   6.809   1.650   4.123
 2114SOL     OW 7240   2.732   0.661   5.452
 2114SOL    HW1 7241   2.673   0.670   5.372
 2114SOL    HW2 7242   2.771   0.751   5.474
 2115SOL     OW 7243   0.230   0.233   4.415
 2115SOL    HW1 7244   0.219   0.182   4.500
 2115SOL    HW2 7245   0.157   0.301   4.406
 2116SOL     OW 7246   2.676   6.564   6.766
 2116SOL    HW1 7247   2.638   6.475   6.741
 2116SOL    HW2 7248   2.750   6.551   6.832
 2117SOL     OW 7249   6.861   3.193   0.956
 2117SOL    HW1 7250   6.802   3.128   0.908
 2117SOL    HW2 7251   6.808   3.242   1.025
 2118SOL     OW 7252   0.089   3.573   2.932
 2118SOL    HW1 7253   0.179   3.530   2.931
 2118SOL    HW2 7254   0.041   3.551   2.847
 2119SOL     OW 7255   1.822   2.586   6.840
 2119SOL    HW1 7256   1.918   2.565   6.821
 2119SOL    HW2 7257   1.781   2.628   6.759
 2120SOL     OW 7258   5.948   1.312   0.556
 2120SOL    HW1 7259   6.046   1.326   0.572
 2120SOL    HW2 7260   5.935   1.264   0.469
 2121SOL     OW 7261   2.326   6.121   2.249
 2121SOL    HW1 7262   2.276   6.097   2.165
 2121SOL    HW2 7263   2.262   6.160   2.315
 2122SOL     OW 7264   0.142   1.977   5.288
 2122SOL    HW1 7265   0.181   1.885   5.283
 2122SOL    HW2 7266   0.077   1.989   5.212
 2123SOL     OW 7267   1.045   4.245   3.149
 2123SOL    HW1 7268   1.084   4.199   3.228
 2123SOL    HW2 7269   1.109   4.237   3.072
 2124SOL     OW 7270   5.792   3.377   6.370
 2124SOL    HW1 7271   5.737   3.397   6.289
 2124SOL    HW2 7272   5.886   3.358   6.343
 2125SOL     OW 7273   2.494   5.389   5.895
 2125SOL    HW1 7274   2.416   5.375   5.834
 2125SOL    HW2 7275   2.563   5.445   5.849
 2126SOL     OW 7276   2.219   6.141   1.997
 2126SOL    HW1 7277   2.278   6.096   1.930
 2126SOL    HW2 7278   2.223   6.240   1.984
 2127SOL     OW 7279   1.767   3.431   4.025
 2127SOL    HW1 7280   1.730   3.345   4.061
 2127SOL    HW2 7281   1.867   3.429   4.033
 2128SOL     OW 7282   5.524   2.860   0.915
 2128SOL    HW1 7283   5.508   2.775   0.864
 2128SOL    HW2 7284   5.518   2.842   1.013
 2129SOL     OW 7285   5.454   5.086   4.100
 2129SOL    HW1 7286   5.515   5.138   4.041
 2129SOL    HW2 7287   5.456   5.124   4.192
 2130SOL     OW 7288   2.529   0.459   2.728
 2130SOL    HW1 7289   2.541   0.364   2.701
 2130SOL    HW2 7290   2.607   0.513   2.695
 2131SOL     OW 7291   5.909   6.703   6.282
 2131SOL    HW1 7292   5.829   6.757   6.308
 2131SOL    HW2 7293   5.889   6.606   6.294
 2132SOL     OW 7294   2.935   1.824   0.853
 2132SOL    HW1 7295   2.844   1.857   0.878
 2132SOL    HW2 7296   2.954   1.740   0.904
 2133SOL     OW 7297   3.570   3.135   2.071
 2133SOL    HW1 7298   3.626   3.184   2.004
 2133SOL    HW2 7299   3.605   3.042   2.082
 2134SOL     OW 7300   2.577   6.731   4.665
 2134SOL    HW1 7301   2.517   6.723   4.744
 2134SOL    HW2 7302   2.536   6.793   4.598
 2135SOL     OW 7303   0.022   5.612   4.020
 2135SOL    HW1 7304   7.025   5.602   3.923
 2135SOL    HW2 7305   0.067   5.700   4.034
 2136SOL     OW 7306   0.146   4.603   3.500
 2136SOL    HW1 7307   0.161   4.526   3.438
 2136SOL    HW2 7308   0.100   4.677   3.451
 2137SOL     OW 7309   6.930   0.189   4.461
 2137SOL    HW1 7310   6.887   0.267   4.508
 2137SOL    HW2 7311   6.872   0.162   4.384
 2138SOL     OW 7312   0.820   2.038   0.238
 2138SOL    HW1 7313   0.794   2.125   0.195
 2138SOL    HW2 7314   0.866   2.056   0.325
 2139SOL     OW 7315   3.964   6.412   4.544
 2139SOL    HW1 7316   3.982   6.322   4.584
 2139SOL    HW2 7317   4.024   6.426   4.465
 2140SOL     OW 7318   1.035   5.825   3.498
 2140SOL    HW1 7319   0.961   5.891   3.511
 2140SOL    HW2 7320   0.999   5.732   3.504
 2141SOL     OW 7321   0.041   0.491   6.779
 2141SOL    HW1 7322   0.045   0.589   6.801
 2141SOL    HW2 7323   7.012   0.478   6.698
 2142SOL     OW 7324   4.136   1.194   2.903
 2142SOL    HW1 7325   4.135   1.204   3.003
 2142SOL    HW2 7326   4.130   1.097   2.879
 2143SOL     OW 7327   3.456   5.325   0.108
 2143SOL    HW1 7328   3.501   5.335   0.019
 2143SOL    HW2 7329   3.519   5.353   0.180
 2144SOL     OW 7330   1.044   1.557   1.824
 2144SOL    HW1 7331   1.005   1.503   1.750
 2144SOL    HW2 7332   1.070   1.497   1.900
 2145SOL     OW 7333   2.546   6.101   3.190
 2145SOL    HW1 7334   2.636   6.140   3.171
 2145SOL    HW2 7335   2.475   6.163   3.156
 2146SOL     OW 7336   3.099   1.982   1.490
 2146SOL    HW1 7337   3.100   1.963   1.589
 2146SOL    HW2 7338   3.096   2.080   1.476
 2147SOL     OW 7339   6.955   0.443   3.869
 2147SOL    HW1 7340   6.885   0.428   3.939
 2147SOL    HW2 7341   6.979   0.540   3.867
 2148SOL     OW 7342   6.669   4.814   3.840
 2148SOL    HW1 7343   6.602   4.872   3.794
 2148SOL    HW2 7344   6.705   4.863   3.920
 2149SOL     OW 7345   2.013   1.446   2.200
 2149SOL    HW1 7346   2.016   1.473   2.104
 2149SOL    HW2 7347   1.923   1.407   2.221
 2150SOL     OW 7348   5.670   1.005   3.397
 2150SOL    HW1 7349   5.586   0.969   3.358
 2150SOL    HW2 7350   5.730   0.929   3.424
 2151SOL     OW 7351   4.802   4.788   5.363
 2151SOL    HW1 7352   4.806   4.818   5.458
 2151SOL    HW2 7353   4.731   4.718   5.353
 2152SOL     OW 7354   6.928   6.305   2.708
 2152SOL    HW1 7355   6.922   6.239   2.633
 2152SOL    HW2 7356   6.973   6.263   2.786
 2153SOL     OW 7357   4.234   2.284   3.550
 2153SOL    HW1 7358   4.254   2.191   3.518
 2153SOL    HW2 7359   4.284   2.350   3.494
 2154SOL     OW 7360   4.276   0.530   3.693
 2154SOL    HW1 7361   4.375   0.513   3.692
 2154SOL    HW2 7362   4.256   0.611   3.637
 2155SOL     OW 7363   5.795   3.378   0.838
 2155SOL    HW1 7364   5.767   3.414   0.748
 2155SOL    HW2 7365   5.877   3.322   0.828
 2156SOL     OW 7366   6.158   5.395   2.825
 2156SOL    HW1 7367   6.059   5.405   2.832
 2156SOL    HW2 7368   6.193   5.353   2.909
 2157SOL     OW 7369   5.040   1.551   4.537
 2157SOL    HW1 7370   4.941   1.545   4.540
 2157SOL    HW2 7371   5.067   1.640   4.499
 2158SOL     OW 7372   4.757   1.012   3.645
 2158SOL    HW1 7373   4.703   1.011   3.561
 2158SOL    HW2 7374   4.748   0.924   3.691
 2159SOL     OW 7375   2.442   1.705   4.711
 2159SOL    HW1 7376   2.365   1.653   4.747
 2159SOL    HW2 7377   2.416   1.800   4.699
 2160SOL     OW 7378   2.108   4.150   1.188
 2160SOL    HW1 7379   2.079   4.057   1.166
 2160SOL    HW2 7380   2.204   4.161   1.161
 2161SOL     OW 7381   4.404   2.473   2.005
 2161SOL    HW1 7382   4.331   2.458   2.072
 2161SOL    HW2 7383   4.475   2.404   2.017
 2162SOL     OW 7384   1.535   1.294   2.487
 2162SOL    HW1 7385   1.509   1.340   2.572
 2162SOL    HW2 7386   1.607   1.228   2.506
 2163SOL     OW 7387   4.859   1.242   0.868
 2163SOL    HW1 7388   4.888   1.337   0.856
 2163SOL    HW2 7389   4.817   1.230   0.957
 2164SOL     OW 7390   6.319   6.938   2.743
 2164SOL    HW1 7391   6.376   7.000   2.690
 2164SOL    HW2 7392   6.236   6.917   2.691
 2165SOL     OW 7393   2.048   6.963   2.076
 2165SOL    HW1 7394   2.068   0.005   2.144
 2165SOL    HW2 7395   2.012   6.882   2.121
 2166SOL     OW 7396   5.889   2.613   5.262
 2166SOL    HW1 7397   5.945   2.612   5.345
 2166SOL    HW2 7398   5.803   2.662   5.281
 2167SOL     OW 7399   3.338   1.187   1.333
 2167SOL    HW1 7400   3.382   1.218   1.249
 2167SOL    HW2 7401   3.291   1.264   1.376
 2168SOL     OW 7402   5.564   6.247   4.370
 2168SOL    HW1 7403   5.586   6.326   4.427
 2168SOL    HW2 7404   5.493   6.273   4.305
 2169SOL     OW 7405   4.956   2.744   5.614
 2169SOL    HW1 7406   4.943   2.799   5.531
 2169SOL    HW2 7407   5.008   2.662   5.591
 2170SOL     OW 7408   4.876   5.603   4.514
 2170SOL    HW1 7409   4.902   5.687   4.562
 2170SOL    HW2 7410   4.804   5.556   4.566
 2171SOL     OW 7411   0.304   2.932   0.421
 2171SOL    HW1 7412   0.370   2.990   0.373
 2171SOL    HW2 7413   0.260   2.871   0.355
 2172SOL     OW 7414   2.392   0.843   3.589
 2172SOL    HW1 7415   2.423   0.755   3.555
 2172SOL    HW2 7416   2.346   0.893   3.516
 2173SOL     OW 7417   4.328   1.973   4.587
 2173SOL    HW1 7418   4.233   1.999   4.608
 2173SOL    HW2 7419   4.350   1.888   4.634
 2174SOL     OW 7420   1.469   5.963   5.628
 2174SOL    HW1 7421   1.434   5.869   5.631
 2174SOL    HW2 7422   1.394   6.027   5.639
 2175SOL     OW 7423   0.653   0.561   0.001
 2175SOL    HW1 7424   0.703   0.591   0.082
 2175SOL    HW2 7425   0.714   0.565   6.950
 2176SOL     OW 7426   2.215   2.014   2.778
 2176SOL    HW1 7427   2.156   1.972   2.709
 2176SOL    HW2 7428   2.285   1.949   2.807
 2177SOL     OW 7429   0.948   1.824   1.790
 2177SOL    HW1 7430   0.857   1.805   1.826
 2177SOL    HW2 7431   1.009   1.748   1.813
 2178SOL     OW 7432   6.411   5.587   0.523
 2178SOL    HW1 7433   6.452   5.622   0.439
 2178SOL    HW2 7434   6.483   5.564   0.588
 2179SOL     OW 7435   2.108   3.619   3.667
 2179SOL    HW1 7436   2.121   3.698   3.728
 2179SOL    HW2 7437   2.177   3.550   3.688
 2180SOL     OW 7438   2.977   3.421   2.820
 2180SOL    HW1 7439   3.003   3.374   2.904
 2180SOL    HW2 7440   3.027   3.508   2.813
 2181SOL     OW 7441   4.018   6.279   1.359
 2181SOL    HW1 7442   3.988   6.184   1.359
 2181SOL    HW2 7443   3.989   6.322   1.273
 2182SOL     OW 7444   4.556   4.031   7.022
 2182SOL    HW1 7445   4.609   3.947   7.012
 2182SOL    HW2 7446   4.460   4.008   0.013
 2183SOL     OW 7447   4.630   2.308   1.981
 2183SOL    HW1 7448   4.701   2.325   2.049
 2183SOL    HW2 7449   4.670   2.267   1.900
 2184SOL     OW 7450   4.157   2.580   5.951
 2184SOL    HW1 7451   4.163   2.679   5.967
 2184SOL    HW2 7452   4.167   2.532   6.039
 2185SOL     OW 7453   6.869   7.020   2.106
 2185SOL    HW1 7454   6.867   6.964   2.189
 2185SOL    HW2 7455   6.907   0.082   2.128
 2186SOL     OW 7456   6.391   4.859   2.702
 2186SOL    HW1 7457   6.408   4.798   2.780
 2186SOL    HW2 7458   6.438   4.823   2.621
 2187SOL     OW 7459   6.670   0.049   6.700
 2187SOL    HW1 7460   6.610   0.020   6.626
 2187SOL    HW2 7461   6.616   0.091   6.773
 2188SOL     OW 7462   4.487   2.515   3.783
 2188SOL    HW1 7463   4.389   2.535   3.786
 2188SOL    HW2 7464   4.523   2.540   3.692
 2189SOL     OW 7465   3.359   0.141   6.101
 2189SOL    HW1 7466   3.315   0.148   6.190
 2189SOL    HW2 7467   3.333   0.219   6.045
 2190SOL     OW 7468   6.359   3.332   1.263
 2190SOL    HW1 7469   6.383   3.337   1.360
 2190SOL    HW2 7470   6.424   3.386   1.210
 2191SOL     OW 7471   3.188   0.261   0.208
 2191SOL    HW1 7472   3.133   0.179   0.224
 2191SOL    HW2 7473   3.278   0.249   0.251
 2192SOL     OW 7474   4.141   6.420   2.167
 2192SOL    HW1 7475   4.089   6.389   2.087
 2192SOL    HW2 7476   4.191   6.343   2.206
 2193SOL     OW 7477   0.264   6.484   4.171
 2193SOL    HW1 7478   0.314   6.552   4.225
 2193SOL    HW2 7479   0.326   6.411   4.142
 2194SOL     OW 7480   2.264   0.277   2.738
 2194SOL    HW1 7481   2.229   0.222   2.662
 2194SOL    HW2 7482   2.338   0.228   2.784
 2195SOL     OW 7483   0.366   4.655   2.904
 2195SOL    HW1 7484   0.460   4.623   2.917
 2195SOL    HW2 7485   0.313   4.582   2.860
 2196SOL     OW 7486   4.479   3.904   6.455
 2196SOL    HW1 7487   4.510   3.913   6.549
 2196SOL    HW2 7488   4.380   3.890   6.453
 2197SOL     OW 7489   4.865   3.233   0.758
 2197SOL    HW1 7490   4.947   3.282   0.728
 2197SOL    HW2 7491   4.888   3.175   0.837
 2198SOL     OW 7492   0.947   4.785   6.767
 2198SOL    HW1 7493   0.945   4.882   6.742
 2198SOL    HW2 7494   0.961   4.776   6.866
 2199SOL     OW 7495   3.257   1.986   3.951
 2199SOL    HW1 7496   3.300   1.915   4.008
 2199SOL    HW2 7497   3.306   1.993   3.864
 2200SOL     OW 7498   4.557   1.052   3.992
 2200SOL    HW1 7499   4.561   0.961   4.033
 2200SOL    HW2 7500   4.636   1.106   4.021
 2201SOL     OW 7501   5.039   5.426   3.609
 2201SOL    HW1 7502   5.027   5.396   3.704
 2201SOL    HW2 7503   5.136   5.431   3.588
 2202SOL     OW 7504   4.702   6.275   3.875
 2202SOL    HW1 7505   4.784   6.327   3.902
 2202SOL    HW2 7506   4.726   6.179   3.865
 2203SOL     OW 7507   2.124   2.228   3.155
 2203SOL    HW1 7508   2.147   2.156   3.221
 2203SOL    HW2 7509   2.052   2.195   3.094
 2204SOL     OW 7510   4.427   1.925   0.829
 2204SOL    HW1 7511   4.484   1.894   0.905
 2204SOL    HW2 7512   4.331   1.924   0.857
 2205SOL     OW 7513   3.694   6.960   2.286
 2205SOL    HW1 7514   3.668   0.028   2.290
 2205SOL    HW2 7515   3.644   6.915   2.212
 2206SOL     OW 7516   1.471   5.083   0.266
 2206SOL    HW1 7517   1.436   5.078   0.172
 2206SOL    HW2 7518   1.466   4.993   0.308
 2207SOL     OW 7519   6.698   3.840   5.275
 2207SOL    HW1 7520   6.625   3.789   5.321
 2207SOL    HW2 7521   6.786   3.813   5.314
 2208SOL     OW 7522   0.125   5.447   2.128
 2208SOL    HW1 7523   0.173   5.362   2.152
 2208SOL    HW2 7524   0.040   5.454   2.180
 2209SOL     OW 7525   6.855   0.158   2.453
 2209SOL    HW1 7526   6.848   0.225   2.378
 2209SOL    HW2 7527   6.839   0.066   2.417
 2210SOL     OW 7528   2.609   4.583   3.624
 2210SOL    HW1 7529   2.691   4.612   3.674
 2210SOL    HW2 7530   2.623   4.601   3.526
 2211SOL     OW 7531   5.673   0.989   5.360
 2211SOL    HW1 7532   5.592   1.028   5.403
 2211SOL    HW2 7533   5.717   0.926   5.424
 2212SOL     OW 7534   2.366   5.956   6.295
 2212SOL    HW1 7535   2.285   5.896   6.295
 2212SOL    HW2 7536   2.369   6.007   6.381
 2213SOL     OW 7537   4.370   1.037   3.138
 2213SOL    HW1 7538   4.452   0.996   3.179
 2213SOL    HW2 7539   4.394   1.079   3.051
 2214SOL     OW 7540   4.101   6.780   3.753
 2214SOL    HW1 7541   4.172   6.760   3.820
 2214SOL    HW2 7542   4.138   6.768   3.660
 2215SOL     OW 7543   5.811   2.636   6.545
 2215SOL    HW1 7544   5.769   2.561   6.596
 2215SOL    HW2 7545   5.789   2.626   6.448
 2216SOL     OW 7546   3.244   1.086   2.438
 2216SOL    HW1 7547   3.239   0.990   2.463
 2216SOL    HW2 7548   3.281   1.139   2.515
 2217SOL     OW 7549   2.909   6.527   1.154
 2217SOL    HW1 7550   2.914   6.428   1.146
 2217SOL    HW2 7551   2.911   6.568   1.063
 2218SOL     OW 7552   5.931   1.167   2.123
 2218SOL    HW1 7553   5.973   1.156   2.032
 2218SOL    HW2 7554   5.949   1.085   2.177
 2219SOL     OW 7555   1.938   2.307   3.470
 2219SOL    HW1 7556   1.923   2.356   3.384
 2219SOL    HW2 7557   1.919   2.210   3.457
 2220SOL     OW 7558   2.060   6.422   3.643
 2220SOL    HW1 7559   2.148   6.455   3.608
 2220SOL    HW2 7560   2.042   6.330   3.607
 2221SOL     OW 7561   6.899   0.283   4.788
 2221SOL    HW1 7562   6.997   0.288   4.770
 2221SOL    HW2 7563   6.882   0.224   4.867
 2222SOL     OW 7564   5.165   6.035   3.230
 2222SOL    HW1 7565   5.105   6.020   3.308
 2222SOL    HW2 7566   5.260   6.042   3.262
 2223SOL     OW 7567   5.904   6.817   2.048
 2223SOL    HW1 7568   5.897   6.895   2.111
 2223SOL    HW2 7569   5.847   6.742   2.083
 2224SOL     OW 7570   0.362   5.835   1.425
 2224SOL    HW1 7571   0.443   5.788   1.391
 2224SOL    HW2 7572   0.299   5.769   1.465
 2225SOL     OW 7573   0.480   5.012   1.751
 2225SOL    HW1 7574   0.400   5.000   1.810
 2225SOL    HW2 7575   0.462   5.086   1.685
 2226SOL     OW 7576   3.442   3.801   3.612
 2226SOL    HW1 7577   3.492   3.778   3.696
 2226SOL    HW2 7578   3.459   3.896   3.588
 2227SOL     OW 7579   1.729   1.668   5.523
 2227SOL    HW1 7580   1.647   1.645   5.471
 2227SOL    HW2 7581   1.713   1.753   5.575
 2228SOL     OW 7582   1.216   4.359   4.146
 2228SOL    HW1 7583   1.236   4.263   4.166
 2228SOL    HW2 7584   1.189   4.405   4.230
 2229SOL     OW 7585   5.694   5.538   2.351
 2229SOL    HW1 7586   5.648   5.549   2.439
 2229SOL    HW2 7587   5.689   5.443   2.322
 2230SOL     OW 7588   1.653   5.297   2.769
 2230SOL    HW1 7589   1.661   5.375   2.831
 2230SOL    HW2 7590   1.556   5.275   2.756
 2231SOL     OW 7591   1.984   6.470   0.754
 2231SOL    HW1 7592   2.037   6.433   0.831
 2231SOL    HW2 7593   2.047   6.510   0.687
 2232SOL     OW 7594   6.426   3.016   3.599
 2232SOL    HW1 7595   6.474   3.036   3.513
 2232SOL    HW2 7596   6.329   3.002   3.580
 2233SOL     OW 7597   3.888   1.952   0.579
 2233SOL    HW1 7598   3.840   1.869   0.551
 2233SOL    HW2 7599   3.829   2.031   0.565
 2234SOL     OW 7600   4.354   2.702   1.398
 2234SOL    HW1 7601   4.346   2.712   1.498
 2234SOL    HW2 7602   4.421   2.631   1.377
 2235SOL     OW 7603   1.962   3.590   1.883
 2235SOL    HW1 7604   2.029   3.616   1.952
 2235SOL    HW2 7605   1.959   3.659   1.811
 2236SOL     OW 7606   1.533   3.652   5.081
 2236SOL    HW1 7607   1.480   3.671   5.164
 2236SOL    HW2 7608   1.470   3.633   5.006
 2237SOL     OW 7609   5.846   2.320   3.333
 2237SOL    HW1 7610   5.915   2.247   3.322
 2237SOL    HW2 7611   5.768   2.301   3.273
 2238SOL     OW 7612   4.883   6.207   6.622
 2238SOL    HW1 7613   4.853   6.302   6.626
 2238SOL    HW2 7614   4.846   6.164   6.539
 2239SOL     OW 7615   6.588   5.707   1.071
 2239SOL    HW1 7616   6.566   5.609   1.073
 2239SOL    HW2 7617   6.543   5.750   0.993
 2240SOL     OW 7618   0.465   3.976   1.591
 2240SOL    HW1 7619   0.543   3.985   1.529
 2240SOL    HW2 7620   0.478   3.896   1.650
 2241SOL     OW 7621   0.294   0.386   3.596
 2241SOL    HW1 7622   0.324   0.375   3.501
 2241SOL    HW2 7623   0.350   0.330   3.656
 2242SOL     OW 7624   2.197   1.366   3.225
 2242SOL    HW1 7625   2.105   1.396   3.200
 2242SOL    HW2 7626   2.200   1.267   3.231
 2243SOL     OW 7627   1.460   0.616   4.167
 2243SOL    HW1 7628   1.501   0.553   4.234
 2243SOL    HW2 7629   1.410   0.564   4.099
 2244SOL     OW 7630   3.426   0.858   3.865
 2244SOL    HW1 7631   3.491   0.782   3.869
 2244SOL    HW2 7632   3.365   0.845   3.787
 2245SOL     OW 7633   7.025   1.426   1.006
 2245SOL    HW1 7634   6.983   1.512   0.977
 2245SOL    HW2 7635   6.961   1.373   1.061
 2246SOL     OW 7636   0.823   4.557   4.716
 2246SOL    HW1 7637   0.787   4.535   4.807
 2246SOL    HW2 7638   0.911   4.512   4.703
 2247SOL     OW 7639   2.090   2.048   3.686
 2247SOL    HW1 7640   2.048   2.120   3.742
 2247SOL    HW2 7641   2.142   2.090   3.612
 2248SOL     OW 7642   5.188   4.348   5.821
 2248SOL    HW1 7643   5.127   4.302   5.884
 2248SOL    HW2 7644   5.137   4.414   5.765
 2249SOL     OW 7645   5.560   6.192   5.352
 2249SOL    HW1 7646   5.654   6.165   5.370
 2249SOL    HW2 7647   5.520   6.233   5.434
 2250SOL     OW 7648   4.667   4.985   2.579
 2250SOL    HW1 7649   4.761   4.960   2.557
 2250SOL    HW2 7650   4.614   4.994   2.495
 2251SOL     OW 7651   0.515   1.650   5.751
 2251SOL    HW1 7652   0.497   1.696   5.838
 2251SOL    HW2 7653   0.497   1.713   5.675
 2252SOL     OW 7654   4.529   0.963   5.853
 2252SOL    HW1 7655   4.435   0.984   5.877
 2252SOL    HW2 7656   4.589   0.985   5.930
 2253SOL     OW 7657   0.280   4.140   1.213
 2253SOL    HW1 7658   0.188   4.172   1.237
 2253SOL    HW2 7659   0.273   4.066   1.147
 2254SOL     OW 7660   1.778   5.674   5.453
 2254SOL    HW1 7661   1.856   5.627   5.413
 2254SOL    HW2 7662   1.721   5.608   5.502
 2255SOL     OW 7663   6.994   4.192   6.548
 2255SOL    HW1 7664   0.065   4.177   6.546
 2255SOL    HW2 7665   6.948   4.111   6.583
 2256SOL     OW 7666   2.657   5.685   2.612
 2256SOL    HW1 7667   2.730   5.654   2.674
 2256SOL    HW2 7668   2.672   5.647   2.521
 2257SOL     OW 7669   0.558   5.125   6.286
 2257SOL    HW1 7670   0.575   5.158   6.379
 2257SOL    HW2 7671   0.623   5.167   6.223
 2258SOL     OW 7672   1.907   6.601   6.023
 2258SOL    HW1 7673   1.888   6.665   6.096
 2258SOL    HW2 7674   1.836   6.530   6.021
 2259SOL     OW 7675   6.003   1.819   6.401
 2259SOL    HW1 7676   5.928   1.825   6.466
 2259SOL    HW2 7677   6.046   1.909   6.392
 2260SOL     OW 7678   4.782   3.212   1.712
 2260SOL    HW1 7679   4.732   3.240   1.629
 2260SOL    HW2 7680   4.720   3.161   1.771
 2261SOL     OW 7681   1.845   6.295   5.596
 2261SOL    HW1 7682   1.855   6.304   5.497
 2261SOL    HW2 7683   1.898   6.217   5.629
 2262SOL     OW 7684   2.805   1.747   4.938
 2262SOL    HW1 7685   2.752   1.800   4.871
 2262SOL    HW2 7686   2.843   1.666   4.895
 2263SOL     OW 7687   0.614   4.802   6.316
 2263SOL    HW1 7688   0.670   4.782   6.397
 2263SOL    HW2 7689   0.598   4.900   6.309
 2264SOL     OW 7690   3.172   3.109   4.088
 2264SOL    HW1 7691   3.142   3.076   4.177
 2264SOL    HW2 7692   3.225   3.193   4.100
 2265SOL     OW 7693   0.120   6.314   4.015
 2265SOL    HW1 7694   0.169   6.392   4.054
 2265SOL    HW2 7695   0.042   6.292   4.072
 2266SOL     OW 7696   6.967   0.008   5.074
 2266SOL    HW1 7697   6.915   7.016   5.157
 2266SOL    HW2 7698   7.026   0.087   5.090
 2267SOL     OW 7699   6.511   1.809   4.843
 2267SOL    HW1 7700   6.416   1.794   4.871
 2267SOL    HW2 7701   6.565   1.728   4.866
 2268SOL     OW 7702   0.931   0.139   0.405
 2268SOL    HW1 7703   0.845   0.094   0.378
 2268SOL    HW2 7704   1.008   0.081   0.378
 2269SOL     OW 7705   6.895   6.144   2.487
 2269SOL    HW1 7706   6.931   6.076   2.423
 2269SOL    HW2 7707   6.797   6.127   2.503
 2270SOL     OW 7708   3.076   3.357   3.094
 2270SOL    HW1 7709   3.042   3.339   3.186
 2270SOL    HW2 7710   3.166   3.399   3.099
 2271SOL     OW 7711   1.353   3.622   2.512
 2271SOL    HW1 7712   1.292   3.657   2.583
 2271SOL    HW2 7713   1.306   3.627   2.423
 2272SOL     OW 7714   4.514   0.595   6.019
 2272SOL    HW1 7715   4.522   0.613   5.921
 2272SOL    HW2 7716   4.488   0.679   6.066
 2273SOL     OW 7717   6.864   1.277   1.820
 2273SOL    HW1 7718   6.917   1.260   1.902
 2273SOL    HW2 7719   6.858   1.193   1.766
 2274SOL     OW 7720   6.286   4.731   3.303
 2274SOL    HW1 7721   6.327   4.818   3.332
 2274SOL    HW2 7722   6.200   4.717   3.352
 2275SOL     OW 7723   4.162   6.615   4.006
 2275SOL    HW1 7724   4.097   6.539   4.003
 2275SOL    HW2 7725   4.167   6.650   4.100
 2276SOL     OW 7726   3.989   6.047   3.953
 2276SOL    HW1 7727   3.895   6.017   3.935
 2276SOL    HW2 7728   4.052   5.973   3.933
 2277SOL     OW 7729   3.323   2.879   2.692
 2277SOL    HW1 7730   3.277   2.967   2.677
 2277SOL    HW2 7731   3.391   2.864   2.620
 2278SOL     OW 7732   4.208   5.211   1.966
 2278SOL    HW1 7733   4.125   5.253   2.003
 2278SOL    HW2 7734   4.259   5.278   1.913
 2279SOL     OW 7735   6.209   4.504   5.674
 2279SOL    HW1 7736   6.124   4.556   5.659
 2279SOL    HW2 7737   6.265   4.508   5.592
 2280SOL     OW 7738   5.975   0.775   5.558
 2280SOL    HW1 7739   5.926   0.751   5.474
 2280SOL    HW2 7740   6.032   0.699   5.587
 2281SOL     OW 7741   2.187   0.354   0.359
 2281SOL    HW1 7742   2.121   0.327   0.288
 2281SOL    HW2 7743   2.226   0.443   0.335
 2282SOL     OW 7744   3.364   0.093   2.604
 2282SOL    HW1 7745   3.425   0.139   2.539
 2282SOL    HW2 7746   3.410   0.012   2.640
 2283SOL     OW 7747   1.216   3.005   1.026
 2283SOL    HW1 7748   1.201   2.931   1.091
 2283SOL    HW2 7749   1.163   3.085   1.053
 2284SOL     OW 7750   1.665   2.816   1.077
 2284SOL    HW1 7751   1.700   2.724   1.096
 2284SOL    HW2 7752   1.581   2.809   1.022
 2285SOL     OW 7753   2.678   2.946   0.424
 2285SOL    HW1 7754   2.684   2.911   0.517
 2285SOL    HW2 7755   2.770   2.949   0.384
 2286SOL     OW 7756   6.206   5.418   4.230
 2286SOL    HW1 7757   6.234   5.471   4.150
 2286SOL    HW2 7758   6.213   5.474   4.312
 2287SOL     OW 7759   2.937   2.073   1.197
 2287SOL    HW1 7760   2.989   2.027   1.269
 2287SOL    HW2 7761   2.967   2.040   1.108
 2288SOL     OW 7762   3.257   5.553   4.461
 2288SOL    HW1 7763   3.341   5.591   4.422
 2288SOL    HW2 7764   3.207   5.626   4.508
 2289SOL     OW 7765   3.933   7.007   5.379
 2289SOL    HW1 7766   3.853   6.969   5.426
 2289SOL    HW2 7767   3.908   0.063   5.332
 2290SOL     OW 7768   2.097   4.043   6.701
 2290SOL    HW1 7769   2.086   4.142   6.709
 2290SOL    HW2 7770   2.133   4.021   6.611
 2291SOL     OW 7771   3.782   2.182   0.476
 2291SOL    HW1 7772   3.872   2.225   0.484
 2291SOL    HW2 7773   3.720   2.224   0.542
 2292SOL     OW 7774   5.040   1.972   2.561
 2292SOL    HW1 7775   4.964   2.033   2.586
 2292SOL    HW2 7776   5.100   2.019   2.497
 2293SOL     OW 7777   6.677   0.782   6.528
 2293SOL    HW1 7778   6.650   0.782   6.624
 2293SOL    HW2 7779   6.735   0.862   6.510
 2294SOL     OW 7780   6.987   2.897   5.499
 2294SOL    HW1 7781   6.956   2.803   5.492
 2294SOL    HW2 7782   0.056   2.898   5.525
 2295SOL     OW 7783   5.874   5.751   0.469
 2295SOL    HW1 7784   5.862   5.759   0.568
 2295SOL    HW2 7785   5.806   5.689   0.432
 2296SOL     OW 7786   4.182   5.817   4.866
 2296SOL    HW1 7787   4.167   5.911   4.837
 2296SOL    HW2 7788   4.218   5.763   4.790
 2297SOL     OW 7789   6.364   2.644   0.320
 2297SOL    HW1 7790   6.281   2.652   0.376
 2297SOL    HW2 7791   6.424   2.722   0.338
 2298SOL     OW 7792   2.211   3.988   4.728
 2298SOL    HW1 7793   2.254   4.009   4.816
 2298SOL    HW2 7794   2.213   3.889   4.712
 2299SOL     OW 7795   6.123   3.860   4.555
 2299SOL    HW1 7796   6.217   3.849   4.523
 2299SOL    HW2 7797   6.111   3.810   4.641
 2300SOL     OW 7798   3.870   0.967   2.743
 2300SOL    HW1 7799   3.834   0.882   2.781
 2300SOL    HW2 7800   3.860   0.966   2.643
 2301SOL     OW 7801   4.266   3.192   5.934
 2301SOL    HW1 7802   4.357   3.173   5.896
 2301SOL    HW2 7803   4.262   3.159   6.028
 2302SOL     OW 7804   0.404   3.842   4.583
 2302SOL    HW1 7805   0.406   3.847   4.683
 2302SOL    HW2 7806   0.487   3.884   4.546
 2303SOL     OW 7807   2.033   2.544   6.565
 2303SOL    HW1 7808   1.938   2.549   6.533
 2303SOL    HW2 7809   2.046   2.607   6.641
 2304SOL     OW 7810   3.748   0.261   3.373
 2304SOL    HW1 7811   3.783   0.186   3.429
 2304SOL    HW2 7812   3.650   0.272   3.390
 2305SOL     OW 7813   3.182   5.879   4.784
 2305SOL    HW1 7814   3.193   5.861   4.882
 2305SOL    HW2 7815   3.139   5.800   4.740
 2306SOL     OW 7816   0.898   4.863   5.486
 2306SOL    HW1 7817   0.850   4.870   5.573
 2306SOL    HW2 7818   0.843   4.811   5.421
 2307SOL     OW 7819   6.415   4.043   5.449
 2307SOL    HW1 7820   6.433   4.127   5.398
 2307SOL    HW2 7821   6.454   4.051   5.541
 2308SOL     OW 7822   0.707   5.983   2.660
 2308SOL    HW1 7823   0.731   5.972   2.563
 2308SOL    HW2 7824   0.724   6.078   2.687
 2309SOL     OW 7825   1.772   0.908   4.789
 2309SOL    HW1 7826   1.679   0.945   4.778
 2309SOL    HW2 7827   1.838   0.982   4.785
 2310SOL     OW 7828   5.230   6.044   0.910
 2310SOL    HW1 7829   5.269   6.049   1.002
 2310SOL    HW2 7830   5.138   6.083   0.911
 2311SOL     OW 7831   2.878   5.787   0.246
 2311SOL    HW1 7832   2.898   5.740   0.332
 2311SOL    HW2 7833   2.846   5.721   0.178
 2312SOL     OW 7834   2.996   5.148   1.694
 2312SOL    HW1 7835   2.976   5.237   1.654
 2312SOL    HW2 7836   2.930   5.080   1.661
 2313SOL     OW 7837   4.724   4.897   1.302
 2313SOL    HW1 7838   4.798   4.880   1.237
 2313SOL    HW2 7839   4.745   4.851   1.388
 2314SOL     OW 7840   2.146   4.540   2.528
 2314SOL    HW1 7841   2.135   4.535   2.428
 2314SOL    HW2 7842   2.239   4.572   2.548
 2315SOL     OW 7843   3.553   2.218   6.611
 2315SOL    HW1 7844   3.606   2.293   6.573
 2315SOL    HW2 7845   3.461   2.219   6.571
 2316SOL     OW 7846   5.815   3.931   1.597
 2316SOL    HW1 7847   5.789   3.878   1.516
 2316SOL    HW2 7848   5.799   3.876   1.679
 2317SOL     OW 7849   0.429   0.120   3.571
 2317SOL    HW1 7850   0.426   0.182   3.492
 2317SOL    HW2 7851   0.460   0.030   3.541
 2318SOL     OW 7852   6.400   2.002   3.504
 2318SOL    HW1 7853   6.474   2.046   3.452
 2318SOL    HW2 7854   6.381   1.912   3.464
 2319SOL     OW 7855   0.809   5.988   3.549
 2319SOL    HW1 7856   0.884   6.048   3.577
 2319SOL    HW2 7857   0.729   6.004   3.607
 2320SOL     OW 7858   6.929   4.813   3.684
 2320SOL    HW1 7859   6.917   4.782   3.589
 2320SOL    HW2 7860   6.845   4.857   3.715
 2321SOL     OW 7861   2.836   4.746   3.727
 2321SOL    HW1 7862   2.855   4.826   3.669
 2321SOL    HW2 7863   2.922   4.703   3.754
 2322SOL     OW 7864   1.899   1.821   5.321
 2322SOL    HW1 7865   1.860   1.910   5.296
 2322SOL    HW2 7866   1.867   1.794   5.411
 2323SOL     OW 7867   6.023   3.514   1.545
 2323SOL    HW1 7868   6.055   3.544   1.456
 2323SOL    HW2 7869   6.039   3.586   1.613
 2324SOL     OW 7870   0.234   5.304   4.208
 2324SOL    HW1 7871   0.143   5.343   4.196
 2324SOL    HW2 7872   0.244   5.270   4.302
 2325SOL     OW 7873   6.795   1.573   0.404
 2325SOL    HW1 7874   6.729   1.507   0.368
 2325SOL    HW2 7875   6.761   1.609   0.491
 2326SOL     OW 7876   0.768   5.270   0.377
 2326SOL    HW1 7877   0.754   5.239   0.471
 2326SOL    HW2 7878   0.814   5.199   0.324
 2327SOL     OW 7879   4.881   1.003   2.803
 2327SOL    HW1 7880   4.832   1.062   2.739
 2327SOL    HW2 7881   4.916   0.922   2.755
 2328SOL     OW 7882   6.375   5.614   3.758
 2328SOL    HW1 7883   6.366   5.701   3.806
 2328SOL    HW2 7884   6.427   5.628   3.673
 2329SOL     OW 7885   1.506   6.764   3.303
 2329SOL    HW1 7886   1.538   6.669   3.311
 2329SOL    HW2 7887   1.574   6.825   3.345
 2330SOL     OW 7888   1.652   3.901   6.857
 2330SOL    HW1 7889   1.719   3.961   6.901
 2330SOL    HW2 7890   1.619   3.834   6.923
 2331SOL     OW 7891   1.780   4.281   5.180
 2331SOL    HW1 7892   1.775   4.210   5.109
 2331SOL    HW2 7893   1.771   4.239   5.270
 2332SOL     OW 7894   6.530   3.809   6.774
 2332SOL    HW1 7895   6.526   3.868   6.694
 2332SOL    HW2 7896   6.535   3.865   6.857
 2333SOL     OW 7897   2.384   5.007   4.069
 2333SOL    HW1 7898   2.299   4.971   4.107
 2333SOL    HW2 7899   2.462   4.961   4.110
 2334SOL     OW 7900   2.046   0.158   6.181
 2334SOL    HW1 7901   2.082   0.158   6.274
 2334SOL    HW2 7902   1.966   0.217   6.176
 2335SOL     OW 7903   5.481   4.543   4.963
 2335SOL    HW1 7904   5.390   4.581   4.942
 2335SOL    HW2 7905   5.472   4.475   5.036
 2336SOL     OW 7906   4.890   1.301   5.688
 2336SOL    HW1 7907   4.858   1.370   5.623
 2336SOL    HW2 7908   4.833   1.219   5.681
 2337SOL     OW 7909   6.158   0.457   4.997
 2337SOL    HW1 7910   6.194   0.412   5.080
 2337SOL    HW2 7911   6.116   0.544   5.022
 2338SOL     OW 7912   1.367   6.647   0.165
 2338SOL    HW1 7913   1.461   6.627   0.191
 2338SOL    HW2 7914   1.309   6.569   0.188
 2339SOL     OW 7915   3.097   4.309   5.910
 2339SOL    HW1 7916   3.151   4.391   5.895
 2339SOL    HW2 7917   3.116   4.243   5.838
 2340SOL     OW 7918   4.397   5.292   3.813
 2340SOL    HW1 7919   4.495   5.303   3.829
 2340SOL    HW2 7920   4.368   5.201   3.844
 2341SOL     OW 7921   0.727   3.745   6.108
 2341SOL    HW1 7922   0.821   3.770   6.086
 2341SOL    HW2 7923   0.669   3.758   6.028
 2342SOL     OW 7924   4.889   1.334   5.151
 2342SOL    HW1 7925   4.818   1.389   5.106
 2342SOL    HW2 7926   4.969   1.330   5.092
 2343SOL     OW 7927   0.680   6.125   1.693
 2343SOL    HW1 7928   0.596   6.079   1.663
 2343SOL    HW2 7929   0.753   6.108   1.626
 2344SOL     OW 7930   1.938   0.343   3.213
 2344SOL    HW1 7931   1.919   0.261   3.160
 2344SOL    HW2 7932   1.882   0.419   3.180
 2345SOL     OW 7933   1.026   2.471   1.629
 2345SOL    HW1 7934   1.061   2.457   1.721
 2345SOL    HW2 7935   0.938   2.423   1.619
 2346SOL     OW 7936   5.731   2.803   4.939
 2346SOL    HW1 7937   5.692   2.724   4.892
 2346SOL    HW2 7938   5.749   2.876   4.873
 2347SOL     OW 7939   1.610   4.129   1.289
 2347SOL    HW1 7940   1.653   4.216   1.268
 2347SOL    HW2 7941   1.512   4.134   1.271
 2348SOL     OW 7942   2.820   6.907   1.792
 2348SOL    HW1 7943   2.847   6.812   1.778
 2348SOL    HW2 7944   2.762   6.937   1.716
 2349SOL     OW 7945   5.415   2.477   0.167
 2349SOL    HW1 7946   5.397   2.412   0.093
 2349SOL    HW2 7947   5.456   2.560   0.129
 2350SOL     OW 7948   2.571   5.524   5.298
 2350SOL    HW1 7949   2.536   5.515   5.205
 2350SOL    HW2 7950   2.640   5.596   5.301
 2351SOL     OW 7951   1.429   5.733   3.371
 2351SOL    HW1 7952   1.363   5.762   3.440
 2351SOL    HW2 7953   1.393   5.654   3.321
 2352SOL     OW 7954   5.887   6.021   6.089
 2352SOL    HW1 7955   5.858   6.059   6.001
 2352SOL    HW2 7956   5.844   6.074   6.163
 2353SOL     OW 7957   3.105   3.046   6.590
 2353SOL    HW1 7958   3.189   3.000   6.616
 2353SOL    HW2 7959   3.127   3.130   6.540
 2354SOL     OW 7960   3.241   1.507   2.512
 2354SOL    HW1 7961   3.213   1.449   2.435
 2354SOL    HW2 7962   3.161   1.554   2.548
 2355SOL     OW 7963   6.458   1.241   2.025
 2355SOL    HW1 7964   6.418   1.150   2.035
 2355SOL    HW2 7965   6.547   1.243   2.070
 2356SOL     OW 7966   4.016   5.186   3.779
 2356SOL    HW1 7967   4.015   5.286   3.788
 2356SOL    HW2 7968   4.093   5.149   3.832
 2357SOL     OW 7969   0.506   5.531   1.047
 2357SOL    HW1 7970   0.497   5.485   0.959
 2357SOL    HW2 7971   0.493   5.464   1.121
 2358SOL     OW 7972   2.069   0.800   4.804
 2358SOL    HW1 7973   2.024   0.883   4.770
 2358SOL    HW2 7974   2.022   0.769   4.887
 2359SOL     OW 7975   3.765   2.697   5.412
 2359SOL    HW1 7976   3.715   2.727   5.331
 2359SOL    HW2 7977   3.774   2.598   5.412
 2360SOL     OW 7978   3.485   4.992   1.835
 2360SOL    HW1 7979   3.491   5.046   1.919
 2360SOL    HW2 7980   3.539   4.908   1.845
 2361SOL     OW 7981   3.678   4.819   0.986
 2361SOL    HW1 7982   3.601   4.774   1.031
 2361SOL    HW2 7983   3.643   4.888   0.922
 2362SOL     OW 7984   3.453   5.090   4.356
 2362SOL    HW1 7985   3.531   5.149   4.379
 2362SOL    HW2 7986   3.401   5.070   4.440
 2363SOL     OW 7987   2.495   3.992   1.723
 2363SOL    HW1 7988   2.463   3.909   1.678
 2363SOL    HW2 7989   2.417   4.053   1.739
 2364SOL     OW 7990   4.600   0.949   2.600
 2364SOL    HW1 7991   4.521   0.987   2.647
 2364SOL    HW2 7992   4.581   0.944   2.502
 2365SOL     OW 7993   5.793   3.890   2.807
 2365SOL    HW1 7994   5.719   3.892   2.739
 2365SOL    HW2 7995   5.773   3.819   2.875
 2366SOL     OW 7996   4.714   5.255   4.813
 2366SOL    HW1 7997   4.623   5.238   4.853
 2366SOL    HW2 7998   4.754   5.336   4.856
 2367SOL     OW 7999   5.959   4.548   5.574
 2367SOL    HW1 8000   5.860   4.535   5.573
 2367SOL    HW2 8001   5.998   4.513   5.490
 2368SOL     OW 8002   5.386   1.700   5.018
 2368SOL    HW1 8003   5.382   1.607   5.054
 2368SOL    HW2 8004   5.331   1.761   5.076
 2369SOL     OW 8005   4.257   2.033   4.141
 2369SOL    HW1 8006   4.265   1.937   4.115
 2369SOL    HW2 8007   4.335   2.059   4.199
 2370SOL     OW 8008   4.067   2.280   0.457
 2370SOL    HW1 8009   4.095   2.327   0.541
 2370SOL    HW2 8010   4.097   2.332   0.377
 2371SOL     OW 8011   2.147   6.546   3.318
 2371SOL    HW1 8012   2.209   6.560   3.395
 2371SOL    HW2 8013   2.079   6.619   3.317
 2372SOL     OW 8014   5.643   6.488   6.922
 2372SOL    HW1 8015   5.554   6.451   6.951
 2372SOL    HW2 8016   5.633   6.534   6.834
 2373SOL     OW 8017   6.388   4.440   6.415
 2373SOL    HW1 8018   6.380   4.364   6.480
 2373SOL    HW2 8019   6.483   4.468   6.408
 2374SOL     OW 8020   0.725   5.276   2.943
 2374SOL    HW1 8021   0.628   5.285   2.917
 2374SOL    HW2 8022   0.750   5.351   3.004
 2375SOL     OW 8023   2.360   0.578   4.322
 2375SOL    HW1 8024   2.450   0.539   4.341
 2375SOL    HW2 8025   2.328   0.627   4.403
 2376SOL     OW 8026   5.871   3.143   4.559
 2376SOL    HW1 8027   5.817   3.060   4.578
 2376SOL    HW2 8028   5.817   3.205   4.502
 2377SOL     OW 8029   3.259   4.993   5.869
 2377SOL    HW1 8030   3.330   5.048   5.914
 2377SOL    HW2 8031   3.181   4.983   5.930
 2378SOL     OW 8032   0.968   0.202   1.122
 2378SOL    HW1 8033   0.970   0.117   1.070
 2378SOL    HW2 8034   1.044   0.202   1.188
 2379SOL     OW 8035   0.863   4.269   3.450
 2379SOL    HW1 8036   0.864   4.170   3.435
 2379SOL    HW2 8037   0.868   4.316   3.361
 2380SOL     OW 8038   4.302   5.458   6.011
 2380SOL    HW1 8039   4.208   5.441   6.042
 2380SOL    HW2 8040   4.321   5.556   6.015
 2381SOL     OW 8041   2.473   5.050   3.815
 2381SOL    HW1 8042   2.456   4.951   3.811
 2381SOL    HW2 8043   2.435   5.087   3.900
 2382SOL     OW 8044   6.334   5.930   2.106
 2382SOL    HW1 8045   6.258   5.964   2.050
 2382SOL    HW2 8046   6.300   5.901   2.195
 2383SOL     OW 8047   4.035   3.596   6.137
 2383SOL    HW1 8048   4.066   3.691   6.138
 2383SOL    HW2 8049   3.950   3.589   6.085
 2384SOL     OW 8050   1.035   2.139   3.305
 2384SOL    HW1 8051   0.980   2.057   3.289
 2384SOL    HW2 8052   1.036   2.195   3.222
 2385SOL     OW 8053   0.650   0.483   1.124
 2385SOL    HW1 8054   0.683   0.518   1.036
 2385SOL    HW2 8055   0.558   0.519   1.142
 2386SOL     OW 8056   0.064   4.981   6.660
 2386SOL    HW1 8057   0.128   4.958   6.733
 2386SOL    HW2 8058   0.065   4.910   6.590
 2387SOL     OW 8059   6.192   0.376   3.186
 2387SOL    HW1 8060   6.258   0.344   3.117
 2387SOL    HW2 8061   6.130   0.442   3.144
 2388SOL     OW 8062   1.919   5.184   3.883
 2388SOL    HW1 8063   1.979   5.111   3.850
 2388SOL    HW2 8064   1.973   5.268   3.895
 2389SOL     OW 8065   3.384   6.383   3.112
 2389SOL    HW1 8066   3.284   6.387   3.110
 2389SOL    HW2 8067   3.419   6.458   3.169
 2390SOL     OW 8068   4.909   3.715   4.719
 2390SOL    HW1 8069   4.892   3.774   4.640
 2390SOL    HW2 8070   4.909   3.770   4.802
 2391SOL     OW 8071   2.621   4.230   6.980
 2391SOL    HW1 8072   2.699   4.257   6.925
 2391SOL    HW2 8073   2.625   4.131   6.999
 2392SOL     OW 8074   4.001   4.908   5.448
 2392SOL    HW1 8075   3.983   4.956   5.362
 2392SOL    HW2 8076   3.997   4.973   5.524
 2393SOL     OW 8077   5.087   5.094   0.672
 2393SOL    HW1 8078   5.095   5.106   0.573
 2393SOL    HW2 8079   5.135   5.167   0.719
 2394SOL     OW 8080   6.714   2.307   2.795
 2394SOL    HW1 8081   6.812   2.326   2.798
 2394SOL    HW2 8082   6.671   2.340   2.879
 2395SOL     OW 8083   0.613   3.056   3.128
 2395SOL    HW1 8084   0.648   3.147   3.147
 2395SOL    HW2 8085   0.685   3.000   3.088
 2396SOL     OW 8086   0.599   6.858   5.099
 2396SOL    HW1 8087   0.672   6.820   5.155
 2396SOL    HW2 8088   0.554   6.785   5.048
 2397SOL     OW 8089   2.821   4.829   5.628
 2397SOL    HW1 8090   2.737   4.781   5.601
 2397SOL    HW2 8091   2.843   4.899   5.561
 2398SOL     OW 8092   4.022   6.184   4.997
 2398SOL    HW1 8093   3.952   6.187   4.925
 2398SOL    HW2 8094   3.994   6.242   5.073
 2399SOL     OW 8095   3.002   1.340   1.859
 2399SOL    HW1 8096   2.997   1.358   1.957
 2399SOL    HW2 8097   2.933   1.271   1.834
 2400SOL     OW 8098   0.937   1.889   6.136
 2400SOL    HW1 8099   0.855   1.872   6.191
 2400SOL    HW2 8100   1.018   1.884   6.194
 2401SOL     OW 8101   1.307   6.739   0.790
 2401SOL    HW1 8102   1.403   6.740   0.761
 2401SOL    HW2 8103   1.259   6.662   0.748
 2402SOL     OW 8104   0.766   3.034   1.483
 2402SOL    HW1 8105   0.820   3.077   1.555
 2402SOL    HW2 8106   0.746   3.101   1.411
 2403SOL     OW 8107   3.117   4.133   5.215
 2403SOL    HW1 8108   3.205   4.158   5.254
 2403SOL    HW2 8109   3.044   4.185   5.261
 2404SOL     OW 8110   6.542   2.374   1.368
 2404SOL    HW1 8111   6.470   2.339   1.307
 2404SOL    HW2 8112   6.510   2.372   1.462
 2405SOL     OW 8113   2.686   3.678   0.587
 2405SOL    HW1 8114   2.711   3.583   0.568
 2405SOL    HW2 8115   2.614   3.707   0.525
 2406SOL     OW 8116   4.722   5.905   5.865
 2406SOL    HW1 8117   4.726   5.814   5.906
 2406SOL    HW2 8118   4.810   5.925   5.822
 2407SOL     OW 8119   2.159   1.778   3.775
 2407SOL    HW1 8120   2.163   1.711   3.701
 2407SOL    HW2 8121   2.125   1.865   3.739
 2408SOL     OW 8122   4.445   6.528   5.499
 2408SOL    HW1 8123   4.390   6.595   5.549
 2408SOL    HW2 8124   4.459   6.559   5.406
 2409SOL     OW 8125   1.819   2.567   0.088
 2409SOL    HW1 8126   1.780   2.585   7.026
 2409SOL    HW2 8127   1.789   2.638   0.152
 2410SOL     OW 8128   0.112   3.571   4.709
 2410SOL    HW1 8129   0.124   3.490   4.652
 2410SOL    HW2 8130   0.020   3.609   4.695
 2411SOL     OW 8131   3.281   0.806   0.865
 2411SOL    HW1 8132   3.264   0.838   0.958
 2411SOL    HW2 8133   3.236   0.718   0.850
 2412SOL     OW 8134   3.197   2.643   0.433
 2412SOL    HW1 8135   3.259   2.633   0.356
 2412SOL    HW2 8136   3.249   2.659   0.517
 2413SOL     OW 8137   0.574   3.971   6.737
 2413SOL    HW1 8138   0.623   4.057   6.749
 2413SOL    HW2 8139   0.483   3.989   6.699
 2414SOL     OW 8140   5.920   1.959   5.305
 2414SOL    HW1 8141   5.940   1.914   5.392
 2414SOL    HW2 8142   5.979   2.039   5.295
 2415SOL     OW 8143   3.164   3.954   5.713
 2415SOL    HW1 8144   3.248   3.986   5.667
 2415SOL    HW2 8145   3.185   3.934   5.809
 2416SOL     OW 8146   6.598   3.400   3.381
 2416SOL    HW1 8147   6.504   3.429   3.361
 2416SOL    HW2 8148   6.621   3.425   3.475
 2417SOL     OW 8149   2.918   2.729   1.722
 2417SOL    HW1 8150   2.818   2.719   1.719
 2417SOL    HW2 8151   2.961   2.649   1.680
 2418SOL     OW 8152   6.321   3.680   6.278
 2418SOL    HW1 8153   6.277   3.591   6.267
 2418SOL    HW2 8154   6.324   3.727   6.190
 2419SOL     OW 8155   2.742   1.539   2.784
 2419SOL    HW1 8156   2.682   1.591   2.723
 2419SOL    HW2 8157   2.834   1.536   2.745
 2420SOL     OW 8158   0.627   2.847   1.335
 2420SOL    HW1 8159   0.682   2.925   1.366
 2420SOL    HW2 8160   0.612   2.854   1.237
 2421SOL     OW 8161   2.675   0.751   3.349
 2421SOL    HW1 8162   2.634   0.829   3.302
 2421SOL    HW2 8163   2.603   0.695   3.391
 2422SOL     OW 8164   3.937   0.118   0.318
 2422SOL    HW1 8165   3.995   0.165   0.252
 2422SOL    HW2 8166   3.970   0.136   0.411
 2423SOL     OW 8167   3.621   4.974   5.157
 2423SOL    HW1 8168   3.559   4.921   5.100
 2423SOL    HW2 8169   3.619   4.939   5.251
 2424SOL     OW 8170   5.236   0.349   6.440
 2424SOL    HW1 8171   5.278   0.427   6.487
 2424SOL    HW2 8172   5.140   0.342   6.466
 2425SOL     OW 8173   5.405   5.241   4.795
 2425SOL    HW1 8174   5.309   5.232   4.772
 2425SOL    HW2 8175   5.460   5.233   4.712
 2426SOL     OW 8176   3.216   2.077   5.251
 2426SOL    HW1 8177   3.196   2.153   5.189
 2426SOL    HW2 8178   3.208   2.109   5.346
 2427SOL     OW 8179   4.088   2.975   6.826
 2427SOL    HW1 8180   4.173   3.025   6.844
 2427SOL    HW2 8181   4.093   2.933   6.736
 2428SOL     OW 8182   1.348   1.968   2.133
 2428SOL    HW1 8183   1.365   1.870   2.141
 2428SOL    HW2 8184   1.252   1.987   2.150
 2429SOL     OW 8185   4.698   5.252   1.546
 2429SOL    HW1 8186   4.786   5.204   1.541
 2429SOL    HW2 8187   4.636   5.217   1.476
 2430SOL     OW 8188   0.052   6.027   6.801
 2430SOL    HW1 8189   7.016   6.077   6.859
 2430SOL    HW2 8190   0.001   5.973   6.734
 2431SOL     OW 8191   2.174   3.480   1.487
 2431SOL    HW1 8192   2.152   3.423   1.567
 2431SOL    HW2 8193   2.161   3.426   1.404
 2432SOL     OW 8194   2.978   5.374   2.859
 2432SOL    HW1 8195   3.066   5.341   2.826
 2432SOL    HW2 8196   2.931   5.299   2.906
 2433SOL     OW 8197   0.322   4.540   4.076
 2433SOL    HW1 8198   0.322   4.460   4.136
 2433SOL    HW2 8199   0.350   4.512   3.984
 2434SOL     OW 8200   3.686   1.999   2.943
 2434SOL    HW1 8201   3.710   1.902   2.937
 2434SOL    HW2 8202   3.605   2.017   2.888
 2435SOL     OW 8203   5.621   6.501   5.818
 2435SOL    HW1 8204   5.609   6.402   5.819
 2435SOL    HW2 8205   5.665   6.529   5.732
 2436SOL     OW 8206   0.007   3.529   0.148
 2436SOL    HW1 8207   0.043   3.455   0.204
 2436SOL    HW2 8208   0.078   3.597   0.132
 2437SOL     OW 8209   1.309   4.730   0.884
 2437SOL    HW1 8210   1.308   4.633   0.909
 2437SOL    HW2 8211   1.393   4.772   0.918
 2438SOL     OW 8212   3.904   1.766   4.607
 2438SOL    HW1 8213   3.821   1.723   4.572
 2438SOL    HW2 8214   3.971   1.774   4.533
 2439SOL     OW 8215   0.534   6.037   6.627
 2439SOL    HW1 8216   0.470   6.070   6.697
 2439SOL    HW2 8217   0.608   5.985   6.672
 2440SOL     OW 8218   0.013   2.360   5.422
 2440SOL    HW1 8219   0.002   2.432   5.491
 2440SOL    HW2 8220   6.951   2.323   5.398
 2441SOL     OW 8221   6.876   0.013   6.885
 2441SOL    HW1 8222   6.844   6.996   6.968
 2441SOL    HW2 8223   6.798   0.036   6.827
 2442SOL     OW 8224   5.934   3.257   3.402
 2442SOL    HW1 8225   5.903   3.166   3.430
 2442SOL    HW2 8226   6.031   3.269   3.426
 2443SOL     OW 8227   1.112   3.246   1.334
 2443SOL    HW1 8228   1.130   3.339   1.365
 2443SOL    HW2 8229   1.077   3.191   1.410
 2444SOL     OW 8230   3.573   5.326   2.648
 2444SOL    HW1 8231   3.522   5.276   2.578
 2444SOL    HW2 8232   3.666   5.344   2.616
 2445SOL     OW 8233   0.483   1.283   1.180
 2445SOL    HW1 8234   0.492   1.360   1.117
 2445SOL    HW2 8235   0.386   1.269   1.202
 2446SOL     OW 8236   6.630   5.549   0.682
 2446SOL    HW1 8237   6.692   5.523   0.608
 2446SOL    HW2 8238   6.627   5.476   0.750
 2447SOL     OW 8239   1.665   0.304   6.817
 2447SOL    HW1 8240   1.608   0.261   6.746
 2447SOL    HW2 8241   1.641   0.401   6.825
 2448SOL     OW 8242   5.128   0.799   4.478
 2448SOL    HW1 8243   5.175   0.713   4.462
 2448SOL    HW2 8244   5.136   0.857   4.397
 2449SOL     OW 8245   1.905   3.900   1.243
 2449SOL    HW1 8246   1.974   3.831   1.264
 2449SOL    HW2 8247   1.855   3.924   1.326
 2450SOL     OW 8248   6.720   6.146   6.195
 2450SOL    HW1 8249   6.789   6.189   6.253
 2450SOL    HW2 8250   6.747   6.156   6.099
 2451SOL     OW 8251   1.139   0.554   0.338
 2451SOL    HW1 8252   1.178   0.498   0.412
 2451SOL    HW2 8253   1.197   0.635   0.324
 2452SOL     OW 8254   1.449   2.280   4.056
 2452SOL    HW1 8255   1.388   2.319   3.987
 2452SOL    HW2 8256   1.449   2.338   4.137
 2453SOL     OW 8257   0.466   1.937   0.092
 2453SOL    HW1 8258   0.400   1.954   0.165
 2453SOL    HW2 8259   0.513   2.022   0.068
 2454SOL     OW 8260   2.218   6.176   1.161
 2454SOL    HW1 8261   2.202   6.083   1.194
 2454SOL    HW2 8262   2.208   6.240   1.237
 2455SOL     OW 8263   4.935   2.069   6.197
 2455SOL    HW1 8264   5.016   2.010   6.201
 2455SOL    HW2 8265   4.878   2.043   6.119
 2456SOL     OW 8266   1.335   2.983   5.701
 2456SOL    HW1 8267   1.291   2.897   5.728
 2456SOL    HW2 8268   1.382   3.023   5.781
 2457SOL     OW 8269   5.924   1.818   6.145
 2457SOL    HW1 8270   6.002   1.855   6.095
 2457SOL    HW2 8271   5.947   1.807   6.241
 2458SOL     OW 8272   1.254   0.143   1.556
 2458SOL    HW1 8273   1.328   0.210   1.547
 2458SOL    HW2 8274   1.226   0.137   1.652
 2459SOL     OW 8275   1.831   0.345   1.198
 2459SOL    HW1 8276   1.867   0.424   1.148
 2459SOL    HW2 8277   1.896   0.317   1.268
 2460SOL     OW 8278   0.530   1.179   4.207
 2460SOL    HW1 8279   0.467   1.108   4.176
 2460SOL    HW2 8280   0.483   1.239   4.272
 2461SOL     OW 8281   1.956   1.783   3.228
 2461SOL    HW1 8282   1.921   1.704   3.278
 2461SOL    HW2 8283   1.901   1.796   3.144
 2462SOL     OW 8284   0.429   5.378   0.833
 2462SOL    HW1 8285   0.333   5.366   0.857
 2462SOL    HW2 8286   0.438   5.389   0.734
 2463SOL     OW 8287   6.711   6.060   7.022
 2463SOL    HW1 8288   6.733   6.079   6.926
 2463SOL    HW2 8289   6.790   6.020   0.039
 2464SOL     OW 8290   0.863   2.800   4.774
 2464SOL    HW1 8291   0.945   2.796   4.716
 2464SOL    HW2 8292   0.885   2.848   4.859
 2465SOL     OW 8293   6.884   1.251   6.856
 2465SOL    HW1 8294   6.804   1.194   6.872
 2465SOL    HW2 8295   6.863   1.320   6.787
 2466SOL     OW 8296   1.168   1.758   1.230
 2466SOL    HW1 8297   1.087   1.794   1.183
 2466SOL    HW2 8298   1.164   1.784   1.327
 2467SOL     OW 8299   4.937   3.351   4.645
 2467SOL    HW1 8300   4.926   3.351   4.546
 2467SOL    HW2 8301   4.951   3.257   4.677
 2468SOL     OW 8302   3.373   6.649   4.322
 2468SOL    HW1 8303   3.295   6.586   4.323
 2468SOL    HW2 8304   3.400   6.670   4.416
 2469SOL     OW 8305   2.991   2.084   6.089
 2469SOL    HW1 8306   2.964   2.153   6.022
 2469SOL    HW2 8307   2.969   2.115   6.181
 2470SOL     OW 8308   1.794   5.325   6.398
 2470SOL    HW1 8309   1.870   5.372   6.444
 2470SOL    HW2 8310   1.821   5.231   6.377
 2471SOL     OW 8311   2.327   5.974   2.591
 2471SOL    HW1 8312   2.316   6.073   2.579
 2471SOL    HW2 8313   2.274   5.926   2.520
 2472SOL     OW 8314   5.048   0.622   2.427
 2472SOL    HW1 8315   5.113   0.569   2.481
 2472SOL    HW2 8316   4.984   0.560   2.381
 2473SOL     OW 8317   0.710   4.185   5.012
 2473SOL    HW1 8318   0.698   4.244   5.092
 2473SOL    HW2 8319   0.653   4.219   4.937
 2474SOL     OW 8320   1.997   0.532   1.051
 2474SOL    HW1 8321   1.996   0.631   1.037
 2474SOL    HW2 8322   2.012   0.486   0.963
 2475SOL     OW 8323   5.658   1.938   0.456
 2475SOL    HW1 8324   5.696   1.863   0.510
 2475SOL    HW2 8325   5.590   1.987   0.510
 2476SOL     OW 8326   4.396   6.813   0.071
 2476SOL    HW1 8327   4.448   6.891   0.036
 2476SOL    HW2 8328   4.354   6.838   0.158
 2477SOL     OW 8329   4.249   1.710   4.121
 2477SOL    HW1 8330   4.318   1.642   4.144
 2477SOL    HW2 8331   4.255   1.733   4.024
 2478SOL     OW 8332   3.207   0.550   3.966
 2478SOL    HW1 8333   3.292   0.501   3.984
 2478SOL    HW2 8334   3.152   0.497   3.901
 2479SOL     OW 8335   6.271   4.146   2.379
 2479SOL    HW1 8336   6.360   4.112   2.411
 2479SOL    HW2 8337   6.211   4.160   2.458
 2480SOL     OW 8338   2.493   2.001   1.681
 2480SOL    HW1 8339   2.436   1.999   1.598
 2480SOL    HW2 8340   2.501   2.095   1.713
 2481SOL     OW 8341   3.221   0.029   2.313
 2481SOL    HW1 8342   3.276   6.995   2.257
 2481SOL    HW2 8343   3.260   0.036   2.404
 2482SOL     OW 8344   0.017   3.402   6.891
 2482SOL    HW1 8345   0.044   3.427   6.984
 2482SOL    HW2 8346   6.952   3.434   6.873
 2483SOL     OW 8347   2.860   1.651   1.220
 2483SOL    HW1 8348   2.898   1.687   1.305
 2483SOL    HW2 8349   2.934   1.615   1.163
 2484SOL     OW 8350   4.586   1.285   5.920
 2484SOL    HW1 8351   4.506   1.336   5.952
 2484SOL    HW2 8352   4.556   1.197   5.884
 2485SOL     OW 8353   0.303   1.395   6.979
 2485SOL    HW1 8354   0.368   1.339   0.002
 2485SOL    HW2 8355   0.211   1.380   7.016
 2486SOL     OW 8356   6.570   5.477   2.479
 2486SOL    HW1 8357   6.613   5.456   2.390
 2486SOL    HW2 8358   6.471   5.470   2.470
 2487SOL     OW 8359   3.881   6.250   6.842
 2487SOL    HW1 8360   3.919   6.265   6.751
 2487SOL    HW2 8361   3.868   6.339   6.887
 2488SOL     OW 8362   0.718   3.515   0.865
 2488SOL    HW1 8363   0.695   3.610   0.884
 2488SOL    HW2 8364   0.667   3.483   0.785
 2489SOL     OW 8365   5.934   6.020   4.664
 2489SOL    HW1 8366   6.003   5.962   4.706
 2489SOL    HW2 8367   5.860   5.963   4.627
 2490SOL     OW 8368   3.293   5.887   2.832
 2490SOL    HW1 8369   3.337   5.965   2.877
 2490SOL    HW2 8370   3.353   5.807   2.837
 2491SOL     OW 8371   3.969   4.478   1.499
 2491SOL    HW1 8372   3.906   4.554   1.514
 2491SOL    HW2 8373   3.953   4.407   1.568
 2492SOL     OW 8374   6.778   4.453   2.353
 2492SOL    HW1 8375   6.840   4.471   2.430
 2492SOL    HW2 8376   6.733   4.538   2.326
 2493SOL     OW 8377   6.039   6.217   0.981
 2493SOL    HW1 8378   6.059   6.219   0.882
 2493SOL    HW2 8379   6.125   6.219   1.032
 2494SOL     OW 8380   0.045   3.134   1.502
 2494SOL    HW1 8381   0.040   3.151   1.600
 2494SOL    HW2 8382   0.140   3.126   1.474
 2495SOL     OW 8383   6.501   2.983   2.158
 2495SOL    HW1 8384   6.523   2.910   2.093
 2495SOL    HW2 8385   6.504   2.946   2.251
 2496SOL     OW 8386   5.215   3.948   5.925
 2496SOL    HW1 8387   5.298   3.896   5.945
 2496SOL    HW2 8388   5.155   3.949   6.005
 2497SOL     OW 8389   0.616   6.997   3.908
 2497SOL    HW1 8390   0.704   0.015   3.923
 2497SOL    HW2 8391   0.541   0.035   3.919
 2498SOL     OW 8392   1.927   2.971   4.281
 2498SOL    HW1 8393   1.863   2.962   4.205
 2498SOL    HW2 8394   1.881   2.948   4.367
 2499SOL     OW 8395   6.105   2.416   0.741
 2499SOL    HW1 8396   6.097   2.326   0.785
 2499SOL    HW2 8397   6.169   2.473   0.792
 2500SOL     OW 8398   3.667   3.637   3.011
 2500SOL    HW1 8399   3.648   3.722   2.963
 2500SOL    HW2 8400   3.659   3.651   3.109
 2501SOL     OW 8401   6.126   5.003   4.190
 2501SOL    HW1 8402   6.217   5.006   4.149
 2501SOL    HW2 8403   6.133   5.019   4.289
 2502SOL     OW 8404   2.471   6.072   3.443
 2502SOL    HW1 8405   2.500   6.078   3.348
 2502SOL    HW2 8406   2.389   6.016   3.450
 2503SOL     OW 8407   2.207   6.821   5.226
 2503SOL    HW1 8408   2.248   6.759   5.293
 2503SOL    HW2 8409   2.272   6.840   5.153
 2504SOL     OW 8410   4.365   1.064   2.662
 2504SOL    HW1 8411   4.385   1.162   2.663
 2504SOL    HW2 8412   4.295   1.044   2.731
 2505SOL     OW 8413   5.323   4.292   3.928
 2505SOL    HW1 8414   5.344   4.382   3.966
 2505SOL    HW2 8415   5.379   4.223   3.973
 2506SOL     OW 8416   5.906   4.883   6.588
 2506SOL    HW1 8417   5.816   4.923   6.571
 2506SOL    HW2 8418   5.924   4.809   6.522
 2507SOL     OW 8419   5.905   3.647   3.817
 2507SOL    HW1 8420   5.978   3.675   3.755
 2507SOL    HW2 8421   5.912   3.548   3.834
 2508SOL     OW 8422   5.853   0.590   4.064
 2508SOL    HW1 8423   5.766   0.542   4.073
 2508SOL    HW2 8424   5.836   0.683   4.031
 2509SOL     OW 8425   0.433   3.780   6.283
 2509SOL    HW1 8426   0.463   3.865   6.240
 2509SOL    HW2 8427   0.367   3.734   6.224
 2510SOL     OW 8428   3.434   3.858   2.264
 2510SOL    HW1 8429   3.490   3.881   2.344
 2510SOL    HW2 8430   3.407   3.761   2.269
 2511SOL     OW 8431   2.401   1.027   4.956
 2511SOL    HW1 8432   2.319   0.988   4.997
 2511SOL    HW2 8433   2.380   1.118   4.920
 2512SOL     OW 8434   2.636   4.973   3.451
 2512SOL    HW1 8435   2.613   4.993   3.546
 2512SOL    HW2 8436   2.627   5.056   3.396
 2513SOL     OW 8437   2.189   5.340   6.408
 2513SOL    HW1 8438   2.154   5.341   6.314
 2513SOL    HW2 8439   2.161   5.255   6.452
 2514SOL     OW 8440   1.225   2.807   2.479
 2514SOL    HW1 8441   1.189   2.885   2.530
 2514SOL    HW2 8442   1.172   2.794   2.395
 2515SOL     OW 8443   0.238   1.887   0.942
 2515SOL    HW1 8444   0.275   1.976   0.969
 2515SOL    HW2 8445   0.139   1.895   0.928
 2516SOL     OW 8446   0.057   2.608   4.940
 2516SOL    HW1 8447   0.146   2.615   4.984
 2516SOL    HW2 8448   0.068   2.579   4.845
 2517SOL     OW 8449   0.103   1.539   4.364
 2517SOL    HW1 8450   0.114   1.514   4.460
 2517SOL    HW2 8451   0.064   1.631   4.358
 2518SOL     OW 8452   3.427   3.419   1.058
 2518SOL    HW1 8453   3.414   3.500   1.001
 2518SOL    HW2 8454   3.402   3.338   1.006
 2519SOL     OW 8455   1.568   0.556   0.425
 2519SOL    HW1 8456   1.569   0.527   0.520
 2519SOL    HW2 8457   1.477   0.591   0.401
 2520SOL     OW 8458   2.626   2.936   1.286
 2520SOL    HW1 8459   2.645   2.978   1.197
 2520SOL    HW2 8460   2.702   2.954   1.348
 2521SOL     OW 8461   5.628   1.538   4.862
 2521SOL    HW1 8462   5.629   1.443   4.893
 2521SOL    HW2 8463   5.677   1.595   4.928
 2522SOL     OW 8464   1.807   2.013   0.479
 2522SOL    HW1 8465   1.726   2.059   0.444
 2522SOL    HW2 8466   1.865   2.079   0.526
 2523SOL     OW 8467   1.185   5.132   4.788
 2523SOL    HW1 8468   1.139   5.215   4.818
 2523SOL    HW2 8469   1.124   5.079   4.728
 2524SOL     OW 8470   1.053   2.192   4.772
 2524SOL    HW1 8471   1.090   2.234   4.689
 2524SOL    HW2 8472   1.128   2.154   4.827
 2525SOL     OW 8473   0.043   3.436   6.447
 2525SOL    HW1 8474   0.105   3.441   6.526
 2525SOL    HW2 8475   7.010   3.515   6.447
 2526SOL     OW 8476   2.404   1.100   1.096
 2526SOL    HW1 8477   2.328   1.042   1.125
 2526SOL    HW2 8478   2.380   1.196   1.108
 2527SOL     OW 8479   3.909   5.326   0.062
 2527SOL    HW1 8480   3.973   5.252   0.039
 2527SOL    HW2 8481   3.866   5.305   0.149
 2528SOL     OW 8482   4.425   5.722   6.342
 2528SOL    HW1 8483   4.474   5.634   6.347
 2528SOL    HW2 8484   4.327   5.705   6.332
 2529SOL     OW 8485   0.249   6.258   5.922
 2529SOL    HW1 8486   0.198   6.338   5.954
 2529SOL    HW2 8487   0.278   6.272   5.828
 2530SOL     OW 8488   2.395   6.102   6.520
 2530SOL    HW1 8489   2.452   6.025   6.550
 2530SOL    HW2 8490   2.435   6.188   6.553
 2531SOL     OW 8491   0.272   4.095   6.373
 2531SOL    HW1 8492   0.319   4.181   6.394
 2531SOL    HW2 8493   0.299   4.064   6.282
 2532SOL     OW 8494   5.181   6.526   3.115
 2532SOL    HW1 8495   5.174   6.430   3.088
 2532SOL    HW2 8496   5.089   6.564   3.129
 2533SOL     OW 8497   4.538   0.417   3.703
 2533SOL    HW1 8498   4.578   0.467   3.780
 2533SOL    HW2 8499   4.594   0.431   3.621
 2534SOL     OW 8500   4.229   1.897   2.529
 2534SOL    HW1 8501   4.293   1.869   2.458
 2534SOL    HW2 8502   4.142   1.849   2.515
 2535SOL     OW 8503   3.828   2.976   6.116
 2535SOL    HW1 8504   3.800   2.901   6.057
 2535SOL    HW2 8505   3.795   3.062   6.079
 2536SOL     OW 8506   0.977   0.746   0.981
 2536SOL    HW1 8507   1.003   0.672   1.044
 2536SOL    HW2 8508   0.925   0.815   1.031
 2537SOL     OW 8509   4.350   6.787   5.128
 2537SOL    HW1 8510   4.254   6.814   5.139
 2537SOL    HW2 8511   4.387   6.828   5.045
 2538SOL     OW 8512   6.322   4.110   3.682
 2538SOL    HW1 8513   6.226   4.121   3.708
 2538SOL    HW2 8514   6.376   4.087   3.764
 2539SOL     OW 8515   5.012   2.230   4.848
 2539SOL    HW1 8516   4.937   2.237   4.783
 2539SOL    HW2 8517   5.078   2.161   4.815
 2540SOL     OW 8518   2.468   2.295   1.747
 2540SOL    HW1 8519   2.515   2.345   1.820
 2540SOL    HW2 8520   2.505   2.323   1.658
 2541SOL     OW 8521   3.094   6.978   4.503
 2541SOL    HW1 8522   3.101   0.047   4.477
 2541SOL    HW2 8523   2.998   6.953   4.513
 2542SOL     OW 8524   1.893   5.450   5.799
 2542SOL    HW1 8525   1.861   5.430   5.891
 2542SOL    HW2 8526   1.866   5.376   5.737
 2543SOL     OW 8527   1.064   1.134   3.674
 2543SOL    HW1 8528   1.102   1.145   3.766
 2543SOL    HW2 8529   1.084   1.216   3.620
 2544SOL     OW 8530   1.136   5.931   6.183
 2544SOL    HW1 8531   1.066   5.915   6.114
 2544SOL    HW2 8532   1.153   6.030   6.191
 2545SOL     OW 8533   3.038   6.576   2.680
 2545SOL    HW1 8534   2.989   6.600   2.764
 2545SOL    HW2 8535   3.015   6.642   2.608
 2546SOL     OW 8536   6.911   1.147   2.626
 2546SOL    HW1 8537   6.996   1.170   2.578
 2546SOL    HW2 8538   6.843   1.218   2.609
 2547SOL     OW 8539   0.348   4.185   4.608
 2547SOL    HW1 8540   0.303   4.112   4.557
 2547SOL    HW2 8541   0.288   4.218   4.681
 2548SOL     OW 8542   6.584   0.665   5.542
 2548SOL    HW1 8543   6.499   0.701   5.580
 2548SOL    HW2 8544   6.588   0.686   5.444
 2549SOL     OW 8545   5.688   2.458   3.526
 2549SOL    HW1 8546   5.651   2.549   3.546
 2549SOL    HW2 8547   5.729   2.458   3.435
 2550SOL     OW 8548   5.625   5.204   0.283
 2550SOL    HW1 8549   5.651   5.216   0.378
 2550SOL    HW2 8550   5.527   5.183   0.277
 2551SOL     OW 8551   1.237   4.632   6.096
 2551SOL    HW1 8552   1.242   4.683   6.182
 2551SOL    HW2 8553   1.218   4.695   6.020
 2552SOL     OW 8554   1.457   6.281   3.313
 2552SOL    HW1 8555   1.445   6.258   3.410
 2552SOL    HW2 8556   1.549   6.255   3.283
 2553SOL     OW 8557   4.597   3.002   0.782
 2553SOL    HW1 8558   4.575   3.042   0.871
 2553SOL    HW2 8559   4.604   3.075   0.714
 2554SOL     OW 8560   0.725   1.874   0.439
 2554SOL    HW1 8561   0.629   1.851   0.457
 2554SOL    HW2 8562   0.732   1.914   0.348
 2555SOL     OW 8563   0.135   0.107   5.878
 2555SOL    HW1 8564   0.153   0.182   5.941
 2555SOL    HW2 8565   0.065   0.136   5.811
 2556SOL     OW 8566   4.130   5.149   0.078
 2556SOL    HW1 8567   4.205   5.211   0.056
 2556SOL    HW2 8568   4.147   5.107   0.168
 2557SOL     OW 8569   2.403   4.828   6.872
 2557SOL    HW1 8570   2.331   4.769   6.835
 2557SOL    HW2 8571   2.421   4.803   6.967
 2558SOL     OW 8572   4.482   0.908   5.135
 2558SOL    HW1 8573   4.449   0.894   5.042
 2558SOL    HW2 8574   4.509   0.820   5.175
 2559SOL     OW 8575   6.885   4.789   5.069
 2559SOL    HW1 8576   6.851   4.711   5.017
 2559SOL    HW2 8577   6.820   4.865   5.062
 2560SOL     OW 8578   6.548   0.078   0.332
 2560SOL    HW1 8579   6.455   0.049   0.356
 2560SOL    HW2 8580   6.592   0.006   0.279
 2561SOL     OW 8581   3.158   5.998   3.947
 2561SOL    HW1 8582   3.141   6.045   4.033
 2561SOL    HW2 8583   3.071   5.968   3.908
 2562SOL     OW 8584   1.894   3.938   0.359
 2562SOL    HW1 8585   1.798   3.928   0.335
 2562SOL    HW2 8586   1.923   4.032   0.342
 2563SOL     OW 8587   1.552   0.766   1.642
 2563SOL    HW1 8588   1.555   0.697   1.714
 2563SOL    HW2 8589   1.577   0.725   1.555
 2564SOL     OW 8590   1.332   6.170   2.644
 2564SOL    HW1 8591   1.431   6.179   2.651
 2564SOL    HW2 8592   1.294   6.150   2.734
 2565SOL     OW 8593   1.203   1.402   0.633
 2565SOL    HW1 8594   1.159   1.413   0.722
 2565SOL    HW2 8595   1.301   1.414   0.641
 2566SOL     OW 8596   2.602   6.432   5.234
 2566SOL    HW1 8597   2.643   6.520   5.260
 2566SOL    HW2 8598   2.572   6.384   5.317
 2567SOL     OW 8599   1.200   0.421   0.612
 2567SOL    HW1 8600   1.231   0.352   0.547
 2567SOL    HW2 8601   1.269   0.492   0.621
 2568SOL     OW 8602   5.742   3.640   0.302
 2568SOL    HW1 8603   5.785   3.638   0.212
 2568SOL    HW2 8604   5.717   3.734   0.325
 2569SOL     OW 8605   2.369   0.927   2.370
 2569SOL    HW1 8606   2.401   1.011   2.326
 2569SOL    HW2 8607   2.333   0.949   2.461
 2570SOL     OW 8608   6.491   2.877   6.258
 2570SOL    HW1 8609   6.533   2.797   6.214
 2570SOL    HW2 8610   6.530   2.960   6.220
 2571SOL     OW 8611   1.468   4.464   4.053
 2571SOL    HW1 8612   1.507   4.398   3.989
 2571SOL    HW2 8613   1.380   4.430   4.087
 2572SOL     OW 8614   1.393   4.909   3.365
 2572SOL    HW1 8615   1.448   4.917   3.281
 2572SOL    HW2 8616   1.411   4.821   3.408
 2573SOL     OW 8617   1.129   6.795   0.449
 2573SOL    HW1 8618   1.180   6.714   0.421
 2573SOL    HW2 8619   1.183   6.848   0.514
 2574SOL     OW 8620   6.800   3.117   1.504
 2574SOL    HW1 8621   6.796   3.131   1.603
 2574SOL    HW2 8622   6.895   3.105   1.475
 2575SOL     OW 8623   0.937   0.467   5.236
 2575SOL    HW1 8624   1.017   0.451   5.294
 2575SOL    HW2 8625   0.861   0.410   5.268
 2576SOL     OW 8626   4.471   6.568   5.221
 2576SOL    HW1 8627   4.405   6.638   5.196
 2576SOL    HW2 8628   4.547   6.569   5.156
 2577SOL     OW 8629   1.887   3.656   2.220
 2577SOL    HW1 8630   1.842   3.718   2.284
 2577SOL    HW2 8631   1.982   3.641   2.249
 2578SOL     OW 8632   4.132   1.715   1.862
 2578SOL    HW1 8633   4.188   1.666   1.795
 2578SOL    HW2 8634   4.069   1.651   1.906
 2579SOL     OW 8635   0.236   6.298   3.083
 2579SOL    HW1 8636   0.312   6.315   3.147
 2579SOL    HW2 8637   0.218   6.380   3.031
 2580SOL     OW 8638   3.153   2.158   5.514
 2580SOL    HW1 8639   3.093   2.152   5.594
 2580SOL    HW2 8640   3.191   2.250   5.507
 2581SOL     OW 8641   3.781   0.692   6.074
 2581SOL    HW1 8642   3.724   0.730   6.147
 2581SOL    HW2 8643   3.768   0.745   5.990
 2582SOL     OW 8644   0.333   3.350   0.246
 2582SOL    HW1 8645   0.362   3.405   0.323
 2582SOL    HW2 8646   0.234   3.338   0.248
 2583SOL     OW 8647   4.717   0.793   0.885
 2583SOL    HW1 8648   4.746   0.875   0.836
 2583SOL    HW2 8649   4.710   0.814   0.983
 2584SOL     OW 8650   3.229   4.330   6.766
 2584SOL    HW1 8651   3.229   4.237   6.803
 2584SOL    HW2 8652   3.317   4.348   6.721
 2585SOL     OW 8653   1.953   5.261   0.121
 2585SOL    HW1 8654   2.023   5.316   0.166
 2585SOL    HW2 8655   1.967   5.164   0.142
 2586SOL     OW 8656   1.830   1.458   2.601
 2586SOL    HW1 8657   1.851   1.364   2.575
 2586SOL    HW2 8658   1.809   1.462   2.699
 2587SOL     OW 8659   5.948   1.097   3.972
 2587SOL    HW1 8660   5.919   1.150   3.893
 2587SOL    HW2 8661   5.884   1.021   3.986
 2588SOL     OW 8662   4.913   1.747   6.204
 2588SOL    HW1 8663   4.827   1.794   6.185
 2588SOL    HW2 8664   4.903   1.650   6.184
 2589SOL     OW 8665   1.273   5.767   0.268
 2589SOL    HW1 8666   1.332   5.786   0.346
 2589SOL    HW2 8667   1.179   5.753   0.300
 2590SOL     OW 8668   3.028   4.516   0.765
 2590SOL    HW1 8669   2.955   4.525   0.698
 2590SOL    HW2 8670   2.992   4.474   0.849
 2591SOL     OW 8671   4.811   6.589   2.694
 2591SOL    HW1 8672   4.904   6.611   2.665
 2591SOL    HW2 8673   4.758   6.674   2.701
 2592SOL     OW 8674   3.558   3.722   1.071
 2592SOL    HW1 8675   3.515   3.686   0.989
 2592SOL    HW2 8676   3.658   3.715   1.062
 2593SOL     OW 8677   2.498   4.584   6.716
 2593SOL    HW1 8678   2.578   4.600   6.658
 2593SOL    HW2 8679   2.520   4.611   6.810
 2594SOL     OW 8680   2.327   2.881   3.188
 2594SOL    HW1 8681   2.352   2.964   3.239
 2594SOL    HW2 8682   2.242   2.897   3.139
 2595SOL     OW 8683   1.429   0.969   2.390
 2595SOL    HW1 8684   1.431   1.025   2.307
 2595SOL    HW2 8685   1.340   0.925   2.398
 2596SOL     OW 8686   6.970   0.369   0.869
 2596SOL    HW1 8687   7.002   0.281   0.835
 2596SOL    HW2 8688   0.013   0.411   0.925
 2597SOL     OW 8689   6.067   5.955   0.406
 2597SOL    HW1 8690   6.024   6.045   0.393
 2597SOL    HW2 8691   5.998   5.890   0.439
 2598SOL     OW 8692   4.792   2.806   2.146
 2598SOL    HW1 8693   4.883   2.779   2.114
 2598SOL    HW2 8694   4.756   2.879   2.089
 2599SOL     OW 8695   2.239   5.599   1.789
 2599SOL    HW1 8696   2.171   5.550   1.844
 2599SOL    HW2 8697   2.207   5.693   1.772
 2600SOL     OW 8698   5.625   5.890   4.402
 2600SOL    HW1 8699   5.698   5.832   4.438
 2600SOL    HW2 8700   5.629   5.980   4.446
 2601SOL     OW 8701   6.994   1.617   3.112
 2601SOL    HW1 8702   0.029   1.673   3.059
 2601SOL    HW2 8703   0.015   1.538   3.150
 2602SOL     OW 8704   2.078   4.562   3.306
 2602SOL    HW1 8705   2.030   4.541   3.221
 2602SOL    HW2 8706   2.016   4.607   3.370
 2603SOL     OW 8707   1.602   6.174   1.727
 2603SOL    HW1 8708   1.563   6.162   1.818
 2603SOL    HW2 8709   1.600   6.270   1.702
 2604SOL     OW 8710   5.351   3.145   2.758
 2604SOL    HW1 8711   5.340   3.088   2.839
 2604SOL    HW2 8712   5.261   3.165   2.718
 2605SOL     OW 8713   1.116   2.192   0.835
 2605SOL    HW1 8714   1.133   2.291   0.836
 2605SOL    HW2 8715   1.171   2.151   0.762
 2606SOL     OW 8716   5.209   3.838   0.898
 2606SOL    HW1 8717   5.202   3.755   0.953
 2606SOL    HW2 8718   5.242   3.913   0.955
 2607SOL     OW 8719   2.258   2.599   1.961
 2607SOL    HW1 8720   2.259   2.680   1.902
 2607SOL    HW2 8721   2.182   2.606   2.026
 2608SOL     OW 8722   3.292   4.675   5.276
 2608SOL    HW1 8723   3.195   4.666   5.293
 2608SOL    HW2 8724   3.338   4.587   5.290
 2609SOL     OW 8725   6.724   1.822   2.107
 2609SOL    HW1 8726   6.640   1.777   2.075
 2609SOL    HW2 8727   6.784   1.754   2.150
 2610SOL     OW 8728   1.390   4.650   5.172
 2610SOL    HW1 8729   1.414   4.666   5.076
 2610SOL    HW2 8730   1.353   4.557   5.182
 2611SOL     OW 8731   4.935   2.208   5.519
 2611SOL    HW1 8732   4.922   2.200   5.618
 2611SOL    HW2 8733   4.918   2.302   5.491
 2612SOL     OW 8734   6.575   6.006   0.339
 2612SOL    HW1 8735   6.627   6.037   0.260
 2612SOL    HW2 8736   6.482   5.985   0.312
 2613SOL     OW 8737   1.951   0.022   0.427
 2613SOL    HW1 8738   2.008   0.098   0.457
 2613SOL    HW2 8739   1.882   0.055   0.364
 2614SOL     OW 8740   6.400   1.773   0.440
 2614SOL    HW1 8741   6.491   1.755   0.479
 2614SOL    HW2 8742   6.408   1.777   0.340
 2615SOL     OW 8743   1.094   2.902   0.217
 2615SOL    HW1 8744   1.138   2.982   0.175
 2615SOL    HW2 8745   1.012   2.877   0.165
 2616SOL     OW 8746   1.345   1.445   5.120
 2616SOL    HW1 8747   1.313   1.533   5.157
 2616SOL    HW2 8748   1.412   1.463   5.048
 2617SOL     OW 8749   6.305   0.082   6.550
 2617SOL    HW1 8750   6.265   0.088   6.458
 2617SOL    HW2 8751   6.232   0.063   6.616
 2618SOL     OW 8752   2.022   6.790   0.416
 2618SOL    HW1 8753   1.973   6.876   0.406
 2618SOL    HW2 8754   2.114   6.808   0.452
 2619SOL     OW 8755   4.132   0.950   2.774
 2619SOL    HW1 8756   4.148   0.861   2.731
 2619SOL    HW2 8757   4.035   0.962   2.794
 2620SOL     OW 8758   5.723   2.458   1.950
 2620SOL    HW1 8759   5.660   2.459   2.028
 2620SOL    HW2 8760   5.671   2.449   1.865
 2621SOL     OW 8761   2.210   5.955   1.332
 2621SOL    HW1 8762   2.167   6.011   1.402
 2621SOL    HW2 8763   2.293   5.913   1.369
 2622SOL     OW 8764   2.263   3.470   0.044
 2622SOL    HW1 8765   2.305   3.447   0.132
 2622SOL    HW2 8766   2.177   3.420   0.035
 2623SOL     OW 8767   0.580   1.859   4.043
 2623SOL    HW1 8768   0.481   1.857   4.062
 2623SOL    HW2 8769   0.617   1.766   4.051
 2624SOL     OW 8770   1.623   0.924   5.466
 2624SOL    HW1 8771   1.572   0.970   5.539
 2624SOL    HW2 8772   1.595   0.829   5.460
 2625SOL     OW 8773   3.362   5.744   5.789
 2625SOL    HW1 8774   3.386   5.647   5.801
 2625SOL    HW2 8775   3.289   5.752   5.721
 2626SOL     OW 8776   0.222   6.867   0.509
 2626SOL    HW1 8777   0.132   6.840   0.474
 2626SOL    HW2 8778   0.259   6.940   0.452
 2627SOL     OW 8779   2.934   0.213   5.573
 2627SOL    HW1 8780   2.990   0.134   5.550
 2627SOL    HW2 8781   2.979   0.296   5.543
 2628SOL     OW 8782   6.987   5.814   1.678
 2628SOL    HW1 8783   0.052   5.838   1.705
 2628SOL    HW2 8784   6.947   5.889   1.625
 2629SOL     OW 8785   3.217   3.626   2.474
 2629SOL    HW1 8786   3.241   3.600   2.381
 2629SOL    HW2 8787   3.128   3.670   2.474
 2630SOL     OW 8788   3.336   1.527   4.823
 2630SOL    HW1 8789   3.277   1.545   4.901
 2630SOL    HW2 8790   3.345   1.610   4.768
 2631SOL     OW 8791   5.510   5.478   0.638
 2631SOL    HW1 8792   5.550   5.565   0.611
 2631SOL    HW2 8793   5.506   5.472   0.737
 2632SOL     OW 8794   4.247   5.625   2.027
 2632SOL    HW1 8795   4.332   5.626   2.078
 2632SOL    HW2 8796   4.170   5.641   2.089
 2633SOL     OW 8797   6.583   3.105   6.143
 2633SOL    HW1 8798   6.654   3.167   6.110
 2633SOL    HW2 8799   6.556   3.043   6.070
 2634SOL     OW 8800   2.246   1.824   6.336
 2634SOL    HW1 8801   2.180   1.846   6.409
 2634SOL    HW2 8802   2.292   1.738   6.358
 2635SOL     OW 8803   4.396   5.601   3.103
 2635SOL    HW1 8804   4.322   5.662   3.131
 2635SOL    HW2 8805   4.440   5.637   3.021
 2636SOL     OW 8806   3.475   6.622   5.962
 2636SOL    HW1 8807   3.471   6.536   5.912
 2636SOL    HW2 8808   3.427   6.693   5.911
 2637SOL     OW 8809   6.364   0.963   2.773
 2637SOL    HW1 8810   6.432   1.033   2.753
 2637SOL    HW2 8811   6.274   0.993   2.739
 2638SOL     OW 8812   0.215   6.214   4.608
 2638SOL    HW1 8813   0.288   6.253   4.664
 2638SOL    HW2 8814   0.230   6.237   4.512
 2639SOL     OW 8815   5.113   5.238   4.765
 2639SOL    HW1 8816   5.085   5.311   4.827
 2639SOL    HW2 8817   5.054   5.237   4.685
 2640SOL     OW 8818   1.739   0.844   2.837
 2640SOL    HW1 8819   1.679   0.830   2.759
 2640SOL    HW2 8820   1.686   0.877   2.915
 2641SOL     OW 8821   4.656   2.255   1.015
 2641SOL    HW1 8822   4.747   2.250   1.055
 2641SOL    HW2 8823   4.588   2.224   1.081
 2642SOL     OW 8824   0.409   0.819   2.986
 2642SOL    HW1 8825   0.395   0.727   2.951
 2642SOL    HW2 8826   0.467   0.870   2.923
 2643SOL     OW 8827   1.657   4.984   4.872
 2643SOL    HW1 8828   1.623   5.050   4.806
 2643SOL    HW2 8829   1.579   4.936   4.914
 2644SOL     OW 8830   5.698   5.455   3.683
 2644SOL    HW1 8831   5.760   5.417   3.752
 2644SOL    HW2 8832   5.611   5.478   3.727
 2645SOL     OW 8833   4.461   5.499   2.601
 2645SOL    HW1 8834   4.393   5.553   2.550
 2645SOL    HW2 8835   4.433   5.403   2.600
 2646SOL     OW 8836   1.237   1.284   6.381
 2646SOL    HW1 8837   1.303   1.209   6.382
 2646SOL    HW2 8838   1.217   1.312   6.475
 2647SOL     OW 8839   4.263   0.328   2.610
 2647SOL    HW1 8840   4.265   0.228   2.602
 2647SOL    HW2 8841   4.179   0.356   2.656
 2648SOL     OW 8842   1.964   0.279   5.796
 2648SOL    HW1 8843   1.881   0.293   5.850
 2648SOL    HW2 8844   2.042   0.320   5.844
 2649SOL     OW 8845   5.920   1.886   3.765
 2649SOL    HW1 8846   5.981   1.807   3.776
 2649SOL    HW2 8847   5.845   1.861   3.703
 2650SOL     OW 8848   1.568   6.519   4.561
 2650SOL    HW1 8849   1.628   6.599   4.559
 2650SOL    HW2 8850   1.546   6.491   4.468
 2651SOL     OW 8851   2.945   1.825   2.549
 2651SOL    HW1 8852   3.024   1.877   2.517
 2651SOL    HW2 8853   2.903   1.872   2.627
 2652SOL     OW 8854   4.028   3.585   6.454
 2652SOL    HW1 8855   4.035   3.580   6.354
 2652SOL    HW2 8856   3.994   3.498   6.490
 2653SOL     OW 8857   2.653   6.863   0.760
 2653SOL    HW1 8858   2.629   6.810   0.841
 2653SOL    HW2 8859   2.632   6.810   0.678
 2654SOL     OW 8860   6.422   0.163   1.596
 2654SOL    HW1 8861   6.463   0.097   1.660
 2654SOL    HW2 8862   6.375   0.234   1.648
 2655SOL     OW 8863   5.429   6.567   4.276
 2655SOL    HW1 8864   5.361   6.547   4.346
 2655SOL    HW2 8865   5.407   6.516   4.192
 2656SOL     OW 8866   5.533   6.984   4.673
 2656SOL    HW1 8867   5.569   6.904   4.626
 2656SOL    HW2 8868   5.575   6.992   4.763
 2657SOL     OW 8869   1.831   3.527   5.900
 2657SOL    HW1 8870   1.767   3.473   5.954
 2657SOL    HW2 8871   1.799   3.532   5.805
 2658SOL     OW 8872   3.427   4.131   0.842
 2658SOL    HW1 8873   3.350   4.086   0.796
 2658SOL    HW2 8874   3.395   4.216   0.884
 2659SOL     OW 8875   0.387   2.358   5.433
 2659SOL    HW1 8876   0.475   2.326   5.399
 2659SOL    HW2 8877   0.313   2.318   5.377
 2660SOL     OW 8878   0.739   1.230   0.220
 2660SOL    HW1 8879   0.716   1.156   0.283
 2660SOL    HW2 8880   0.746   1.316   0.270
 2661SOL     OW 8881   1.844   1.314   1.639
 2661SOL    HW1 8882   1.769   1.287   1.698
 2661SOL    HW2 8883   1.924   1.336   1.695
 2662SOL     OW 8884   2.940   1.696   1.480
 2662SOL    HW1 8885   2.987   1.785   1.480
 2662SOL    HW2 8886   2.997   1.629   1.527
 2663SOL     OW 8887   3.635   7.009   0.890
 2663SOL    HW1 8888   3.641   0.011   0.795
 2663SOL    HW2 8889   3.681   0.047   0.949
 2664SOL     OW 8890   4.777   3.279   5.202
 2664SOL    HW1 8891   4.781   3.280   5.302
 2664SOL    HW2 8892   4.737   3.364   5.169
 2665SOL     OW 8893   1.419   3.488   4.339
 2665SOL    HW1 8894   1.514   3.458   4.338
 2665SOL    HW2 8895   1.414   3.587   4.349
 2666SOL     OW 8896   1.869   3.402   2.156
 2666SOL    HW1 8897   1.869   3.494   2.197
 2666SOL    HW2 8898   1.775   3.371   2.145
 2667SOL     OW 8899   6.432   2.637   4.549
 2667SOL    HW1 8900   6.344   2.596   4.574
 2667SOL    HW2 8901   6.421   2.690   4.465
 2668SOL     OW 8902   5.895   0.840   3.121
 2668SOL    HW1 8903   5.902   0.930   3.078
 2668SOL    HW2 8904   5.977   0.823   3.175
 2669SOL     OW 8905   2.487   1.963   1.973
 2669SOL    HW1 8906   2.559   2.012   2.022
 2669SOL    HW2 8907   2.516   1.948   1.878
 2670SOL     OW 8908   0.606   6.681   1.303
 2670SOL    HW1 8909   0.623   6.715   1.396
 2670SOL    HW2 8910   0.634   6.751   1.237
 2671SOL     OW 8911   5.080   4.166   6.535
 2671SOL    HW1 8912   5.006   4.193   6.473
 2671SOL    HW2 8913   5.151   4.237   6.536
 2672SOL     OW 8914   1.612   0.839   2.574
 2672SOL    HW1 8915   1.626   0.745   2.540
 2672SOL    HW2 8916   1.561   0.891   2.505
 2673SOL     OW 8917   3.129   1.006   3.653
 2673SOL    HW1 8918   3.158   1.102   3.649
 2673SOL    HW2 8919   3.029   1.002   3.653
 2674SOL     OW 8920   5.197   5.691   2.632
 2674SOL    HW1 8921   5.143   5.666   2.552
 2674SOL    HW2 8922   5.244   5.778   2.615
 2675SOL     OW 8923   4.829   1.243   3.753
 2675SOL    HW1 8924   4.812   1.149   3.724
 2675SOL    HW2 8925   4.804   1.253   3.849
 2676SOL     OW 8926   3.618   3.817   5.862
 2676SOL    HW1 8927   3.597   3.841   5.767
 2676SOL    HW2 8928   3.715   3.792   5.870
 2677SOL     OW 8929   1.991   5.377   1.138
 2677SOL    HW1 8930   1.893   5.390   1.119
 2677SOL    HW2 8931   2.045   5.435   1.076
 2678SOL     OW 8932   3.522   1.845   1.518
 2678SOL    HW1 8933   3.622   1.844   1.508
 2678SOL    HW2 8934   3.496   1.781   1.590
 2679SOL     OW 8935   2.386   4.600   2.638
 2679SOL    HW1 8936   2.335   4.666   2.694
 2679SOL    HW2 8937   2.481   4.597   2.668
 2680SOL     OW 8938   6.043   1.574   6.657
 2680SOL    HW1 8939   6.045   1.550   6.560
 2680SOL    HW2 8940   6.106   1.516   6.707
 2681SOL     OW 8941   2.338   2.764   2.881
 2681SOL    HW1 8942   2.377   2.755   2.790
 2681SOL    HW2 8943   2.388   2.705   2.945
 2682SOL     OW 8944   4.001   3.724   2.799
 2682SOL    HW1 8945   3.946   3.807   2.792
 2682SOL    HW2 8946   4.028   3.710   2.894
 2683SOL     OW 8947   2.297   3.241   1.296
 2683SOL    HW1 8948   2.374   3.303   1.284
 2683SOL    HW2 8949   2.227   3.262   1.228
 2684SOL     OW 8950   5.823   0.536   3.549
 2684SOL    HW1 8951   5.765   0.456   3.539
 2684SOL    HW2 8952   5.873   0.531   3.635
 2685SOL     OW 8953   2.060   6.740   5.844
 2685SOL    HW1 8954   2.006   6.677   5.901
 2685SOL    HW2 8955   2.000   6.782   5.776
 2686SOL     OW 8956   2.296   2.101   5.912
 2686SOL    HW1 8957   2.346   2.073   5.994
 2686SOL    HW2 8958   2.359   2.111   5.835
 2687SOL     OW 8959   3.621   2.666   1.750
 2687SOL    HW1 8960   3.525   2.694   1.746
 2687SOL    HW2 8961   3.629   2.582   1.804
 2688SOL     OW 8962   4.573   2.323   0.351
 2688SOL    HW1 8963   4.518   2.242   0.329
 2688SOL    HW2 8964   4.595   2.322   0.449
 2689SOL     OW 8965   0.683   3.731   2.298
 2689SOL    HW1 8966   0.725   3.812   2.256
 2689SOL    HW2 8967   0.739   3.700   2.374
 2690SOL     OW 8968   5.301   0.925   4.024
 2690SOL    HW1 8969   5.392   0.888   4.044
 2690SOL    HW2 8970   5.281   0.913   3.927
 2691SOL     OW 8971   5.855   3.950   3.765
 2691SOL    HW1 8972   5.777   4.012   3.755
 2691SOL    HW2 8973   5.831   3.860   3.729
 2692SOL     OW 8974   1.131   5.760   1.173
 2692SOL    HW1 8975   1.081   5.705   1.241
 2692SOL    HW2 8976   1.189   5.700   1.118
 2693SOL     OW 8977   0.976   6.041   2.878
 2693SOL    HW1 8978   0.935   6.116   2.826
 2693SOL    HW2 8979   0.929   6.031   2.966
 2694SOL     OW 8980   2.951   0.759   2.330
 2694SOL    HW1 8981   2.880   0.752   2.260
 2694SOL    HW2 8982   2.965   0.855   2.354
 2695SOL     OW 8983   6.509   6.163   2.886
 2695SOL    HW1 8984   6.434   6.098   2.899
 2695SOL    HW2 8985   6.579   6.147   2.956
 2696SOL     OW 8986   3.850   4.425   6.149
 2696SOL    HW1 8987   3.758   4.421   6.188
 2696SOL    HW2 8988   3.917   4.398   6.217
 2697SOL     OW 8989   4.638   3.464   0.092
 2697SOL    HW1 8990   4.568   3.440   0.026
 2697SOL    HW2 8991   4.605   3.443   0.184
 2698SOL     OW 8992   2.267   5.550   0.307
 2698SOL    HW1 8993   2.180   5.536   0.353
 2698SOL    HW2 8994   2.285   5.474   0.245
 2699SOL     OW 8995   2.925   0.111   2.914
 2699SOL    HW1 8996   2.841   0.057   2.903
 2699SOL    HW2 8997   2.997   0.071   2.858
 2700SOL     OW 8998   4.458   2.192   0.820
 2700SOL    HW1 8999   4.535   2.227   0.873
 2700SOL    HW2 9000   4.470   2.094   0.804
 2701SOL     OW 9001   5.152   4.066   5.491
 2701SOL    HW1 9002   5.160   4.078   5.590
 2701SOL    HW2 9003   5.057   4.080   5.463
 2702SOL     OW 9004   1.557   2.366   5.028
 2702SOL    HW1 9005   1.540   2.372   4.930
 2702SOL    HW2 9006   1.650   2.332   5.043
 2703SOL     OW 9007   2.080   6.113   1.531
 2703SOL    HW1 9008   2.030   6.154   1.607
 2703SOL    HW2 9009   2.016   6.064   1.472
 2704SOL     OW 9010   4.679   0.546   3.311
 2704SOL    HW1 9011   4.747   0.619   3.324
 2704SOL    HW2 9012   4.680   0.485   3.391
 2705SOL     OW 9013   0.924   0.935   5.350
 2705SOL    HW1 9014   1.008   0.929   5.297
 2705SOL    HW2 9015   0.923   1.021   5.402
 2706SOL     OW 9016   1.055   4.415   4.681
 2706SOL    HW1 9017   1.143   4.431   4.636
 2706SOL    HW2 9018   1.067   4.347   4.753
 2707SOL     OW 9019   3.857   0.582   2.668
 2707SOL    HW1 9020   3.902   0.639   2.599
 2707SOL    HW2 9021   3.822   0.640   2.741
 2708SOL     OW 9022   5.381   3.046   5.194
 2708SOL    HW1 9023   5.434   3.049   5.109
 2708SOL    HW2 9024   5.311   3.117   5.192
 2709SOL     OW 9025   5.310   1.431   5.391
 2709SOL    HW1 9026   5.278   1.338   5.408
 2709SOL    HW2 9027   5.236   1.496   5.407
 2710SOL     OW 9028   0.862   3.033   4.313
 2710SOL    HW1 9029   0.822   3.121   4.286
 2710SOL    HW2 9030   0.962   3.042   4.315
 2711SOL     OW 9031   4.504   0.553   1.132
 2711SOL    HW1 9032   4.601   0.530   1.126
 2711SOL    HW2 9033   4.484   0.592   1.221
 2712SOL     OW 9034   4.682   6.356   1.788
 2712SOL    HW1 9035   4.619   6.302   1.733
 2712SOL    HW2 9036   4.700   6.309   1.875
 2713SOL     OW 9037   4.031   4.331   5.322
 2713SOL    HW1 9038   4.105   4.265   5.311
 2713SOL    HW2 9039   4.062   4.422   5.294
 2714SOL     OW 9040   3.163   4.158   6.179
 2714SOL    HW1 9041   3.138   4.242   6.131
 2714SOL    HW2 9042   3.085   4.124   6.231
 2715SOL     OW 9043   4.928   6.723   0.478
 2715SOL    HW1 9044   4.914   6.629   0.448
 2715SOL    HW2 9045   4.957   6.779   0.401
 2716SOL     OW 9046   4.371   0.836   2.089
 2716SOL    HW1 9047   4.398   0.927   2.059
 2716SOL    HW2 9048   4.347   0.838   2.186
 2717SOL     OW 9049   6.791   1.712   1.816
 2717SOL    HW1 9050   6.696   1.713   1.847
 2717SOL    HW2 9051   6.820   1.806   1.797
 2718SOL     OW 9052   5.953   1.005   6.608
 2718SOL    HW1 9053   5.962   0.969   6.701
 2718SOL    HW2 9054   5.898   0.943   6.553
 2719SOL     OW 9055   1.401   4.497   4.438
 2719SOL    HW1 9056   1.302   4.512   4.433
 2719SOL    HW2 9057   1.448   4.584   4.450
 2720SOL     OW 9058   2.038   4.617   6.068
 2720SOL    HW1 9059   1.956   4.607   6.012
 2720SOL    HW2 9060   2.022   4.577   6.158
 2721SOL     OW 9061   2.677   6.196   3.575
 2721SOL    HW1 9062   2.689   6.214   3.673
 2721SOL    HW2 9063   2.586   6.158   3.559
 2722SOL     OW 9064   3.516   4.656   6.813
 2722SOL    HW1 9065   3.563   4.675   6.900
 2722SOL    HW2 9066   3.418   4.668   6.826
 2723SOL     OW 9067   4.641   5.030   0.482
 2723SOL    HW1 9068   4.721   5.050   0.425
 2723SOL    HW2 9069   4.607   4.939   0.460
 2724SOL     OW 9070   0.333   6.408   1.143
 2724SOL    HW1 9071   0.290   6.439   1.227
 2724SOL    HW2 9072   0.270   6.348   1.093
 2725SOL     OW 9073   6.169   4.094   2.819
 2725SOL    HW1 9074   6.144   4.028   2.748
 2725SOL    HW2 9075   6.089   4.115   2.875
 2726SOL     OW 9076   6.388   2.320   2.585
 2726SOL    HW1 9077   6.303   2.310   2.534
 2726SOL    HW2 9078   6.386   2.260   2.665
 2727SOL     OW 9079   1.215   4.399   3.843
 2727SOL    HW1 9080   1.268   4.319   3.815
 2727SOL    HW2 9081   1.215   4.405   3.942
 2728SOL     OW 9082   4.436   4.192   6.632
 2728SOL    HW1 9083   4.354   4.135   6.619
 2728SOL    HW2 9084   4.467   4.227   6.543
 2729SOL     OW 9085   0.575   0.294   0.923
 2729SOL    HW1 9086   0.660   0.344   0.907
 2729SOL    HW2 9087   0.573   0.212   0.867
 2730SOL     OW 9088   1.156   5.215   2.989
 2730SOL    HW1 9089   1.253   5.204   3.010
 2730SOL    HW2 9090   1.114   5.126   2.977
 2731SOL     OW 9091   3.871   4.012   5.495
 2731SOL    HW1 9092   3.947   4.050   5.443
 2731SOL    HW2 9093   3.852   3.919   5.463
 2732SOL     OW 9094   4.361   1.127   2.160
 2732SOL    HW1 9095   4.432   1.197   2.155
 2732SOL    HW2 9096   4.368   1.079   2.248
 2733SOL     OW 9097   0.523   0.406   0.210
 2733SOL    HW1 9098   0.527   0.318   0.161
 2733SOL    HW2 9099   0.586   0.470   0.168
 2734SOL     OW 9100   3.829   0.076   1.876
 2734SOL    HW1 9101   3.926   0.080   1.851
 2734SOL    HW2 9102   3.776   0.125   1.806
 2735SOL     OW 9103   0.842   2.867   3.047
 2735SOL    HW1 9104   0.825   2.779   3.002
 2735SOL    HW2 9105   0.937   2.895   3.031
 2736SOL     OW 9106   5.629   4.450   1.791
 2736SOL    HW1 9107   5.564   4.405   1.729
 2736SOL    HW2 9108   5.622   4.549   1.781
 2737SOL     OW 9109   2.877   0.400   6.527
 2737SOL    HW1 9110   2.927   0.328   6.574
 2737SOL    HW2 9111   2.778   0.383   6.536
 2738SOL     OW 9112   5.003   5.583   1.428
 2738SOL    HW1 9113   5.087   5.554   1.474
 2738SOL    HW2 9114   5.026   5.649   1.356
 2739SOL     OW 9115   0.750   5.605   1.753
 2739SOL    HW1 9116   0.670   5.659   1.777
 2739SOL    HW2 9117   0.807   5.592   1.835
 2740SOL     OW 9118   6.624   5.809   5.108
 2740SOL    HW1 9119   6.636   5.908   5.109
 2740SOL    HW2 9120   6.538   5.786   5.060
 2741SOL     OW 9121   6.992   6.819   0.382
 2741SOL    HW1 9122   6.976   6.722   0.401
 2741SOL    HW2 9123   6.999   6.833   0.284
 2742SOL     OW 9124   2.805   4.922   1.622
 2742SOL    HW1 9125   2.776   4.904   1.528
 2742SOL    HW2 9126   2.827   4.836   1.667
 2743SOL     OW 9127   4.956   2.115   3.840
 2743SOL    HW1 9128   5.045   2.075   3.866
 2743SOL    HW2 9129   4.962   2.150   3.747
 2744SOL     OW 9130   3.320   3.702   3.389
 2744SOL    HW1 9131   3.336   3.737   3.481
 2744SOL    HW2 9132   3.222   3.691   3.373
 2745SOL     OW 9133   0.959   6.412   6.509
 2745SOL    HW1 9134   0.979   6.337   6.573
 2745SOL    HW2 9135   0.909   6.377   6.430
 2746SOL     OW 9136   1.936   1.033   3.909
 2746SOL    HW1 9137   1.950   0.934   3.908
 2746SOL    HW2 9138   1.989   1.074   3.983
 2747SOL     OW 9139   5.421   5.054   0.698
 2747SOL    HW1 9140   5.376   5.125   0.643
 2747SOL    HW2 9141   5.367   4.970   0.694
 2748SOL     OW 9142   4.419   0.581   0.181
 2748SOL    HW1 9143   4.515   0.554   0.190
 2748SOL    HW2 9144   4.388   0.558   0.088
 2749SOL     OW 9145   4.689   0.957   6.613
 2749SOL    HW1 9146   4.708   0.882   6.676
 2749SOL    HW2 9147   4.591   0.976   6.611
 2750SOL     OW 9148   1.948   6.319   1.710
 2750SOL    HW1 9149   1.855   6.337   1.742
 2750SOL    HW2 9150   2.010   6.314   1.789
 2751SOL     OW 9151   6.520   5.699   2.069
 2751SOL    HW1 9152   6.569   5.715   1.983
 2751SOL    HW2 9153   6.442   5.760   2.074
 2752SOL     OW 9154   3.866   5.361   6.363
 2752SOL    HW1 9155   3.839   5.270   6.333
 2752SOL    HW2 9156   3.785   5.419   6.374
 2753SOL     OW 9157   4.407   4.968   4.948
 2753SOL    HW1 9158   4.360   4.900   5.005
 2753SOL    HW2 9159   4.394   4.946   4.851
 2754SOL     OW 9160   1.026   1.031   4.098
 2754SOL    HW1 9161   0.926   1.032   4.099
 2754SOL    HW2 9162   1.059   0.942   4.127
 2755SOL     OW 9163   3.572   0.605   2.356
 2755SOL    HW1 9164   3.565   0.562   2.446
 2755SOL    HW2 9165   3.553   0.537   2.285
 2756SOL     OW 9166   4.056   5.560   6.053
 2756SOL    HW1 9167   3.994   5.506   5.996
 2756SOL    HW2 9168   4.105   5.625   5.995
 2757SOL     OW 9169   1.421   4.935   0.610
 2757SOL    HW1 9170   1.355   5.009   0.599
 2757SOL    HW2 9171   1.493   4.963   0.674
 2758SOL     OW 9172   5.600   0.015   5.250
 2758SOL    HW1 9173   5.595   0.112   5.272
 2758SOL    HW2 9174   5.512   7.000   5.270
 2759SOL     OW 9175   4.583   4.889   2.808
 2759SOL    HW1 9176   4.623   4.947   2.737
 2759SOL    HW2 9177   4.640   4.808   2.821
 2760SOL     OW 9178   0.410   0.294   3.353
 2760SOL    HW1 9179   0.500   0.331   3.333
 2760SOL    HW2 9180   0.383   0.232   3.279
 2761SOL     OW 9181   2.626   4.672   4.898
 2761SOL    HW1 9182   2.684   4.634   4.970
 2761SOL    HW2 9183   2.683   4.712   4.827
 2762SOL     OW 9184   1.776   2.451   5.597
 2762SOL    HW1 9185   1.747   2.521   5.662
 2762SOL    HW2 9186   1.761   2.484   5.504
 2763SOL     OW 9187   5.755   0.252   1.791
 2763SOL    HW1 9188   5.658   0.257   1.765
 2763SOL    HW2 9189   5.784   0.156   1.789
 2764SOL     OW 9190   6.420   0.539   1.176
 2764SOL    HW1 9191   6.394   0.457   1.226
 2764SOL    HW2 9192   6.442   0.515   1.082
 2765SOL     OW 9193   5.276   1.904   3.384
 2765SOL    HW1 9194   5.285   1.949   3.473
 2765SOL    HW2 9195   5.242   1.811   3.397
 2766SOL     OW 9196   4.803   6.646   2.074
 2766SOL    HW1 9197   4.849   6.707   2.009
 2766SOL    HW2 9198   4.706   6.640   2.051
 2767SOL     OW 9199   6.735   4.331   5.658
 2767SOL    HW1 9200   6.696   4.396   5.724
 2767SOL    HW2 9201   6.795   4.267   5.706
 2768SOL     OW 9202   5.461   0.499   5.755
 2768SOL    HW1 9203   5.500   0.524   5.844
 2768SOL    HW2 9204   5.392   0.429   5.768
 2769SOL     OW 9205   0.877   4.292   1.874
 2769SOL    HW1 9206   0.811   4.276   1.800
 2769SOL    HW2 9207   0.968   4.307   1.834
 2770SOL     OW 9208   4.206   6.592   2.351
 2770SOL    HW1 9209   4.182   6.541   2.269
 2770SOL    HW2 9210   4.231   6.528   2.424
 2771SOL     OW 9211   4.395   0.596   1.382
 2771SOL    HW1 9212   4.378   0.500   1.361
 2771SOL    HW2 9213   4.309   0.640   1.406
 2772SOL     OW 9214   3.510   0.510   0.633
 2772SOL    HW1 9215   3.576   0.512   0.708
 2772SOL    HW2 9216   3.471   0.601   0.621
 2773SOL     OW 9217   3.271   5.337   1.398
 2773SOL    HW1 9218   3.319   5.352   1.312
 2773SOL    HW2 9219   3.267   5.422   1.450
 2774SOL     OW 9220   4.935   2.937   1.848
 2774SOL    HW1 9221   4.968   3.013   1.792
 2774SOL    HW2 9222   4.868   2.971   1.915
 2775SOL     OW 9223   0.974   0.347   1.701
 2775SOL    HW1 9224   0.902   0.407   1.666
 2775SOL    HW2 9225   0.969   0.259   1.654
 2776SOL     OW 9226   2.839   5.618   0.060
 2776SOL    HW1 9227   2.790   5.639   7.003
 2776SOL    HW2 9228   2.781   5.561   0.118
 2777SOL     OW 9229   0.984   2.389   4.326
 2777SOL    HW1 9230   0.959   2.395   4.230
 2777SOL    HW2 9231   0.972   2.479   4.369
 2778SOL     OW 9232   3.454   2.394   5.317
 2778SOL    HW1 9233   3.363   2.413   5.280
 2778SOL    HW2 9234   3.478   2.299   5.297
 2779SOL     OW 9235   6.384   0.352   0.354
 2779SOL    HW1 9236   6.411   0.379   0.447
 2779SOL    HW2 9237   6.445   0.279   0.322
 2780SOL     OW 9238   2.645   6.396   6.080
 2780SOL    HW1 9239   2.693   6.429   6.161
 2780SOL    HW2 9240   2.651   6.465   6.007
 2781SOL     OW 9241   5.592   3.769   6.482
 2781SOL    HW1 9242   5.675   3.741   6.530
 2781SOL    HW2 9243   5.513   3.756   6.542
 2782SOL     OW 9244   3.685   0.410   6.224
 2782SOL    HW1 9245   3.715   0.338   6.287
 2782SOL    HW2 9246   3.671   0.372   6.133
 2783SOL     OW 9247   0.549   3.983   5.429
 2783SOL    HW1 9248   0.644   3.999   5.454
 2783SOL    HW2 9249   0.531   4.021   5.338
 2784SOL     OW 9250   2.693   1.817   1.627
 2784SOL    HW1 9251   2.785   1.845   1.656
 2784SOL    HW2 9252   2.637   1.898   1.614
 2785SOL     OW 9253   5.382   2.900   2.360
 2785SOL    HW1 9254   5.472   2.862   2.384
 2785SOL    HW2 9255   5.349   2.858   2.276
 2786SOL     OW 9256   3.819   0.459   0.786
 2786SOL    HW1 9257   3.824   0.403   0.703
 2786SOL    HW2 9258   3.726   0.454   0.824
 2787SOL     OW 9259   1.467   4.511   5.824
 2787SOL    HW1 9260   1.553   4.521   5.774
 2787SOL    HW2 9261   1.416   4.433   5.789
 2788SOL     OW 9262   1.998   1.974   0.774
 2788SOL    HW1 9263   2.072   1.915   0.806
 2788SOL    HW2 9264   1.914   1.921   0.767
 2789SOL     OW 9265   6.796   3.345   3.059
 2789SOL    HW1 9266   6.795   3.348   3.159
 2789SOL    HW2 9267   6.749   3.425   3.022
 2790SOL     OW 9268   3.221   6.443   5.023
 2790SOL    HW1 9269   3.169   6.381   4.964
 2790SOL    HW2 9270   3.237   6.530   4.975
 2791SOL     OW 9271   2.148   3.594   2.262
 2791SOL    HW1 9272   2.173   3.547   2.178
 2791SOL    HW2 9273   2.224   3.651   2.293
 2792SOL     OW 9274   0.204   1.696   5.978
 2792SOL    HW1 9275   0.188   1.715   5.881
 2792SOL    HW2 9276   0.250   1.774   6.020
 2793SOL     OW 9277   5.363   0.393   5.041
 2793SOL    HW1 9278   5.321   0.340   5.115
 2793SOL    HW2 9279   5.377   0.333   4.962
 2794SOL     OW 9280   0.470   1.358   2.611
 2794SOL    HW1 9281   0.556   1.386   2.653
 2794SOL    HW2 9282   0.450   1.415   2.532
 2795SOL     OW 9283   1.582   3.443   0.879
 2795SOL    HW1 9284   1.575   3.523   0.939
 2795SOL    HW2 9285   1.508   3.379   0.901
 2796SOL     OW 9286   3.987   5.340   2.048
 2796SOL    HW1 9287   3.994   5.369   2.143
 2796SOL    HW2 9288   3.937   5.409   1.995
 2797SOL     OW 9289   5.265   4.566   5.383
 2797SOL    HW1 9290   5.183   4.622   5.382
 2797SOL    HW2 9291   5.253   4.490   5.446
 2798SOL     OW 9292   2.034   3.830   2.988
 2798SOL    HW1 9293   2.027   3.865   2.895
 2798SOL    HW2 9294   2.000   3.736   2.991
 2799SOL     OW 9295   6.924   5.971   0.163
 2799SOL    HW1 9296   6.903   5.875   0.180
 2799SOL    HW2 9297   7.019   5.980   0.133
 2800SOL     OW 9298   2.715   0.833   6.573
 2800SOL    HW1 9299   2.667   0.917   6.600
 2800SOL    HW2 9300   2.804   0.829   6.618
 2801SOL     OW 9301   3.893   5.737   1.726
 2801SOL    HW1 9302   3.926   5.713   1.634
 2801SOL    HW2 9303   3.966   5.784   1.776
 2802SOL     OW 9304   6.216   0.112   6.279
 2802SOL    HW1 9305   6.289   0.124   6.212
 2802SOL    HW2 9306   6.188   0.016   6.284
 2803SOL     OW 9307   3.131   6.093   4.634
 2803SOL    HW1 9308   3.035   6.118   4.645
 2803SOL    HW2 9309   3.156   6.025   4.703
 2804SOL     OW 9310   0.675   5.086   2.562
 2804SOL    HW1 9311   0.738   5.042   2.625
 2804SOL    HW2 9312   0.583   5.086   2.601
 2805SOL     OW 9313   6.852   4.435   6.554
 2805SOL    HW1 9314   6.919   4.361   6.555
 2805SOL    HW2 9315   6.896   4.520   6.523
 2806SOL     OW 9316   5.687   3.908   2.534
 2806SOL    HW1 9317   5.744   3.986   2.508
 2806SOL    HW2 9318   5.591   3.930   2.520
 2807SOL     OW 9319   3.975   4.830   4.236
 2807SOL    HW1 9320   3.880   4.818   4.209
 2807SOL    HW2 9321   4.035   4.807   4.159
 2808SOL     OW 9322   4.615   0.288   4.133
 2808SOL    HW1 9323   4.597   0.302   4.230
 2808SOL    HW2 9324   4.713   0.273   4.119
 2809SOL     OW 9325   5.354   1.702   0.505
 2809SOL    HW1 9326   5.366   1.772   0.576
 2809SOL    HW2 9327   5.262   1.709   0.467
 2810SOL     OW 9328   2.697   0.917   6.004
 2810SOL    HW1 9329   2.654   0.828   6.023
 2810SOL    HW2 9330   2.759   0.908   5.927
 2811SOL     OW 9331   6.838   0.491   4.309
 2811SOL    HW1 9332   6.848   0.462   4.214
 2811SOL    HW2 9333   6.751   0.458   4.345
 2812SOL     OW 9334   4.774   4.261   2.564
 2812SOL    HW1 9335   4.736   4.244   2.473
 2812SOL    HW2 9336   4.859   4.313   2.555
 2813SOL     OW 9337   6.551   1.798   6.156
 2813SOL    HW1 9338   6.533   1.862   6.230
 2813SOL    HW2 9339   6.502   1.713   6.173
 2814SOL     OW 9340   5.819   4.689   5.354
 2814SOL    HW1 9341   5.833   4.749   5.432
 2814SOL    HW2 9342   5.724   4.659   5.352
 2815SOL     OW 9343   1.517   1.428   4.308
 2815SOL    HW1 9344   1.601   1.407   4.357
 2815SOL    HW2 9345   1.538   1.452   4.214
 2816SOL     OW 9346   3.905   6.221   3.397
 2816SOL    HW1 9347   3.899   6.148   3.465
 2816SOL    HW2 9348   3.864   6.190   3.311
 2817SOL     OW 9349   1.301   1.195   0.968
 2817SOL    HW1 9350   1.260   1.284   0.949
 2817SOL    HW2 9351   1.307   1.181   1.067
 2818SOL     OW 9352   1.320   2.235   6.373
 2818SOL    HW1 9353   1.342   2.328   6.343
 2818SOL    HW2 9354   1.372   2.169   6.319
 2819SOL     OW 9355   6.432   3.200   2.388
 2819SOL    HW1 9356   6.373   3.278   2.369
 2819SOL    HW2 9357   6.377   3.116   2.386
 2820SOL     OW 9358   5.540   3.312   4.117
 2820SOL    HW1 9359   5.595   3.370   4.177
 2820SOL    HW2 9360   5.461   3.277   4.168
 2821SOL     OW 9361   1.410   3.290   2.945
 2821SOL    HW1 9362   1.405   3.238   3.031
 2821SOL    HW2 9363   1.456   3.235   2.876
 2822SOL     OW 9364   3.253   2.146   0.335
 2822SOL    HW1 9365   3.190   2.182   0.266
 2822SOL    HW2 9366   3.312   2.078   0.292
 2823SOL     OW 9367   1.713   0.832   4.506
 2823SOL    HW1 9368   1.656   0.913   4.498
 2823SOL    HW2 9369   1.755   0.830   4.597
 2824SOL     OW 9370   3.028   2.934   6.074
 2824SOL    HW1 9371   3.125   2.919   6.052
 2824SOL    HW2 9372   2.978   2.959   5.991
 2825SOL     OW 9373   5.646   6.036   1.251
 2825SOL    HW1 9374   5.604   6.107   1.194
 2825SOL    HW2 9375   5.727   6.073   1.296
 2826SOL     OW 9376   6.085   4.116   4.947
 2826SOL    HW1 9377   6.102   4.210   4.918
 2826SOL    HW2 9378   6.018   4.074   4.886
 2827SOL     OW 9379   0.649   0.086   6.090
 2827SOL    HW1 9380   0.640   7.014   6.094
 2827SOL    HW2 9381   0.732   0.110   6.039
 2828SOL     OW 9382   3.488   2.488   6.295
 2828SOL    HW1 9383   3.506   2.454   6.203
 2828SOL    HW2 9384   3.416   2.432   6.337
 2829SOL     OW 9385   3.172   1.335   0.302
 2829SOL    HW1 9386   3.099   1.272   0.328
 2829SOL    HW2 9387   3.245   1.333   0.371
 2830SOL     OW 9388   3.117   4.062   0.348
 2830SOL    HW1 9389   3.029   4.088   0.388
 2830SOL    HW2 9390   3.147   4.133   0.284
 2831SOL     OW 9391   6.283   6.476   4.312
 2831SOL    HW1 9392   6.271   6.510   4.219
 2831SOL    HW2 9393   6.375   6.499   4.344
 2832SOL     OW 9394   0.481   0.736   2.231
 2832SOL    HW1 9395   0.417   0.795   2.280
 2832SOL    HW2 9396   0.439   0.646   2.217
 2833SOL     OW 9397   5.264   2.834   2.090
 2833SOL    HW1 9398   5.280   2.893   2.010
 2833SOL    HW2 9399   5.182   2.779   2.075
 2834SOL     OW 9400   4.853   0.932   5.044
 2834SOL    HW1 9401   4.938   0.963   5.003
 2834SOL    HW2 9402   4.810   1.007   5.094
 2835SOL     OW 9403   6.310   6.286   3.245
 2835SOL    HW1 9404   6.287   6.356   3.178
 2835SOL    HW2 9405   6.227   6.236   3.272
 2836SOL     OW 9406   6.693   6.563   1.121
 2836SOL    HW1 9407   6.680   6.598   1.214
 2836SOL    HW2 9408   6.685   6.638   1.056
 2837SOL     OW 9409   6.148   1.988   4.328
 2837SOL    HW1 9410   6.165   2.058   4.397
 2837SOL    HW2 9411   6.174   2.024   4.238
 2838SOL     OW 9412   2.295   4.609   4.113
 2838SOL    HW1 9413   2.317   4.658   4.198
 2838SOL    HW2 9414   2.206   4.640   4.080
 2839SOL     OW 9415   4.858   2.997   1.269
 2839SOL    HW1 9416   4.783   3.059   1.248
 2839SOL    HW2 9417   4.829   2.903   1.252
 2840SOL     OW 9418   0.972   2.585   4.921
 2840SOL    HW1 9419   0.950   2.595   5.018
 2840SOL    HW2 9420   0.908   2.641   4.867
 2841SOL     OW 9421   0.359   6.029   0.213
 2841SOL    HW1 9422   0.286   5.997   0.152
 2841SOL    HW2 9423   0.424   5.955   0.230
 2842SOL     OW 9424   5.297   3.170   2.395
 2842SOL    HW1 9425   5.197   3.184   2.396
 2842SOL    HW2 9426   5.317   3.072   2.393
 2843SOL     OW 9427   3.842   0.462   3.633
 2843SOL    HW1 9428   3.908   0.403   3.587
 2843SOL    HW2 9429   3.781   0.406   3.689
 2844SOL     OW 9430   1.656   3.907   4.652
 2844SOL    HW1 9431   1.687   3.858   4.733
 2844SOL    HW2 9432   1.597   3.847   4.598
 2845SOL     OW 9433   1.109   4.215   6.395
 2845SOL    HW1 9434   1.102   4.283   6.469
 2845SOL    HW2 9435   1.199   4.172   6.399
 2846SOL     OW 9436   5.819   0.964   5.691
 2846SOL    HW1 9437   5.833   1.049   5.640
 2846SOL    HW2 9438   5.901   0.908   5.686
 2847SOL     OW 9439   3.810   4.974   4.902
 2847SOL    HW1 9440   3.785   5.059   4.948
 2847SOL    HW2 9441   3.863   4.916   4.964
 2848SOL     OW 9442   2.340   0.051   6.229
 2848SOL    HW1 9443   2.317   6.990   6.267
 2848SOL    HW2 9444   2.357   0.043   6.131
 2849SOL     OW 9445   2.079   2.473   1.478
 2849SOL    HW1 9446   1.991   2.521   1.486
 2849SOL    HW2 9447   2.148   2.522   1.531
 2850SOL     OW 9448   4.524   1.132   0.739
 2850SOL    HW1 9449   4.490   1.075   0.664
 2850SOL    HW2 9450   4.619   1.109   0.758
 2851SOL     OW 9451   3.402   6.319   5.443
 2851SOL    HW1 9452   3.340   6.385   5.400
 2851SOL    HW2 9453   3.370   6.297   5.535
 2852SOL     OW 9454   0.595   2.042   6.357
 2852SOL    HW1 9455   0.583   2.095   6.274
 2852SOL    HW2 9456   0.664   2.086   6.415
 2853SOL     OW 9457   3.789   3.150   1.248
 2853SOL    HW1 9458   3.767   3.092   1.327
 2853SOL    HW2 9459   3.729   3.230   1.247
 2854SOL     OW 9460   0.749   1.578   4.071
 2854SOL    HW1 9461   0.656   1.545   4.054
 2854SOL    HW2 9462   0.773   1.564   4.167
 2855SOL     OW 9463   3.151   1.986   3.350
 2855SOL    HW1 9464   3.104   1.988   3.438
 2855SOL    HW2 9465   3.250   1.993   3.364
 2856SOL     OW 9466   3.361   1.373   5.455
 2856SOL    HW1 9467   3.307   1.453   5.430
 2856SOL    HW2 9468   3.359   1.306   5.381
 2857SOL     OW 9469   3.092   3.696   5.498
 2857SOL    HW1 9470   3.005   3.650   5.517
 2857SOL    HW2 9471   3.074   3.790   5.470
 2858SOL     OW 9472   5.534   2.953   3.129
 2858SOL    HW1 9473   5.604   2.883   3.116
 2858SOL    HW2 9474   5.474   2.927   3.204
 2859SOL     OW 9475   6.687   5.135   0.096
 2859SOL    HW1 9476   6.783   5.122   0.122
 2859SOL    HW2 9477   6.668   5.083   0.012
 2860SOL     OW 9478   4.420   2.549   0.638
 2860SOL    HW1 9479   4.448   2.622   0.702
 2860SOL    HW2 9480   4.497   2.487   0.623
 2861SOL     OW 9481   4.344   4.152   6.217
 2861SOL    HW1 9482   4.292   4.090   6.157
 2861SOL    HW2 9483   4.437   4.117   6.229
 2862SOL     OW 9484   6.546   6.572   3.306
 2862SOL    HW1 9485   6.499   6.568   3.394
 2862SOL    HW2 9486   6.630   6.517   3.310
 2863SOL     OW 9487   6.324   6.259   6.824
 2863SOL    HW1 9488   6.326   6.228   6.919
 2863SOL    HW2 9489   6.281   6.190   6.767
 2864SOL     OW 9490   4.587   2.163   0.066
 2864SOL    HW1 9491   4.674   2.134   0.105
 2864SOL    HW2 9492   4.563   2.253   0.101
 2865SOL     OW 9493   5.085   4.460   5.157
 2865SOL    HW1 9494   5.140   4.429   5.234
 2865SOL    HW2 9495   5.105   4.556   5.139
 2866SOL     OW 9496   0.471   0.066   6.310
 2866SOL    HW1 9497   0.521   0.008   6.374
 2866SOL    HW2 9498   0.528   0.085   6.231
 2867SOL     OW 9499   6.399   3.995   4.669
 2867SOL    HW1 9500   6.331   4.067   4.683
 2867SOL    HW2 9501   6.390   3.959   4.576
 2868SOL     OW 9502   2.077   4.831   4.811
 2868SOL    HW1 9503   2.073   4.750   4.869
 2868SOL    HW2 9504   2.097   4.911   4.868
 2869SOL     OW 9505   5.869   2.016   2.586
 2869SOL    HW1 9506   5.825   1.936   2.546
 2869SOL    HW2 9507   5.897   2.078   2.513
 2870SOL     OW 9508   4.109   1.945   1.436
 2870SOL    HW1 9509   4.094   1.972   1.531
 2870SOL    HW2 9510   4.101   1.846   1.429
 2871SOL     OW 9511   1.277   1.211   5.743
 2871SOL    HW1 9512   1.243   1.304   5.759
 2871SOL    HW2 9513   1.301   1.169   5.831
 2872SOL     OW 9514   1.531   0.332   4.228
 2872SOL    HW1 9515   1.607   0.380   4.184
 2872SOL    HW2 9516   1.473   0.291   4.158
 2873SOL     OW 9517   6.388   5.109   2.413
 2873SOL    HW1 9518   6.356   5.201   2.391
 2873SOL    HW2 9519   6.325   5.042   2.376
 2874SOL     OW 9520   5.167   1.854   1.811
 2874SOL    HW1 9521   5.263   1.826   1.802
 2874SOL    HW2 9522   5.118   1.787   1.868
 2875SOL     OW 9523   2.731   5.366   0.509
 2875SOL    HW1 9524   2.678   5.281   0.509
 2875SOL    HW2 9525   2.742   5.399   0.602
 2876SOL     OW 9526   5.322   2.018   1.453
 2876SOL    HW1 9527   5.294   2.027   1.358
 2876SOL    HW2 9528   5.385   1.941   1.463
 2877SOL     OW 9529   1.192   3.425   5.814
 2877SOL    HW1 9530   1.258   3.370   5.763
 2877SOL    HW2 9531   1.229   3.447   5.904
 2878SOL     OW 9532   4.938   4.846   0.633
 2878SOL    HW1 9533   4.986   4.810   0.553
 2878SOL    HW2 9534   4.980   4.933   0.661
 2879SOL     OW 9535   5.318   4.759   0.039
 2879SOL    HW1 9536   5.402   4.723   0.079
 2879SOL    HW2 9537   5.239   4.714   0.080
 2880SOL     OW 9538   1.726   0.730   3.993
 2880SOL    HW1 9539   1.823   0.753   3.985
 2880SOL    HW2 9540   1.672   0.813   4.005
 2881SOL     OW 9541   0.201   0.219   0.020
 2881SOL    HW1 9542   0.126   0.251   0.078
 2881SOL    HW2 9543   0.244   0.297   7.003
 2882SOL     OW 9544   6.507   4.590   3.258
 2882SOL    HW1 9545   6.442   4.663   3.278
 2882SOL    HW2 9546   6.459   4.502   3.254
 2883SOL     OW 9547   3.259   6.573   2.468
 2883SOL    HW1 9548   3.332   6.632   2.434
 2883SOL    HW2 9549   3.222   6.611   2.552
 2884SOL     OW 9550   2.040   4.827   3.136
 2884SOL    HW1 9551   2.090   4.871   3.211
 2884SOL    HW2 9552   2.092   4.747   3.104
 2885SOL     OW 9553   1.113   2.085   4.025
 2885SOL    HW1 9554   1.188   2.052   4.083
 2885SOL    HW2 9555   1.031   2.100   4.080
 2886SOL     OW 9556   2.893   2.404   6.265
 2886SOL    HW1 9557   2.825   2.438   6.200
 2886SOL    HW2 9558   2.860   2.419   6.359
 2887SOL     OW 9559   2.431   0.214   5.356
 2887SOL    HW1 9560   2.380   0.227   5.271
 2887SOL    HW2 9561   2.394   0.275   5.427
 2888SOL     OW 9562   0.407   5.269   6.909
 2888SOL    HW1 9563   0.347   5.280   6.830
 2888SOL    HW2 9564   0.449   5.357   6.931
 2889SOL     OW 9565   1.064   1.232   0.436
 2889SOL    HW1 9566   1.106   1.294   0.501
 2889SOL    HW2 9567   0.981   1.192   0.476
 2890SOL     OW 9568   2.232   0.646   0.256
 2890SOL    HW1 9569   2.140   0.685   0.268
 2890SOL    HW2 9570   2.299   0.720   0.255
 2891SOL     OW 9571   3.020   4.672   5.341
 2891SOL    HW1 9572   2.959   4.607   5.296
 2891SOL    HW2 9573   2.996   4.678   5.438
 2892SOL     OW 9574   3.980   4.007   5.191
 2892SOL    HW1 9575   4.034   3.957   5.259
 2892SOL    HW2 9576   4.003   3.975   5.099
 2893SOL     OW 9577   2.883   0.668   4.950
 2893SOL    HW1 9578   2.895   0.768   4.946
 2893SOL    HW2 9579   2.971   0.624   4.936
 2894SOL     OW 9580   3.482   2.850   2.472
 2894SOL    HW1 9581   3.458   2.788   2.396
 2894SOL    HW2 9582   3.458   2.944   2.447
 2895SOL     OW 9583   3.684   3.014   0.076
 2895SOL    HW1 9584   3.635   2.928   0.060
 2895SOL    HW2 9585   3.641   3.088   0.025
 2896SOL     OW 9586   1.093   4.928   0.549
 2896SOL    HW1 9587   1.125   4.862   0.618
 2896SOL    HW2 9588   1.068   4.879   0.466
 2897SOL     OW 9589   0.178   0.488   3.173
 2897SOL    HW1 9590   0.249   0.555   3.194
 2897SOL    HW2 9591   0.098   0.534   3.135
 2898SOL     OW 9592   1.563   4.955   2.852
 2898SOL    HW1 9593   1.490   4.979   2.787
 2898SOL    HW2 9594   1.650   4.990   2.818
 2899SOL     OW 9595   5.335   1.381   0.761
 2899SOL    HW1 9596   5.307   1.424   0.847
 2899SOL    HW2 9597   5.256   1.379   0.698
 2900SOL     OW 9598   2.113   5.552   6.605
 2900SOL    HW1 9599   2.174   5.479   6.575
 2900SOL    HW2 9600   2.031   5.512   6.646
 2901SOL     OW 9601   2.885   0.049   1.224
 2901SOL    HW1 9602   2.982   0.064   1.205
 2901SOL    HW2 9603   2.874   0.009   1.315
 2902SOL     OW 9604   4.473   5.013   1.501
 2902SOL    HW1 9605   4.528   5.062   1.433
 2902SOL    HW2 9606   4.510   4.921   1.514
 2903SOL     OW 9607   3.027   2.469   1.685
 2903SOL    HW1 9608   2.979   2.464   1.773
 2903SOL    HW2 9609   3.112   2.417   1.690
 2904SOL     OW 9610   2.879   2.224   4.587
 2904SOL    HW1 9611   2.836   2.138   4.615
 2904SOL    HW2 9612   2.898   2.279   4.668
 2905SOL     OW 9613   0.807   2.399   2.358
 2905SOL    HW1 9614   0.754   2.336   2.301
 2905SOL    HW2 9615   0.848   2.348   2.434
 2906SOL     OW 9616   5.404   5.210   2.723
 2906SOL    HW1 9617   5.413   5.299   2.768
 2906SOL    HW2 9618   5.464   5.143   2.767
 2907SOL     OW 9619   6.227   0.264   4.392
 2907SOL    HW1 9620   6.189   0.332   4.329
 2907SOL    HW2 9621   6.326   0.271   4.393
 2908SOL     OW 9622   4.554   5.893   4.702
 2908SOL    HW1 9623   4.518   5.818   4.757
 2908SOL    HW2 9624   4.546   5.870   4.605
 2909SOL     OW 9625   2.085   6.380   6.347
 2909SOL    HW1 9626   2.113   6.402   6.440
 2909SOL    HW2 9627   2.164   6.382   6.286
 2910SOL     OW 9628   4.165   5.448   5.361
 2910SOL    HW1 9629   4.168   5.534   5.411
 2910SOL    HW2 9630   4.108   5.459   5.279
 2911SOL     OW 9631   2.559   4.852   2.895
 2911SOL    HW1 9632   2.516   4.761   2.897
 2911SOL    HW2 9633   2.519   4.907   2.822
 2912SOL     OW 9634   3.126   5.377   0.902
 2912SOL    HW1 9635   3.050   5.366   0.966
 2912SOL    HW2 9636   3.135   5.295   0.846
 2913SOL     OW 9637   0.135   2.216   1.432
 2913SOL    HW1 9638   0.087   2.215   1.519
 2913SOL    HW2 9639   0.091   2.280   1.370
 2914SOL     OW 9640   4.902   4.761   6.194
 2914SOL    HW1 9641   4.824   4.824   6.191
 2914SOL    HW2 9642   4.954   4.777   6.278
 2915SOL     OW 9643   4.475   0.712   2.925
 2915SOL    HW1 9644   4.515   0.627   2.960
 2915SOL    HW2 9645   4.549   0.773   2.896
 2916SOL     OW 9646   5.110   0.891   4.230
 2916SOL    HW1 9647   5.157   0.936   4.154
 2916SOL    HW2 9648   5.022   0.856   4.199
 2917SOL     OW 9649   3.841   0.467   2.385
 2917SOL    HW1 9650   3.885   0.486   2.473
 2917SOL    HW2 9651   3.786   0.545   2.357
 2918SOL     OW 9652   1.310   3.057   4.479
 2918SOL    HW1 9653   1.347   3.000   4.406
 2918SOL    HW2 9654   1.347   3.026   4.567
 2919SOL     OW 9655   6.064   5.374   0.346
 2919SOL    HW1 9656   6.043   5.294   0.402
 2919SOL    HW2 9657   5.982   5.402   0.296
 2920SOL     OW 9658   4.657   1.436   2.728
 2920SOL    HW1 9659   4.740   1.419   2.675
 2920SOL    HW2 9660   4.680   1.438   2.826
 2921SOL     OW 9661   6.437   0.955   0.052
 2921SOL    HW1 9662   6.414   0.917   6.990
 2921SOL    HW2 9663   6.408   1.050   0.056
 2922SOL     OW 9664   4.629   0.563   3.906
 2922SOL    HW1 9665   4.723   0.532   3.913
 2922SOL    HW2 9666   4.602   0.607   3.991
 2923SOL     OW 9667   6.959   4.043   0.778
 2923SOL    HW1 9668   6.941   3.949   0.749
 2923SOL    HW2 9669   6.990   4.097   0.701
 2924SOL     OW 9670   6.461   6.344   6.598
 2924SOL    HW1 9671   6.449   6.273   6.668
 2924SOL    HW2 9672   6.393   6.330   6.526
 2925SOL     OW 9673   6.483   4.638   0.900
 2925SOL    HW1 9674   6.385   4.654   0.898
 2925SOL    HW2 9675   6.531   4.713   0.855
 2926SOL     OW 9676   6.766   1.494   2.949
 2926SOL    HW1 9677   6.860   1.480   2.979
 2926SOL    HW2 9678   6.757   1.469   2.853
 2927SOL     OW 9679   6.898   3.072   3.264
 2927SOL    HW1 9680   6.952   3.019   3.199
 2927SOL    HW2 9681   6.802   3.071   3.236
 2928SOL     OW 9682   5.786   5.832   0.775
 2928SOL    HW1 9683   5.748   5.741   0.791
 2928SOL    HW2 9684   5.804   5.876   0.863
 2929SOL     OW 9685   6.965   0.524   5.692
 2929SOL    HW1 9686   0.021   0.572   5.717
 2929SOL    HW2 9687   6.912   0.502   5.774
 2930SOL     OW 9688   2.368   0.062   4.406
 2930SOL    HW1 9689   2.282   0.073   4.455
 2930SOL    HW2 9690   2.433   0.131   4.439
 2931SOL     OW 9691   5.062   4.788   6.474
 2931SOL    HW1 9692   5.005   4.779   6.555
 2931SOL    HW2 9693   5.138   4.723   6.479
 2932SOL     OW 9694   0.877   5.285   1.728
 2932SOL    HW1 9695   0.860   5.268   1.825
 2932SOL    HW2 9696   0.790   5.299   1.681
 2933SOL     OW 9697   4.100   2.159   3.276
 2933SOL    HW1 9698   4.136   2.067   3.263
 2933SOL    HW2 9699   4.096   2.181   3.373
 2934SOL     OW 9700   1.692   1.192   1.255
 2934SOL    HW1 9701   1.625   1.206   1.183
 2934SOL    HW2 9702   1.651   1.141   1.330
 2935SOL     OW 9703   6.638   1.188   0.726
 2935SOL    HW1 9704   6.615   1.128   0.649
 2935SOL    HW2 9705   6.555   1.230   0.762
 2936SOL     OW 9706   4.116   4.419   1.268
 2936SOL    HW1 9707   4.167   4.504   1.254
 2936SOL    HW2 9708   4.069   4.423   1.356
 2937SOL     OW 9709   2.547   4.193   0.773
 2937SOL    HW1 9710   2.519   4.180   0.678
 2937SOL    HW2 9711   2.639   4.232   0.775
 2938SOL     OW 9712   4.885   5.921   6.980
 2938SOL    HW1 9713   4.820   5.863   0.002
 2938SOL    HW2 9714   4.844   5.949   6.893
 2939SOL     OW 9715   6.764   6.329   6.791
 2939SOL    HW1 9716   6.707   6.360   6.867
 2939SOL    HW2 9717   6.733   6.239   6.760
 2940SOL     OW 9718   3.756   6.875   5.545
 2940SOL    HW1 9719   3.818   6.851   5.619
 2940SOL    HW2 9720   3.771   6.813   5.468
 2941SOL     OW 9721   4.000   1.145   5.493
 2941SOL    HW1 9722   3.918   1.193   5.459
 2941SOL    HW2 9723   4.067   1.212   5.525
 2942SOL     OW 9724   2.752   6.296   3.835
 2942SOL    HW1 9725   2.808   6.296   3.918
 2942SOL    HW2 9726   2.791   6.361   3.769
 2943SOL     OW 9727   5.252   4.481   3.132
 2943SOL    HW1 9728   5.244   4.512   3.227
 2943SOL    HW2 9729   5.162   4.457   3.097
 2944SOL     OW 9730   5.388   5.252   0.901
 2944SOL    HW1 9731   5.442   5.215   0.976
 2944SOL    HW2 9732   5.394   5.190   0.822
 2945SOL     OW 9733   3.386   3.874   4.430
 2945SOL    HW1 9734   3.344   3.964   4.418
 2945SOL    HW2 9735   3.339   3.825   4.503
 2946SOL     OW 9736   1.584   6.351   5.344
 2946SOL    HW1 9737   1.543   6.262   5.321
 2946SOL    HW2 9738   1.514   6.422   5.339
 2947SOL     OW 9739   0.479   5.098   0.063
 2947SOL    HW1 9740   0.453   5.162   0.135
 2947SOL    HW2 9741   0.480   5.145   7.003
 2948SOL     OW 9742   6.933   2.973   4.957
 2948SOL    HW1 9743   6.914   2.932   4.868
 2948SOL    HW2 9744   6.855   2.959   5.018
 2949SOL     OW 9745   0.765   6.852   1.146
 2949SOL    HW1 9746   0.863   6.833   1.148
 2949SOL    HW2 9747   0.722   6.798   1.073
 2950SOL     OW 9748   5.368   4.116   4.977
 2950SOL    HW1 9749   5.284   4.098   5.029
 2950SOL    HW2 9750   5.437   4.049   5.002
 2951SOL     OW 9751   6.657   0.547   0.002
 2951SOL    HW1 9752   6.717   0.510   6.959
 2951SOL    HW2 9753   6.588   0.479   0.025
 2952SOL     OW 9754   0.523   3.741   1.711
 2952SOL    HW1 9755   0.601   3.727   1.772
 2952SOL    HW2 9756   0.505   3.657   1.660
 2953SOL     OW 9757   5.637   1.563   1.684
 2953SOL    HW1 9758   5.717   1.614   1.655
 2953SOL    HW2 9759   5.588   1.530   1.603
 2954SOL     OW 9760   5.107   6.318   1.906
 2954SOL    HW1 9761   5.092   6.407   1.951
 2954SOL    HW2 9762   5.190   6.322   1.851
 2955SOL     OW 9763   5.447   1.758   1.437
 2955SOL    HW1 9764   5.526   1.789   1.385
 2955SOL    HW2 9765   5.378   1.722   1.374
 2956SOL     OW 9766   4.933   6.083   3.099
 2956SOL    HW1 9767   5.016   6.083   3.155
 2956SOL    HW2 9768   4.853   6.071   3.158
 2957SOL     OW 9769   0.916   5.262   1.461
 2957SOL    HW1 9770   1.006   5.293   1.432
 2957SOL    HW2 9771   0.910   5.265   1.561
 2958SOL     OW 9772   1.985   4.877   6.433
 2958SOL    HW1 9773   2.002   4.973   6.454
 2958SOL    HW2 9774   1.891   4.865   6.403
 2959SOL     OW 9775   2.867   5.798   6.516
 2959SOL    HW1 9776   2.947   5.857   6.506
 2959SOL    HW2 9777   2.800   5.819   6.444
 2960SOL     OW 9778   3.485   1.117   6.874
 2960SOL    HW1 9779   3.511   1.029   6.913
 2960SOL    HW2 9780   3.514   1.191   6.935
 2961SOL     OW 9781   5.842   1.235   3.753
 2961SOL    HW1 9782   5.767   1.295   3.779
 2961SOL    HW2 9783   5.875   1.260   3.662
 2962SOL     OW 9784   4.408   7.001   2.345
 2962SOL    HW1 9785   4.308   7.010   2.350
 2962SOL    HW2 9786   4.447   7.007   2.437
 2963SOL     OW 9787   2.382   2.736   4.641
 2963SOL    HW1 9788   2.431   2.653   4.615
 2963SOL    HW2 9789   2.403   2.758   4.737
 2964SOL     OW 9790   2.400   6.033   6.905
 2964SOL    HW1 9791   2.388   5.934   6.911
 2964SOL    HW2 9792   2.359   6.076   6.986
 2965SOL     OW 9793   1.016   2.720   5.714
 2965SOL    HW1 9794   0.938   2.757   5.664
 2965SOL    HW2 9795   0.984   2.657   5.784
 2966SOL     OW 9796   4.685   5.212   2.346
 2966SOL    HW1 9797   4.771   5.188   2.392
 2966SOL    HW2 9798   4.665   5.309   2.360
 2967SOL     OW 9799   5.709   3.153   4.840
 2967SOL    HW1 9800   5.774   3.167   4.765
 2967SOL    HW2 9801   5.708   3.235   4.898
 2968SOL     OW 9802   6.632   4.113   4.414
 2968SOL    HW1 9803   6.543   4.095   4.457
 2968SOL    HW2 9804   6.629   4.201   4.368
 2969SOL     OW 9805   3.823   1.382   5.383
 2969SOL    HW1 9806   3.896   1.450   5.397
 2969SOL    HW2 9807   3.752   1.394   5.452
 2970SOL     OW 9808   1.063   4.366   6.162
 2970SOL    HW1 9809   1.112   4.451   6.144
 2970SOL    HW2 9810   1.089   4.331   6.252
 2971SOL     OW 9811   5.748   2.890   1.663
 2971SOL    HW1 9812   5.791   2.963   1.715
 2971SOL    HW2 9813   5.657   2.873   1.699
 2972SOL     OW 9814   0.930   4.491   4.236
 2972SOL    HW1 9815   0.936   4.560   4.164
 2972SOL    HW2 9816   0.874   4.414   4.204
 2973SOL     OW 9817   6.037   0.083   3.872
 2973SOL    HW1 9818   6.113   0.017   3.867
 2973SOL    HW2 9819   6.072   0.175   3.855
 2974SOL     OW 9820   5.890   4.212   1.067
 2974SOL    HW1 9821   5.948   4.181   1.142
 2974SOL    HW2 9822   5.840   4.293   1.095
 2975SOL     OW 9823   6.326   1.892   3.812
 2975SOL    HW1 9824   6.310   1.986   3.780
 2975SOL    HW2 9825   6.268   1.830   3.760
 2976SOL     OW 9826   2.342   5.693   1.398
 2976SOL    HW1 9827   2.434   5.702   1.435
 2976SOL    HW2 9828   2.324   5.597   1.374
 2977SOL     OW 9829   2.147   0.060   3.514
 2977SOL    HW1 9830   2.070   0.005   3.483
 2977SOL    HW2 9831   2.185   0.021   3.598
 2978SOL     OW 9832   2.064   0.156   6.473
 2978SOL    HW1 9833   2.090   0.252   6.475
 2978SOL    HW2 9834   2.022   0.130   6.559
 2979SOL     OW 9835   1.956   0.907   2.958
 2979SOL    HW1 9836   2.015   0.830   2.981
 2979SOL    HW2 9837   1.888   0.878   2.891
 2980SOL     OW 9838   5.805   7.027   3.315
 2980SOL    HW1 9839   5.712   0.020   3.347
 2980SOL    HW2 9840   5.871   0.031   3.383
 2981SOL     OW 9841   0.854   0.920   5.779
 2981SOL    HW1 9842   0.816   0.901   5.869
 2981SOL    HW2 9843   0.780   0.917   5.711
 2982SOL     OW 9844   5.217   5.984   2.131
 2982SOL    HW1 9845   5.132   6.032   2.111
 2982SOL    HW2 9846   5.278   5.989   2.052
 2983SOL     OW 9847   0.424   1.616   3.071
 2983SOL    HW1 9848   0.468   1.544   3.124
 2983SOL    HW2 9849   0.389   1.579   2.985
 2984SOL     OW 9850   6.235   4.191   1.765
 2984SOL    HW1 9851   6.222   4.284   1.800
 2984SOL    HW2 9852   6.149   4.141   1.772
 2985SOL     OW 9853   6.443   2.309   3.135
 2985SOL    HW1 9854   6.349   2.275   3.132
 2985SOL    HW2 9855   6.458   2.370   3.058
 2986SOL     OW 9856   1.853   3.201   4.464
 2986SOL    HW1 9857   1.800   3.133   4.413
 2986SOL    HW2 9858   1.931   3.157   4.509
 2987SOL     OW 9859   5.155   1.533   4.788
 2987SOL    HW1 9860   5.245   1.575   4.786
 2987SOL    HW2 9861   5.111   1.546   4.699
 2988SOL     OW 9862   0.089   1.380   2.748
 2988SOL    HW1 9863   0.160   1.446   2.724
 2988SOL    HW2 9864   0.037   1.414   2.826
 2989SOL     OW 9865   0.155   4.997   0.961
 2989SOL    HW1 9866   0.093   5.075   0.975
 2989SOL    HW2 9867   0.249   5.029   0.957
 2990SOL     OW 9868   2.879   1.122   0.858
 2990SOL    HW1 9869   2.933   1.092   0.779
 2990SOL    HW2 9870   2.817   1.048   0.886
 2991SOL     OW 9871   5.811   4.345   0.270
 2991SOL    HW1 9872   5.891   4.315   0.322
 2991SOL    HW2 9873   5.736   4.364   0.333
 2992SOL     OW 9874   3.734   5.090   6.350
 2992SOL    HW1 9875   3.758   5.083   6.447
 2992SOL    HW2 9876   3.639   5.060   6.338
 2993SOL     OW 9877   0.972   3.682   0.341
 2993SOL    HW1 9878   0.914   3.759   0.367
 2993SOL    HW2 9879   0.958   3.662   0.244
 2994SOL     OW 9880   4.158   6.879   6.298
 2994SOL    HW1 9881   4.224   6.946   6.265
 2994SOL    HW2 9882   4.086   6.925   6.349
 2995SOL     OW 9883   2.555   0.707   5.236
 2995SOL    HW1 9884   2.577   0.804   5.235
 2995SOL    HW2 9885   2.531   0.676   5.144
 2996SOL     OW 9886   4.506   6.730   6.444
 2996SOL    HW1 9887   4.524   6.748   6.347
 2996SOL    HW2 9888   4.496   6.817   6.492
 2997SOL     OW 9889   3.620   5.808   0.387
 2997SOL    HW1 9890   3.540   5.849   0.342
 2997SOL    HW2 9891   3.687   5.781   0.318
 2998SOL     OW 9892   6.511   3.916   5.989
 2998SOL    HW1 9893   6.538   4.005   5.952
 2998SOL    HW2 9894   6.591   3.856   5.993
 2999SOL     OW 9895   3.062   1.350   1.242
 2999SOL    HW1 9896   2.993   1.406   1.288
 2999SOL    HW2 9897   3.153   1.386   1.263
 3000SOL     OW 9898   1.603   2.143   5.528
 3000SOL    HW1 9899   1.674   2.116   5.463
 3000SOL    HW2 9900   1.557   2.225   5.496
 3001SOL     OW 9901   4.984   6.026   6.160
 3001SOL    HW1 9902   4.976   5.988   6.068
 3001SOL    HW2 9903   4.984   5.952   6.227
 3002SOL     OW 9904   3.792   0.469   5.458
 3002SOL    HW1 9905   3.788   0.369   5.460
 3002SOL    HW2 9906   3.835   0.502   5.543
 3003SOL     OW 9907   1.439   0.446   5.817
 3003SOL    HW1 9908   1.521   0.458   5.760
 3003SOL    HW2 9909   1.435   0.519   5.885
 3004SOL     OW 9910   0.399   3.700   6.537
 3004SOL    HW1 9911   0.466   3.630   6.561
 3004SOL    HW2 9912   0.407   3.722   6.440
 3005SOL     OW 9913   4.468   2.157   1.211
 3005SOL    HW1 9914   4.383   2.142   1.161
 3005SOL    HW2 9915   4.454   2.229   1.279
 3006SOL     OW 9916   4.007   6.329   2.482
 3006SOL    HW1 9917   4.104   6.342   2.501
 3006SOL    HW2 9918   3.996   6.284   2.393
 3007SOL     OW 9919   5.573   5.275   2.022
 3007SOL    HW1 9920   5.622   5.321   1.947
 3007SOL    HW2 9921   5.482   5.313   2.031
 3008SOL     OW 9922   4.796   4.865   5.620
 3008SOL    HW1 9923   4.873   4.918   5.656
 3008SOL    HW2 9924   4.711   4.897   5.662
 3009SOL     OW 9925   1.834   0.503   1.831
 3009SOL    HW1 9926   1.854   0.519   1.734
 3009SOL    HW2 9927   1.848   0.406   1.851
 3010SOL     OW 9928   3.397   1.127   3.911
 3010SOL    HW1 9929   3.402   1.029   3.888
 3010SOL    HW2 9930   3.448   1.144   3.995
 3011SOL     OW 9931   5.753   0.103   0.313
 3011SOL    HW1 9932   5.689   0.072   0.243
 3011SOL    HW2 9933   5.846   0.102   0.276
 3012SOL     OW 9934   0.196   5.113   1.688
 3012SOL    HW1 9935   0.285   5.133   1.647
 3012SOL    HW2 9936   0.206   5.106   1.787
 3013SOL     OW 9937   5.507   5.109   1.637
 3013SOL    HW1 9938   5.527   5.202   1.607
 3013SOL    HW2 9939   5.451   5.111   1.720
 3014SOL     OW 9940   5.355   5.614   5.378
 3014SOL    HW1 9941   5.350   5.515   5.362
 3014SOL    HW2 9942   5.266   5.647   5.408
 3015SOL     OW 9943   3.434   1.391   0.596
 3015SOL    HW1 9944   3.384   1.477   0.587
 3015SOL    HW2 9945   3.459   1.358   0.505
 3016SOL     OW 9946   4.330   6.300   4.458
 3016SOL    HW1 9947   4.244   6.320   4.412
 3016SOL    HW2 9948   4.357   6.379   4.513
 3017SOL     OW 9949   0.827   6.477   2.658
 3017SOL    HW1 9950   0.890   6.472   2.581
 3017SOL    HW2 9951   0.775   6.562   2.653
 3018SOL     OW 9952   4.159   6.781   5.868
 3018SOL    HW1 9953   4.192   6.745   5.955
 3018SOL    HW2 9954   4.219   6.751   5.794
 3019SOL     OW 9955   4.858   0.938   1.630
 3019SOL    HW1 9956   4.793   0.962   1.702
 3019SOL    HW2 9957   4.813   0.883   1.560
 3020SOL     OW 9958   2.064   0.109   1.749
 3020SOL    HW1 9959   2.156   0.085   1.780
 3020SOL    HW2 9960   2.033   0.041   1.682
 3021SOL     OW 9961   4.388   0.353   6.327
 3021SOL    HW1 9962   4.320   0.295   6.372
 3021SOL    HW2 9963   4.343   0.412   6.261
 3022SOL     OW 9964   6.863   0.395   3.054
 3022SOL    HW1 9965   6.817   0.324   3.109
 3022SOL    HW2 9966   6.848   0.376   2.957
 3023SOL     OW 9967   5.486   0.176   1.662
 3023SOL    HW1 9968   5.537   0.207   1.581
 3023SOL    HW2 9969   5.422   0.247   1.690
 3024SOL     OW 9970   1.817   6.566   0.072
 3024SOL    HW1 9971   1.861   6.486   0.032
 3024SOL    HW2 9972   1.759   6.610   0.004
 3025SOL     OW 9973   1.601   2.353   2.366
 3025SOL    HW1 9974   1.688   2.304   2.377
 3025SOL    HW2 9975   1.548   2.312   2.293
 3026SOL     OW 9976   2.950   5.674   0.481
 3026SOL    HW1 9977   2.862   5.701   0.522
 3026SOL    HW2 9978   2.994   5.605   0.538
 3027SOL     OW 9979   0.874   2.419   4.067
 3027SOL    HW1 9980   0.805   2.490   4.077
 3027SOL    HW2 9981   0.857   2.367   3.983
 3028SOL     OW 9982   1.873   0.736   4.318
 3028SOL    HW1 9983   1.873   0.637   4.323
 3028SOL    HW2 9984   1.812   0.773   4.388
 3029SOL     OW 9985   6.193   5.121   6.041
 3029SOL    HW1 9986   6.273   5.128   6.101
 3029SOL    HW2 9987   6.223   5.107   5.947
 3030SOL     OW 9988   0.338   1.177   5.858
 3030SOL    HW1 9989   0.243   1.200   5.877
 3030SOL    HW2 9990   0.384   1.255   5.817
 3031SOL     OW 9991   0.082   5.109   5.985
 3031SOL    HW1 9992   0.031   5.157   6.057
 3031SOL    HW2 9993   0.179   5.105   6.010
 3032SOL     OW 9994   4.192   0.210   5.551
 3032SOL    HW1 9995   4.195   0.294   5.606
 3032SOL    HW2 9996   4.115   0.154   5.581
 3033SOL     OW 9997   4.898   4.098   6.119
 3033SOL    HW1 9998   4.976   4.061   6.170
 3033SOL    HW2 9999   4.926   4.182   6.073
 3034SOL     OW10000   2.798   6.639   4.947
 3034SOL    HW110001   2.715   6.661   4.999
 3034SOL    HW210002   2.830   6.548   4.974
 3035SOL     OW10003   5.734   6.201   6.932
 3035SOL    HW110004   5.774   6.293   6.929
 3035SOL    HW210005   5.709   6.172   6.840
 3036SOL     OW10006   0.042   4.779   5.296
 3036SOL    HW110007   7.023   4.779   5.384
 3036SOL    HW210008   7.005   4.758   5.223
 3037SOL     OW10009   5.205   6.286   6.584
 3037SOL    HW110010   5.178   6.195   6.613
 3037SOL    HW210011   5.206   6.290   6.484
 3038SOL     OW10012   5.770   5.283   5.267
 3038SOL    HW110013   5.693   5.340   5.293
 3038SOL    HW210014   5.757   5.190   5.303
 3039SOL     OW10015   0.525   4.609   0.771
 3039SOL    HW110016   0.484   4.527   0.732
 3039SOL    HW210017   0.455   4.660   0.821
 3040SOL     OW10018   2.587   0.778   0.475
 3040SOL    HW110019   2.502   0.827   0.459
 3040SOL    HW210020   2.626   0.751   0.387
 3041SOL     OW10021   2.059   1.756   6.073
 3041SOL    HW110022   2.092   1.684   6.012
 3041SOL    HW210023   2.124   1.771   6.147
 3042SOL     OW10024   5.291   0.250   0.953
 3042SOL    HW110025   5.268   0.330   1.008
 3042SOL    HW210026   5.280   0.167   1.008
 3043SOL     OW10027   0.312   4.714   7.025
 3043SOL    HW110028   0.359   4.626   7.016
 3043SOL    HW210029   0.348   4.763   0.077
 3044SOL     OW10030   2.416   3.145   7.000
 3044SOL    HW110031   2.441   3.186   6.912
 3044SOL    HW210032   2.322   3.112   6.996
 3045SOL     OW10033   4.436   2.450   4.662
 3045SOL    HW110034   4.361   2.406   4.712
 3045SOL    HW210035   4.424   2.434   4.564
 3046SOL     OW10036   2.663   2.453   5.805
 3046SOL    HW110037   2.655   2.535   5.749
 3046SOL    HW210038   2.682   2.374   5.747
 3047SOL     OW10039   6.671   5.139   1.947
 3047SOL    HW110040   6.764   5.109   1.925
 3047SOL    HW210041   6.655   5.128   2.045
 3048SOL     OW10042   3.402   3.055   2.291
 3048SOL    HW110043   3.339   3.133   2.298
 3048SOL    HW210044   3.490   3.087   2.256
 3049SOL     OW10045   0.528   0.796   0.757
 3049SOL    HW110046   0.489   0.711   0.795
 3049SOL    HW210047   0.622   0.779   0.729
 3050SOL     OW10048   1.399   0.353   4.496
 3050SOL    HW110049   1.324   0.371   4.432
 3050SOL    HW210050   1.457   0.434   4.503
 3051SOL     OW10051   2.645   5.200   5.111
 3051SOL    HW110052   2.689   5.110   5.110
 3051SOL    HW210053   2.566   5.197   5.173
 3052SOL     OW10054   4.675   6.398   2.360
 3052SOL    HW110055   4.611   6.474   2.344
 3052SOL    HW210056   4.675   6.375   2.458
 3053SOL     OW10057   3.635   6.118   1.655
 3053SOL    HW110058   3.569   6.150   1.723
 3053SOL    HW210059   3.606   6.147   1.564
 3054SOL     OW10060   1.765   4.520   5.056
 3054SOL    HW110061   1.730   4.514   4.962
 3054SOL    HW210062   1.772   4.428   5.094
 3055SOL     OW10063   5.988   6.891   2.675
 3055SOL    HW110064   5.948   6.978   2.704
 3055SOL    HW210065   5.938   6.815   2.717
 3056SOL     OW10066   5.094   0.860   2.321
 3056SOL    HW110067   5.074   0.770   2.362
 3056SOL    HW210068   5.023   0.925   2.347
 3057SOL     OW10069   6.969   4.428   2.537
 3057SOL    HW110070   7.002   4.495   2.604
 3057SOL    HW210071   0.014   4.365   2.513
 3058SOL     OW10072   5.672   0.165   1.216
 3058SOL    HW110073   5.740   0.107   1.262
 3058SOL    HW210074   5.672   0.144   1.118
 3059SOL     OW10075   2.481   2.675   0.147
 3059SOL    HW110076   2.534   2.753   0.113
 3059SOL    HW210077   2.453   2.619   0.069
 3060SOL     OW10078   0.371   5.891   6.896
 3060SOL    HW110079   0.432   5.881   6.974
 3060SOL    HW210080   0.402   5.831   6.822
 3061SOL     OW10081   6.354   0.833   5.586
 3061SOL    HW110082   6.338   0.849   5.489
 3061SOL    HW210083   6.354   0.920   5.634
 3062SOL     OW10084   3.483   5.837   6.026
 3062SOL    HW110085   3.409   5.814   5.963
 3062SOL    HW210086   3.460   5.920   6.077
 3063SOL     OW10087   2.961   6.268   1.085
 3063SOL    HW110088   2.903   6.270   1.003
 3063SOL    HW210089   2.998   6.176   1.098
 3064SOL     OW10090   6.653   4.714   3.081
 3064SOL    HW110091   6.699   4.653   3.016
 3064SOL    HW210092   6.599   4.660   3.145
 3065SOL     OW10093   3.481   1.363   1.641
 3065SOL    HW110094   3.436   1.426   1.577
 3065SOL    HW210095   3.563   1.406   1.677
 3066SOL     OW10096   5.946   5.299   0.865
 3066SOL    HW110097   5.952   5.343   0.775
 3066SOL    HW210098   5.988   5.208   0.860
 3067SOL     OW10099   3.870   6.873   3.142
 3067SOL    HW110100   3.789   6.824   3.109
 3067SOL    HW210101   3.878   6.960   3.094
 3068SOL     OW10102   6.411   4.691   6.546
 3068SOL    HW110103   6.404   4.614   6.482
 3068SOL    HW210104   6.353   4.674   6.625
 3069SOL     OW10105   0.937   5.522   3.523
 3069SOL    HW110106   0.851   5.470   3.515
 3069SOL    HW210107   1.014   5.463   3.499
 3070SOL     OW10108   4.763   2.135   4.156
 3070SOL    HW110109   4.813   2.206   4.205
 3070SOL    HW210110   4.782   2.142   4.058
 3071SOL     OW10111   5.415   0.561   3.368
 3071SOL    HW110112   5.487   0.586   3.304
 3071SOL    HW210113   5.455   0.544   3.458
 3072SOL     OW10114   0.138   0.486   1.360
 3072SOL    HW110115   0.161   0.567   1.414
 3072SOL    HW210116   0.180   0.405   1.400
 3073SOL     OW10117   1.778   1.310   4.444
 3073SOL    HW110118   1.792   1.375   4.519
 3073SOL    HW210119   1.843   1.235   4.453
 3074SOL     OW10120   4.438   3.534   5.800
 3074SOL    HW110121   4.526   3.491   5.781
 3074SOL    HW210122   4.383   3.535   5.716
 3075SOL     OW10123   7.011   5.321   1.503
 3075SOL    HW110124   0.050   5.366   1.563
 3075SOL    HW210125   6.993   5.229   1.536
 3076SOL     OW10126   0.060   1.236   5.973
 3076SOL    HW110127   7.000   1.268   5.939
 3076SOL    HW210128   0.086   1.289   6.054
 3077SOL     OW10129   4.382   4.553   3.706
 3077SOL    HW110130   4.423   4.461   3.712
 3077SOL    HW210131   4.420   4.601   3.627
 3078SOL     OW10132   2.435   2.839   0.796
 3078SOL    HW110133   2.533   2.825   0.780
 3078SOL    HW210134   2.421   2.927   0.841
 3079SOL     OW10135   5.272   3.265   5.961
 3079SOL    HW110136   5.198   3.328   5.938
 3079SOL    HW210137   5.242   3.171   5.949
 3080SOL     OW10138   5.794   6.855   2.365
 3080SOL    HW110139   5.885   6.875   2.403
 3080SOL    HW210140   5.730   6.926   2.393
 3081SOL     OW10141   0.806   4.865   5.739
 3081SOL    HW110142   0.714   4.898   5.760
 3081SOL    HW210143   0.872   4.915   5.794
 3082SOL     OW10144   3.115   6.458   2.996
 3082SOL    HW110145   3.045   6.390   2.974
 3082SOL    HW210146   3.182   6.462   2.921
 3083SOL     OW10147   3.349   6.705   2.770
 3083SOL    HW110148   3.421   6.657   2.721
 3083SOL    HW210149   3.384   6.794   2.801
 3084SOL     OW10150   4.893   0.446   3.927
 3084SOL    HW110151   4.915   0.464   4.023
 3084SOL    HW210152   4.973   0.467   3.871
 3085SOL     OW10153   0.953   4.787   2.330
 3085SOL    HW110154   0.892   4.758   2.256
 3085SOL    HW210155   0.966   4.711   2.394
 3086SOL     OW10156   6.255   1.553   4.745
 3086SOL    HW110157   6.281   1.504   4.829
 3086SOL    HW210158   6.242   1.487   4.671
 3087SOL     OW10159   5.799   3.435   1.137
 3087SOL    HW110160   5.788   3.460   1.040
 3087SOL    HW210161   5.896   3.435   1.161
 3088SOL     OW10162   2.867   3.823   6.727
 3088SOL    HW110163   2.954   3.872   6.733
 3088SOL    HW210164   2.862   3.755   6.801
 3089SOL     OW10165   3.116   2.097   2.055
 3089SOL    HW110166   3.055   2.177   2.060
 3089SOL    HW210167   3.211   2.127   2.064
 3090SOL     OW10168   6.267   1.510   0.893
 3090SOL    HW110169   6.202   1.513   0.969
 3090SOL    HW210170   6.352   1.554   0.919
 3091SOL     OW10171   1.775   6.499   6.587
 3091SOL    HW110172   1.836   6.575   6.611
 3091SOL    HW210173   1.743   6.511   6.493
 3092SOL     OW10174   4.769   5.380   6.957
 3092SOL    HW110175   4.748   5.467   6.912
 3092SOL    HW210176   4.736   5.382   0.023
 3093SOL     OW10177   4.375   6.769   2.780
 3093SOL    HW110178   4.366   6.675   2.813
 3093SOL    HW210179   4.466   6.783   2.741
 3094SOL     OW10180   4.176   5.134   4.735
 3094SOL    HW110181   4.233   5.104   4.658
 3094SOL    HW210182   4.141   5.226   4.717
 3095SOL     OW10183   2.258   5.176   4.692
 3095SOL    HW110184   2.209   5.253   4.732
 3095SOL    HW210185   2.257   5.184   4.593
 3096SOL     OW10186   0.149   2.225   5.608
 3096SOL    HW110187   0.068   2.170   5.630
 3096SOL    HW210188   0.125   2.291   5.537
 3097SOL     OW10189   1.568   0.565   6.886
 3097SOL    HW110190   1.592   0.654   6.849
 3097SOL    HW210191   1.609   0.554   6.977
 3098SOL     OW10192   3.688   3.339   0.560
 3098SOL    HW110193   3.694   3.278   0.480
 3098SOL    HW210194   3.677   3.283   0.643
 3099SOL     OW10195   1.446   5.772   5.210
 3099SOL    HW110196   1.487   5.791   5.299
 3099SOL    HW210197   1.504   5.810   5.138
 3100SOL     OW10198   6.131   6.373   5.801
 3100SOL    HW110199   6.186   6.443   5.754
 3100SOL    HW210200   6.184   6.334   5.877
 3101SOL     OW10201   2.890   0.853   1.149
 3101SOL    HW110202   2.953   0.922   1.112
 3101SOL    HW210203   2.921   0.825   1.239
 3102SOL     OW10204   0.919   6.048   0.962
 3102SOL    HW110205   0.977   6.124   0.991
 3102SOL    HW210206   0.976   5.974   0.925
 3103SOL     OW10207   4.299   4.206   1.705
 3103SOL    HW110208   4.367   4.227   1.775
 3103SOL    HW210209   4.339   4.144   1.637
 3104SOL     OW10210   5.785   6.024   3.192
 3104SOL    HW110211   5.787   5.998   3.096
 3104SOL    HW210212   5.824   5.950   3.248
 3105SOL     OW10213   5.764   6.160   3.613
 3105SOL    HW110214   5.713   6.075   3.608
 3105SOL    HW210215   5.703   6.236   3.589
 3106SOL     OW10216   0.580   3.360   4.155
 3106SOL    HW110217   0.509   3.296   4.126
 3106SOL    HW210218   0.651   3.365   4.085
 3107SOL     OW10219   2.520   6.861   4.415
 3107SOL    HW110220   2.604   6.888   4.369
 3107SOL    HW210221   2.468   6.943   4.439
 3108SOL     OW10222   2.073   6.866   2.866
 3108SOL    HW110223   2.155   6.913   2.896
 3108SOL    HW210224   1.995   6.929   2.867
 3109SOL     OW10225   4.866   5.099   3.517
 3109SOL    HW110226   4.818   5.184   3.493
 3109SOL    HW210227   4.807   5.042   3.574
 3110SOL     OW10228   0.756   2.770   1.602
 3110SOL    HW110229   0.759   2.851   1.543
 3110SOL    HW210230   0.679   2.779   1.666
 3111SOL     OW10231   0.554   4.382   2.203
 3111SOL    HW110232   0.576   4.430   2.288
 3111SOL    HW210233   0.611   4.300   2.195
 3112SOL     OW10234   3.254   3.120   5.890
 3112SOL    HW110235   3.310   3.039   5.905
 3112SOL    HW210236   3.264   3.183   5.967
 3113SOL     OW10237   4.069   0.319   3.568
 3113SOL    HW110238   4.056   0.232   3.617
 3113SOL    HW210239   4.144   0.370   3.610
 3114SOL     OW10240   5.387   5.590   1.213
 3114SOL    HW110241   5.300   5.540   1.214
 3114SOL    HW210242   5.431   5.582   1.302
 3115SOL     OW10243   3.424   3.192   3.114
 3115SOL    HW110244   3.329   3.221   3.111
 3115SOL    HW210245   3.460   3.186   3.020
 3116SOL     OW10246   0.362   1.498   6.484
 3116SOL    HW110247   0.422   1.514   6.562
 3116SOL    HW210248   0.374   1.572   6.418
 3117SOL     OW10249   3.004   4.671   6.399
 3117SOL    HW110250   3.071   4.640   6.465
 3117SOL    HW210251   2.913   4.672   6.441
 3118SOL     OW10252   6.149   5.070   7.012
 3118SOL    HW110253   6.083   5.110   0.047
 3118SOL    HW210254   6.163   4.974   0.007
 3119SOL     OW10255   2.426   4.018   6.843
 3119SOL    HW110256   2.377   3.949   6.896
 3119SOL    HW210257   2.395   4.109   6.870
 3120SOL     OW10258   2.508   5.313   6.742
 3120SOL    HW110259   2.590   5.317   6.799
 3120SOL    HW210260   2.535   5.300   6.646
 3121SOL     OW10261   6.864   6.347   3.593
 3121SOL    HW110262   6.805   6.267   3.586
 3121SOL    HW210263   6.959   6.317   3.598
 3122SOL     OW10264   3.113   5.977   1.421
 3122SOL    HW110265   3.172   5.994   1.342
 3122SOL    HW210266   3.032   5.926   1.393
 3123SOL     OW10267   2.868   6.893   3.862
 3123SOL    HW110268   2.942   6.877   3.927
 3123SOL    HW210269   2.872   6.825   3.789
 3124SOL     OW10270   4.056   0.015   4.976
 3124SOL    HW110271   4.154   0.029   4.960
 3124SOL    HW210272   4.006   0.099   4.955
 3125SOL     OW10273   6.760   2.389   5.845
 3125SOL    HW110274   6.798   2.331   5.918
 3125SOL    HW210275   6.662   2.402   5.860
 3126SOL     OW10276   3.811   5.926   6.460
 3126SOL    HW110277   3.806   5.827   6.467
 3126SOL    HW210278   3.835   5.952   6.366
 3127SOL     OW10279   0.886   1.251   4.515
 3127SOL    HW110280   0.808   1.189   4.505
 3127SOL    HW210281   0.903   1.269   4.612
 3128SOL     OW10282   2.166   1.019   1.160
 3128SOL    HW110283   2.078   1.061   1.138
 3128SOL    HW210284   2.165   0.988   1.255
 3129SOL     OW10285   1.707   3.328   2.751
 3129SOL    HW110286   1.752   3.348   2.664
 3129SOL    HW210287   1.637   3.397   2.769
 3130SOL     OW10288   3.098   5.725   2.677
 3130SOL    HW110289   3.157   5.793   2.720
 3130SOL    HW210290   3.145   5.686   2.598
 3131SOL     OW10291   0.827   3.220   3.705
 3131SOL    HW110292   0.778   3.255   3.625
 3131SOL    HW210293   0.917   3.187   3.676
 3132SOL     OW10294   4.842   3.214   5.478
 3132SOL    HW110295   4.751   3.255   5.477
 3132SOL    HW210296   4.891   3.245   5.560
 3133SOL     OW10297   1.873   1.222   3.258
 3133SOL    HW110298   1.849   1.281   3.335
 3133SOL    HW210299   1.888   1.279   3.176
 3134SOL     OW10300   5.488   2.182   1.627
 3134SOL    HW110301   5.553   2.157   1.699
 3134SOL    HW210302   5.427   2.106   1.610
 3135SOL     OW10303   1.060   2.342   3.084
 3135SOL    HW110304   1.152   2.353   3.046
 3135SOL    HW210305   1.026   2.430   3.116
 3136SOL     OW10306   6.766   1.246   4.597
 3136SOL    HW110307   6.769   1.300   4.513
 3136SOL    HW210308   6.826   1.288   4.666
 3137SOL     OW10309   0.365   1.775   4.644
 3137SOL    HW110310   0.365   1.819   4.734
 3137SOL    HW210311   0.437   1.814   4.587
 3138SOL     OW10312   6.786   2.618   4.812
 3138SOL    HW110313   6.707   2.639   4.870
 3138SOL    HW210314   6.838   2.701   4.794
 3139SOL     OW10315   5.386   5.264   5.729
 3139SOL    HW110316   5.358   5.198   5.799
 3139SOL    HW210317   5.457   5.223   5.672
 3140SOL     OW10318   6.579   5.970   5.845
 3140SOL    HW110319   6.564   5.929   5.935
 3140SOL    HW210320   6.643   5.914   5.793
 3141SOL     OW10321   1.195   0.635   2.077
 3141SOL    HW110322   1.225   0.599   2.166
 3141SOL    HW210323   1.143   0.565   2.029
 3142SOL     OW10324   3.743   6.622   1.028
 3142SOL    HW110325   3.676   6.656   1.095
 3142SOL    HW210326   3.811   6.566   1.075
 3143SOL     OW10327   0.249   2.054   0.254
 3143SOL    HW110328   0.321   2.109   0.294
 3143SOL    HW210329   0.168   2.055   0.313
 3144SOL     OW10330   2.780   3.381   0.214
 3144SOL    HW110331   2.735   3.295   0.239
 3144SOL    HW210332   2.753   3.406   0.121
 3145SOL     OW10333   1.869   4.956   2.507
 3145SOL    HW110334   1.881   4.961   2.607
 3145SOL    HW210335   1.920   5.031   2.464
 3146SOL     OW10336   1.898   6.627   4.244
 3146SOL    HW110337   1.898   6.616   4.145
 3146SOL    HW210338   1.975   6.576   4.283
 3147SOL     OW10339   4.073   4.532   0.684
 3147SOL    HW110340   4.073   4.577   0.773
 3147SOL    HW210341   4.117   4.443   0.692
 3148SOL     OW10342   3.191   5.919   4.396
 3148SOL    HW110343   3.280   5.878   4.414
 3148SOL    HW210344   3.169   5.983   4.470
 3149SOL     OW10345   1.993   5.901   5.422
 3149SOL    HW110346   2.018   5.952   5.504
 3149SOL    HW210347   1.912   5.845   5.441
 3150SOL     OW10348   6.396   0.749   4.705
 3150SOL    HW110349   6.370   0.720   4.797
 3150SOL    HW210350   6.320   0.798   4.663
 3151SOL     OW10351   3.751   6.405   1.617
 3151SOL    HW110352   3.721   6.452   1.699
 3151SOL    HW210353   3.674   6.395   1.554
 3152SOL     OW10354   1.190   4.779   5.851
 3152SOL    HW110355   1.267   4.772   5.787
 3152SOL    HW210356   1.123   4.708   5.830
 3153SOL     OW10357   0.488   4.285   3.087
 3153SOL    HW110358   0.503   4.189   3.062
 3153SOL    HW210359   0.517   4.300   3.181
 3154SOL     OW10360   6.079   2.548   6.798
 3154SOL    HW110361   6.178   2.552   6.795
 3154SOL    HW210362   6.048   2.465   6.751
 3155SOL     OW10363   4.257   5.748   0.618
 3155SOL    HW110364   4.299   5.802   0.544
 3155SOL    HW210365   4.166   5.719   0.590
 3156SOL     OW10366   2.918   3.450   3.621
 3156SOL    HW110367   2.949   3.525   3.679
 3156SOL    HW210368   2.949   3.465   3.528
 3157SOL     OW10369   2.124   1.837   5.109
 3157SOL    HW110370   2.054   1.792   5.165
 3157SOL    HW210371   2.187   1.886   5.169
 3158SOL     OW10372   4.697   6.590   1.446
 3158SOL    HW110373   4.756   6.652   1.394
 3158SOL    HW210374   4.714   6.496   1.417
 3159SOL     OW10375   5.092   4.484   0.377
 3159SOL    HW110376   5.075   4.450   0.284
 3159SOL    HW210377   5.177   4.444   0.411
 3160SOL     OW10378   5.927   4.501   0.767
 3160SOL    HW110379   5.960   4.493   0.673
 3160SOL    HW210380   5.835   4.462   0.772
 3161SOL     OW10381   0.094   1.950   4.175
 3161SOL    HW110382   0.167   2.010   4.208
 3161SOL    HW210383   0.048   1.909   4.254
 3162SOL     OW10384   0.142   0.613   6.081
 3162SOL    HW110385   0.217   0.568   6.130
 3162SOL    HW210386   0.055   0.578   6.115
 3163SOL     OW10387   1.480   4.166   5.397
 3163SOL    HW110388   1.475   4.265   5.407
 3163SOL    HW210389   1.576   4.138   5.388
 3164SOL     OW10390   6.000   5.161   6.206
 3164SOL    HW110391   6.091   5.176   6.167
 3164SOL    HW210392   5.932   5.210   6.151
 3165SOL     OW10393   0.159   2.726   1.406
 3165SOL    HW110394   0.220   2.656   1.368
 3165SOL    HW210395   0.214   2.797   1.451
 3166SOL     OW10396   3.861   3.260   6.508
 3166SOL    HW110397   3.776   3.211   6.530
 3166SOL    HW210398   3.909   3.282   6.593
 3167SOL     OW10399   0.128   4.700   2.049
 3167SOL    HW110400   0.129   4.718   2.147
 3167SOL    HW210401   0.152   4.604   2.032
 3168SOL     OW10402   6.517   3.491   0.536
 3168SOL    HW110403   6.495   3.412   0.479
 3168SOL    HW210404   6.433   3.539   0.560
 3169SOL     OW10405   3.545   1.923   5.461
 3169SOL    HW110406   3.589   1.847   5.509
 3169SOL    HW210407   3.529   1.998   5.525
 3170SOL     OW10408   3.400   0.800   4.360
 3170SOL    HW110409   3.353   0.838   4.281
 3170SOL    HW210410   3.374   0.704   4.371
 3171SOL     OW10411   6.271   5.520   2.554
 3171SOL    HW110412   6.248   5.617   2.555
 3171SOL    HW210413   6.227   5.474   2.631
 3172SOL     OW10414   5.316   6.638   4.882
 3172SOL    HW110415   5.315   6.723   4.829
 3172SOL    HW210416   5.244   6.643   4.952
 3173SOL     OW10417   1.875   0.867   1.264
 3173SOL    HW110418   1.905   0.917   1.345
 3173SOL    HW210419   1.778   0.886   1.247
 3174SOL     OW10420   2.388   2.924   0.425
 3174SOL    HW110421   2.482   2.891   0.420
 3174SOL    HW210422   2.335   2.864   0.485
 3175SOL     OW10423   0.317   5.611   0.662
 3175SOL    HW110424   0.405   5.628   0.706
 3175SOL    HW210425   0.243   5.634   0.726
 3176SOL     OW10426   1.070   5.228   6.853
 3176SOL    HW110427   1.021   5.284   6.920
 3176SOL    HW210428   1.166   5.255   6.852
 3177SOL     OW10429   1.210   0.487   3.696
 3177SOL    HW110430   1.273   0.490   3.618
 3177SOL    HW210431   1.126   0.440   3.669
 3178SOL     OW10432   3.635   3.557   0.206
 3178SOL    HW110433   3.698   3.519   0.138
 3178SOL    HW210434   3.585   3.483   0.251
 3179SOL     OW10435   1.311   2.561   4.479
 3179SOL    HW110436   1.274   2.574   4.387
 3179SOL    HW210437   1.409   2.577   4.478
 3180SOL     OW10438   6.506   1.234   6.604
 3180SOL    HW110439   6.509   1.141   6.570
 3180SOL    HW210440   6.521   1.298   6.529
 3181SOL     OW10441   6.508   1.673   2.020
 3181SOL    HW110442   6.460   1.637   2.100
 3181SOL    HW210443   6.448   1.667   1.940
 3182SOL     OW10444   1.070   6.521   5.897
 3182SOL    HW110445   1.161   6.499   5.861
 3182SOL    HW210446   1.040   6.610   5.862
 3183SOL     OW10447   4.770   3.644   1.121
 3183SOL    HW110448   4.822   3.561   1.140
 3183SOL    HW210449   4.693   3.623   1.061
 3184SOL     OW10450   6.905   2.059   2.700
 3184SOL    HW110451   6.819   2.015   2.673
 3184SOL    HW210452   6.898   2.092   2.794
 3185SOL     OW10453   0.192   6.167   0.376
 3185SOL    HW110454   0.256   6.128   0.309
 3185SOL    HW210455   0.167   6.097   0.443
 3186SOL     OW10456   3.541   0.424   1.373
 3186SOL    HW110457   3.501   0.448   1.284
 3186SOL    HW210458   3.626   0.476   1.385
 3187SOL     OW10459   3.643   4.278   0.993
 3187SOL    HW110460   3.650   4.213   0.917
 3187SOL    HW210461   3.628   4.370   0.957
 3188SOL     OW10462   3.504   0.474   3.970
 3188SOL    HW110463   3.513   0.376   3.951
 3188SOL    HW210464   3.539   0.492   4.062
 3189SOL     OW10465   5.627   6.250   1.514
 3189SOL    HW110466   5.598   6.312   1.441
 3189SOL    HW210467   5.563   6.256   1.591
 3190SOL     OW10468   0.886   0.729   2.570
 3190SOL    HW110469   0.829   0.670   2.627
 3190SOL    HW210470   0.848   0.732   2.477
 3191SOL     OW10471   3.377   1.610   0.984
 3191SOL    HW110472   3.387   1.709   0.993
 3191SOL    HW210473   3.464   1.571   0.954
 3192SOL     OW10474   5.645   3.504   4.322
 3192SOL    HW110475   5.618   3.512   4.418
 3192SOL    HW210476   5.599   3.575   4.268
 3193SOL     OW10477   5.623   4.292   2.058
 3193SOL    HW110478   5.598   4.348   1.979
 3193SOL    HW210479   5.663   4.205   2.026
 3194SOL     OW10480   3.334   5.343   4.792
 3194SOL    HW110481   3.317   5.314   4.698
 3194SOL    HW210482   3.349   5.263   4.850
 3195SOL     OW10483   6.974   4.160   4.212
 3195SOL    HW110484   6.994   4.194   4.120
 3195SOL    HW210485   6.938   4.067   4.206
 3196SOL     OW10486   0.148   5.910   0.067
 3196SOL    HW110487   0.156   5.951   7.005
 3196SOL    HW210488   0.160   5.811   0.060
 3197SOL     OW10489   0.665   4.289   5.963
 3197SOL    HW110490   0.724   4.217   5.999
 3197SOL    HW210491   0.613   4.330   6.038
 3198SOL     OW10492   5.547   0.394   0.956
 3198SOL    HW110493   5.556   0.411   0.858
 3198SOL    HW210494   5.486   0.316   0.971
 3199SOL     OW10495   2.865   2.255   3.344
 3199SOL    HW110496   2.890   2.273   3.439
 3199SOL    HW210497   2.870   2.157   3.326
 3200SOL     OW10498   6.603   1.411   0.024
 3200SOL    HW110499   6.651   1.453   6.975
 3200SOL    HW210500   6.565   1.483   0.082
 3201SOL     OW10501   3.946   5.472   3.713
 3201SOL    HW110502   4.026   5.528   3.689
 3201SOL    HW210503   3.916   5.420   3.633
 3202SOL     OW10504   1.485   4.836   2.200
 3202SOL    HW110505   1.400   4.785   2.190
 3202SOL    HW210506   1.472   4.930   2.171
 3203SOL     OW10507   5.225   6.801   0.621
 3203SOL    HW110508   5.211   6.850   0.707
 3203SOL    HW210509   5.182   6.852   0.546
 3204SOL     OW10510   6.163   6.518   2.398
 3204SOL    HW110511   6.155   6.585   2.325
 3204SOL    HW210512   6.142   6.427   2.362
 3205SOL     OW10513   2.071   4.564   4.632
 3205SOL    HW110514   2.066   4.477   4.680
 3205SOL    HW210515   2.023   4.557   4.545
 3206SOL     OW10516   2.227   6.464   0.405
 3206SOL    HW110517   2.210   6.504   0.496
 3206SOL    HW210518   2.179   6.518   0.336
 3207SOL     OW10519   1.628   1.043   3.471
 3207SOL    HW110520   1.535   1.012   3.488
 3207SOL    HW210521   1.691   1.001   3.536
 3208SOL     OW10522   6.201   6.082   6.200
 3208SOL    HW110523   6.178   5.994   6.159
 3208SOL    HW210524   6.286   6.073   6.252
 3209SOL     OW10525   0.987   6.496   3.094
 3209SOL    HW110526   1.072   6.467   3.139
 3209SOL    HW210527   0.909   6.459   3.145
 3210SOL     OW10528   0.686   5.822   2.016
 3210SOL    HW110529   0.712   5.918   2.005
 3210SOL    HW210530   0.709   5.791   2.108
 3211SOL     OW10531   0.062   4.596   4.043
 3211SOL    HW110532   0.045   4.689   4.010
 3211SOL    HW210533   0.159   4.585   4.062
 3212SOL     OW10534   4.539   2.184   4.633
 3212SOL    HW110535   4.465   2.117   4.642
 3212SOL    HW210536   4.499   2.276   4.626
 3213SOL     OW10537   5.490   0.260   2.314
 3213SOL    HW110538   5.509   0.239   2.218
 3213SOL    HW210539   5.416   0.328   2.320
 3214SOL     OW10540   4.638   3.651   0.697
 3214SOL    HW110541   4.543   3.672   0.721
 3214SOL    HW210542   4.640   3.595   0.614
 3215SOL     OW10543   6.739   1.586   6.873
 3215SOL    HW110544   6.787   1.550   6.794
 3215SOL    HW210545   6.804   1.602   6.947
 3216SOL     OW10546   5.231   6.839   5.596
 3216SOL    HW110547   5.287   6.776   5.650
 3216SOL    HW210548   5.137   6.806   5.591
 3217SOL     OW10549   0.151   4.547   6.849
 3217SOL    HW110550   0.130   4.577   6.756
 3217SOL    HW210551   0.201   4.619   6.896
 3218SOL     OW10552   4.201   2.606   1.174
 3218SOL    HW110553   4.168   2.515   1.197
 3218SOL    HW210554   4.238   2.650   1.257
 3219SOL     OW10555   0.679   2.278   2.789
 3219SOL    HW110556   0.733   2.362   2.778
 3219SOL    HW210557   0.591   2.289   2.744
 3220SOL     OW10558   6.862   2.687   6.241
 3220SOL    HW110559   6.908   2.767   6.279
 3220SOL    HW210560   6.929   2.630   6.192
 3221SOL     OW10561   3.770   0.513   1.125
 3221SOL    HW110562   3.773   0.569   1.208
 3221SOL    HW210563   3.793   0.570   1.046
 3222SOL     OW10564   6.083   3.587   2.172
 3222SOL    HW110565   6.004   3.641   2.200
 3222SOL    HW210566   6.053   3.494   2.148
 3223SOL     OW10567   1.108   4.534   5.486
 3223SOL    HW110568   1.099   4.629   5.515
 3223SOL    HW210569   1.045   4.477   5.539
 3224SOL     OW10570   2.625   6.995   1.579
 3224SOL    HW110571   2.548   6.954   1.627
 3224SOL    HW210572   2.604   0.062   1.555
 3225SOL     OW10573   1.102   1.501   0.072
 3225SOL    HW110574   1.074   1.557   7.022
 3225SOL    HW210575   1.054   1.413   0.069
 3226SOL     OW10576   6.928   1.623   3.391
 3226SOL    HW110577   6.950   1.648   3.297
 3226SOL    HW210578   6.902   1.705   3.442
 3227SOL     OW10579   2.250   1.627   4.982
 3227SOL    HW110580   2.277   1.713   5.026
 3227SOL    HW210581   2.168   1.591   5.027
 3228SOL     OW10582   5.159   3.509   4.898
 3228SOL    HW110583   5.251   3.472   4.883
 3228SOL    HW210584   5.166   3.602   4.935
 3229SOL     OW10585   4.776   1.533   4.501
 3229SOL    HW110586   4.730   1.488   4.578
 3229SOL    HW210587   4.725   1.616   4.476
 3230SOL     OW10588   1.224   6.760   4.320
 3230SOL    HW110589   1.165   6.840   4.326
 3230SOL    HW210590   1.319   6.787   4.338
 3231SOL     OW10591   4.092   4.657   0.333
 3231SOL    HW110592   4.132   4.600   0.261
 3231SOL    HW210593   4.034   4.727   0.291
 3232SOL     OW10594   1.417   4.202   3.810
 3232SOL    HW110595   1.382   4.160   3.894
 3232SOL    HW210596   1.455   4.131   3.751
 3233SOL     OW10597   2.784   3.906   1.199
 3233SOL    HW110598   2.801   3.999   1.232
 3233SOL    HW210599   2.727   3.909   1.117
 3234SOL     OW10600   7.000   2.433   4.062
 3234SOL    HW110601   7.025   2.346   4.020
 3234SOL    HW210602   6.976   2.419   4.158
 3235SOL     OW10603   6.237   0.593   1.909
 3235SOL    HW110604   6.253   0.534   1.830
 3235SOL    HW210605   6.162   0.556   1.964
 3236SOL     OW10606   0.479   1.474   0.975
 3236SOL    HW110607   0.554   1.420   0.937
 3236SOL    HW210608   0.393   1.425   0.963
 3237SOL     OW10609   3.068   5.138   4.801
 3237SOL    HW110610   2.996   5.156   4.867
 3237SOL    HW210611   3.111   5.050   4.820
 3238SOL     OW10612   0.302   6.171   6.793
 3238SOL    HW110613   0.342   6.181   6.884
 3238SOL    HW210614   0.228   6.103   6.796
 3239SOL     OW10615   2.360   6.855   6.457
 3239SOL    HW110616   2.362   6.837   6.359
 3239SOL    HW210617   2.369   6.954   6.473
 3240SOL     OW10618   1.165   2.320   4.525
 3240SOL    HW110619   1.221   2.395   4.491
 3240SOL    HW210620   1.099   2.293   4.455
 3241SOL     OW10621   4.176   5.934   5.134
 3241SOL    HW110622   4.185   5.892   5.044
 3241SOL    HW210623   4.084   5.974   5.143
 3242SOL     OW10624   3.171   1.361   0.925
 3242SOL    HW110625   3.257   1.316   0.900
 3242SOL    HW210626   3.121   1.304   0.990
 3243SOL     OW10627   3.439   6.060   2.620
 3243SOL    HW110628   3.441   6.077   2.719
 3243SOL    HW210629   3.437   6.148   2.572
 3244SOL     OW10630   1.597   0.270   5.170
 3244SOL    HW110631   1.591   0.302   5.264
 3244SOL    HW210632   1.577   0.346   5.108
 3245SOL     OW10633   3.531   2.288   6.092
 3245SOL    HW110634   3.621   2.271   6.133
 3245SOL    HW210635   3.543   2.312   5.995
 3246SOL     OW10636   6.102   6.814   1.715
 3246SOL    HW110637   6.186   6.865   1.736
 3246SOL    HW210638   6.060   6.783   1.800
 3247SOL     OW10639   5.975   2.895   4.702
 3247SOL    HW110640   6.050   2.908   4.767
 3247SOL    HW210641   6.011   2.853   4.618
 3248SOL     OW10642   5.212   3.824   3.379
 3248SOL    HW110643   5.183   3.738   3.337
 3248SOL    HW210644   5.206   3.897   3.310
 3249SOL     OW10645   3.953   4.913   5.963
 3249SOL    HW110646   3.870   4.872   6.003
 3249SOL    HW210647   4.018   4.841   5.941
 3250SOL     OW10648   3.925   4.837   0.723
 3250SOL    HW110649   3.885   4.748   0.747
 3250SOL    HW210650   3.996   4.825   0.655
 3251SOL     OW10651   2.437   1.389   3.080
 3251SOL    HW110652   2.438   1.488   3.063
 3251SOL    HW210653   2.347   1.362   3.113
 3252SOL     OW10654   3.418   2.048   2.836
 3252SOL    HW110655   3.362   2.122   2.797
 3252SOL    HW210656   3.390   2.032   2.930
 3253SOL     OW10657   5.255   4.099   2.041
 3253SOL    HW110658   5.298   4.144   2.119
 3253SOL    HW210659   5.160   4.129   2.034
 3254SOL     OW10660   6.209   3.779   3.103
 3254SOL    HW110661   6.155   3.696   3.092
 3254SOL    HW210662   6.259   3.798   3.018
 3255SOL     OW10663   2.637   4.689   0.686
 3255SOL    HW110664   2.687   4.775   0.692
 3255SOL    HW210665   2.556   4.693   0.744
 3256SOL     OW10666   6.265   6.280   5.485
 3256SOL    HW110667   6.314   6.270   5.571
 3256SOL    HW210668   6.201   6.204   5.474
 3257SOL     OW10669   2.601   0.851   1.664
 3257SOL    HW110670   2.625   0.853   1.567
 3257SOL    HW210671   2.590   0.945   1.697
 3258SOL     OW10672   4.508   6.594   2.281
 3258SOL    HW110673   4.538   6.689   2.292
 3258SOL    HW210674   4.425   6.579   2.333
 3259SOL     OW10675   5.662   5.796   3.689
 3259SOL    HW110676   5.591   5.737   3.728
 3259SOL    HW210677   5.749   5.748   3.689
 3260SOL     OW10678   1.696   1.506   0.993
 3260SOL    HW110679   1.752   1.523   1.074
 3260SOL    HW210680   1.728   1.565   0.918
 3261SOL     OW10681   4.866   6.525   4.382
 3261SOL    HW110682   4.808   6.448   4.357
 3261SOL    HW210683   4.810   6.608   4.389
 3262SOL     OW10684   4.810   2.803   3.653
 3262SOL    HW110685   4.858   2.722   3.619
 3262SOL    HW210686   4.754   2.841   3.579
 3263SOL     OW10687   3.081   4.965   2.924
 3263SOL    HW110688   3.167   4.914   2.930
 3263SOL    HW210689   3.004   4.902   2.932
 3264SOL     OW10690   4.874   3.906   5.916
 3264SOL    HW110691   4.885   3.958   6.000
 3264SOL    HW210692   4.944   3.834   5.912
 3265SOL     OW10693   5.398   6.860   5.323
 3265SOL    HW110694   5.452   6.777   5.334
 3265SOL    HW210695   5.339   6.873   5.402
 3266SOL     OW10696   1.527   2.629   5.626
 3266SOL    HW110697   1.518   2.539   5.583
 3266SOL    HW210698   1.438   2.657   5.663
 3267SOL     OW10699   5.415   4.141   0.664
 3267SOL    HW110700   5.503   4.095   0.652
 3267SOL    HW210701   5.341   4.075   0.652
 3268SOL     OW10702   2.414   5.276   0.862
 3268SOL    HW110703   2.364   5.205   0.912
 3268SOL    HW210704   2.509   5.249   0.852
 3269SOL     OW10705   4.273   3.440   1.453
 3269SOL    HW110706   4.251   3.515   1.516
 3269SOL    HW210707   4.245   3.354   1.494
 3270SOL     OW10708   6.088   6.052   3.206
 3270SOL    HW110709   6.165   5.988   3.203
 3270SOL    HW210710   6.076   6.085   3.300
 3271SOL     OW10711   4.953   0.221   0.129
 3271SOL    HW110712   4.927   0.305   0.083
 3271SOL    HW210713   4.988   0.156   0.061
 3272SOL     OW10714   4.406   6.400   6.638
 3272SOL    HW110715   4.321   6.440   6.674
 3272SOL    HW210716   4.387   6.352   6.553
 3273SOL     OW10717   6.431   0.668   2.755
 3273SOL    HW110718   6.408   0.622   2.670
 3273SOL    HW210719   6.428   0.767   2.742
 3274SOL     OW10720   3.324   0.287   1.620
 3274SOL    HW110721   3.381   0.306   1.540
 3274SOL    HW210722   3.251   0.355   1.626
 3275SOL     OW10723   4.860   0.344   6.106
 3275SOL    HW110724   4.761   0.352   6.088
 3275SOL    HW210725   4.883   0.394   6.190
 3276SOL     OW10726   1.938   5.424   1.412
 3276SOL    HW110727   1.956   5.422   1.314
 3276SOL    HW210728   1.971   5.511   1.450
 3277SOL     OW10729   0.785   6.085   6.483
 3277SOL    HW110730   0.829   6.147   6.418
 3277SOL    HW210731   0.687   6.105   6.487
 3278SOL     OW10732   0.914   6.674   6.906
 3278SOL    HW110733   0.852   6.656   6.830
 3278SOL    HW210734   0.865   6.727   6.976
 3279SOL     OW10735   2.032   6.582   1.958
 3279SOL    HW110736   1.961   6.594   1.888
 3279SOL    HW210737   2.006   6.630   2.042
 3280SOL     OW10738   3.063   5.714   3.234
 3280SOL    HW110739   3.073   5.805   3.194
 3280SOL    HW210740   2.977   5.673   3.201
 3281SOL     OW10741   1.823   0.100   1.455
 3281SOL    HW110742   1.909   0.145   1.428
 3281SOL    HW210743   1.777   0.064   1.374
 3282SOL     OW10744   1.251   4.668   2.154
 3282SOL    HW110745   1.258   4.575   2.118
 3282SOL    HW210746   1.183   4.719   2.100
 3283SOL     OW10747   1.741   0.434   3.764
 3283SOL    HW110748   1.651   0.434   3.808
 3283SOL    HW210749   1.771   0.529   3.750
 3284SOL     OW10750   2.276   6.502   6.023
 3284SOL    HW110751   2.320   6.433   6.081
 3284SOL    HW210752   2.202   6.460   5.971
 3285SOL     OW10753   0.935   3.574   3.937
 3285SOL    HW110754   0.906   3.667   3.960
 3285SOL    HW210755   0.859   3.526   3.893
 3286SOL     OW10756   4.919   4.688   0.385
 3286SOL    HW110757   4.974   4.605   0.398
 3286SOL    HW210758   4.827   4.672   0.421
 3287SOL     OW10759   0.293   1.758   1.211
 3287SOL    HW110760   0.315   1.828   1.279
 3287SOL    HW210761   0.245   1.800   1.135
 3288SOL     OW10762   1.234   6.549   0.606
 3288SOL    HW110763   1.298   6.484   0.564
 3288SOL    HW210764   1.142   6.511   0.602
 3289SOL     OW10765   1.625   1.000   3.990
 3289SOL    HW110766   1.677   1.047   4.061
 3289SOL    HW210767   1.562   1.064   3.947
 3290SOL     OW10768   0.223   4.751   4.584
 3290SOL    HW110769   0.298   4.800   4.540
 3290SOL    HW210770   0.258   4.667   4.626
 3291SOL     OW10771   1.551   1.476   1.841
 3291SOL    HW110772   1.478   1.524   1.889
 3291SOL    HW210773   1.548   1.500   1.744
 3292SOL     OW10774   1.185   6.733   3.842
 3292SOL    HW110775   1.243   6.739   3.761
 3292SOL    HW210776   1.243   6.718   3.923
 3293SOL     OW10777   5.593   1.438   3.206
 3293SOL    HW110778   5.589   1.517   3.267
 3293SOL    HW210779   5.655   1.370   3.245
 3294SOL     OW10780   0.069   6.494   1.892
 3294SOL    HW110781   0.108   6.409   1.857
 3294SOL    HW210782   7.011   6.514   1.844
 3295SOL     OW10783   2.820   3.052   6.630
 3295SOL    HW110784   2.829   2.969   6.686
 3295SOL    HW210785   2.911   3.082   6.601
 3296SOL     OW10786   1.180   6.684   1.805
 3296SOL    HW110787   1.142   6.643   1.887
 3296SOL    HW210788   1.209   6.612   1.741
 3297SOL     OW10789   3.943   0.628   5.292
 3297SOL    HW110790   3.910   0.546   5.338
 3297SOL    HW210791   3.866   0.685   5.264
 3298SOL     OW10792   6.745   5.144   3.280
 3298SOL    HW110793   6.820   5.163   3.343
 3298SOL    HW210794   6.658   5.166   3.324
 3299SOL     OW10795   2.429   1.438   4.893
 3299SOL    HW110796   2.508   1.444   4.954
 3299SOL    HW210797   2.363   1.509   4.916
 3300SOL     OW10798   0.521   6.981   4.218
 3300SOL    HW110799   0.460   0.031   4.230
 3300SOL    HW210800   0.612   7.014   4.193
 3301SOL     OW10801   6.115   4.238   2.164
 3301SOL    HW110802   6.153   4.204   2.250
 3301SOL    HW210803   6.092   4.335   2.174
 3302SOL     OW10804   1.961   6.054   5.662
 3302SOL    HW110805   1.876   6.011   5.695
 3302SOL    HW210806   2.035   6.036   5.727
 3303SOL     OW10807   3.249   3.517   5.383
 3303SOL    HW110808   3.209   3.602   5.417
 3303SOL    HW210809   3.280   3.461   5.460
 3304SOL     OW10810   2.262   1.099   3.783
 3304SOL    HW110811   2.279   1.125   3.688
 3304SOL    HW210812   2.317   1.019   3.806
 3305SOL     OW10813   1.769   2.264   0.829
 3305SOL    HW110814   1.785   2.363   0.834
 3305SOL    HW210815   1.775   2.234   0.733
 3306SOL     OW10816   1.131   1.722   0.549
 3306SOL    HW110817   1.192   1.654   0.509
 3306SOL    HW210818   1.170   1.757   0.634
 3307SOL     OW10819   0.226   6.424   0.486
 3307SOL    HW110820   0.224   6.335   0.440
 3307SOL    HW210821   0.311   6.431   0.538
 3308SOL     OW10822   5.614   5.204   0.562
 3308SOL    HW110823   5.600   5.296   0.600
 3308SOL    HW210824   5.552   5.139   0.608
 3309SOL     OW10825   0.304   4.144   1.896
 3309SOL    HW110826   0.294   4.192   1.983
 3309SOL    HW210827   0.269   4.201   1.822
 3310SOL     OW10828   2.068   0.421   2.392
 3310SOL    HW110829   2.071   0.466   2.303
 3310SOL    HW210830   2.158   0.430   2.436
 3311SOL     OW10831   3.895   5.090   0.886
 3311SOL    HW110832   3.809   5.049   0.856
 3311SOL    HW210833   3.966   5.074   0.817
 3312SOL     OW10834   2.154   2.424   5.863
 3312SOL    HW110835   2.180   2.418   5.767
 3312SOL    HW210836   2.118   2.516   5.882
 3313SOL     OW10837   5.207   6.178   5.531
 3313SOL    HW110838   5.181   6.186   5.435
 3313SOL    HW210839   5.233   6.084   5.552
 3314SOL     OW10840   0.710   4.227   6.717
 3314SOL    HW110841   0.736   4.278   6.635
 3314SOL    HW210842   0.728   4.282   6.798
 3315SOL     OW10843   6.833   3.516   3.544
 3315SOL    HW110844   6.925   3.540   3.575
 3315SOL    HW210845   6.787   3.597   3.508
 3316SOL     OW10846   3.709   6.982   6.577
 3316SOL    HW110847   3.735   6.973   6.480
 3316SOL    HW210848   3.781   6.943   6.634
 3317SOL     OW10849   6.277   2.329   1.246
 3317SOL    HW110850   6.208   2.258   1.262
 3317SOL    HW210851   6.249   2.414   1.291
 3318SOL     OW10852   2.410   4.831   6.255
 3318SOL    HW110853   2.427   4.766   6.181
 3318SOL    HW210854   2.491   4.836   6.315
 3319SOL     OW10855   1.254   6.185   6.160
 3319SOL    HW110856   1.293   6.180   6.068
 3319SOL    HW210857   1.269   6.277   6.198
 3320SOL     OW10858   1.715   0.723   0.936
 3320SOL    HW110859   1.644   0.789   0.961
 3320SOL    HW210860   1.794   0.735   0.995
 3321SOL     OW10861   4.026   3.772   4.677
 3321SOL    HW110862   4.012   3.807   4.584
 3321SOL    HW210863   4.073   3.684   4.672
 3322SOL     OW10864   5.611   3.547   2.812
 3322SOL    HW110865   5.615   3.448   2.808
 3322SOL    HW210866   5.517   3.578   2.793
 3323SOL     OW10867   2.074   3.791   0.508
 3323SOL    HW110868   2.044   3.789   0.603
 3323SOL    HW210869   2.011   3.847   0.454
 3324SOL     OW10870   6.228   3.112   1.507
 3324SOL    HW110871   6.324   3.118   1.482
 3324SOL    HW210872   6.215   3.155   1.597
 3325SOL     OW10873   1.414   4.764   5.696
 3325SOL    HW110874   1.418   4.679   5.750
 3325SOL    HW210875   1.450   4.747   5.604
 3326SOL     OW10876   4.130   6.831   2.417
 3326SOL    HW110877   4.166   6.739   2.400
 3326SOL    HW210878   4.090   6.867   2.333
 3327SOL     OW10879   4.942   6.530   2.264
 3327SOL    HW110880   4.872   6.571   2.206
 3327SOL    HW210881   4.910   6.442   2.297
 3328SOL     OW10882   6.495   6.174   3.425
 3328SOL    HW110883   6.567   6.122   3.379
 3328SOL    HW210884   6.420   6.190   3.362
 3329SOL     OW10885   5.843   0.038   5.720
 3329SOL    HW110886   5.815   6.971   5.707
 3329SOL    HW210887   5.938   0.041   5.752
 3330SOL     OW10888   5.746   0.965   3.724
 3330SOL    HW110889   5.808   0.933   3.653
 3330SOL    HW210890   5.766   1.061   3.746
 3331SOL     OW10891   0.673   3.334   2.687
 3331SOL    HW110892   0.736   3.402   2.649
 3331SOL    HW210893   0.705   3.305   2.776
 3332SOL     OW10894   4.210   4.994   1.418
 3332SOL    HW110895   4.199   4.895   1.409
 3332SOL    HW210896   4.287   5.015   1.478
 3333SOL     OW10897   2.084   3.635   1.133
 3333SOL    HW110898   2.092   3.676   1.224
 3333SOL    HW210899   2.117   3.701   1.064
 3334SOL     OW10900   2.025   2.528   2.103
 3334SOL    HW110901   1.947   2.549   2.043
 3334SOL    HW210902   1.995   2.534   2.199
 3335SOL     OW10903   4.275   3.967   6.694
 3335SOL    HW110904   4.241   3.997   6.783
 3335SOL    HW210905   4.238   3.876   6.672
 3336SOL     OW10906   3.420   6.008   6.227
 3336SOL    HW110907   3.505   6.060   6.222
 3336SOL    HW210908   3.361   6.047   6.298
 3337SOL     OW10909   3.081   3.743   4.547
 3337SOL    HW110910   3.110   3.772   4.638
 3337SOL    HW210911   2.986   3.712   4.551
 3338SOL     OW10912   3.415   2.952   1.579
 3338SOL    HW110913   3.414   2.888   1.656
 3338SOL    HW210914   3.372   3.038   1.607
 3339SOL     OW10915   0.690   6.910   5.616
 3339SOL    HW110916   0.723   6.836   5.557
 3339SOL    HW210917   0.734   6.904   5.705
 3340SOL     OW10918   4.454   2.441   6.428
 3340SOL    HW110919   4.359   2.428   6.457
 3340SOL    HW210920   4.488   2.529   6.462
 3341SOL     OW10921   1.136   3.809   1.583
 3341SOL    HW110922   1.225   3.815   1.628
 3341SOL    HW210923   1.112   3.713   1.569
 3342SOL     OW10924   5.860   0.242   3.490
 3342SOL    HW110925   5.932   0.174   3.501
 3342SOL    HW210926   5.790   0.229   3.561
 3343SOL     OW10927   2.946   5.214   6.952
 3343SOL    HW110928   2.894   5.153   7.011
 3343SOL    HW210929   3.041   5.219   6.983
 3344SOL     OW10930   2.201   3.754   0.248
 3344SOL    HW110931   2.253   3.672   0.225
 3344SOL    HW210932   2.152   3.740   0.334
 3345SOL     OW10933   4.065   5.300   0.456
 3345SOL    HW110934   4.085   5.371   0.389
 3345SOL    HW210935   4.005   5.337   0.527
 3346SOL     OW10936   0.696   0.770   0.488
 3346SOL    HW110937   0.679   0.706   0.414
 3346SOL    HW210938   0.771   0.736   0.545
 3347SOL     OW10939   1.164   3.040   5.960
 3347SOL    HW110940   1.207   3.131   5.960
 3347SOL    HW210941   1.080   3.043   6.014
 3348SOL     OW10942   2.790   4.286   5.955
 3348SOL    HW110943   2.768   4.364   5.897
 3348SOL    HW210944   2.890   4.280   5.967
 3349SOL     OW10945   2.625   5.422   1.727
 3349SOL    HW110946   2.640   5.355   1.799
 3349SOL    HW210947   2.602   5.511   1.768
 3350SOL     OW10948   3.171   5.103   4.288
 3350SOL    HW110949   3.111   5.173   4.329
 3350SOL    HW210950   3.263   5.113   4.325
 3351SOL     OW10951   4.106   6.831   1.979
 3351SOL    HW110952   4.044   6.863   2.051
 3351SOL    HW210953   4.161   6.908   1.946
 3352SOL     OW10954   5.843   0.616   0.484
 3352SOL    HW110955   5.797   0.588   0.568
 3352SOL    HW210956   5.893   0.538   0.446
 3353SOL     OW10957   5.160   6.970   5.913
 3353SOL    HW110958   5.200   7.014   5.832
 3353SOL    HW210959   5.107   0.010   5.964
 3354SOL     OW10960   3.710   1.643   0.446
 3354SOL    HW110961   3.799   1.688   0.448
 3354SOL    HW210962   3.682   1.620   0.539
 3355SOL     OW10963   0.949   1.985   5.725
 3355SOL    HW110964   0.884   1.909   5.732
 3355SOL    HW210965   1.040   1.954   5.752
 3356SOL     OW10966   3.080   0.283   5.222
 3356SOL    HW110967   3.042   0.354   5.163
 3356SOL    HW210968   3.176   0.305   5.242
 3357SOL     OW10969   3.143   3.418   4.271
 3357SOL    HW110970   3.071   3.437   4.338
 3357SOL    HW210971   3.232   3.414   4.317
 3358SOL     OW10972   0.100   1.936   1.601
 3358SOL    HW110973   0.058   1.922   1.512
 3358SOL    HW210974   0.196   1.961   1.589
 3359SOL     OW10975   0.638   7.004   2.913
 3359SOL    HW110976   0.652   7.024   2.816
 3359SOL    HW210977   0.647   6.906   2.929
 3360SOL     OW10978   1.585   5.814   4.732
 3360SOL    HW110979   1.558   5.839   4.639
 3360SOL    HW210980   1.545   5.880   4.797
 3361SOL     OW10981   0.889   0.264   4.562
 3361SOL    HW110982   0.969   0.205   4.575
 3361SOL    HW210983   0.916   0.360   4.574
 3362SOL     OW10984   4.181   0.708   5.370
 3362SOL    HW110985   4.090   0.687   5.336
 3362SOL    HW210986   4.209   0.798   5.337
 3363SOL     OW10987   5.188   3.266   0.479
 3363SOL    HW110988   5.251   3.290   0.552
 3363SOL    HW210989   5.193   3.335   0.407
 3364SOL     OW10990   2.501   3.400   1.259
 3364SOL    HW110991   2.500   3.490   1.302
 3364SOL    HW210992   2.574   3.397   1.190
 3365SOL     OW10993   0.301   3.419   2.872
 3365SOL    HW110994   0.381   3.454   2.824
 3365SOL    HW210995   0.329   3.349   2.938
 3366SOL     OW10996   5.525   2.946   3.457
 3366SOL    HW110997   5.603   2.889   3.479
 3366SOL    HW210998   5.441   2.903   3.490
 3367SOL     OW10999   3.212   4.099   3.155
 3367SOL    HW111000   3.176   4.077   3.246
 3367SOL    HW211001   3.144   4.075   3.086
 3368SOL     OW11002   1.311   0.876   3.759
 3368SOL    HW111003   1.223   0.832   3.775
 3368SOL    HW211004   1.320   0.956   3.818
 3369SOL     OW11005   6.192   2.999   0.536
 3369SOL    HW111006   6.108   3.041   0.571
 3369SOL    HW211007   6.220   2.925   0.597
 3370SOL     OW11008   0.194   5.876   3.560
 3370SOL    HW111009   0.132   5.868   3.638
 3370SOL    HW211010   0.149   5.843   3.477
 3371SOL     OW11011   2.904   2.654   1.247
 3371SOL    HW111012   2.908   2.754   1.246
 3371SOL    HW211013   2.934   2.618   1.159
 3372SOL     OW11014   5.963   2.660   3.572
 3372SOL    HW111015   5.934   2.575   3.617
 3372SOL    HW211016   6.062   2.670   3.580
 3373SOL     OW11017   0.883   4.554   1.272
 3373SOL    HW111018   0.876   4.549   1.372
 3373SOL    HW211019   0.957   4.618   1.247
 3374SOL     OW11020   0.715   5.426   4.444
 3374SOL    HW111021   0.741   5.498   4.508
 3374SOL    HW211022   0.701   5.340   4.493
 3375SOL     OW11023   7.023   6.540   5.683
 3375SOL    HW111024   0.024   6.578   5.596
 3375SOL    HW211025   7.015   6.613   5.751
 3376SOL     OW11026   3.393   3.825   4.842
 3376SOL    HW111027   3.296   3.822   4.817
 3376SOL    HW211028   3.417   3.919   4.869
 3377SOL     OW11029   5.815   5.741   4.662
 3377SOL    HW111030   5.906   5.722   4.698
 3377SOL    HW211031   5.764   5.656   4.653
 3378SOL     OW11032   0.747   5.691   6.632
 3378SOL    HW111033   0.815   5.628   6.670
 3378SOL    HW211034   0.765   5.705   6.535
 3379SOL     OW11035   5.953   4.539   3.925
 3379SOL    HW111036   6.001   4.614   3.970
 3379SOL    HW211037   5.858   4.537   3.956
 3380SOL     OW11038   1.240   4.400   2.018
 3380SOL    HW111039   1.338   4.406   1.998
 3380SOL    HW211040   1.189   4.389   1.933
 3381SOL     OW11041   2.992   4.743   0.118
 3381SOL    HW111042   2.944   4.665   0.159
 3381SOL    HW211043   3.024   4.804   0.190
 3382SOL     OW11044   0.341   3.215   0.006
 3382SOL    HW111045   0.341   3.263   0.093
 3382SOL    HW211046   0.263   3.152   0.003
 3383SOL     OW11047   3.449   5.709   6.781
 3383SOL    HW111048   3.441   5.692   6.683
 3383SOL    HW211049   3.463   5.807   6.796
 3384SOL     OW11050   2.922   2.656   6.734
 3384SOL    HW111051   2.854   2.716   6.775
 3384SOL    HW211052   3.007   2.661   6.788
 3385SOL     OW11053   6.637   1.652   4.076
 3385SOL    HW111054   6.621   1.739   4.030
 3385SOL    HW211055   6.560   1.629   4.134
 3386SOL     OW11056   6.946   4.349   5.394
 3386SOL    HW111057   6.896   4.321   5.312
 3386SOL    HW211058   6.883   4.359   5.470
 3387SOL     OW11059   5.724   1.430   2.870
 3387SOL    HW111060   5.661   1.361   2.907
 3387SOL    HW211061   5.672   1.498   2.818
 3388SOL     OW11062   1.284   4.026   1.402
 3388SOL    HW111063   1.322   3.939   1.433
 3388SOL    HW211064   1.195   4.010   1.359
 3389SOL     OW11065   6.077   5.227   6.772
 3389SOL    HW111066   6.145   5.210   6.701
 3389SOL    HW211067   6.095   5.167   6.850
 3390SOL     OW11068   3.145   4.695   0.947
 3390SOL    HW111069   3.106   4.646   0.869
 3390SOL    HW211070   3.090   4.677   1.029
 3391SOL     OW11071   6.227   4.233   5.780
 3391SOL    HW111072   6.156   4.215   5.848
 3391SOL    HW211073   6.208   4.320   5.735
 3392SOL     OW11074   4.659   5.644   5.959
 3392SOL    HW111075   4.726   5.610   6.024
 3392SOL    HW211076   4.593   5.702   6.007
 3393SOL     OW11077   3.420   1.258   0.844
 3393SOL    HW111078   3.441   1.161   0.858
 3393SOL    HW211079   3.437   1.281   0.748
 3394SOL     OW11080   3.488   5.411   2.049
 3394SOL    HW111081   3.580   5.445   2.068
 3394SOL    HW211082   3.427   5.436   2.124
 3395SOL     OW11083   1.536   5.951   3.047
 3395SOL    HW111084   1.479   5.894   2.988
 3395SOL    HW211085   1.482   6.029   3.080
 3396SOL     OW11086   3.891   6.993   3.853
 3396SOL    HW111087   3.890   6.914   3.915
 3396SOL    HW211088   3.861   0.046   3.903
 3397SOL     OW11089   3.141   6.256   2.358
 3397SOL    HW111090   3.168   6.312   2.437
 3397SOL    HW211091   3.165   6.304   2.274
 3398SOL     OW11092   6.498   0.464   0.917
 3398SOL    HW111093   6.568   0.525   0.880
 3398SOL    HW211094   6.537   0.374   0.935
 3399SOL     OW11095   5.907   6.612   2.770
 3399SOL    HW111096   5.988   6.575   2.724
 3399SOL    HW211097   5.825   6.572   2.730
 3400SOL     OW11098   3.229   3.129   5.621
 3400SOL    HW111099   3.194   3.037   5.600
 3400SOL    HW211100   3.240   3.138   5.720
 3401SOL     OW11101   6.378   4.081   3.423
 3401SOL    HW111102   6.295   4.092   3.369
 3401SOL    HW211103   6.357   4.092   3.520
 3402SOL     OW11104   6.826   3.790   0.686
 3402SOL    HW111105   6.772   3.801   0.603
 3402SOL    HW211106   6.877   3.704   0.683
 3403SOL     OW11107   5.525   0.076   4.051
 3403SOL    HW111108   5.528   0.136   4.131
 3403SOL    HW211109   5.469   0.118   3.980
 3404SOL     OW11110   5.159   4.740   2.858
 3404SOL    HW111111   5.198   4.756   2.948
 3404SOL    HW211112   5.232   4.714   2.794
 3405SOL     OW11113   4.660   0.442   0.249
 3405SOL    HW111114   4.743   0.412   0.202
 3405SOL    HW211115   4.604   0.363   0.271
 3406SOL     OW11116   4.780   4.401   0.714
 3406SOL    HW111117   4.721   4.474   0.749
 3406SOL    HW211118   4.763   4.317   0.766
 3407SOL     OW11119   2.495   1.617   0.852
 3407SOL    HW111120   2.468   1.600   0.757
 3407SOL    HW211121   2.511   1.714   0.865
 3408SOL     OW11122   3.334   6.926   4.592
 3408SOL    HW111123   3.235   6.938   4.581
 3408SOL    HW211124   3.366   6.980   4.670
 3409SOL     OW11125   4.868   2.368   0.333
 3409SOL    HW111126   4.950   2.351   0.277
 3409SOL    HW211127   4.791   2.317   0.296
 3410SOL     OW11128   6.176   2.244   2.466
 3410SOL    HW111129   6.131   2.162   2.503
 3410SOL    HW211130   6.106   2.309   2.436
 3411SOL     OW11131   5.237   3.029   6.486
 3411SOL    HW111132   5.220   3.105   6.549
 3411SOL    HW211133   5.214   3.057   6.393
 3412SOL     OW11134   5.130   3.461   2.822
 3412SOL    HW111135   5.207   3.509   2.780
 3412SOL    HW211136   5.054   3.457   2.756
 3413SOL     OW11137   1.223   2.033   0.301
 3413SOL    HW111138   1.252   2.116   0.253
 3413SOL    HW211139   1.265   1.953   0.258
 3414SOL     OW11140   3.196   3.530   2.037
 3414SOL    HW111141   3.161   3.623   2.027
 3414SOL    HW211142   3.147   3.469   1.976
 3415SOL     OW11143   2.681   1.127   0.197
 3415SOL    HW111144   2.583   1.121   0.179
 3415SOL    HW211145   2.697   1.126   0.296
 3416SOL     OW11146   5.100   5.654   6.856
 3416SOL    HW111147   5.040   5.725   6.819
 3416SOL    HW211148   5.064   5.564   6.832
 3417SOL     OW11149   5.622   0.541   2.569
 3417SOL    HW111150   5.544   0.525   2.630
 3417SOL    HW211151   5.696   0.585   2.620
 3418SOL     OW11152   4.459   6.229   1.631
 3418SOL    HW111153   4.381   6.271   1.585
 3418SOL    HW211154   4.428   6.151   1.685
 3419SOL     OW11155   2.696   4.731   5.268
 3419SOL    HW111156   2.767   4.706   5.202
 3419SOL    HW211157   2.685   4.658   5.335
 3420SOL     OW11158   4.948   0.142   2.263
 3420SOL    HW111159   4.904   0.128   2.174
 3420SOL    HW211160   5.010   0.066   2.282
 3421SOL     OW11161   0.732   1.123   4.745
 3421SOL    HW111162   0.821   1.082   4.725
 3421SOL    HW211163   0.742   1.189   4.820
 3422SOL     OW11164   3.136   4.903   1.709
 3422SOL    HW111165   3.118   5.000   1.692
 3422SOL    HW211166   3.066   4.866   1.771
 3423SOL     OW11167   1.818   5.708   5.850
 3423SOL    HW111168   1.873   5.629   5.821
 3423SOL    HW211169   1.770   5.685   5.935
 3424SOL     OW11170   6.412   5.128   2.757
 3424SOL    HW111171   6.349   5.135   2.834
 3424SOL    HW211172   6.423   5.032   2.731
 3425SOL     OW11173   6.233   3.443   6.231
 3425SOL    HW111174   6.164   3.436   6.159
 3425SOL    HW211175   6.234   3.358   6.283
 3426SOL     OW11176   6.768   4.812   6.285
 3426SOL    HW111177   6.682   4.833   6.238
 3426SOL    HW211178   6.844   4.822   6.222
 3427SOL     OW11179   1.672   0.959   6.496
 3427SOL    HW111180   1.652   0.876   6.444
 3427SOL    HW211181   1.771   0.965   6.511
 3428SOL     OW11182   3.977   1.292   4.272
 3428SOL    HW111183   4.005   1.291   4.176
 3428SOL    HW211184   4.021   1.217   4.320
 3429SOL     OW11185   6.130   5.571   0.542
 3429SOL    HW111186   6.229   5.585   0.537
 3429SOL    HW211187   6.096   5.542   0.452
 3430SOL     OW11188   2.530   4.775   0.352
 3430SOL    HW111189   2.481   4.791   0.267
 3430SOL    HW211190   2.467   4.743   0.422
 3431SOL     OW11191   1.763   3.513   1.574
 3431SOL    HW111192   1.827   3.447   1.536
 3431SOL    HW211193   1.813   3.590   1.612
 3432SOL     OW11194   0.165   5.612   0.089
 3432SOL    HW111195   0.182   5.529   0.143
 3432SOL    HW211196   0.204   5.602   7.026
 3433SOL     OW11197   0.230   1.149   0.128
 3433SOL    HW111198   0.168   1.154   0.049
 3433SOL    HW211199   0.324   1.166   0.097
 3434SOL     OW11200   3.971   2.847   1.414
 3434SOL    HW111201   3.896   2.913   1.412
 3434SOL    HW211202   4.019   2.855   1.501
 3435SOL     OW11203   3.451   2.746   1.360
 3435SOL    HW111204   3.436   2.830   1.411
 3435SOL    HW211205   3.415   2.668   1.412
 3436SOL     OW11206   4.993   5.430   4.899
 3436SOL    HW111207   4.981   5.409   4.995
 3436SOL    HW211208   4.990   5.529   4.886
 3437SOL     OW11209   3.059   5.981   0.178
 3437SOL    HW111210   3.066   5.985   0.078
 3437SOL    HW211211   3.007   5.900   0.205
 3438SOL     OW11212   2.209   3.880   1.031
 3438SOL    HW111213   2.281   3.837   1.085
 3438SOL    HW211214   2.242   3.969   0.997
 3439SOL     OW11215   3.250   5.681   1.116
 3439SOL    HW111216   3.304   5.597   1.118
 3439SOL    HW211217   3.191   5.685   1.197
 3440SOL     OW11218   3.984   4.496   5.644
 3440SOL    HW111219   3.956   4.462   5.733
 3440SOL    HW211220   3.957   4.431   5.573
 3441SOL     OW11221   0.604   5.760   5.436
 3441SOL    HW111222   0.703   5.756   5.427
 3441SOL    HW211223   0.566   5.822   5.367
 3442SOL     OW11224   1.705   2.130   6.727
 3442SOL    HW111225   1.606   2.144   6.736
 3442SOL    HW211226   1.725   2.087   6.639
 3443SOL     OW11227   6.935   6.559   2.122
 3443SOL    HW111228   6.890   6.494   2.184
 3443SOL    HW211229   7.018   6.517   2.084
 3444SOL     OW11230   1.494   3.845   5.964
 3444SOL    HW111231   1.506   3.941   5.938
 3444SOL    HW211232   1.573   3.815   6.017
 3445SOL     OW11233   5.894   4.342   3.696
 3445SOL    HW111234   5.894   4.380   3.789
 3445SOL    HW211235   5.834   4.396   3.638
 3446SOL     OW11236   5.944   1.365   6.802
 3446SOL    HW111237   5.884   1.445   6.799
 3446SOL    HW211238   5.952   1.326   6.710
 3447SOL     OW11239   5.553   1.612   6.555
 3447SOL    HW111240   5.458   1.584   6.537
 3447SOL    HW211241   5.613   1.533   6.544
 3448SOL     OW11242   0.808   5.623   5.019
 3448SOL    HW111243   0.789   5.546   4.959
 3448SOL    HW211244   0.907   5.632   5.032
 3449SOL     OW11245   1.383   4.278   4.588
 3449SOL    HW111246   1.439   4.213   4.537
 3449SOL    HW211247   1.366   4.359   4.532
 3450SOL     OW11248   2.392   6.933   3.458
 3450SOL    HW111249   2.324   6.924   3.386
 3450SOL    HW211250   2.360   6.998   3.527
 3451SOL     OW11251   2.572   1.686   1.179
 3451SOL    HW111252   2.671   1.680   1.185
 3451SOL    HW211253   2.537   1.603   1.136
 3452SOL     OW11254   4.764   1.120   5.268
 3452SOL    HW111255   4.668   1.144   5.275
 3452SOL    HW211256   4.817   1.201   5.244
 3453SOL     OW11257   4.846   6.301   5.985
 3453SOL    HW111258   4.865   6.396   6.008
 3453SOL    HW211259   4.783   6.297   5.908
 3454SOL     OW11260   1.775   3.238   3.768
 3454SOL    HW111261   1.759   3.234   3.866
 3454SOL    HW211262   1.872   3.258   3.750
 3455SOL     OW11263   2.169   3.772   6.333
 3455SOL    HW111264   2.187   3.864   6.368
 3455SOL    HW211265   2.179   3.705   6.406
 3456SOL     OW11266   5.020   4.963   2.760
 3456SOL    HW111267   5.070   5.049   2.767
 3456SOL    HW211268   5.078   4.888   2.790
 3457SOL     OW11269   4.523   4.289   0.062
 3457SOL    HW111270   4.556   4.197   0.039
 3457SOL    HW211271   4.576   4.326   0.138
 3458SOL     OW11272   4.541   1.455   0.935
 3458SOL    HW111273   4.480   1.528   0.965
 3458SOL    HW211274   4.608   1.491   0.870
 3459SOL     OW11275   6.251   1.296   2.343
 3459SOL    HW111276   6.160   1.278   2.381
 3459SOL    HW211277   6.289   1.211   2.306
 3460SOL     OW11278   5.167   1.885   5.058
 3460SOL    HW111279   5.090   1.849   5.111
 3460SOL    HW211280   5.197   1.971   5.099
 3461SOL     OW11281   5.446   4.430   5.222
 3461SOL    HW111282   5.388   4.487   5.280
 3461SOL    HW211283   5.461   4.342   5.265
 3462SOL     OW11284   1.117   3.755   6.969
 3462SOL    HW111285   1.169   3.744   6.885
 3462SOL    HW211286   1.061   3.837   6.964
 3463SOL     OW11287   6.180   3.542   6.939
 3463SOL    HW111288   6.261   3.532   6.882
 3463SOL    HW211289   6.098   3.540   6.881
 3464SOL     OW11290   0.857   4.886   4.849
 3464SOL    HW111291   0.890   4.937   4.770
 3464SOL    HW211292   0.930   4.824   4.881
 3465SOL     OW11293   1.083   2.450   0.864
 3465SOL    HW111294   1.152   2.523   0.858
 3465SOL    HW211295   1.028   2.464   0.946
 3466SOL     OW11296   4.848   3.680   3.164
 3466SOL    HW111297   4.911   3.709   3.091
 3466SOL    HW211298   4.780   3.752   3.179
 3467SOL     OW11299   1.690   1.483   6.389
 3467SOL    HW111300   1.738   1.508   6.473
 3467SOL    HW211301   1.597   1.454   6.411
 3468SOL     OW11302   5.904   5.354   2.010
 3468SOL    HW111303   5.828   5.382   1.951
 3468SOL    HW211304   5.953   5.435   2.042
 3469SOL     OW11305   5.785   3.083   0.618
 3469SOL    HW111306   5.876   3.108   0.649
 3469SOL    HW211307   5.781   3.087   0.518
 3470SOL     OW11308   5.958   5.759   6.177
 3470SOL    HW111309   5.927   5.751   6.272
 3470SOL    HW211310   5.942   5.853   6.145
 3471SOL     OW11311   4.069   6.769   4.833
 3471SOL    HW111312   4.023   6.834   4.894
 3471SOL    HW211313   4.010   6.689   4.819
 3472SOL     OW11314   3.592   0.652   3.768
 3472SOL    HW111315   3.539   0.596   3.830
 3472SOL    HW211316   3.689   0.628   3.776
 3473SOL     OW11317   4.364   6.994   3.546
 3473SOL    HW111318   4.387   0.015   3.630
 3473SOL    HW211319   4.431   6.922   3.529
 3474SOL     OW11320   6.544   5.117   1.258
 3474SOL    HW111321   6.556   5.206   1.302
 3474SOL    HW211322   6.623   5.096   1.201
 3475SOL     OW11323   2.279   5.755   4.993
 3475SOL    HW111324   2.239   5.756   5.085
 3475SOL    HW211325   2.205   5.755   4.925
 3476SOL     OW11326   1.858   2.083   3.054
 3476SOL    HW111327   1.845   2.086   3.153
 3476SOL    HW211328   1.853   1.988   3.023
 3477SOL     OW11329   5.031   5.596   2.422
 3477SOL    HW111330   4.983   5.564   2.504
 3477SOL    HW211331   5.092   5.525   2.388
 3478SOL     OW11332   3.675   5.037   0.093
 3478SOL    HW111333   3.759   5.032   0.039
 3478SOL    HW211334   3.678   5.118   0.152
 3479SOL     OW11335   1.909   1.247   0.453
 3479SOL    HW111336   1.919   1.227   0.551
 3479SOL    HW211337   1.989   1.298   0.422
 3480SOL     OW11338   2.356   6.992   5.053
 3480SOL    HW111339   2.292   0.039   5.066
 3480SOL    HW211340   2.399   6.999   4.963
 3481SOL     OW11341   1.451   4.031   0.063
 3481SOL    HW111342   1.360   4.053   0.101
 3481SOL    HW211343   1.442   3.956   7.026
 3482SOL     OW11344   0.375   2.110   1.039
 3482SOL    HW111345   0.467   2.073   1.030
 3482SOL    HW211346   0.379   2.195   1.092
 3483SOL     OW11347   3.962   1.667   1.518
 3483SOL    HW111348   3.903   1.587   1.508
 3483SOL    HW211349   4.051   1.649   1.474
 3484SOL     OW11350   3.797   4.127   4.451
 3484SOL    HW111351   3.717   4.187   4.464
 3484SOL    HW211352   3.802   4.062   4.526
 3485SOL     OW11353   6.232   3.178   3.956
 3485SOL    HW111354   6.281   3.224   4.030
 3485SOL    HW211355   6.215   3.083   3.980
 3486SOL     OW11356   6.118   2.044   2.669
 3486SOL    HW111357   6.025   2.024   2.641
 3486SOL    HW211358   6.170   1.959   2.676
 3487SOL     OW11359   1.810   6.180   1.990
 3487SOL    HW111360   1.725   6.133   1.965
 3487SOL    HW211361   1.788   6.264   2.041
 3488SOL     OW11362   0.109   3.066   4.728
 3488SOL    HW111363   0.068   3.099   4.813
 3488SOL    HW211364   0.143   2.974   4.741
 3489SOL     OW11365   1.763   5.991   6.483
 3489SOL    HW111366   1.700   6.049   6.431
 3489SOL    HW211367   1.845   6.043   6.507
 3490SOL     OW11368   5.262   2.821   0.120
 3490SOL    HW111369   5.197   2.749   0.145
 3490SOL    HW211370   5.238   2.905   0.169
 3491SOL     OW11371   6.244   2.383   5.249
 3491SOL    HW111372   6.161   2.342   5.287
 3491SOL    HW211373   6.234   2.482   5.246
 3492SOL     OW11374   1.360   4.100   6.333
 3492SOL    HW111375   1.342   4.131   6.239
 3492SOL    HW211376   1.450   4.131   6.362
 3493SOL     OW11377   0.373   4.974   1.177
 3493SOL    HW111378   0.284   5.002   1.214
 3493SOL    HW211379   0.428   4.933   1.249
 3494SOL     OW11380   3.313   6.555   1.025
 3494SOL    HW111381   3.252   6.565   1.104
 3494SOL    HW211382   3.344   6.645   0.995
 3495SOL     OW11383   5.398   4.454   5.944
 3495SOL    HW111384   5.337   4.384   5.907
 3495SOL    HW211385   5.463   4.482   5.874
 3496SOL     OW11386   0.650   6.349   1.508
 3496SOL    HW111387   0.722   6.419   1.507
 3496SOL    HW211388   0.651   6.302   1.596
 3497SOL     OW11389   3.096   0.544   4.849
 3497SOL    HW111390   3.065   0.491   4.771
 3497SOL    HW211391   3.188   0.514   4.874
 3498SOL     OW11392   1.741   1.881   0.718
 3498SOL    HW111393   1.642   1.885   0.712
 3498SOL    HW211394   1.782   1.928   0.640
 3499SOL     OW11395   0.053   4.264   3.023
 3499SOL    HW111396   0.131   4.310   2.981
 3499SOL    HW211397   0.007   4.328   3.085
 3500SOL     OW11398   6.789   2.438   0.266
 3500SOL    HW111399   6.724   2.442   0.342
 3500SOL    HW211400   6.740   2.419   0.181
 3501SOL     OW11401   6.822   4.880   3.195
 3501SOL    HW111402   6.780   4.956   3.245
 3501SOL    HW211403   6.752   4.831   3.143
 3502SOL     OW11404   0.898   6.514   1.591
 3502SOL    HW111405   0.910   6.478   1.683
 3502SOL    HW211406   0.979   6.495   1.537
 3503SOL     OW11407   3.085   0.925   3.291
 3503SOL    HW111408   3.009   0.974   3.333
 3503SOL    HW211409   3.077   0.827   3.312
 3504SOL     OW11410   1.623   2.238   1.949
 3504SOL    HW111411   1.644   2.313   1.887
 3504SOL    HW211412   1.624   2.151   1.899
 3505SOL     OW11413   4.021   0.405   4.043
 3505SOL    HW111414   4.006   0.489   3.991
 3505SOL    HW211415   4.117   0.399   4.070
 3506SOL     OW11416   6.240   3.348   3.533
 3506SOL    HW111417   6.315   3.336   3.598
 3506SOL    HW211418   6.242   3.274   3.465
 3507SOL     OW11419   0.079   6.551   4.802
 3507SOL    HW111420   0.030   6.503   4.730
 3507SOL    HW211421   0.168   6.581   4.768
 3508SOL     OW11422   0.623   4.496   0.394
 3508SOL    HW111423   0.685   4.446   0.333
 3508SOL    HW211424   0.533   4.453   0.391
 3509SOL     OW11425   3.673   0.073   0.325
 3509SOL    HW111426   3.667   7.027   0.259
 3509SOL    HW211427   3.768   0.098   0.339
 3510SOL     OW11428   2.600   1.757   3.020
 3510SOL    HW111429   2.542   1.778   2.941
 3510SOL    HW211430   2.651   1.673   3.003
 3511SOL     OW11431   0.294   1.163   3.652
 3511SOL    HW111432   0.342   1.118   3.577
 3511SOL    HW211433   0.355   1.232   3.693
 3512SOL     OW11434   3.120   2.987   2.134
 3512SOL    HW111435   3.123   2.890   2.108
 3512SOL    HW211436   3.184   3.003   2.209
 3513SOL     OW11437   6.566   4.750   0.050
 3513SOL    HW111438   6.641   4.760   0.115
 3513SOL    HW211439   6.485   4.718   0.098
 3514SOL     OW11440   2.973   5.524   3.578
 3514SOL    HW111441   3.012   5.456   3.515
 3514SOL    HW211442   2.999   5.616   3.548
 3515SOL     OW11443   3.855   5.678   4.251
 3515SOL    HW111444   3.812   5.751   4.304
 3515SOL    HW211445   3.917   5.717   4.183
 3516SOL     OW11446   1.476   1.240   0.193
 3516SOL    HW111447   1.502   1.225   0.098
 3516SOL    HW211448   1.554   1.218   0.252
 3517SOL     OW11449   0.643   1.296   6.518
 3517SOL    HW111450   0.694   1.380   6.499
 3517SOL    HW211451   0.570   1.316   6.584
 3518SOL     OW11452   4.352   3.710   5.981
 3518SOL    HW111453   4.363   3.626   5.928
 3518SOL    HW211454   4.441   3.755   5.991
 3519SOL     OW11455   4.105   0.692   6.387
 3519SOL    HW111456   4.198   0.656   6.376
 3519SOL    HW211457   4.039   0.619   6.374
 3520SOL     OW11458   4.182   4.710   1.449
 3520SOL    HW111459   4.195   4.627   1.504
 3520SOL    HW211460   4.091   4.748   1.468
 3521SOL     OW11461   0.135   1.689   5.322
 3521SOL    HW111462   0.198   1.630   5.272
 3521SOL    HW211463   0.066   1.633   5.367
 3522SOL     OW11464   2.378   0.471   0.849
 3522SOL    HW111465   2.444   0.400   0.875
 3522SOL    HW211466   2.426   0.557   0.833
 3523SOL     OW11467   2.272   4.212   4.195
 3523SOL    HW111468   2.291   4.138   4.260
 3523SOL    HW211469   2.211   4.278   4.239
 3524SOL     OW11470   2.691   1.430   3.027
 3524SOL    HW111471   2.597   1.397   3.022
 3524SOL    HW211472   2.724   1.454   2.936
 3525SOL     OW11473   1.814   3.101   3.536
 3525SOL    HW111474   1.777   3.013   3.563
 3525SOL    HW211475   1.771   3.173   3.591
 3526SOL     OW11476   3.780   6.138   4.232
 3526SOL    HW111477   3.741   6.136   4.324
 3526SOL    HW211478   3.711   6.108   4.166
 3527SOL     OW11479   6.762   4.074   0.063
 3527SOL    HW111480   6.662   4.081   0.064
 3527SOL    HW211481   6.802   4.165   0.047
 3528SOL     OW11482   0.971   6.719   3.713
 3528SOL    HW111483   0.899   6.660   3.748
 3528SOL    HW211484   1.050   6.716   3.774
 3529SOL     OW11485   3.423   0.210   0.356
 3529SOL    HW111486   3.431   0.200   0.455
 3529SOL    HW211487   3.491   0.151   0.311
 3530SOL     OW11488   2.147   5.818   2.237
 3530SOL    HW111489   2.093   5.879   2.179
 3530SOL    HW211490   2.113   5.724   2.228
 3531SOL     OW11491   5.033   4.027   6.906
 3531SOL    HW111492   4.995   3.949   6.856
 3531SOL    HW211493   5.096   4.077   6.847
 3532SOL     OW11494   2.167   0.423   6.439
 3532SOL    HW111495   2.217   0.504   6.472
 3532SOL    HW211496   2.168   0.423   6.339
 3533SOL     OW11497   1.237   1.281   2.462
 3533SOL    HW111498   1.333   1.255   2.461
 3533SOL    HW211499   1.222   1.352   2.531
 3534SOL     OW11500   4.735   6.849   4.749
 3534SOL    HW111501   4.831   6.867   4.771
 3534SOL    HW211502   4.692   6.932   4.713
 3535SOL     OW11503   3.581   4.396   0.039
 3535SOL    HW111504   3.585   4.348   6.980
 3535SOL    HW211505   3.486   4.407   0.067
 3536SOL     OW11506   2.091   2.757   2.438
 3536SOL    HW111507   2.094   2.817   2.518
 3536SOL    HW211508   2.000   2.718   2.430
 3537SOL     OW11509   3.350   5.210   1.641
 3537SOL    HW111510   3.321   5.223   1.546
 3537SOL    HW211511   3.439   5.165   1.644
 3538SOL     OW11512   2.730   0.363   4.241
 3538SOL    HW111513   2.823   0.326   4.243
 3538SOL    HW211514   2.729   0.449   4.189
 3539SOL     OW11515   5.227   4.986   6.120
 3539SOL    HW111516   5.303   5.049   6.133
 3539SOL    HW211517   5.251   4.897   6.157
 3540SOL     OW11518   5.339   3.724   6.661
 3540SOL    HW111519   5.319   3.731   6.759
 3540SOL    HW211520   5.272   3.776   6.609
 3541SOL     OW11521   0.364   3.086   2.736
 3541SOL    HW111522   0.376   3.123   2.644
 3541SOL    HW211523   0.415   3.001   2.746
 3542SOL     OW11524   5.689   0.742   6.646
 3542SOL    HW111525   5.721   0.801   6.572
 3542SOL    HW211526   5.599   0.773   6.677
 3543SOL     OW11527   0.482   3.328   4.996
 3543SOL    HW111528   0.463   3.279   5.081
 3543SOL    HW211529   0.396   3.363   4.957
 3544SOL     OW11530   4.514   5.012   6.014
 3544SOL    HW111531   4.547   5.107   6.009
 3544SOL    HW211532   4.428   5.010   6.064
 3545SOL     OW11533   2.511   6.735   1.909
 3545SOL    HW111534   2.435   6.791   1.942
 3545SOL    HW211535   2.487   6.695   1.821
 3546SOL     OW11536   6.630   3.549   1.569
 3546SOL    HW111537   6.639   3.586   1.662
 3546SOL    HW211538   6.707   3.489   1.549
 3547SOL     OW11539   2.061   4.423   4.021
 3547SOL    HW111540   2.039   4.516   4.051
 3547SOL    HW211541   2.143   4.392   4.069
 3548SOL     OW11542   6.590   6.129   5.507
 3548SOL    HW111543   6.532   6.057   5.471
 3548SOL    HW211544   6.684   6.116   5.475
 3549SOL     OW11545   0.876   6.803   0.384
 3549SOL    HW111546   0.830   6.715   0.375
 3549SOL    HW211547   0.975   6.789   0.394
 3550SOL     OW11548   6.889   2.850   4.723
 3550SOL    HW111549   6.968   2.839   4.663
 3550SOL    HW211550   6.822   2.910   4.679
 3551SOL     OW11551   6.197   2.025   5.222
 3551SOL    HW111552   6.285   2.070   5.207
 3551SOL    HW211553   6.193   1.941   5.168
 3552SOL     OW11554   6.420   1.161   4.210
 3552SOL    HW111555   6.442   1.182   4.115
 3552SOL    HW211556   6.415   1.062   4.221
 3553SOL     OW11557   5.233   5.465   6.566
 3553SOL    HW111558   5.238   5.565   6.577
 3553SOL    HW211559   5.142   5.441   6.530
 3554SOL     OW11560   5.771   3.155   0.356
 3554SOL    HW111561   5.800   3.176   0.263
 3554SOL    HW211562   5.684   3.202   0.375
 3555SOL     OW11563   2.974   1.142   4.884
 3555SOL    HW111564   2.971   1.156   4.785
 3555SOL    HW211565   2.988   1.231   4.929
 3556SOL     OW11566   5.085   1.648   0.430
 3556SOL    HW111567   5.064   1.595   0.348
 3556SOL    HW211568   5.004   1.700   0.458
 3557SOL     OW11569   4.739   0.478   1.051
 3557SOL    HW111570   4.736   0.521   0.961
 3557SOL    HW211571   4.758   0.380   1.040
 3558SOL     OW11572   4.433   5.917   3.613
 3558SOL    HW111573   4.370   5.899   3.538
 3558SOL    HW211574   4.513   5.857   3.606
 3559SOL     OW11575   4.382   6.573   0.161
 3559SOL    HW111576   4.397   6.650   0.099
 3559SOL    HW211577   4.286   6.572   0.188
 3560SOL     OW11578   2.032   5.885   4.348
 3560SOL    HW111579   2.117   5.906   4.396
 3560SOL    HW211580   1.961   5.862   4.415
 3561SOL     OW11581   4.515   3.282   6.673
 3561SOL    HW111582   4.554   3.269   6.582
 3561SOL    HW211583   4.421   3.248   6.673
 3562SOL     OW11584   2.837   0.821   0.735
 3562SOL    HW111585   2.791   0.853   0.652
 3562SOL    HW211586   2.933   0.851   0.733
 3563SOL     OW11587   5.962   2.268   6.619
 3563SOL    HW111588   5.978   2.173   6.646
 3563SOL    HW211589   5.864   2.287   6.620
 3564SOL     OW11590   5.941   2.808   3.255
 3564SOL    HW111591   6.021   2.750   3.244
 3564SOL    HW211592   5.962   2.900   3.222
 3565SOL     OW11593   5.458   5.887   5.195
 3565SOL    HW111594   5.501   5.976   5.179
 3565SOL    HW211595   5.494   5.848   5.280
 3566SOL     OW11596   0.815   0.821   4.487
 3566SOL    HW111597   0.907   0.858   4.504
 3566SOL    HW211598   0.753   0.896   4.465
 3567SOL     OW11599   1.650   4.231   0.053
 3567SOL    HW111600   1.596   4.152   0.025
 3567SOL    HW211601   1.689   4.275   7.000
 3568SOL     OW11602   1.691   3.090   5.867
 3568SOL    HW111603   1.762   3.109   5.799
 3568SOL    HW211604   1.713   3.006   5.917
 3569SOL     OW11605   0.675   0.345   3.291
 3569SOL    HW111606   0.704   0.294   3.373
 3569SOL    HW211607   0.714   0.301   3.210
 3570SOL     OW11608   7.012   2.019   5.072
 3570SOL    HW111609   0.001   2.091   5.005
 3570SOL    HW211610   6.923   2.035   5.115
 3571SOL     OW11611   0.246   5.501   5.524
 3571SOL    HW111612   0.261   5.497   5.426
 3571SOL    HW211613   0.150   5.519   5.543
 3572SOL     OW11614   5.179   6.964   5.246
 3572SOL    HW111615   5.122   6.950   5.327
 3572SOL    HW211616   5.274   6.942   5.268
 3573SOL     OW11617   0.562   2.680   1.788
 3573SOL    HW111618   0.540   2.599   1.734
 3573SOL    HW211619   0.485   2.703   1.847
 3574SOL     OW11620   1.260   3.437   0.706
 3574SOL    HW111621   1.302   3.389   0.783
 3574SOL    HW211622   1.235   3.372   0.635
 3575SOL     OW11623   6.502   0.836   2.479
 3575SOL    HW111624   6.589   0.805   2.441
 3575SOL    HW211625   6.431   0.769   2.456
 3576SOL     OW11626   0.527   1.063   0.851
 3576SOL    HW111627   0.556   1.062   0.946
 3576SOL    HW211628   0.525   0.970   0.816
 3577SOL     OW11629   2.388   4.504   1.203
 3577SOL    HW111630   2.485   4.516   1.225
 3577SOL    HW211631   2.336   4.488   1.286
 3578SOL     OW11632   3.711   5.282   1.448
 3578SOL    HW111633   3.661   5.201   1.478
 3578SOL    HW211634   3.776   5.257   1.376
 3579SOL     OW11635   2.105   2.629   6.817
 3579SOL    HW111636   2.200   2.635   6.786
 3579SOL    HW211637   2.103   2.627   6.917
 3580SOL     OW11638   5.726   0.996   2.425
 3580SOL    HW111639   5.674   0.962   2.504
 3580SOL    HW211640   5.779   0.922   2.385
 3581SOL     OW11641   6.997   1.723   2.830
 3581SOL    HW111642   6.943   1.765   2.903
 3581SOL    HW211643   6.940   1.707   2.750
 3582SOL     OW11644   0.644   0.785   5.983
 3582SOL    HW111645   0.603   0.866   6.025
 3582SOL    HW211646   0.588   0.756   5.906
 3583SOL     OW11647   0.764   6.761   2.594
 3583SOL    HW111648   0.821   6.817   2.654
 3583SOL    HW211649   0.672   6.753   2.633
 3584SOL     OW11650   5.806   6.909   4.414
 3584SOL    HW111651   5.713   6.891   4.383
 3584SOL    HW211652   5.845   6.984   4.362
 3585SOL     OW11653   2.034   5.176   2.451
 3585SOL    HW111654   2.032   5.230   2.536
 3585SOL    HW211655   2.128   5.146   2.434
 3586SOL     OW11656   1.453   1.082   6.377
 3586SOL    HW111657   1.481   1.004   6.433
 3586SOL    HW211658   1.512   1.089   6.297
 3587SOL     OW11659   3.525   5.885   5.398
 3587SOL    HW111660   3.538   5.922   5.490
 3587SOL    HW211661   3.522   5.785   5.402
 3588SOL     OW11662   2.589   2.139   5.249
 3588SOL    HW111663   2.572   2.222   5.303
 3588SOL    HW211664   2.688   2.123   5.243
 3589SOL     OW11665   3.065   6.286   4.854
 3589SOL    HW111666   3.016   6.234   4.924
 3589SOL    HW211667   3.110   6.223   4.791
 3590SOL     OW11668   1.133   6.806   0.071
 3590SOL    HW111669   1.205   6.746   0.105
 3590SOL    HW211670   1.173   6.883   0.022
 3591SOL     OW11671   5.197   2.309   4.548
 3591SOL    HW111672   5.206   2.211   4.531
 3591SOL    HW211673   5.109   2.327   4.593
 3592SOL     OW11674   5.761   0.818   1.316
 3592SOL    HW111675   5.681   0.868   1.349
 3592SOL    HW211676   5.765   0.729   1.362
 3593SOL     OW11677   1.201   4.922   4.968
 3593SOL    HW111678   1.189   4.969   5.056
 3593SOL    HW211679   1.213   4.990   4.896
 3594SOL     OW11680   4.508   1.511   4.299
 3594SOL    HW111681   4.483   1.493   4.204
 3594SOL    HW211682   4.599   1.551   4.303
 3595SOL     OW11683   1.869   6.763   6.613
 3595SOL    HW111684   1.965   6.742   6.593
 3595SOL    HW211685   1.848   6.855   6.581
 3596SOL     OW11686   6.378   3.205   2.691
 3596SOL    HW111687   6.418   3.281   2.640
 3596SOL    HW211688   6.342   3.137   2.627
 3597SOL     OW11689   4.414   0.467   3.197
 3597SOL    HW111690   4.491   0.518   3.235
 3597SOL    HW211691   4.418   0.470   3.097
 3598SOL     OW11692   2.300   0.024   0.626
 3598SOL    HW111693   2.237   0.100   0.610
 3598SOL    HW211694   2.394   0.056   0.614
 3599SOL     OW11695   0.330   2.127   4.571
 3599SOL    HW111696   0.378   2.071   4.638
 3599SOL    HW211697   0.233   2.131   4.595
 3600SOL     OW11698   6.305   6.262   1.052
 3600SOL    HW111699   6.343   6.193   1.114
 3600SOL    HW211700   6.358   6.347   1.060
 3601SOL     OW11701   0.507   4.046   6.156
 3601SOL    HW111702   0.472   4.140   6.159
 3601SOL    HW211703   0.597   4.043   6.201
 3602SOL     OW11704   3.941   2.035   1.019
 3602SOL    HW111705   3.950   2.135   1.010
 3602SOL    HW211706   4.031   1.995   1.034
 3603SOL     OW11707   3.265   5.355   5.179
 3603SOL    HW111708   3.240   5.441   5.135
 3603SOL    HW211709   3.256   5.365   5.279
 3604SOL     OW11710   5.465   4.501   3.429
 3604SOL    HW111711   5.501   4.457   3.348
 3604SOL    HW211712   5.366   4.487   3.434
 3605SOL     OW11713   5.616   1.277   6.247
 3605SOL    HW111714   5.586   1.182   6.252
 3605SOL    HW211715   5.713   1.279   6.223
 3606SOL     OW11716   1.572   4.353   2.221
 3606SOL    HW111717   1.596   4.417   2.293
 3606SOL    HW211718   1.652   4.300   2.195
 3607SOL     OW11719   4.460   6.349   4.888
 3607SOL    HW111720   4.372   6.362   4.934
 3607SOL    HW211721   4.450   6.283   4.813
 3608SOL     OW11722   0.144   2.972   3.051
 3608SOL    HW111723   0.221   2.958   3.114
 3608SOL    HW211724   0.122   3.070   3.046
 3609SOL     OW11725   1.351   1.094   4.354
 3609SOL    HW111726   1.365   1.027   4.282
 3609SOL    HW211727   1.256   1.125   4.352
 3610SOL     OW11728   1.537   4.683   5.462
 3610SOL    HW111729   1.628   4.643   5.450
 3610SOL    HW211730   1.509   4.727   5.377
 3611SOL     OW11731   4.228   4.720   0.060
 3611SOL    HW111732   4.299   4.775   0.105
 3611SOL    HW211733   4.259   4.625   0.052
 3612SOL     OW11734   3.136   5.889   1.957
 3612SOL    HW111735   3.076   5.879   1.877
 3612SOL    HW211736   3.212   5.949   1.933
 3613SOL     OW11737   5.159   3.896   6.570
 3613SOL    HW111738   5.076   3.844   6.552
 3613SOL    HW211739   5.144   3.992   6.547
 3614SOL     OW11740   3.803   3.073   5.159
 3614SOL    HW111741   3.874   3.128   5.116
 3614SOL    HW211742   3.776   2.999   5.098
 3615SOL     OW11743   6.267   6.735   6.564
 3615SOL    HW111744   6.232   6.646   6.592
 3615SOL    HW211745   6.356   6.751   6.606
 3616SOL     OW11746   0.231   1.404   4.157
 3616SOL    HW111747   0.197   1.425   4.248
 3616SOL    HW211748   0.217   1.307   4.138
 3617SOL     OW11749   0.412   1.009   1.395
 3617SOL    HW111750   0.333   0.992   1.337
 3617SOL    HW211751   0.482   0.940   1.376
 3618SOL     OW11752   3.617   5.503   6.362
 3618SOL    HW111753   3.571   5.568   6.303
 3618SOL    HW211754   3.550   5.446   6.409
 3619SOL     OW11755   4.962   3.378   3.613
 3619SOL    HW111756   4.981   3.284   3.587
 3619SOL    HW211757   4.949   3.434   3.531
 3620SOL     OW11758   5.889   1.996   5.746
 3620SOL    HW111759   5.961   2.061   5.771
 3620SOL    HW211760   5.807   2.013   5.802
 3621SOL     OW11761   2.342   2.661   6.682
 3621SOL    HW111762   2.397   2.639   6.762
 3621SOL    HW211763   2.392   2.638   6.599
 3622SOL     OW11764   1.578   3.685   1.075
 3622SOL    HW111765   1.653   3.752   1.073
 3622SOL    HW211766   1.585   3.630   1.159
 3623SOL     OW11767   5.682   4.955   4.644
 3623SOL    HW111768   5.772   4.985   4.613
 3623SOL    HW211769   5.675   4.969   4.743
 3624SOL     OW11770   1.838   6.882   1.626
 3624SOL    HW111771   1.830   6.901   1.724
 3624SOL    HW211772   1.813   6.964   1.575
 3625SOL     OW11773   1.712   2.653   4.731
 3625SOL    HW111774   1.730   2.751   4.743
 3625SOL    HW211775   1.743   2.603   4.812
 3626SOL     OW11776   2.358   2.746   4.926
 3626SOL    HW111777   2.280   2.721   4.870
 3626SOL    HW211778   2.347   2.839   4.961
 3627SOL     OW11779   4.015   3.155   4.546
 3627SOL    HW111780   3.971   3.210   4.618
 3627SOL    HW211781   3.945   3.102   4.498
 3628SOL     OW11782   2.863   5.064   3.950
 3628SOL    HW111783   2.817   4.976   3.965
 3628SOL    HW211784   2.876   5.078   3.852
 3629SOL     OW11785   6.333   4.028   4.984
 3629SOL    HW111786   6.235   4.048   4.991
 3629SOL    HW211787   6.351   3.984   4.896
 3630SOL     OW11788   6.565   2.286   4.495
 3630SOL    HW111789   6.632   2.361   4.495
 3630SOL    HW211790   6.514   2.286   4.581
 3631SOL     OW11791   2.250   1.254   4.755
 3631SOL    HW111792   2.270   1.210   4.668
 3631SOL    HW211793   2.313   1.330   4.770
 3632SOL     OW11794   5.084   6.525   6.562
 3632SOL    HW111795   5.132   6.439   6.574
 3632SOL    HW211796   5.120   6.593   6.626
 3633SOL     OW11797   0.699   2.786   5.943
 3633SOL    HW111798   0.704   2.816   6.038
 3633SOL    HW211799   0.693   2.865   5.883
 3634SOL     OW11800   1.969   4.348   6.697
 3634SOL    HW111801   2.068   4.350   6.705
 3634SOL    HW211802   1.939   4.419   6.633
 3635SOL     OW11803   1.319   1.961   4.168
 3635SOL    HW111804   1.402   1.975   4.114
 3635SOL    HW211805   1.313   1.865   4.195
 3636SOL     OW11806   1.018   6.804   1.138
 3636SOL    HW111807   1.021   6.891   1.088
 3636SOL    HW211808   1.041   6.729   1.076
 3637SOL     OW11809   5.403   1.521   2.478
 3637SOL    HW111810   5.484   1.473   2.443
 3637SOL    HW211811   5.420   1.620   2.475
 3638SOL     OW11812   6.843   5.305   3.078
 3638SOL    HW111813   6.788   5.239   3.129
 3638SOL    HW211814   6.939   5.277   3.079
 3639SOL     OW11815   2.438   5.586   6.774
 3639SOL    HW111816   2.449   5.635   6.687
 3639SOL    HW211817   2.461   5.490   6.761
 3640SOL     OW11818   2.634   0.005   3.402
 3640SOL    HW111819   2.554   6.989   3.442
 3640SOL    HW211820   2.708   0.007   3.469
 3641SOL     OW11821   2.709   0.145   5.341
 3641SOL    HW111822   2.771   0.215   5.378
 3641SOL    HW211823   2.615   0.179   5.345
 3642SOL     OW11824   5.795   0.696   2.719
 3642SOL    HW111825   5.753   0.782   2.747
 3642SOL    HW211826   5.893   0.710   2.702
 3643SOL     OW11827   3.588   6.502   3.501
 3643SOL    HW111828   3.570   6.414   3.544
 3643SOL    HW211829   3.680   6.502   3.462
 3644SOL     OW11830   5.826   0.622   0.946
 3644SOL    HW111831   5.882   0.705   0.949
 3644SOL    HW211832   5.813   0.587   1.039
 3645SOL     OW11833   4.690   5.541   3.786
 3645SOL    HW111834   4.684   5.447   3.819
 3645SOL    HW211835   4.777   5.581   3.814
 3646SOL     OW11836   0.438   5.849   4.924
 3646SOL    HW111837   0.349   5.807   4.905
 3646SOL    HW211838   0.425   5.934   4.975
 3647SOL     OW11839   3.894   2.579   0.302
 3647SOL    HW111840   3.890   2.608   0.206
 3647SOL    HW211841   3.989   2.577   0.332
 3648SOL     OW11842   2.305   6.089   4.010
 3648SOL    HW111843   2.345   6.171   3.969
 3648SOL    HW211844   2.282   6.107   4.106
 3649SOL     OW11845   3.368   2.942   3.230
 3649SOL    HW111846   3.315   2.951   3.146
 3649SOL    HW211847   3.427   3.022   3.242
 3650SOL     OW11848   5.780   5.812   2.358
 3650SOL    HW111849   5.704   5.752   2.335
 3650SOL    HW211850   5.857   5.793   2.298
 3651SOL     OW11851   1.752   5.727   1.641
 3651SOL    HW111852   1.792   5.756   1.729
 3651SOL    HW211853   1.734   5.629   1.644
 3652SOL     OW11854   3.806   0.057   3.577
 3652SOL    HW111855   3.893   0.079   3.622
 3652SOL    HW211856   3.824   7.026   3.498
 3653SOL     OW11857   7.016   3.775   3.388
 3653SOL    HW111858   6.941   3.831   3.354
 3653SOL    HW211859   0.023   3.717   3.314
 3654SOL     OW11860   1.887   0.248   1.905
 3654SOL    HW111861   1.953   0.198   1.849
 3654SOL    HW211862   1.801   0.196   1.910
 3655SOL     OW11863   6.572   1.184   3.895
 3655SOL    HW111864   6.643   1.243   3.935
 3655SOL    HW211865   6.519   1.237   3.828
 3656SOL     OW11866   1.418   1.435   2.684
 3656SOL    HW111867   1.463   1.474   2.765
 3656SOL    HW211868   1.367   1.507   2.637
 3657SOL     OW11869   6.378   4.933   1.384
 3657SOL    HW111870   6.406   5.013   1.331
 3657SOL    HW211871   6.358   4.857   1.323
 3658SOL     OW11872   2.757   4.088   5.293
 3658SOL    HW111873   2.694   4.017   5.324
 3658SOL    HW211874   2.706   4.162   5.250
 3659SOL     OW11875   1.301   3.212   0.562
 3659SOL    HW111876   1.253   3.154   0.627
 3659SOL    HW211877   1.342   3.156   0.491
 3660SOL     OW11878   5.354   3.930   0.445
 3660SOL    HW111879   5.291   4.007   0.435
 3660SOL    HW211880   5.304   3.845   0.431
 3661SOL     OW11881   5.325   0.934   2.460
 3661SOL    HW111882   5.402   0.872   2.442
 3661SOL    HW211883   5.251   0.914   2.396
 3662SOL     OW11884   2.136   6.502   4.274
 3662SOL    HW111885   2.234   6.517   4.291
 3662SOL    HW211886   2.121   6.406   4.250
 3663SOL     OW11887   3.032   2.533   5.967
 3663SOL    HW111888   3.088   2.524   6.050
 3663SOL    HW211889   2.945   2.577   5.990
 3664SOL     OW11890   4.061   0.080   1.765
 3664SOL    HW111891   4.130   0.011   1.743
 3664SOL    HW211892   4.051   0.143   1.688
 3665SOL     OW11893   2.385   1.825   5.590
 3665SOL    HW111894   2.303   1.827   5.533
 3665SOL    HW211895   2.424   1.916   5.596
 3666SOL     OW11896   0.797   4.709   3.139
 3666SOL    HW111897   0.825   4.782   3.202
 3666SOL    HW211898   0.872   4.691   3.074
 3667SOL     OW11899   0.295   0.863   6.801
 3667SOL    HW111900   0.208   0.898   6.834
 3667SOL    HW211901   0.370   0.903   6.854
 3668SOL     OW11902   2.170   0.259   0.923
 3668SOL    HW111903   2.172   0.237   0.825
 3668SOL    HW211904   2.175   0.358   0.935
 3669SOL     OW11905   5.371   1.714   4.750
 3669SOL    HW111906   5.365   1.717   4.849
 3669SOL    HW211907   5.466   1.725   4.721
 3670SOL     OW11908   3.450   4.641   6.388
 3670SOL    HW111909   3.533   4.588   6.406
 3670SOL    HW211910   3.413   4.614   6.298
 3671SOL     OW11911   1.401   1.185   2.842
 3671SOL    HW111912   1.402   1.245   2.762
 3671SOL    HW211913   1.323   1.209   2.900
 3672SOL     OW11914   6.040   5.990   0.074
 3672SOL    HW111915   5.953   6.037   0.091
 3672SOL    HW211916   6.114   6.038   0.121
 3673SOL     OW11917   3.830   0.314   5.737
 3673SOL    HW111918   3.752   0.254   5.756
 3673SOL    HW211919   3.904   0.292   5.800
 3674SOL     OW11920   1.702   6.780   0.854
 3674SOL    HW111921   1.774   6.712   0.847
 3674SOL    HW211922   1.734   6.867   0.815
 3675SOL     OW11923   1.691   1.861   4.042
 3675SOL    HW111924   1.776   1.883   3.994
 3675SOL    HW211925   1.619   1.922   4.010
 3676SOL     OW11926   0.615   4.527   2.430
 3676SOL    HW111927   0.647   4.621   2.420
 3676SOL    HW211928   0.693   4.467   2.447
 3677SOL     OW11929   6.680   1.443   3.451
 3677SOL    HW111930   6.757   1.499   3.420
 3677SOL    HW211931   6.694   1.348   3.421
 3678SOL     OW11932   0.679   2.650   4.024
 3678SOL    HW111933   0.689   2.735   3.973
 3678SOL    HW211934   0.654   2.670   4.118
 3679SOL     OW11935   6.338   1.248   1.288
 3679SOL    HW111936   6.328   1.324   1.354
 3679SOL    HW211937   6.311   1.163   1.332
 3680SOL     OW11938   6.703   4.761   5.293
 3680SOL    HW111939   6.669   4.668   5.283
 3680SOL    HW211940   6.757   4.786   5.212
 3681SOL     OW11941   5.224   0.283   4.089
 3681SOL    HW111942   5.148   0.341   4.119
 3681SOL    HW211943   5.192   0.220   4.018
 3682SOL     OW11944   0.246   1.644   6.719
 3682SOL    HW111945   0.207   1.649   6.811
 3682SOL    HW211946   0.344   1.628   6.725
 3683SOL     OW11947   4.471   6.916   4.268
 3683SOL    HW111948   4.490   6.822   4.295
 3683SOL    HW211949   4.519   6.937   4.183
 3684SOL     OW11950   2.031   3.848   2.025
 3684SOL    HW111951   2.105   3.892   2.076
 3684SOL    HW211952   1.974   3.795   2.088
 3685SOL     OW11953   5.676   5.692   6.203
 3685SOL    HW111954   5.673   5.682   6.303
 3685SOL    HW211955   5.771   5.698   6.173
 3686SOL     OW11956   0.589   4.184   0.416
 3686SOL    HW111957   0.641   4.194   0.501
 3686SOL    HW211958   0.556   4.090   0.409
 3687SOL     OW11959   3.837   0.840   0.974
 3687SOL    HW111960   3.909   0.826   1.042
 3687SOL    HW211961   3.772   0.908   1.007
 3688SOL     OW11962   0.323   2.050   6.407
 3688SOL    HW111963   0.275   1.996   6.477
 3688SOL    HW211964   0.421   2.033   6.413
 3689SOL     OW11965   1.201   6.453   3.667
 3689SOL    HW111966   1.119   6.428   3.616
 3689SOL    HW211967   1.179   6.526   3.732
 3690SOL     OW11968   4.900   4.371   6.030
 3690SOL    HW111969   4.852   4.385   6.116
 3690SOL    HW211970   4.963   4.447   6.014
 3691SOL     OW11971   3.156   3.262   6.425
 3691SOL    HW111972   3.154   3.361   6.415
 3691SOL    HW211973   3.099   3.220   6.355
 3692SOL     OW11974   6.482   0.481   5.273
 3692SOL    HW111975   6.449   0.444   5.187
 3692SOL    HW211976   6.514   0.407   5.332
 3693SOL     OW11977   1.597   1.571   3.249
 3693SOL    HW111978   1.566   1.660   3.213
 3693SOL    HW211979   1.542   1.498   3.208
 3694SOL     OW11980   1.924   4.246   3.592
 3694SOL    HW111981   2.013   4.276   3.627
 3694SOL    HW211982   1.862   4.231   3.669
 3695SOL     OW11983   2.687   1.876   0.964
 3695SOL    HW111984   2.705   1.822   1.046
 3695SOL    HW211985   2.591   1.905   0.963
 3696SOL     OW11986   2.828   5.859   6.011
 3696SOL    HW111987   2.792   5.951   6.024
 3696SOL    HW211988   2.923   5.864   5.979
 3697SOL     OW11989   5.510   1.617   3.382
 3697SOL    HW111990   5.475   1.541   3.437
 3697SOL    HW211991   5.540   1.691   3.443
 3698SOL     OW11992   2.826   0.913   5.574
 3698SOL    HW111993   2.890   0.935   5.501
 3698SOL    HW211994   2.854   0.959   5.659
 3699SOL     OW11995   1.249   5.005   2.402
 3699SOL    HW111996   1.284   5.036   2.314
 3699SOL    HW211997   1.279   4.911   2.419
 3700SOL     OW11998   6.175   6.612   3.783
 3700SOL    HW111999   6.258   6.622   3.839
 3700SOL    HW212000   6.137   6.520   3.796
 3701SOL     OW12001   4.307   1.715   3.842
 3701SOL    HW112002   4.337   1.646   3.776
 3701SOL    HW212003   4.295   1.803   3.796
 3702SOL     OW12004   5.295   0.874   6.194
 3702SOL    HW112005   5.206   0.831   6.176
 3702SOL    HW212006   5.319   0.860   6.290
 3703SOL     OW12007   3.514   4.789   0.482
 3703SOL    HW112008   3.537   4.885   0.496
 3703SOL    HW212009   3.564   4.733   0.547
 3704SOL     OW12010   3.613   5.982   1.138
 3704SOL    HW112011   3.685   5.918   1.114
 3704SOL    HW212012   3.636   6.074   1.104
 3705SOL     OW12013   6.739   1.389   3.985
 3705SOL    HW112014   6.674   1.460   4.010
 3705SOL    HW212015   6.799   1.422   3.912
 3706SOL     OW12016   2.542   2.584   3.000
 3706SOL    HW112017   2.631   2.597   3.044
 3706SOL    HW212018   2.506   2.494   3.022
 3707SOL     OW12019   4.270   1.200   5.402
 3707SOL    HW112020   4.240   1.284   5.357
 3707SOL    HW212021   4.267   1.213   5.502
 3708SOL     OW12022   6.099   6.142   0.677
 3708SOL    HW112023   6.175   6.201   0.703
 3708SOL    HW212024   6.134   6.052   0.649
 3709SOL     OW12025   0.927   6.225   6.269
 3709SOL    HW112026   0.856   6.181   6.214
 3709SOL    HW212027   0.970   6.297   6.216
 3710SOL     OW12028   1.207   5.164   6.302
 3710SOL    HW112029   1.200   5.132   6.207
 3710SOL    HW212030   1.303   5.174   6.327
 3711SOL     OW12031   6.479   4.508   1.971
 3711SOL    HW112032   6.570   4.501   1.929
 3711SOL    HW212033   6.414   4.546   1.905
 3712SOL     OW12034   1.522   0.422   5.382
 3712SOL    HW112035   1.561   0.436   5.473
 3712SOL    HW212036   1.429   0.460   5.380
 3713SOL     OW12037   3.096   4.581   5.886
 3713SOL    HW112038   2.998   4.562   5.879
 3713SOL    HW212039   3.114   4.630   5.971
 3714SOL     OW12040   4.687   2.523   5.005
 3714SOL    HW112041   4.689   2.603   5.064
 3714SOL    HW212042   4.777   2.480   5.004
 3715SOL     OW12043   4.264   4.698   4.359
 3715SOL    HW112044   4.278   4.599   4.360
 3715SOL    HW212045   4.189   4.721   4.422
 3716SOL     OW12046   1.453   1.295   4.824
 3716SOL    HW112047   1.550   1.299   4.848
 3716SOL    HW212048   1.417   1.388   4.815
 3717SOL     OW12049   5.857   0.490   6.589
 3717SOL    HW112050   5.788   0.551   6.548
 3717SOL    HW212051   5.829   0.395   6.577
 3718SOL     OW12052   0.962   0.012   6.196
 3718SOL    HW112053   0.935   0.078   6.127
 3718SOL    HW212054   0.929   0.042   6.286
 3719SOL     OW12055   3.249   4.206   0.134
 3719SOL    HW112056   3.273   4.303   0.121
 3719SOL    HW212057   3.262   4.157   0.048
 3720SOL     OW12058   6.636   1.251   6.055
 3720SOL    HW112059   6.564   1.201   6.104
 3720SOL    HW212060   6.725   1.215   6.080
 3721SOL     OW12061   5.669   2.251   0.536
 3721SOL    HW112062   5.740   2.313   0.570
 3721SOL    HW212063   5.592   2.251   0.599
 3722SOL     OW12064   4.292   5.645   1.062
 3722SOL    HW112065   4.193   5.636   1.063
 3722SOL    HW212066   4.320   5.709   0.991
 3723SOL     OW12067   3.376   1.653   0.654
 3723SOL    HW112068   3.354   1.734   0.600
 3723SOL    HW212069   3.337   1.663   0.746
 3724SOL     OW12070   1.604   3.672   6.603
 3724SOL    HW112071   1.656   3.726   6.669
 3724SOL    HW212072   1.546   3.733   6.548
 3725SOL     OW12073   4.915   6.249   2.329
 3725SOL    HW112074   4.940   6.208   2.242
 3725SOL    HW212075   4.815   6.248   2.339
 3726SOL     OW12076   6.227   3.644   2.442
 3726SOL    HW112077   6.278   3.719   2.483
 3726SOL    HW212078   6.191   3.673   2.353
 3727SOL     OW12079   2.145   2.091   5.512
 3727SOL    HW112080   2.060   2.143   5.515
 3727SOL    HW212081   2.156   2.041   5.598
 3728SOL     OW12082   0.953   3.548   0.092
 3728SOL    HW112083   0.978   3.604   0.013
 3728SOL    HW212084   0.963   3.451   0.069
 3729SOL     OW12085   1.464   3.324   3.642
 3729SOL    HW112086   1.544   3.361   3.595
 3729SOL    HW212087   1.420   3.397   3.695
 3730SOL     OW12088   2.057   0.213   1.364
 3730SOL    HW112089   2.109   0.229   1.448
 3730SOL    HW212090   2.112   0.159   1.300
 3731SOL     OW12091   2.488   6.093   0.374
 3731SOL    HW112092   2.449   6.179   0.341
 3731SOL    HW212093   2.417   6.040   0.421
 3732SOL     OW12094   1.820   3.998   4.078
 3732SOL    HW112095   1.868   3.973   4.162
 3732SOL    HW212096   1.797   4.095   4.081
 3733SOL     OW12097   3.567   3.590   1.686
 3733SOL    HW112098   3.531   3.678   1.655
 3733SOL    HW212099   3.537   3.518   1.623
 3734SOL     OW12100   4.277   1.565   3.595
 3734SOL    HW112101   4.293   1.553   3.497
 3734SOL    HW212102   4.197   1.623   3.609
 3735SOL     OW12103   3.507   2.385   1.607
 3735SOL    HW112104   3.564   2.399   1.526
 3735SOL    HW212105   3.562   2.398   1.689
 3736SOL     OW12106   5.214   0.562   5.995
 3736SOL    HW112107   5.136   0.538   5.937
 3736SOL    HW212108   5.233   0.486   6.058
 3737SOL     OW12109   2.830   6.784   3.393
 3737SOL    HW112110   2.820   6.846   3.315
 3737SOL    HW212111   2.810   6.691   3.363
 3738SOL     OW12112   0.440   0.447   4.585
 3738SOL    HW112113   0.498   0.415   4.660
 3738SOL    HW212114   0.459   0.394   4.502
 3739SOL     OW12115   6.909   3.344   0.468
 3739SOL    HW112116   6.848   3.345   0.389
 3739SOL    HW212117   6.912   3.251   0.505
 3740SOL     OW12118   5.858   6.508   0.044
 3740SOL    HW112119   5.767   6.531   0.007
 3740SOL    HW212120   5.850   6.490   0.142
 3741SOL     OW12121   4.275   0.568   6.608
 3741SOL    HW112122   4.330   0.575   6.692
 3741SOL    HW212123   4.189   0.521   6.629
 3742SOL     OW12124   3.650   3.517   6.379
 3742SOL    HW112125   3.565   3.568   6.389
 3742SOL    HW212126   3.632   3.419   6.389
 3743SOL     OW12127   1.605   5.880   5.385
 3743SOL    HW112128   1.591   5.915   5.478
 3743SOL    HW212129   1.674   5.808   5.386
 3744SOL     OW12130   5.926   5.016   3.801
 3744SOL    HW112131   5.871   5.053   3.876
 3744SOL    HW212132   5.879   4.938   3.760
 3745SOL     OW12133   5.141   4.653   1.548
 3745SOL    HW112134   5.110   4.703   1.629
 3745SOL    HW212135   5.188   4.715   1.486
 3746SOL     OW12136   4.399   1.288   1.098
 3746SOL    HW112137   4.459   1.341   1.037
 3746SOL    HW212138   4.452   1.216   1.142
 3747SOL     OW12139   3.493   6.623   1.328
 3747SOL    HW112140   3.398   6.623   1.296
 3747SOL    HW212141   3.515   6.534   1.367
 3748SOL     OW12142   5.384   0.382   1.850
 3748SOL    HW112143   5.390   0.482   1.859
 3748SOL    HW212144   5.323   0.346   1.921
 3749SOL     OW12145   0.898   0.857   3.657
 3749SOL    HW112146   0.959   0.936   3.650
 3749SOL    HW212147   0.945   0.783   3.706
 3750SOL     OW12148   0.481   3.920   0.412
 3750SOL    HW112149   0.443   3.866   0.338
 3750SOL    HW212150   0.408   3.946   0.476
 3751SOL     OW12151   2.235   5.121   1.780
 3751SOL    HW112152   2.296   5.043   1.768
 3751SOL    HW212153   2.271   5.200   1.730
 3752SOL     OW12154   5.558   5.399   6.864
 3752SOL    HW112155   5.648   5.388   6.908
 3752SOL    HW212156   5.571   5.437   6.772
 3753SOL     OW12157   0.281   1.428   3.442
 3753SOL    HW112158   0.263   1.524   3.460
 3753SOL    HW212159   0.340   1.390   3.514
 3754SOL     OW12160   3.722   1.172   1.605
 3754SOL    HW112161   3.708   1.199   1.700
 3754SOL    HW212162   3.639   1.128   1.570
 3755SOL     OW12163   2.808   6.547   4.616
 3755SOL    HW112164   2.793   6.465   4.672
 3755SOL    HW212165   2.723   6.571   4.569
 3756SOL     OW12166   1.021   6.229   0.639
 3756SOL    HW112167   0.987   6.321   0.618
 3756SOL    HW212168   1.006   6.169   0.560
 3757SOL     OW12169   1.396   5.388   0.080
 3757SOL    HW112170   1.360   5.374   7.016
 3757SOL    HW212171   1.495   5.381   0.079
 3758SOL     OW12172   7.007   5.401   4.174
 3758SOL    HW112173   6.917   5.358   4.184
 3758SOL    HW212174   6.999   5.484   4.118
 3759SOL     OW12175   4.964   0.595   3.367
 3759SOL    HW112176   5.058   0.570   3.343
 3759SOL    HW212177   4.956   0.695   3.367
 3760SOL     OW12178   0.555   1.011   3.586
 3760SOL    HW112179   0.569   0.944   3.659
 3760SOL    HW212180   0.500   0.970   3.514
 3761SOL     OW12181   4.119   0.890   4.480
 3761SOL    HW112182   4.184   0.927   4.414
 3761SOL    HW212183   4.131   0.937   4.568
 3762SOL     OW12184   6.259   2.182   3.834
 3762SOL    HW112185   6.162   2.206   3.827
 3762SOL    HW212186   6.313   2.249   3.784
 3763SOL     OW12187   0.616   0.020   6.558
 3763SOL    HW112188   0.546   0.064   6.615
 3763SOL    HW212189   0.601   6.950   6.557
 3764SOL     OW12190   4.641   2.257   2.722
 3764SOL    HW112191   4.590   2.340   2.700
 3764SOL    HW212192   4.677   2.217   2.638
 3765SOL     OW12193   5.444   3.511   1.597
 3765SOL    HW112194   5.537   3.548   1.596
 3765SOL    HW212195   5.379   3.585   1.586
 3766SOL     OW12196   2.041   2.193   2.516
 3766SOL    HW112197   2.083   2.223   2.430
 3766SOL    HW212198   2.076   2.248   2.591
 3767SOL     OW12199   1.794   5.507   5.113
 3767SOL    HW112200   1.857   5.456   5.055
 3767SOL    HW212201   1.784   5.461   5.201
 3768SOL     OW12202   1.339   6.673   4.070
 3768SOL    HW112203   1.315   6.718   4.156
 3768SOL    HW212204   1.432   6.698   4.045
 3769SOL     OW12205   4.540   5.284   5.918
 3769SOL    HW112206   4.543   5.289   5.818
 3769SOL    HW212207   4.473   5.350   5.953
 3770SOL     OW12208   2.331   0.449   6.995
 3770SOL    HW112209   2.303   0.354   7.005
 3770SOL    HW212210   2.393   0.474   0.041
 3771SOL     OW12211   6.538   5.838   6.085
 3771SOL    HW112212   6.480   5.775   6.034
 3771SOL    HW212213   6.600   5.787   6.145
 3772SOL     OW12214   2.860   5.374   1.580
 3772SOL    HW112215   2.783   5.408   1.634
 3772SOL    HW212216   2.826   5.331   1.496
 3773SOL     OW12217   4.842   3.930   6.679
 3773SOL    HW112218   4.887   3.937   6.590
 3773SOL    HW212219   4.743   3.938   6.667
 3774SOL     OW12220   0.146   4.217   1.597
 3774SOL    HW112221   0.121   4.120   1.588
 3774SOL    HW212222   0.241   4.229   1.571
 3775SOL     OW12223   6.429   6.327   4.709
 3775SOL    HW112224   6.334   6.354   4.725
 3775SOL    HW212225   6.440   6.301   4.613
 3776SOL     OW12226   4.186   2.689   6.465
 3776SOL    HW112227   4.086   2.691   6.460
 3776SOL    HW212228   4.214   2.632   6.542
 3777SOL     OW12229   3.246   5.203   3.208
 3777SOL    HW112230   3.209   5.292   3.235
 3777SOL    HW212231   3.202   5.174   3.123
 3778SOL     OW12232   2.747   5.183   6.605
 3778SOL    HW112233   2.704   5.218   6.688
 3778SOL    HW212234   2.839   5.150   6.625
 3779SOL     OW12235   6.353   4.952   6.428
 3779SOL    HW112236   6.352   4.867   6.480
 3779SOL    HW212237   6.265   4.998   6.440
 3780SOL     OW12238   5.764   1.894   1.036
 3780SOL    HW112239   5.721   1.975   0.999
 3780SOL    HW212240   5.758   1.819   0.970
 3781SOL     OW12241   1.073   0.714   6.531
 3781SOL    HW112242   1.020   0.794   6.501
 3781SOL    HW212243   1.095   0.723   6.628
 3782SOL     OW12244   2.740   5.400   6.888
 3782SOL    HW112245   2.778   5.475   6.835
 3782SOL    HW212246   2.813   5.336   6.914
 3783SOL     OW12247   4.369   5.273   5.383
 3783SOL    HW112248   4.317   5.352   5.350
 3783SOL    HW212249   4.308   5.209   5.429
 3784SOL     OW12250   5.452   4.152   5.301
 3784SOL    HW112251   5.356   4.131   5.280
 3784SOL    HW212252   5.495   4.073   5.345
 3785SOL     OW12253   0.697   3.377   2.054
 3785SOL    HW112254   0.648   3.464   2.060
 3785SOL    HW212255   0.705   3.349   1.959
 3786SOL     OW12256   3.521   2.777   6.162
 3786SOL    HW112257   3.484   2.696   6.207
 3786SOL    HW212258   3.596   2.749   6.101
 3787SOL     OW12259   5.465   5.713   5.911
 3787SOL    HW112260   5.454   5.655   5.830
 3787SOL    HW212261   5.561   5.735   5.924
 3788SOL     OW12262   5.408   2.756   5.734
 3788SOL    HW112263   5.491   2.706   5.760
 3788SOL    HW212264   5.329   2.714   5.780
 3789SOL     OW12265   1.884   4.978   2.106
 3789SOL    HW112266   1.844   4.895   2.144
 3789SOL    HW212267   1.868   4.980   2.007
 3790SOL     OW12268   3.218   0.134   1.977
 3790SOL    HW112269   3.209   0.225   1.937
 3790SOL    HW212270   3.135   0.113   2.029
 3791SOL     OW12271   4.880   0.771   4.137
 3791SOL    HW112272   4.900   0.727   4.050
 3791SOL    HW212273   4.781   0.784   4.147
 3792SOL     OW12274   5.982   0.544   3.115
 3792SOL    HW112275   5.906   0.481   3.132
 3792SOL    HW212276   5.946   0.637   3.107
 3793SOL     OW12277   4.886   3.622   0.351
 3793SOL    HW112278   4.790   3.603   0.329
 3793SOL    HW212279   4.907   3.586   0.442
 3794SOL     OW12280   1.761   5.015   5.548
 3794SOL    HW112281   1.846   4.966   5.567
 3794SOL    HW212282   1.728   4.990   5.457
 3795SOL     OW12283   3.811   6.089   0.285
 3795SOL    HW112284   3.822   6.058   0.191
 3795SOL    HW212285   3.715   6.081   0.312
 3796SOL     OW12286   5.185   0.893   0.319
 3796SOL    HW112287   5.160   0.975   0.371
 3796SOL    HW212288   5.226   0.826   0.380
 3797SOL     OW12289   6.898   1.591   0.747
 3797SOL    HW112290   6.973   1.591   0.682
 3797SOL    HW212291   6.826   1.653   0.716
 3798SOL     OW12292   0.014   3.827   4.141
 3798SOL    HW112293   0.105   3.869   4.143
 3798SOL    HW212294   6.991   3.855   4.222
 3799SOL     OW12295   6.517   2.367   2.121
 3799SOL    HW112296   6.591   2.390   2.057
 3799SOL    HW212297   6.525   2.270   2.147
 3800SOL     OW12298   5.849   3.187   1.451
 3800SOL    HW112299   5.782   3.248   1.410
 3800SOL    HW212300   5.941   3.215   1.424
 3801SOL     OW12301   5.190   1.206   0.373
 3801SOL    HW112302   5.093   1.220   0.354
 3801SOL    HW212303   5.208   1.229   0.469
 3802SOL     OW12304   6.148   3.756   3.662
 3802SOL    HW112305   6.187   3.796   3.745
 3802SOL    HW212306   6.214   3.765   3.587
 3803SOL     OW12307   3.850   4.341   6.659
 3803SOL    HW112308   3.795   4.421   6.684
 3803SOL    HW212309   3.944   4.355   6.689
 3804SOL     OW12310   3.846   5.998   3.567
 3804SOL    HW112311   3.928   5.940   3.568
 3804SOL    HW212312   3.799   5.989   3.655
 3805SOL     OW12313   2.664   1.744   0.145
 3805SOL    HW112314   2.687   1.792   0.060
 3805SOL    HW212315   2.564   1.741   0.155
 3806SOL     OW12316   2.167   4.533   2.242
 3806SOL    HW112317   2.228   4.456   2.264
 3806SOL    HW212318   2.097   4.502   2.177
 3807SOL     OW12319   6.997   4.091   4.504
 3807SOL    HW112320   6.994   4.134   4.414
 3807SOL    HW212321   0.060   4.052   4.518
 3808SOL     OW12322   2.795   6.782   6.464
 3808SOL    HW112323   2.880   6.812   6.420
 3808SOL    HW212324   2.782   6.685   6.447
 3809SOL     OW12325   5.204   2.047   1.202
 3809SOL    HW112326   5.146   1.966   1.212
 3809SOL    HW212327   5.147   2.129   1.200
 3810SOL     OW12328   4.818   2.200   4.654
 3810SOL    HW112329   4.841   2.294   4.632
 3810SOL    HW212330   4.718   2.188   4.650
 3811SOL     OW12331   0.640   6.210   5.555
 3811SOL    HW112332   0.546   6.232   5.528
 3811SOL    HW212333   0.683   6.291   5.595
 3812SOL     OW12334   4.717   5.482   0.236
 3812SOL    HW112335   4.730   5.473   0.335
 3812SOL    HW212336   4.776   5.554   0.201
 3813SOL     OW12337   0.344   3.966   6.588
 3813SOL    HW112338   0.326   4.008   6.499
 3813SOL    HW212339   0.373   3.871   6.575
 3814SOL     OW12340   0.206   0.458   5.074
 3814SOL    HW112341   0.268   0.400   5.022
 3814SOL    HW212342   0.235   0.554   5.065
 3815SOL     OW12343   4.600   1.725   5.720
 3815SOL    HW112344   4.681   1.716   5.779
 3815SOL    HW212345   4.630   1.744   5.626
 3816SOL     OW12346   6.485   6.809   2.090
 3816SOL    HW112347   6.432   6.835   2.170
 3816SOL    HW212348   6.438   6.736   2.041
 3817SOL     OW12349   4.008   3.253   2.861
 3817SOL    HW112350   3.939   3.181   2.867
 3817SOL    HW212351   4.071   3.244   2.939
 3818SOL     OW12352   4.671   5.744   2.252
 3818SOL    HW112353   4.594   5.804   2.233
 3818SOL    HW212354   4.742   5.757   2.183
 3819SOL     OW12355   6.387   2.826   3.112
 3819SOL    HW112356   6.449   2.760   3.070
 3819SOL    HW212357   6.329   2.779   3.179
 3820SOL     OW12358   3.894   6.660   5.921
 3820SOL    HW112359   3.819   6.724   5.941
 3820SOL    HW212360   3.981   6.710   5.922
 3821SOL     OW12361   1.070   6.337   1.275
 3821SOL    HW112362   0.971   6.353   1.266
 3821SOL    HW212363   1.117   6.425   1.279
 3822SOL     OW12364   6.456   6.108   1.221
 3822SOL    HW112365   6.487   6.053   1.143
 3822SOL    HW212366   6.532   6.161   1.258
 3823SOL     OW12367   6.170   5.083   4.461
 3823SOL    HW112368   6.267   5.098   4.478
 3823SOL    HW212369   6.118   5.103   4.544
 3824SOL     OW12370   1.771   2.535   0.899
 3824SOL    HW112371   1.858   2.572   0.865
 3824SOL    HW212372   1.696   2.571   0.846
 3825SOL     OW12373   0.509   4.882   5.679
 3825SOL    HW112374   0.423   4.832   5.684
 3825SOL    HW212375   0.555   4.861   5.593
 3826SOL     OW12376   4.428   4.657   3.978
 3826SOL    HW112377   4.490   4.598   4.030
 3826SOL    HW212378   4.410   4.615   3.888
 3827SOL     OW12379   0.777   1.140   6.995
 3827SOL    HW112380   0.819   1.050   7.000
 3827SOL    HW212381   0.744   1.166   0.058
 3828SOL     OW12382   2.625   3.506   5.883
 3828SOL    HW112383   2.565   3.426   5.879
 3828SOL    HW212384   2.634   3.545   5.791
 3829SOL     OW12385   6.975   2.136   1.236
 3829SOL    HW112386   6.948   2.230   1.259
 3829SOL    HW212387   7.015   2.134   1.145
 3830SOL     OW12388   5.384   6.191   3.813
 3830SOL    HW112389   5.338   6.253   3.877
 3830SOL    HW212390   5.474   6.166   3.849
 3831SOL     OW12391   5.279   2.082   4.433
 3831SOL    HW112392   5.274   2.070   4.334
 3831SOL    HW212393   5.374   2.097   4.461
 3832SOL     OW12394   6.238   1.402   4.031
 3832SOL    HW112395   6.138   1.394   4.030
 3832SOL    HW212396   6.266   1.458   4.109
 3833SOL     OW12397   2.110   3.419   5.535
 3833SOL    HW112398   2.177   3.476   5.488
 3833SOL    HW212399   2.156   3.340   5.576
 3834SOL     OW12400   4.083   5.098   0.658
 3834SOL    HW112401   4.105   5.153   0.578
 3834SOL    HW212402   4.078   5.002   0.633
 3835SOL     OW12403   4.732   5.220   4.544
 3835SOL    HW112404   4.666   5.275   4.492
 3835SOL    HW212405   4.702   5.216   4.639
 3836SOL     OW12406   0.808   0.190   5.732
 3836SOL    HW112407   0.837   0.102   5.695
 3836SOL    HW212408   0.866   0.262   5.696
 3837SOL     OW12409   4.804   4.525   5.803
 3837SOL    HW112410   4.807   4.473   5.888
 3837SOL    HW212411   4.891   4.515   5.755
 3838SOL     OW12412   0.467   2.011   3.214
 3838SOL    HW112413   0.383   2.065   3.221
 3838SOL    HW212414   0.546   2.071   3.225
 3839SOL     OW12415   4.588   1.599   3.771
 3839SOL    HW112416   4.663   1.641   3.721
 3839SOL    HW212417   4.577   1.504   3.741
 3840SOL     OW12418   4.180   2.215   6.066
 3840SOL    HW112419   4.185   2.302   6.115
 3840SOL    HW212420   4.086   2.197   6.039
 3841SOL     OW12421   5.771   4.171   2.739
 3841SOL    HW112422   5.777   4.131   2.647
 3841SOL    HW212423   5.824   4.115   2.803
 3842SOL     OW12424   1.815   3.844   5.211
 3842SOL    HW112425   1.736   3.787   5.189
 3842SOL    HW212426   1.880   3.843   5.135
 3843SOL     OW12427   5.619   2.364   6.869
 3843SOL    HW112428   5.659   2.452   6.891
 3843SOL    HW212429   5.658   2.293   6.928
 3844SOL     OW12430   5.620   5.993   0.383
 3844SOL    HW112431   5.535   6.018   0.430
 3844SOL    HW212432   5.696   5.996   0.447
 3845SOL     OW12433   2.106   5.799   0.495
 3845SOL    HW112434   2.011   5.787   0.526
 3845SOL    HW212435   2.157   5.714   0.508
 3846SOL     OW12436   6.726   3.189   2.815
 3846SOL    HW112437   6.704   3.241   2.898
 3846SOL    HW212438   6.683   3.098   2.821
 3847SOL     OW12439   6.893   0.973   6.697
 3847SOL    HW112440   6.808   0.997   6.745
 3847SOL    HW212441   6.918   1.046   6.635
 3848SOL     OW12442   5.763   5.313   2.687
 3848SOL    HW112443   5.857   5.318   2.654
 3848SOL    HW212444   5.730   5.219   2.681
 3849SOL     OW12445   0.272   3.364   5.569
 3849SOL    HW112446   0.186   3.400   5.606
 3849SOL    HW212447   0.263   3.352   5.470
 3850SOL     OW12448   3.397   3.089   1.339
 3850SOL    HW112449   3.415   3.053   1.431
 3850SOL    HW212450   3.313   3.144   1.342
 3851SOL     OW12451   0.293   5.179   2.194
 3851SOL    HW112452   0.248   5.157   2.281
 3851SOL    HW212453   0.392   5.170   2.205
 3852SOL     OW12454   3.522   0.548   5.448
 3852SOL    HW112455   3.499   0.635   5.491
 3852SOL    HW212456   3.621   0.542   5.437
 3853SOL     OW12457   1.825   0.959   3.213
 3853SOL    HW112458   1.797   1.046   3.252
 3853SOL    HW212459   1.856   0.972   3.119
 3854SOL     OW12460   6.875   1.555   2.046
 3854SOL    HW112461   6.926   1.469   2.045
 3854SOL    HW212462   6.825   1.566   1.961
 3855SOL     OW12463   2.579   5.958   6.676
 3855SOL    HW112464   2.524   5.979   6.757
 3855SOL    HW212465   2.659   6.017   6.674
 3856SOL     OW12466   0.124   2.832   6.450
 3856SOL    HW112467   0.049   2.886   6.412
 3856SOL    HW212468   0.151   2.869   6.539
 3857SOL     OW12469   1.292   0.209   5.925
 3857SOL    HW112470   1.229   0.246   5.993
 3857SOL    HW212471   1.339   0.285   5.878
 3858SOL     OW12472   3.043   0.888   4.941
 3858SOL    HW112473   3.083   0.858   4.854
 3858SOL    HW212474   3.004   0.979   4.930
 3859SOL     OW12475   5.639   6.379   3.451
 3859SOL    HW112476   5.626   6.457   3.390
 3859SOL    HW212477   5.551   6.350   3.488
 3860SOL     OW12478   1.685   6.734   4.886
 3860SOL    HW112479   1.660   6.656   4.944
 3860SOL    HW212480   1.779   6.760   4.905
 3861SOL     OW12481   2.263   6.352   2.705
 3861SOL    HW112482   2.358   6.324   2.719
 3861SOL    HW212483   2.261   6.450   2.683
 3862SOL     OW12484   2.200   0.652   4.074
 3862SOL    HW112485   2.237   0.575   4.022
 3862SOL    HW212486   2.228   0.645   4.170
 3863SOL     OW12487   4.132   6.849   1.251
 3863SOL    HW112488   4.174   6.804   1.172
 3863SOL    HW212489   4.176   6.938   1.266
 3864SOL     OW12490   0.682   0.901   4.903
 3864SOL    HW112491   0.721   0.937   4.988
 3864SOL    HW212492   0.701   0.964   4.829
 3865SOL     OW12493   4.546   1.196   0.227
 3865SOL    HW112494   4.626   1.144   0.199
 3865SOL    HW212495   4.468   1.133   0.238
 3866SOL     OW12496   3.866   1.143   6.601
 3866SOL    HW112497   3.801   1.070   6.581
 3866SOL    HW212498   3.893   1.138   6.697
 3867SOL     OW12499   6.658   3.485   2.339
 3867SOL    HW112500   6.738   3.440   2.378
 3867SOL    HW212501   6.671   3.497   2.241
 3868SOL     OW12502   4.392   0.915   6.865
 3868SOL    HW112503   4.348   0.936   6.952
 3868SOL    HW212504   4.327   0.929   6.790
 3869SOL     OW12505   2.896   1.030   3.461
 3869SOL    HW112506   2.943   1.119   3.457
 3869SOL    HW212507   2.809   1.040   3.509
 3870SOL     OW12508   6.615   1.993   5.986
 3870SOL    HW112509   6.582   1.927   6.053
 3870SOL    HW212510   6.565   2.079   5.998
 3871SOL     OW12511   2.819   5.152   4.207
 3871SOL    HW112512   2.843   5.080   4.272
 3871SOL    HW212513   2.802   5.112   4.117
 3872SOL     OW12514   2.991   3.962   5.439
 3872SOL    HW112515   2.906   3.988   5.392
 3872SOL    HW212516   3.069   3.985   5.381
 3873SOL     OW12517   5.594   2.997   6.838
 3873SOL    HW112518   5.541   2.952   6.910
 3873SOL    HW212519   5.569   2.959   6.749
 3874SOL     OW12520   1.561   0.598   1.821
 3874SOL    HW112521   1.538   0.608   1.918
 3874SOL    HW212522   1.657   0.573   1.812
 3875SOL     OW12523   0.372   0.622   6.443
 3875SOL    HW112524   0.455   0.636   6.497
 3875SOL    HW212525   0.380   0.537   6.392
 3876SOL     OW12526   3.218   5.073   1.969
 3876SOL    HW112527   3.244   5.107   1.878
 3876SOL    HW212528   3.286   5.007   2.001
 3877SOL     OW12529   0.768   1.765   5.752
 3877SOL    HW112530   0.673   1.779   5.778
 3877SOL    HW212531   0.805   1.686   5.800
 3878SOL     OW12532   4.194   1.411   5.218
 3878SOL    HW112533   4.167   1.390   5.123
 3878SOL    HW212534   4.118   1.457   5.264
 3879SOL     OW12535   5.393   5.173   6.881
 3879SOL    HW112536   5.464   5.242   6.868
 3879SOL    HW212537   5.313   5.198   6.825
 3880SOL     OW12538   4.882   5.639   3.495
 3880SOL    HW112539   4.920   5.571   3.558
 3880SOL    HW212540   4.953   5.670   3.433
 3881SOL     OW12541   2.017   2.877   6.840
 3881SOL    HW112542   1.977   2.910   6.754
 3881SOL    HW212543   2.024   2.777   6.837
 3882SOL     OW12544   0.295   2.768   5.890
 3882SOL    HW112545   0.261   2.859   5.867
 3882SOL    HW212546   0.312   2.763   5.988
 3883SOL     OW12547   3.752   5.840   4.456
 3883SOL    HW112548   3.745   5.827   4.555
 3883SOL    HW212549   3.831   5.896   4.435
 3884SOL     OW12550   6.766   2.823   1.767
 3884SOL    HW112551   6.722   2.749   1.715
 3884SOL    HW212552   6.845   2.856   1.716
 3885SOL     OW12553   4.046   5.676   2.198
 3885SOL    HW112554   4.050   5.773   2.222
 3885SOL    HW212555   4.009   5.624   2.275
 3886SOL     OW12556   2.750   5.255   6.312
 3886SOL    HW112557   2.725   5.350   6.292
 3886SOL    HW212558   2.714   5.229   6.402
 3887SOL     OW12559   1.981   6.005   2.093
 3887SOL    HW112560   1.911   6.048   2.036
 3887SOL    HW212561   2.070   6.047   2.075
 3888SOL     OW12562   5.150   5.318   3.081
 3888SOL    HW112563   5.078   5.325   3.150
 3888SOL    HW212564   5.220   5.387   3.098
 3889SOL     OW12565   5.203   2.671   0.557
 3889SOL    HW112566   5.287   2.634   0.595
 3889SOL    HW212567   5.223   2.757   0.509
 3890SOL     OW12568   4.654   4.492   4.044
 3890SOL    HW112569   4.650   4.463   4.139
 3890SOL    HW212570   4.716   4.431   3.993
 3891SOL     OW12571   4.689   4.655   3.698
 3891SOL    HW112572   4.669   4.720   3.625
 3891SOL    HW212573   4.698   4.703   3.785
 3892SOL     OW12574   0.130   1.530   1.289
 3892SOL    HW112575   0.173   1.621   1.291
 3892SOL    HW212576   0.188   1.467   1.237
 3893SOL     OW12577   3.081   3.112   2.981
 3893SOL    HW112578   3.076   3.195   3.036
 3893SOL    HW212579   2.988   3.080   2.961
 3894SOL     OW12580   4.231   0.445   6.104
 3894SOL    HW112581   4.174   0.521   6.134
 3894SOL    HW212582   4.261   0.462   6.010
 3895SOL     OW12583   1.137   0.151   4.617
 3895SOL    HW112584   1.234   0.151   4.643
 3895SOL    HW212585   1.114   0.063   4.575
 3896SOL     OW12586   2.066   1.886   6.540
 3896SOL    HW112587   2.082   1.801   6.591
 3896SOL    HW212588   2.065   1.963   6.603
 3897SOL     OW12589   3.364   5.933   1.021
 3897SOL    HW112590   3.451   5.966   1.059
 3897SOL    HW212591   3.344   5.842   1.058
 3898SOL     OW12592   4.195   3.346   0.892
 3898SOL    HW112593   4.232   3.344   0.799
 3898SOL    HW212594   4.218   3.260   0.939
 3899SOL     OW12595   3.219   6.718   4.993
 3899SOL    HW112596   3.150   6.743   5.061
 3899SOL    HW212597   3.307   6.757   5.018
 3900SOL     OW12598   4.143   4.695   2.416
 3900SOL    HW112599   4.199   4.710   2.335
 3900SOL    HW212600   4.165   4.606   2.456
 3901SOL     OW12601   3.571   1.508   6.655
 3901SOL    HW112602   3.536   1.572   6.723
 3901SOL    HW212603   3.499   1.443   6.630
 3902SOL     OW12604   4.752   2.723   2.602
 3902SOL    HW112605   4.745   2.792   2.529
 3902SOL    HW212606   4.765   2.768   2.690
 3903SOL     OW12607   3.596   5.105   6.801
 3903SOL    HW112608   3.563   5.040   6.869
 3903SOL    HW212609   3.567   5.197   6.825
 3904SOL     OW12610   1.648   6.488   1.062
 3904SOL    HW112611   1.606   6.579   1.059
 3904SOL    HW212612   1.694   6.475   1.149
 3905SOL     OW12613   0.419   6.427   5.327
 3905SOL    HW112614   0.350   6.474   5.273
 3905SOL    HW212615   0.507   6.473   5.315
 3906SOL     OW12616   0.659   6.167   5.066
 3906SOL    HW112617   0.673   6.070   5.044
 3906SOL    HW212618   0.734   6.200   5.123
 3907SOL     OW12619   5.479   2.295   4.051
 3907SOL    HW112620   5.382   2.318   4.050
 3907SOL    HW212621   5.532   2.373   4.082
 3908SOL     OW12622   2.500   3.932   6.183
 3908SOL    HW112623   2.553   3.848   6.167
 3908SOL    HW212624   2.440   3.918   6.262
 3909SOL     OW12625   4.497   6.137   4.011
 3909SOL    HW112626   4.574   6.172   3.957
 3909SOL    HW212627   4.478   6.201   4.086
 3910SOL     OW12628   3.499   3.718   2.792
 3910SOL    HW112629   3.558   3.700   2.713
 3910SOL    HW212630   3.431   3.645   2.800
 3911SOL     OW12631   5.504   2.147   5.518
 3911SOL    HW112632   5.594   2.117   5.487
 3911SOL    HW212633   5.436   2.125   5.449
 3912SOL     OW12634   5.663   3.182   6.490
 3912SOL    HW112635   5.658   3.214   6.585
 3912SOL    HW212636   5.708   3.252   6.434
 3913SOL     OW12637   1.014   7.016   0.964
 3913SOL    HW112638   1.101   0.020   0.927
 3913SOL    HW212639   0.942   0.001   0.896
 3914SOL     OW12640   3.036   5.962   5.843
 3914SOL    HW112641   3.038   5.891   5.772
 3914SOL    HW212642   3.129   5.982   5.873
 3915SOL     OW12643   5.337   5.424   2.038
 3915SOL    HW112644   5.249   5.380   2.052
 3915SOL    HW212645   5.352   5.493   2.110
 3916SOL     OW12646   6.929   0.237   3.400
 3916SOL    HW112647   6.847   0.184   3.421
 3916SOL    HW212648   6.950   0.297   3.477
 3917SOL     OW12649   3.021   0.226   6.687
 3917SOL    HW112650   3.004   0.127   6.688
 3917SOL    HW212651   3.075   0.251   6.767
 3918SOL     OW12652   6.276   3.340   0.306
 3918SOL    HW112653   6.274   3.285   0.390
 3918SOL    HW212654   6.186   3.379   0.290
 3919SOL     OW12655   3.544   6.212   0.757
 3919SOL    HW112656   3.541   6.227   0.856
 3919SOL    HW212657   3.475   6.144   0.731
 3920SOL     OW12658   2.251   1.197   6.212
 3920SOL    HW112659   2.272   1.294   6.197
 3920SOL    HW212660   2.319   1.158   6.275
 3921SOL     OW12661   0.382   3.298   0.967
 3921SOL    HW112662   0.437   3.253   1.037
 3921SOL    HW212663   0.340   3.228   0.908
 3922SOL     OW12664   0.148   5.074   1.277
 3922SOL    HW112665   0.113   5.043   1.366
 3922SOL    HW212666   0.110   5.164   1.257
 3923SOL     OW12667   0.431   5.526   0.414
 3923SOL    HW112668   0.485   5.605   0.385
 3923SOL    HW212669   0.384   5.547   0.499
 3924SOL     OW12670   6.546   5.068   4.085
 3924SOL    HW112671   6.506   5.051   3.995
 3924SOL    HW212672   6.496   5.143   4.129
 3925SOL     OW12673   0.575   5.060   1.386
 3925SOL    HW112674   0.504   5.116   1.428
 3925SOL    HW212675   0.636   5.024   1.456
 3926SOL     OW12676   2.782   6.207   3.080
 3926SOL    HW112677   2.761   6.175   2.987
 3926SOL    HW212678   2.780   6.307   3.081
 3927SOL     OW12679   2.528   3.489   6.329
 3927SOL    HW112680   2.434   3.514   6.349
 3927SOL    HW212681   2.555   3.528   6.241
 3928SOL     OW12682   0.192   6.784   6.494
 3928SOL    HW112683   0.270   6.845   6.505
 3928SOL    HW212684   0.123   6.804   6.564
 3929SOL     OW12685   1.068   1.608   4.846
 3929SOL    HW112686   1.082   1.646   4.755
 3929SOL    HW212687   1.008   1.528   4.840
 3930SOL     OW12688   3.098   1.772   4.172
 3930SOL    HW112689   3.102   1.682   4.215
 3930SOL    HW212690   3.188   1.795   4.135
 3931SOL     OW12691   3.672   6.304   2.410
 3931SOL    HW112692   3.755   6.255   2.386
 3931SOL    HW212693   3.690   6.366   2.486
 3932SOL     OW12694   2.155   3.904   3.221
 3932SOL    HW112695   2.134   3.884   3.126
 3932SOL    HW212696   2.152   3.819   3.274
 3933SOL     OW12697   1.953   0.550   5.946
 3933SOL    HW112698   1.872   0.568   5.890
 3933SOL    HW212699   2.032   0.596   5.907
 3934SOL     OW12700   5.218   5.733   0.536
 3934SOL    HW112701   5.148   5.662   0.532
 3934SOL    HW212702   5.289   5.707   0.601
 3935SOL     OW12703   4.492   6.825   1.975
 3935SOL    HW112704   4.416   6.815   2.039
 3935SOL    HW212705   4.517   6.735   1.939
 3936SOL     OW12706   0.984   3.914   2.585
 3936SOL    HW112707   0.900   3.861   2.578
 3936SOL    HW212708   0.987   3.981   2.510
 3937SOL     OW12709   0.220   1.951   2.868
 3937SOL    HW112710   0.213   1.894   2.950
 3937SOL    HW212711   0.165   1.912   2.795
 3938SOL     OW12712   5.931   3.163   2.482
 3938SOL    HW112713   6.005   3.221   2.446
 3938SOL    HW212714   5.843   3.205   2.463
 3939SOL     OW12715   1.424   2.769   1.894
 3939SOL    HW112716   1.443   2.851   1.840
 3939SOL    HW212717   1.469   2.690   1.851
 3940SOL     OW12718   4.478   4.501   1.501
 3940SOL    HW112719   4.393   4.489   1.553
 3940SOL    HW212720   4.500   4.415   1.453
 3941SOL     OW12721   5.538   3.301   0.434
 3941SOL    HW112722   5.479   3.241   0.490
 3941SOL    HW212723   5.526   3.396   0.463
 3942SOL     OW12724   6.328   6.726   0.995
 3942SOL    HW112725   6.279   6.687   0.917
 3942SOL    HW212726   6.312   6.825   0.998
 3943SOL     OW12727   0.081   3.349   4.317
 3943SOL    HW112728   0.170   3.394   4.319
 3943SOL    HW212729   0.093   3.252   4.294
 3944SOL     OW12730   5.525   2.365   5.013
 3944SOL    HW112731   5.602   2.366   5.077
 3944SOL    HW212732   5.502   2.458   4.986
 3945SOL     OW12733   0.340   6.985   0.937
 3945SOL    HW112734   0.322   7.020   0.844
 3945SOL    HW212735   0.360   6.887   0.932
 3946SOL     OW12736   3.677   4.956   3.694
 3946SOL    HW112737   3.774   4.942   3.713
 3946SOL    HW212738   3.629   4.979   3.779
 3947SOL     OW12739   0.196   4.463   6.028
 3947SOL    HW112740   0.263   4.389   6.029
 3947SOL    HW212741   0.242   4.550   6.009
 3948SOL     OW12742   6.204   3.261   1.736
 3948SOL    HW112743   6.110   3.294   1.728
 3948SOL    HW212744   6.256   3.323   1.794
 3949SOL     OW12745   5.559   6.404   2.639
 3949SOL    HW112746   5.579   6.317   2.684
 3949SOL    HW212747   5.644   6.449   2.613
 3950SOL     OW12748   1.865   6.274   0.228
 3950SOL    HW112749   1.851   6.180   0.260
 3950SOL    HW212750   1.887   6.333   0.306
 3951SOL     OW12751   5.780   5.661   2.070
 3951SOL    HW112752   5.696   5.672   2.017
 3951SOL    HW212753   5.759   5.612   2.155
 3952SOL     OW12754   6.216   0.826   0.157
 3952SOL    HW112755   6.163   0.765   0.099
 3952SOL    HW212756   6.297   0.857   0.107
 3953SOL     OW12757   3.024   3.898   2.691
 3953SOL    HW112758   3.086   3.966   2.731
 3953SOL    HW212759   3.037   3.895   2.592
 3954SOL     OW12760   4.269   4.082   5.793
 3954SOL    HW112761   4.228   4.173   5.798
 3954SOL    HW212762   4.252   4.033   5.878
 3955SOL     OW12763   4.135   1.322   4.934
 3955SOL    HW112764   4.046   1.278   4.949
 3955SOL    HW212765   4.138   1.361   4.842
 3956SOL     OW12766   2.371   1.297   0.590
 3956SOL    HW112767   2.466   1.274   0.566
 3956SOL    HW212768   2.350   1.262   0.681
 3957SOL     OW12769   4.312   2.159   3.906
 3957SOL    HW112770   4.387   2.224   3.916
 3957SOL    HW212771   4.283   2.128   3.997
 3958SOL     OW12772   5.372   6.642   5.730
 3958SOL    HW112773   5.457   6.603   5.764
 3958SOL    HW212774   5.319   6.571   5.683
 3959SOL     OW12775   5.725   6.136   6.668
 3959SOL    HW112776   5.638   6.175   6.639
 3959SOL    HW212777   5.763   6.080   6.594
 3960SOL     OW12778   6.374   2.719   4.246
 3960SOL    HW112779   6.368   2.781   4.168
 3960SOL    HW212780   6.466   2.679   4.249
 3961SOL     OW12781   5.056   0.026   4.193
 3961SOL    HW112782   5.107   6.994   4.254
 3961SOL    HW212783   5.114   0.050   4.114
 3962SOL     OW12784   6.456   5.263   4.231
 3962SOL    HW112785   6.388   5.337   4.229
 3962SOL    HW212786   6.455   5.219   4.321
 3963SOL     OW12787   3.435   6.207   1.841
 3963SOL    HW112788   3.435   6.152   1.925
 3963SOL    HW212789   3.351   6.262   1.837
 3964SOL     OW12790   6.267   2.322   4.156
 3964SOL    HW112791   6.201   2.253   4.128
 3964SOL    HW212792   6.223   2.387   4.218
 3965SOL     OW12793   4.974   4.516   4.403
 3965SOL    HW112794   4.922   4.540   4.485
 3965SOL    HW212795   4.932   4.559   4.323
 3966SOL     OW12796   3.409   6.358   6.736
 3966SOL    HW112797   3.332   6.296   6.752
 3966SOL    HW212798   3.388   6.448   6.773
 3967SOL     OW12799   2.152   3.849   3.814
 3967SOL    HW112800   2.193   3.861   3.904
 3967SOL    HW212801   2.171   3.929   3.757
 3968SOL     OW12802   4.635   6.504   0.554
 3968SOL    HW112803   4.712   6.460   0.508
 3968SOL    HW212804   4.554   6.498   0.496
 3969SOL     OW12805   0.221   4.406   3.312
 3969SOL    HW112806   0.308   4.363   3.286
 3969SOL    HW212807   0.159   4.336   3.348
 3970SOL     OW12808   4.423   6.575   1.189
 3970SOL    HW112809   4.359   6.596   1.263
 3970SOL    HW212810   4.424   6.476   1.173
 3971SOL     OW12811   1.051   6.109   3.650
 3971SOL    HW112812   1.051   6.193   3.703
 3971SOL    HW212813   1.145   6.077   3.638
 3972SOL     OW12814   1.327   3.566   6.977
 3972SOL    HW112815   1.228   3.569   6.966
 3972SOL    HW212816   1.360   3.473   6.964
 3973SOL     OW12817   2.022   4.414   1.126
 3973SOL    HW112818   2.083   4.337   1.144
 3973SOL    HW212819   1.994   4.455   1.213
 3974SOL     OW12820   2.886   0.149   6.115
 3974SOL    HW112821   2.867   0.186   6.025
 3974SOL    HW212822   2.953   0.075   6.108
 3975SOL     OW12823   6.862   2.761   0.107
 3975SOL    HW112824   6.911   2.741   0.192
 3975SOL    HW212825   6.790   2.694   0.092
 3976SOL     OW12826   0.935   4.123   2.416
 3976SOL    HW112827   1.009   4.175   2.457
 3976SOL    HW212828   0.848   4.151   2.456
 3977SOL     OW12829   0.049   2.856   6.974
 3977SOL    HW112830   6.996   2.830   7.026
 3977SOL    HW212831   0.053   2.956   6.968
 3978SOL     OW12832   5.534   4.099   3.570
 3978SOL    HW112833   5.592   4.117   3.649
 3978SOL    HW212834   5.592   4.076   3.491
 3979SOL     OW12835   3.537   6.256   5.842
 3979SOL    HW112836   3.572   6.164   5.825
 3979SOL    HW212837   3.614   6.321   5.841
 3980SOL     OW12838   5.192   4.847   5.667
 3980SOL    HW112839   5.152   4.851   5.576
 3980SOL    HW212840   5.119   4.847   5.736
 3981SOL     OW12841   4.751   5.616   6.847
 3981SOL    HW112842   4.654   5.631   6.867
 3981SOL    HW212843   4.779   5.675   6.771
 3982SOL     OW12844   2.757   6.087   2.814
 3982SOL    HW112845   2.817   6.007   2.814
 3982SOL    HW212846   2.662   6.057   2.801
 3983SOL     OW12847   3.688   6.129   4.501
 3983SOL    HW112848   3.710   6.031   4.498
 3983SOL    HW212849   3.594   6.142   4.531
 3984SOL     OW12850   6.276   3.189   3.321
 3984SOL    HW112851   6.308   3.259   3.257
 3984SOL    HW212852   6.354   3.134   3.352
 3985SOL     OW12853   4.649   5.490   6.317
 3985SOL    HW112854   4.716   5.528   6.253
 3985SOL    HW212855   4.613   5.404   6.281
 3986SOL     OW12856   5.437   0.783   2.854
 3986SOL    HW112857   5.470   0.689   2.844
 3986SOL    HW212858   5.359   0.797   2.793
 3987SOL     OW12859   3.477   5.252   5.573
 3987SOL    HW112860   3.396   5.235   5.629
 3987SOL    HW212861   3.557   5.215   5.619
 3988SOL     OW12862   4.813   5.656   0.778
 3988SOL    HW112863   4.743   5.605   0.727
 3988SOL    HW212864   4.777   5.746   0.802
 3989SOL     OW12865   6.926   2.563   1.098
 3989SOL    HW112866   6.848   2.536   1.041
 3989SOL    HW212867   6.896   2.626   1.169
 3990SOL     OW12868   6.904   1.638   1.247
 3990SOL    HW112869   6.960   1.563   1.281
 3990SOL    HW212870   6.807   1.613   1.251
 3991SOL     OW12871   4.681   1.496   3.235
 3991SOL    HW112872   4.700   1.445   3.318
 3991SOL    HW212873   4.746   1.572   3.226
 3992SOL     OW12874   4.023   1.965   1.739
 3992SOL    HW112875   3.947   2.008   1.789
 3992SOL    HW212876   4.045   1.877   1.782
 3993SOL     OW12877   1.356   3.367   1.673
 3993SOL    HW112878   1.341   3.299   1.744
 3993SOL    HW212879   1.375   3.320   1.586
 3994SOL     OW12880   2.677   5.623   4.405
 3994SOL    HW112881   2.661   5.696   4.338
 3994SOL    HW212882   2.707   5.540   4.356
 3995SOL     OW12883   1.126   1.815   3.874
 3995SOL    HW112884   1.127   1.832   3.775
 3995SOL    HW212885   1.113   1.902   3.922
 3996SOL     OW12886   6.585   5.459   4.525
 3996SOL    HW112887   6.668   5.439   4.577
 3996SOL    HW212888   6.610   5.494   4.435
 3997SOL     OW12889   2.893   0.329   3.065
 3997SOL    HW112890   2.888   0.416   3.017
 3997SOL    HW212891   2.917   0.256   3.001
 3998SOL     OW12892   4.130   1.835   3.185
 3998SOL    HW112893   4.071   1.812   3.108
 3998SOL    HW212894   4.219   1.792   3.173
 3999SOL     OW12895   4.490   1.244   4.476
 3999SOL    HW112896   4.395   1.233   4.507
 3999SOL    HW212897   4.502   1.336   4.438
 4000SOL     OW12898   4.975   5.324   4.500
 4000SOL    HW112899   4.972   5.424   4.513
 4000SOL    HW212900   4.882   5.289   4.494
 4001SOL     OW12901   0.731   1.632   4.932
 4001SOL    HW112902   0.741   1.667   4.839
 4001SOL    HW212903   0.758   1.703   4.997
 4002SOL     OW12904   1.905   5.234   2.230
 4002SOL    HW112905   1.954   5.233   2.317
 4002SOL    HW212906   1.912   5.145   2.186
 4003SOL     OW12907   3.647   1.745   4.493
 4003SOL    HW112908   3.630   1.665   4.435
 4003SOL    HW212909   3.652   1.827   4.436
 4004SOL     OW12910   6.770   1.901   6.380
 4004SOL    HW112911   6.830   1.903   6.300
 4004SOL    HW212912   6.678   1.932   6.354
 4005SOL     OW12913   6.850   4.892   4.778
 4005SOL    HW112914   6.818   4.801   4.753
 4005SOL    HW212915   6.950   4.890   4.790
 4006SOL     OW12916   3.427   6.105   3.202
 4006SOL    HW112917   3.491   6.073   3.272
 4006SOL    HW212918   3.416   6.204   3.210
 4007SOL     OW12919   0.380   1.699   5.504
 4007SOL    HW112920   0.322   1.648   5.568
 4007SOL    HW212921   0.322   1.743   5.435
 4008SOL     OW12922   3.477   1.418   5.075
 4008SOL    HW112923   3.424   1.492   5.117
 4008SOL    HW212924   3.443   1.401   4.982
 4009SOL     OW12925   3.808   3.936   2.786
 4009SOL    HW112926   3.720   3.962   2.826
 4009SOL    HW212927   3.830   3.999   2.712
 4010SOL     OW12928   1.108   3.256   1.043
 4010SOL    HW112929   1.103   3.256   1.143
 4010SOL    HW212930   1.034   3.311   1.006
 4011SOL     OW12931   0.638   1.451   0.646
 4011SOL    HW112932   0.561   1.509   0.619
 4011SOL    HW212933   0.723   1.494   0.617
 4012SOL     OW12934   5.252   3.541   3.272
 4012SOL    HW112935   5.332   3.513   3.325
 4012SOL    HW212936   5.256   3.498   3.182
 4013SOL     OW12937   5.319   2.974   2.943
 4013SOL    HW112938   5.396   2.970   3.006
 4013SOL    HW212939   5.234   2.966   2.995
 4014SOL     OW12940   5.361   4.613   2.727
 4014SOL    HW112941   5.357   4.514   2.741
 4014SOL    HW212942   5.403   4.657   2.806
 4015SOL     OW12943   5.079   3.798   0.038
 4015SOL    HW112944   5.060   3.824   0.132
 4015SOL    HW212945   5.092   3.880   7.011
 4016SOL     OW12946   3.127   6.500   4.661
 4016SOL    HW112947   3.099   6.420   4.716
 4016SOL    HW212948   3.087   6.492   4.570
 4017SOL     OW12949   5.089   6.535   6.133
 4017SOL    HW112950   5.034   6.562   6.212
 4017SOL    HW212951   5.067   6.593   6.055
 4018SOL     OW12952   1.842   0.053   6.928
 4018SOL    HW112953   1.742   0.065   6.928
 4018SOL    HW212954   1.863   6.984   6.924
 4019SOL     OW12955   5.344   6.905   4.069
 4019SOL    HW112956   5.313   6.923   4.163
 4019SOL    HW212957   5.442   6.924   4.062
 4020SOL     OW12958   5.630   1.709   4.659
 4020SOL    HW112959   5.650   1.648   4.736
 4020SOL    HW212960   5.682   1.794   4.670
 4021SOL     OW12961   4.797   3.241   6.838
 4021SOL    HW112962   4.777   3.335   6.812
 4021SOL    HW212963   4.881   3.238   6.892
 4022SOL     OW12964   5.013   1.019   0.934
 4022SOL    HW112965   5.048   1.100   0.887
 4022SOL    HW212966   5.073   0.941   0.915
 4023SOL     OW12967   6.840   5.904   5.478
 4023SOL    HW112968   6.829   5.825   5.417
 4023SOL    HW212969   6.829   5.874   5.573
 4024SOL     OW12970   4.202   4.341   5.859
 4024SOL    HW112971   4.278   4.336   5.923
 4024SOL    HW212972   4.123   4.384   5.904
 4025SOL     OW12973   0.276   3.993   4.166
 4025SOL    HW112974   0.283   4.055   4.088
 4025SOL    HW212975   0.321   3.906   4.145
 4026SOL     OW12976   5.943   1.178   5.335
 4026SOL    HW112977   5.871   1.148   5.272
 4026SOL    HW212978   6.011   1.232   5.285
 4027SOL     OW12979   2.720   5.280   2.762
 4027SOL    HW112980   2.799   5.285   2.701
 4027SOL    HW212981   2.636   5.270   2.708
 4028SOL     OW12982   1.201   5.485   2.932
 4028SOL    HW112983   1.179   5.397   2.973
 4028SOL    HW212984   1.273   5.474   2.864
 4029SOL     OW12985   1.885   4.242   3.280
 4029SOL    HW112986   1.896   4.260   3.378
 4029SOL    HW212987   1.853   4.148   3.267
 4030SOL     OW12988   2.544   1.092   6.135
 4030SOL    HW112989   2.584   1.026   6.071
 4030SOL    HW212990   2.444   1.092   6.123
 4031SOL     OW12991   6.879   6.303   4.158
 4031SOL    HW112992   6.854   6.224   4.215
 4031SOL    HW212993   6.881   6.275   4.062
 4032SOL     OW12994   3.843   0.133   4.706
 4032SOL    HW112995   3.901   0.190   4.764
 4032SOL    HW212996   3.901   0.071   4.653
 4033SOL     OW12997   3.604   3.959   6.564
 4033SOL    HW112998   3.647   3.937   6.652
 4033SOL    HW212999   3.668   4.009   6.507
 4034SOL     OW13000   6.226   3.385   5.315
 4034SOL    HW113001   6.128   3.377   5.299
 4034SOL    HW213002   6.267   3.294   5.322
 4035SOL     OW13003   0.212   6.229   2.311
 4035SOL    HW113004   0.193   6.206   2.407
 4035SOL    HW213005   0.237   6.326   2.304
 4036SOL     OW13006   6.094   6.383   1.373
 4036SOL    HW113007   6.180   6.340   1.400
 4036SOL    HW213008   6.017   6.327   1.404
 4037SOL     OW13009   0.894   4.068   6.347
 4037SOL    HW113010   0.970   4.133   6.352
 4037SOL    HW213011   0.928   3.976   6.365
 4038SOL     OW13012   6.411   5.351   3.290
 4038SOL    HW113013   6.471   5.416   3.337
 4038SOL    HW213014   6.409   5.265   3.339
 4039SOL     OW13015   2.532   5.130   1.508
 4039SOL    HW113016   2.530   5.101   1.604
 4039SOL    HW213017   2.438   5.151   1.479
 4040SOL     OW13018   2.850   0.183   0.053
 4040SOL    HW113019   2.890   0.117   0.117
 4040SOL    HW213020   2.802   0.254   0.104
 4041SOL     OW13021   0.237   5.935   3.141
 4041SOL    HW113022   0.324   5.900   3.175
 4041SOL    HW213023   0.216   5.891   3.054
 4042SOL     OW13024   5.178   5.112   1.623
 4042SOL    HW113025   5.234   5.108   1.540
 4042SOL    HW213026   5.238   5.119   1.703
 4043SOL     OW13027   0.062   3.351   0.878
 4043SOL    HW113028   0.151   3.315   0.852
 4043SOL    HW213029   0.001   3.275   0.900
 4044SOL     OW13030   5.284   4.839   2.516
 4044SOL    HW113031   5.210   4.794   2.464
 4044SOL    HW213032   5.290   4.798   2.607
 4045SOL     OW13033   3.022   5.307   5.495
 4045SOL    HW113034   3.046   5.219   5.455
 4045SOL    HW213035   2.940   5.296   5.552
 4046SOL     OW13036   0.937   3.870   0.935
 4046SOL    HW113037   1.015   3.916   0.977
 4046SOL    HW213038   0.968   3.791   0.883
 4047SOL     OW13039   3.414   4.121   3.524
 4047SOL    HW113040   3.315   4.118   3.514
 4047SOL    HW213041   3.456   4.141   3.436
 4048SOL     OW13042   4.901   2.454   0.842
 4048SOL    HW113043   4.939   2.435   0.751
 4048SOL    HW213044   4.814   2.502   0.832
 4049SOL     OW13045   6.385   6.277   0.331
 4049SOL    HW113046   6.452   6.245   0.264
 4049SOL    HW213047   6.391   6.221   0.413
 4050SOL     OW13048   2.252   1.225   1.877
 4050SOL    HW113049   2.250   1.125   1.873
 4050SOL    HW213050   2.283   1.255   1.967
 4051SOL     OW13051   3.096   4.217   1.069
 4051SOL    HW113052   3.120   4.126   1.103
 4051SOL    HW213053   3.039   4.209   0.987
 4052SOL     OW13054   1.274   0.099   0.923
 4052SOL    HW113055   1.304   0.033   0.992
 4052SOL    HW213056   1.342   0.102   0.849
 4053SOL     OW13057   2.669   5.829   2.150
 4053SOL    HW113058   2.598   5.816   2.219
 4053SOL    HW213059   2.743   5.884   2.188
 4054SOL     OW13060   5.306   1.735   6.551
 4054SOL    HW113061   5.277   1.775   6.638
 4054SOL    HW213062   5.225   1.702   6.501
 4055SOL     OW13063   4.617   3.777   6.024
 4055SOL    HW113064   4.628   3.774   6.124
 4055SOL    HW213065   4.647   3.691   5.984
 4056SOL     OW13066   4.335   3.503   0.071
 4056SOL    HW113067   4.348   3.602   0.062
 4056SOL    HW213068   4.361   3.459   7.013
 4057SOL     OW13069   6.650   2.309   0.758
 4057SOL    HW113070   6.584   2.244   0.795
 4057SOL    HW213071   6.704   2.266   0.686
 4058SOL     OW13072   1.495   3.882   3.964
 4058SOL    HW113073   1.533   3.937   3.890
 4058SOL    HW213074   1.529   3.788   3.958
 4059SOL     OW13075   0.005   2.314   4.900
 4059SOL    HW113076   0.042   2.370   4.975
 4059SOL    HW213077   6.938   2.339   4.883
 4060SOL     OW13078   2.321   6.794   6.208
 4060SOL    HW113079   2.368   6.741   6.137
 4060SOL    HW213080   2.227   6.814   6.178
 4061SOL     OW13081   2.037   2.839   2.020
 4061SOL    HW113082   1.977   2.759   2.015
 4061SOL    HW213083   1.985   2.917   2.054
 4062SOL     OW13084   2.550   0.985   3.244
 4062SOL    HW113085   2.512   1.024   3.160
 4062SOL    HW213086   2.595   1.058   3.297
 4063SOL     OW13087   4.026   6.499   5.705
 4063SOL    HW113088   4.015   6.408   5.665
 4063SOL    HW213089   3.953   6.515   5.771
 4064SOL     OW13090   6.338   0.025   4.495
 4064SOL    HW113091   6.306   0.104   4.442
 4064SOL    HW213092   6.270   0.003   4.566
 4065SOL     OW13093   0.779   4.522   5.907
 4065SOL    HW113094   0.738   4.594   5.962
 4065SOL    HW213095   0.734   4.435   5.926
 4066SOL     OW13096   4.953   3.757   2.282
 4066SOL    HW113097   5.042   3.796   2.257
 4066SOL    HW213098   4.953   3.734   2.380
 4067SOL     OW13099   5.046   0.277   1.506
 4067SOL    HW113100   4.969   0.305   1.448
 4067SOL    HW213101   5.131   0.284   1.454
 4068SOL     OW13102   5.382   0.162   4.531
 4068SOL    HW113103   5.291   0.169   4.572
 4068SOL    HW213104   5.444   0.117   4.596
 4069SOL     OW13105   6.532   6.002   0.988
 4069SOL    HW113106   6.482   5.946   0.923
 4069SOL    HW213107   6.602   6.055   0.939
 4070SOL     OW13108   0.526   3.815   2.833
 4070SOL    HW113109   0.463   3.818   2.756
 4070SOL    HW213110   0.553   3.721   2.851
 4071SOL     OW13111   2.799   6.916   4.582
 4071SOL    HW113112   2.754   6.994   4.626
 4071SOL    HW213113   2.762   6.903   4.491
 4072SOL     OW13114   0.099   0.614   4.789
 4072SOL    HW113115   0.005   0.636   4.811
 4072SOL    HW213116   0.108   0.515   4.779
 4073SOL     OW13117   2.449   4.360   1.621
 4073SOL    HW113118   2.413   4.436   1.567
 4073SOL    HW213119   2.545   4.346   1.598
 4074SOL     OW13120   6.955   2.603   1.605
 4074SOL    HW113121   6.986   2.611   1.700
 4074SOL    HW213122   6.950   2.694   1.564
 4075SOL     OW13123   6.491   0.515   3.655
 4075SOL    HW113124   6.556   0.449   3.693
 4075SOL    HW213125   6.459   0.576   3.726
 4076SOL     OW13126   1.479   3.607   3.319
 4076SOL    HW113127   1.476   3.638   3.414
 4076SOL    HW213128   1.553   3.653   3.271
 4077SOL     OW13129   3.721   0.584   1.659
 4077SOL    HW113130   3.741   0.493   1.622
 4077SOL    HW213131   3.791   0.609   1.726
 4078SOL     OW13132   5.038   4.047   2.660
 4078SOL    HW113133   4.949   4.085   2.686
 4078SOL    HW213134   5.048   4.052   2.561
 4079SOL     OW13135   4.654   0.921   2.907
 4079SOL    HW113136   4.737   0.940   2.854
 4079SOL    HW213137   4.602   1.006   2.920
 4080SOL     OW13138   4.167   3.493   4.281
 4080SOL    HW113139   4.083   3.521   4.327
 4080SOL    HW213140   4.170   3.533   4.190
 4081SOL     OW13141   2.664   6.752   0.416
 4081SOL    HW113142   2.590   6.736   0.351
 4081SOL    HW213143   2.647   6.699   0.499
 4082SOL     OW13144   1.373   1.582   6.219
 4082SOL    HW113145   1.389   1.568   6.317
 4082SOL    HW213146   1.439   1.650   6.185
 4083SOL     OW13147   5.868   3.755   2.232
 4083SOL    HW113148   5.888   3.729   2.327
 4083SOL    HW213149   5.892   3.850   2.217
 4084SOL     OW13150   4.047   5.991   2.936
 4084SOL    HW113151   3.978   6.025   3.000
 4084SOL    HW213152   4.067   5.895   2.956
 4085SOL     OW13153   1.334   4.546   2.864
 4085SOL    HW113154   1.419   4.596   2.877
 4085SOL    HW213155   1.352   4.447   2.862
 4086SOL     OW13156   6.002   5.073   5.373
 4086SOL    HW113157   6.073   5.007   5.351
 4086SOL    HW213158   5.913   5.038   5.346
 4087SOL     OW13159   1.112   1.475   1.214
 4087SOL    HW113160   1.183   1.529   1.170
 4087SOL    HW213161   1.024   1.522   1.207
 4088SOL     OW13162   0.372   1.979   4.846
 4088SOL    HW113163   0.464   1.991   4.810
 4088SOL    HW213164   0.369   2.013   4.940
 4089SOL     OW13165   6.719   6.478   2.746
 4089SOL    HW113166   6.798   6.419   2.758
 4089SOL    HW213167   6.689   6.474   2.650
 4090SOL     OW13168   3.361   2.374   5.579
 4090SOL    HW113169   3.388   2.400   5.486
 4090SOL    HW213170   3.408   2.434   5.644
 4091SOL     OW13171   4.251   7.010   3.320
 4091SOL    HW113172   4.259   0.079   3.293
 4091SOL    HW213173   4.288   6.998   3.412
 4092SOL     OW13174   4.047   1.849   6.817
 4092SOL    HW113175   4.032   1.807   6.727
 4092SOL    HW213176   4.091   1.783   6.878
 4093SOL     OW13177   5.548   4.522   0.993
 4093SOL    HW113178   5.512   4.485   1.079
 4093SOL    HW213179   5.473   4.561   0.940
 4094SOL     OW13180   6.260   5.933   0.628
 4094SOL    HW113181   6.338   5.992   0.608
 4094SOL    HW213182   6.210   5.916   0.543
 4095SOL     OW13183   1.458   4.780   0.385
 4095SOL    HW113184   1.402   4.829   0.451
 4095SOL    HW213185   1.548   4.761   0.426
 4096SOL     OW13186   0.919   6.280   5.834
 4096SOL    HW113187   0.878   6.347   5.895
 4096SOL    HW213188   0.866   6.275   5.749
 4097SOL     OW13189   1.606   4.076   5.871
 4097SOL    HW113190   1.700   4.057   5.843
 4097SOL    HW213191   1.546   4.070   5.791
 4098SOL     OW13192   1.442   5.811   2.143
 4098SOL    HW113193   1.437   5.733   2.081
 4098SOL    HW213194   1.360   5.868   2.131
 4099SOL     OW13195   0.167   2.537   5.793
 4099SOL    HW113196   0.215   2.615   5.834
 4099SOL    HW213197   0.234   2.471   5.759
 4100SOL     OW13198   1.661   1.210   2.943
 4100SOL    HW113199   1.579   1.204   2.887
 4100SOL    HW213200   1.640   1.182   3.037
 4101SOL     OW13201   5.736   5.776   5.902
 4101SOL    HW113202   5.753   5.808   5.995
 4101SOL    HW213203   5.806   5.813   5.841
 4102SOL     OW13204   3.036   5.504   0.654
 4102SOL    HW113205   2.948   5.476   0.693
 4102SOL    HW213206   3.099   5.531   0.728
 4103SOL     OW13207   2.327   5.362   2.418
 4103SOL    HW113208   2.262   5.427   2.457
 4103SOL    HW213209   2.348   5.388   2.324
 4104SOL     OW13210   2.460   5.518   5.073
 4104SOL    HW113211   2.425   5.607   5.046
 4104SOL    HW213212   2.524   5.484   5.004
 4105SOL     OW13213   4.146   0.431   1.590
 4105SOL    HW113214   4.168   0.521   1.553
 4105SOL    HW213215   4.084   0.440   1.667
 4106SOL     OW13216   1.759   6.978   2.878
 4106SOL    HW113217   1.721   6.953   2.789
 4106SOL    HW213218   1.809   0.037   2.869
 4107SOL     OW13219   2.758   2.279   1.255
 4107SOL    HW113220   2.797   2.343   1.320
 4107SOL    HW213221   2.825   2.207   1.234
 4108SOL     OW13222   0.778   5.694   5.878
 4108SOL    HW113223   0.717   5.631   5.829
 4108SOL    HW213224   0.845   5.732   5.814
 4109SOL     OW13225   5.897   0.347   4.613
 4109SOL    HW113226   5.865   0.280   4.680
 4109SOL    HW213227   5.819   0.384   4.562
 4110SOL     OW13228   4.927   2.682   0.432
 4110SOL    HW113229   4.843   2.724   0.466
 4110SOL    HW213230   5.000   2.696   0.498
 4111SOL     OW13231   6.278   4.477   4.277
 4111SOL    HW113232   6.185   4.503   4.301
 4111SOL    HW213233   6.341   4.505   4.350
 4112SOL     OW13234   3.460   4.470   5.388
 4112SOL    HW113235   3.553   4.489   5.357
 4112SOL    HW213236   3.445   4.512   5.477
 4113SOL     OW13237   5.313   5.939   5.552
 4113SOL    HW113238   5.390   5.923   5.613
 4113SOL    HW213239   5.290   5.854   5.505
 4114SOL     OW13240   5.648   1.854   3.563
 4114SOL    HW113241   5.636   1.925   3.494
 4114SOL    HW213242   5.716   1.788   3.531
 4115SOL     OW13243   4.764   0.788   4.811
 4115SOL    HW113244   4.788   0.831   4.724
 4115SOL    HW213245   4.808   0.838   4.886
 4116SOL     OW13246   5.750   3.694   2.977
 4116SOL    HW113247   5.780   3.663   3.068
 4116SOL    HW213248   5.703   3.619   2.931
 4117SOL     OW13249   0.455   2.460   2.652
 4117SOL    HW113250   0.458   2.554   2.685
 4117SOL    HW213251   0.465   2.459   2.553
 4118SOL     OW13252   1.020   1.338   1.650
 4118SOL    HW113253   1.116   1.353   1.629
 4118SOL    HW213254   0.965   1.360   1.569
 4119SOL     OW13255   6.203   1.107   4.421
 4119SOL    HW113256   6.266   1.142   4.351
 4119SOL    HW213257   6.130   1.056   4.376
 4120SOL     OW13258   1.689   0.074   0.339
 4120SOL    HW113259   1.624   7.025   0.340
 4120SOL    HW213260   1.667   0.135   0.263
 4121SOL     OW13261   6.801   6.952   1.317
 4121SOL    HW113262   6.817   6.991   1.407
 4121SOL    HW213263   6.818   7.021   1.247
 4122SOL     OW13264   1.137   4.636   3.307
 4122SOL    HW113265   1.101   4.623   3.214
 4122SOL    HW213266   1.176   4.550   3.340
 4123SOL     OW13267   5.955   4.685   2.023
 4123SOL    HW113268   5.864   4.646   2.007
 4123SOL    HW213269   6.009   4.681   1.939
 4124SOL     OW13270   5.504   5.850   0.696
 4124SOL    HW113271   5.423   5.837   0.752
 4124SOL    HW213272   5.585   5.855   0.754
 4125SOL     OW13273   1.409   3.101   0.317
 4125SOL    HW113274   1.321   3.102   0.269
 4125SOL    HW213275   1.475   3.157   0.268
 4126SOL     OW13276   2.111   4.527   2.814
 4126SOL    HW113277   2.059   4.612   2.815
 4126SOL    HW213278   2.109   4.488   2.721
 4127SOL     OW13279   4.676   2.510   4.743
 4127SOL    HW113280   4.666   2.520   4.842
 4127SOL    HW213281   4.588   2.485   4.703
 4128SOL     OW13282   6.235   2.946   6.705
 4128SOL    HW113283   6.149   2.909   6.671
 4128SOL    HW213284   6.309   2.922   6.642
 4129SOL     OW13285   2.919   6.551   2.156
 4129SOL    HW113286   2.884   6.550   2.249
 4129SOL    HW213287   2.852   6.509   2.094
 4130SOL     OW13288   4.633   1.506   6.894
 4130SOL    HW113289   4.536   1.531   6.887
 4130SOL    HW213290   4.644   1.410   6.868
 4131SOL     OW13291   5.373   5.972   4.380
 4131SOL    HW113292   5.467   5.940   4.370
 4131SOL    HW213293   5.314   5.896   4.403
 4132SOL     OW13294   0.147   3.274   2.519
 4132SOL    HW113295   0.233   3.231   2.490
 4132SOL    HW213296   0.072   3.211   2.501
 4133SOL     OW13297   5.259   6.650   3.948
 4133SOL    HW113298   5.323   6.642   3.871
 4133SOL    HW213299   5.265   6.741   3.987
 4134SOL     OW13300   2.135   3.086   1.449
 4134SOL    HW113301   2.200   3.131   1.387
 4134SOL    HW213302   2.065   3.040   1.396
 4135SOL     OW13303   6.245   0.627   0.834
 4135SOL    HW113304   6.322   0.568   0.860
 4135SOL    HW213305   6.249   0.711   0.887
 4136SOL     OW13306   0.853   5.034   0.220
 4136SOL    HW113307   0.799   4.998   0.144
 4136SOL    HW213308   0.848   4.971   0.298
 4137SOL     OW13309   0.435   2.129   5.062
 4137SOL    HW113310   0.522   2.119   5.109
 4137SOL    HW213311   0.371   2.178   5.120
 4138SOL     OW13312   5.675   6.477   6.435
 4138SOL    HW113313   5.614   6.556   6.441
 4138SOL    HW213314   5.692   6.456   6.338
 4139SOL     OW13315   1.205   4.094   1.980
 4139SOL    HW113316   1.219   4.188   2.011
 4139SOL    HW213317   1.221   4.090   1.881
 4140SOL     OW13318   2.302   6.670   0.916
 4140SOL    HW113319   2.295   6.651   1.013
 4140SOL    HW213320   2.316   6.769   0.903
 4141SOL     OW13321   5.179   0.088   5.660
 4141SOL    HW113322   5.103   0.129   5.610
 4141SOL    HW213323   5.199   7.025   5.622
 4142SOL     OW13324   0.505   6.708   2.078
 4142SOL    HW113325   0.507   6.764   1.995
 4142SOL    HW213326   0.574   6.740   2.142
 4143SOL     OW13327   6.223   3.814   7.009
 4143SOL    HW113328   6.228   3.717   6.983
 4143SOL    HW213329   6.180   3.823   0.070
 4144SOL     OW13330   5.056   0.722   1.643
 4144SOL    HW113331   4.981   0.787   1.632
 4144SOL    HW213332   5.068   0.701   1.740
 4145SOL     OW13333   4.278   0.867   0.968
 4145SOL    HW113334   4.288   0.961   0.938
 4145SOL    HW213335   4.321   0.806   0.901
 4146SOL     OW13336   3.018   1.457   1.603
 4146SOL    HW113337   3.028   1.438   1.700
 4146SOL    HW213338   2.930   1.422   1.571
 4147SOL     OW13339   5.557   4.109   0.125
 4147SOL    HW113340   5.613   4.075   0.048
 4147SOL    HW213341   5.461   4.086   0.108
 4148SOL     OW13342   3.210   0.150   6.342
 4148SOL    HW113343   3.139   0.220   6.349
 4148SOL    HW213344   3.213   0.097   6.426
 4149SOL     OW13345   1.618   2.426   6.141
 4149SOL    HW113346   1.554   2.380   6.079
 4149SOL    HW213347   1.662   2.357   6.199
 4150SOL     OW13348   6.569   1.218   1.090
 4150SOL    HW113349   6.518   1.284   1.034
 4150SOL    HW213350   6.533   1.219   1.183
 4151SOL     OW13351   3.420   5.818   4.520
 4151SOL    HW113352   3.442   5.876   4.598
 4151SOL    HW213353   3.500   5.763   4.496
 4152SOL     OW13354   2.878   3.584   1.458
 4152SOL    HW113355   2.890   3.587   1.558
 4152SOL    HW213356   2.881   3.489   1.427
 4153SOL     OW13357   6.056   6.584   6.896
 4153SOL    HW113358   5.985   6.585   6.826
 4153SOL    HW213359   6.015   6.561   6.985
 4154SOL     OW13360   0.820   6.839   3.430
 4154SOL    HW113361   0.902   6.789   3.403
 4154SOL    HW213362   0.796   6.815   3.524
 4155SOL     OW13363   5.279   1.321   2.683
 4155SOL    HW113364   5.322   1.358   2.600
 4155SOL    HW213365   5.235   1.234   2.661
 4156SOL     OW13366   0.458   5.721   6.106
 4156SOL    HW113367   0.463   5.737   6.007
 4156SOL    HW213368   0.485   5.626   6.125
 4157SOL     OW13369   4.157   6.097   0.630
 4157SOL    HW113370   4.194   6.165   0.567
 4157SOL    HW213371   4.102   6.030   0.579
 4158SOL     OW13372   6.565   0.882   6.289
 4158SOL    HW113373   6.601   0.822   6.360
 4158SOL    HW213374   6.611   0.862   6.202
 4159SOL     OW13375   3.730   0.923   4.114
 4159SOL    HW113376   3.660   0.993   4.109
 4159SOL    HW213377   3.805   0.954   4.173
 4160SOL     OW13378   1.187   0.804   5.752
 4160SOL    HW113379   1.106   0.861   5.756
 4160SOL    HW213380   1.249   0.829   5.826
 4161SOL     OW13381   3.105   3.383   5.139
 4161SOL    HW113382   3.156   3.414   5.220
 4161SOL    HW213383   3.019   3.341   5.168
 4162SOL     OW13384   4.730   6.897   0.921
 4162SOL    HW113385   4.760   6.863   1.010
 4162SOL    HW213386   4.762   6.836   0.849
 4163SOL     OW13387   4.259   6.629   1.433
 4163SOL    HW113388   4.179   6.686   1.415
 4163SOL    HW213389   4.233   6.533   1.429
 4164SOL     OW13390   5.696   1.435   6.940
 4164SOL    HW113391   5.765   1.375   6.980
 4164SOL    HW213392   5.613   1.432   6.996
 4165SOL     OW13393   3.429   0.982   4.761
 4165SOL    HW113394   3.474   1.015   4.679
 4165SOL    HW213395   3.361   0.914   4.737
 4166SOL     OW13396   5.608   2.376   2.633
 4166SOL    HW113397   5.603   2.326   2.720
 4166SOL    HW213398   5.573   2.469   2.647
 4167SOL     OW13399   3.796   6.191   4.833
 4167SOL    HW113400   3.849   6.150   4.758
 4167SOL    HW213401   3.711   6.229   4.796
 4168SOL     OW13402   5.761   3.210   6.753
 4168SOL    HW113403   5.755   3.112   6.773
 4168SOL    HW213404   5.813   3.256   6.824
 4169SOL     OW13405   5.226   4.451   0.048
 4169SOL    HW113406   5.308   4.439   0.104
 4169SOL    HW213407   5.253   4.464   6.981
 4170SOL     OW13408   0.748   2.893   5.271
 4170SOL    HW113409   0.681   2.830   5.233
 4170SOL    HW213410   0.719   2.987   5.254
 4171SOL     OW13411   6.960   6.770   5.837
 4171SOL    HW113412   6.962   6.816   5.749
 4171SOL    HW213413   6.991   6.834   5.908
 4172SOL     OW13414   3.326   3.577   0.160
 4172SOL    HW113415   3.421   3.546   0.152
 4172SOL    HW213416   3.324   3.669   0.200
 4173SOL     OW13417   5.768   1.605   6.008
 4173SOL    HW113418   5.672   1.625   6.028
 4173SOL    HW213419   5.826   1.674   6.052
 4174SOL     OW13420   2.558   6.859   3.756
 4174SOL    HW113421   2.644   6.906   3.777
 4174SOL    HW213422   2.553   6.775   3.810
 4175SOL     OW13423   1.856   3.104   6.527
 4175SOL    HW113424   1.922   3.031   6.508
 4175SOL    HW213425   1.847   3.163   6.447
 4176SOL     OW13426   4.886   0.131   4.802
 4176SOL    HW113427   4.791   0.152   4.776
 4176SOL    HW213428   4.930   0.214   4.835
 4177SOL     OW13429   5.239   6.248   4.133
 4177SOL    HW113430   5.141   6.266   4.139
 4177SOL    HW213431   5.253   6.153   4.105
 4178SOL     OW13432   2.623   6.284   1.117
 4178SOL    HW113433   2.687   6.339   1.170
 4178SOL    HW213434   2.670   6.244   1.038
 4179SOL     OW13435   3.813   1.937   0.176
 4179SOL    HW113436   3.719   1.915   0.198
 4179SOL    HW213437   3.824   1.942   0.076
 4180SOL     OW13438   3.959   4.460   0.152
 4180SOL    HW113439   3.909   4.375   0.172
 4180SOL    HW213440   3.894   4.536   0.144
 4181SOL     OW13441   5.305   6.358   6.062
 4181SOL    HW113442   5.235   6.429   6.072
 4181SOL    HW213443   5.283   6.301   5.983
 4182SOL     OW13444   5.929   5.217   5.607
 4182SOL    HW113445   6.009   5.253   5.654
 4182SOL    HW213446   5.958   5.168   5.525
 4183SOL     OW13447   4.973   2.728   6.745
 4183SOL    HW113448   4.990   2.630   6.734
 4183SOL    HW213449   4.900   2.742   6.813
 4184SOL     OW13450   3.601   5.784   3.756
 4184SOL    HW113451   3.562   5.763   3.666
 4184SOL    HW213452   3.644   5.702   3.793
 4185SOL     OW13453   4.493   4.633   3.458
 4185SOL    HW113454   4.498   4.562   3.388
 4185SOL    HW213455   4.567   4.699   3.444
 4186SOL     OW13456   1.992   4.912   1.132
 4186SOL    HW113457   2.018   4.977   1.061
 4186SOL    HW213458   2.042   4.932   1.216
 4187SOL     OW13459   1.239   3.552   6.056
 4187SOL    HW113460   1.309   3.608   6.100
 4187SOL    HW213461   1.156   3.551   6.112
 4188SOL     OW13462   5.293   0.366   6.162
 4188SOL    HW113463   5.263   0.328   6.250
 4188SOL    HW213464   5.393   0.365   6.158
 4189SOL     OW13465   3.831   5.152   4.036
 4189SOL    HW113466   3.918   5.142   3.987
 4189SOL    HW213467   3.849   5.185   4.129
 4190SOL     OW13468   6.845   5.698   1.869
 4190SOL    HW113469   6.882   5.750   1.792
 4190SOL    HW213470   6.776   5.634   1.836
 4191SOL     OW13471   4.955   2.930   6.214
 4191SOL    HW113472   5.028   2.996   6.232
 4191SOL    HW213473   4.958   2.858   6.284
 4192SOL     OW13474   1.890   3.616   6.406
 4192SOL    HW113475   1.802   3.575   6.382
 4192SOL    HW213476   1.875   3.691   6.470
 4193SOL     OW13477   4.966   6.545   1.340
 4193SOL    HW113478   5.041   6.502   1.391
 4193SOL    HW213479   4.966   6.510   1.246
 4194SOL     OW13480   5.851   0.169   6.925
 4194SOL    HW113481   5.817   0.078   6.902
 4194SOL    HW213482   5.950   0.172   6.910
 4195SOL     OW13483   1.957   6.316   0.516
 4195SOL    HW113484   1.960   6.346   0.612
 4195SOL    HW213485   2.018   6.238   0.504
 4196SOL     OW13486   6.400   3.308   2.939
 4196SOL    HW113487   6.401   3.405   2.914
 4196SOL    HW213488   6.398   3.252   2.857
 4197SOL     OW13489   4.175   0.865   6.647
 4197SOL    HW113490   4.100   0.868   6.713
 4197SOL    HW213491   4.146   0.816   6.565
 4198SOL     OW13492   6.257   1.918   1.716
 4198SOL    HW113493   6.253   1.819   1.713
 4198SOL    HW213494   6.165   1.956   1.708
 4199SOL     OW13495   1.180   3.314   0.318
 4199SOL    HW113496   1.196   3.294   0.414
 4199SOL    HW213497   1.245   3.383   0.286
 4200SOL     OW13498   5.285   2.148   2.835
 4200SOL    HW113499   5.255   2.078   2.899
 4200SOL    HW213500   5.207   2.206   2.810
 4201SOL     OW13501   4.793   0.477   5.387
 4201SOL    HW113502   4.705   0.461   5.341
 4201SOL    HW213503   4.865   0.427   5.339
 4202SOL     OW13504   4.632   3.975   1.177
 4202SOL    HW113505   4.708   3.929   1.223
 4202SOL    HW213506   4.546   3.950   1.222
 4203SOL     OW13507   6.376   3.861   4.431
 4203SOL    HW113508   6.321   3.859   4.348
 4203SOL    HW213509   6.472   3.844   4.409
 4204SOL     OW13510   2.551   4.192   6.036
 4204SOL    HW113511   2.646   4.212   6.010
 4204SOL    HW213512   2.548   4.105   6.085
 4205SOL     OW13513   5.630   5.093   6.302
 4205SOL    HW113514   5.689   5.114   6.224
 4205SOL    HW213515   5.539   5.131   6.287
 4206SOL     OW13516   2.560   2.562   5.012
 4206SOL    HW113517   2.545   2.480   4.958
 4206SOL    HW213518   2.516   2.640   4.967
 4207SOL     OW13519   2.842   2.446   1.476
 4207SOL    HW113520   2.867   2.496   1.393
 4207SOL    HW213521   2.908   2.465   1.548
 4208SOL     OW13522   1.386   2.312   3.163
 4208SOL    HW113523   1.325   2.246   3.119
 4208SOL    HW213524   1.478   2.300   3.127
 4209SOL     OW13525   6.709   5.130   2.727
 4209SOL    HW113526   6.736   5.059   2.792
 4209SOL    HW213527   6.616   5.160   2.747
 4210SOL     OW13528   3.287   5.416   5.460
 4210SOL    HW113529   3.202   5.371   5.487
 4210SOL    HW213530   3.364   5.367   5.501
 4211SOL     OW13531   4.658   3.308   6.359
 4211SOL    HW113532   4.679   3.343   6.268
 4211SOL    HW213533   4.645   3.209   6.354
 4212SOL     OW13534   0.077   2.985   2.657
 4212SOL    HW113535   7.025   3.025   2.612
 4212SOL    HW213536   0.150   3.053   2.661
 4213SOL     OW13537   2.950   1.145   3.898
 4213SOL    HW113538   2.897   1.120   3.817
 4213SOL    HW213539   2.986   1.062   3.941
 4214SOL     OW13540   6.472   5.812   4.164
 4214SOL    HW113541   6.433   5.899   4.135
 4214SOL    HW213542   6.491   5.815   4.262
 4215SOL     OW13543   6.142   6.996   4.707
 4215SOL    HW113544   6.131   0.035   4.781
 4215SOL    HW213545   6.053   6.959   4.682
 4216SOL     OW13546   1.464   5.513   2.502
 4216SOL    HW113547   1.455   5.537   2.598
 4216SOL    HW213548   1.459   5.414   2.492
 4217SOL     OW13549   0.600   0.532   3.008
 4217SOL    HW113550   0.520   0.542   2.948
 4217SOL    HW213551   0.619   0.619   3.053
 4218SOL     OW13552   2.824   0.524   1.984
 4218SOL    HW113553   2.790   0.432   2.004
 4218SOL    HW213554   2.817   0.542   1.886
 4219SOL     OW13555   2.820   5.026   1.970
 4219SOL    HW113556   2.894   5.052   2.031
 4219SOL    HW213557   2.846   4.945   1.918
 4220SOL     OW13558   5.426   1.900   0.931
 4220SOL    HW113559   5.328   1.922   0.929
 4220SOL    HW213560   5.474   1.968   0.985
 4221SOL     OW13561   0.648   6.670   0.961
 4221SOL    HW113562   0.550   6.692   0.969
 4221SOL    HW213563   0.662   6.573   0.979
 4222SOL     OW13564   5.440   3.763   4.540
 4222SOL    HW113565   5.515   3.704   4.571
 4222SOL    HW213566   5.473   3.857   4.530
 4223SOL     OW13567   3.494   4.146   2.579
 4223SOL    HW113568   3.555   4.088   2.526
 4223SOL    HW213569   3.444   4.206   2.518
 4224SOL     OW13570   4.622   3.979   5.234
 4224SOL    HW113571   4.670   3.891   5.232
 4224SOL    HW213572   4.540   3.970   5.290
 4225SOL     OW13573   0.642   1.432   6.058
 4225SOL    HW113574   0.544   1.417   6.047
 4225SOL    HW213575   0.693   1.356   6.017
 4226SOL     OW13576   5.091   5.360   3.901
 4226SOL    HW113577   5.079   5.261   3.905
 4226SOL    HW213578   5.181   5.384   3.937
 4227SOL     OW13579   6.292   5.806   1.158
 4227SOL    HW113580   6.211   5.849   1.118
 4227SOL    HW213581   6.373   5.857   1.130
 4228SOL     OW13582   1.558   5.179   3.609
 4228SOL    HW113583   1.593   5.204   3.699
 4228SOL    HW213584   1.581   5.251   3.543
 4229SOL     OW13585   6.277   6.259   6.004
 4229SOL    HW113586   6.340   6.320   6.051
 4229SOL    HW213587   6.235   6.196   6.070
 4230SOL     OW13588   0.238   2.204   2.325
 4230SOL    HW113589   0.147   2.219   2.364
 4230SOL    HW213590   0.250   2.262   2.244
 4231SOL     OW13591   0.219   0.293   6.045
 4231SOL    HW113592   0.149   0.352   6.085
 4231SOL    HW213593   0.291   0.349   6.005
 4232SOL     OW13594   2.353   4.270   2.305
 4232SOL    HW113595   2.295   4.235   2.379
 4232SOL    HW213596   2.398   4.354   2.335
 4233SOL     OW13597   4.941   5.212   2.470
 4233SOL    HW113598   4.954   5.135   2.533
 4233SOL    HW213599   4.971   5.297   2.515
 4234SOL     OW13600   3.005   5.206   6.216
 4234SOL    HW113601   3.032   5.294   6.176
 4234SOL    HW213602   2.925   5.219   6.274
 4235SOL     OW13603   6.439   6.101   0.554
 4235SOL    HW113604   6.495   6.038   0.501
 4235SOL    HW213605   6.497   6.169   0.597
 4236SOL     OW13606   0.411   5.464   4.055
 4236SOL    HW113607   0.333   5.417   4.095
 4236SOL    HW213608   0.466   5.506   4.128
 4237SOL     OW13609   0.060   4.796   4.893
 4237SOL    HW113610   0.010   4.783   4.978
 4237SOL    HW213611   0.158   4.786   4.910
 4238SOL     OW13612   1.826   5.944   3.457
 4238SOL    HW113613   1.883   5.882   3.511
 4238SOL    HW213614   1.780   5.893   3.384
 4239SOL     OW13615   4.019   1.266   3.503
 4239SOL    HW113616   4.029   1.364   3.488
 4239SOL    HW213617   3.984   1.222   3.420
 4240SOL     OW13618   4.408   0.295   1.428
 4240SOL    HW113619   4.340   0.313   1.498
 4240SOL    HW213620   4.378   0.219   1.370
 4241SOL     OW13621   0.787   4.447   6.213
 4241SOL    HW113622   0.867   4.413   6.164
 4241SOL    HW213623   0.802   4.541   6.240
 4242SOL     OW13624   3.581   1.935   2.488
 4242SOL    HW113625   3.558   1.855   2.544
 4242SOL    HW213626   3.648   1.991   2.537
 4243SOL     OW13627   2.265   2.265   2.762
 4243SOL    HW113628   2.287   2.171   2.735
 4243SOL    HW213629   2.297   2.282   2.854
 4244SOL     OW13630   2.681   2.776   5.392
 4244SOL    HW113631   2.703   2.873   5.391
 4244SOL    HW213632   2.587   2.763   5.359
 4245SOL     OW13633   6.270   0.564   5.436
 4245SOL    HW113634   6.352   0.511   5.414
 4245SOL    HW213635   6.276   0.654   5.394
 4246SOL     OW13636   0.919   5.429   5.929
 4246SOL    HW113637   0.860   5.509   5.942
 4246SOL    HW213638   0.969   5.438   5.844
 4247SOL     OW13639   0.252   4.602   5.298
 4247SOL    HW113640   0.252   4.545   5.380
 4247SOL    HW213641   0.168   4.656   5.294
 4248SOL     OW13642   1.802   3.186   6.892
 4248SOL    HW113643   1.744   3.265   6.912
 4248SOL    HW213644   1.773   3.144   6.807
 4249SOL     OW13645   4.981   3.370   6.208
 4249SOL    HW113646   4.932   3.283   6.201
 4249SOL    HW213647   4.979   3.402   6.303
 4250SOL     OW13648   0.022   4.233   3.944
 4250SOL    HW113649   0.030   4.291   3.863
 4250SOL    HW213650   0.114   4.209   3.977
 4251SOL     OW13651   5.734   4.736   6.111
 4251SOL    HW113652   5.798   4.812   6.102
 4251SOL    HW213653   5.785   4.651   6.119
 4252SOL     OW13654   6.683   4.859   5.887
 4252SOL    HW113655   6.620   4.795   5.931
 4252SOL    HW213656   6.769   4.813   5.866
 4253SOL     OW13657   3.084   0.364   3.769
 4253SOL    HW113658   3.065   0.421   3.690
 4253SOL    HW213659   3.011   0.295   3.779
 4254SOL     OW13660   3.905   3.785   3.723
 4254SOL    HW113661   3.943   3.810   3.635
 4254SOL    HW213662   3.841   3.855   3.754
 4255SOL     OW13663   0.566   1.834   4.475
 4255SOL    HW113664   0.500   1.769   4.437
 4255SOL    HW213665   0.597   1.895   4.403
 4256SOL     OW13666   1.218   0.924   1.150
 4256SOL    HW113667   1.240   0.986   1.225
 4256SOL    HW213668   1.290   0.855   1.141
 4257SOL     OW13669   4.235   2.312   4.784
 4257SOL    HW113670   4.201   2.225   4.750
 4257SOL    HW213671   4.194   2.332   4.873
 4258SOL     OW13672   5.621   6.391   2.200
 4258SOL    HW113673   5.647   6.295   2.203
 4258SOL    HW213674   5.548   6.404   2.133
 4259SOL     OW13675   2.780   3.001   1.736
 4259SOL    HW113676   2.799   2.903   1.732
 4259SOL    HW213677   2.841   3.044   1.802
 4260SOL     OW13678   4.383   5.487   5.015
 4260SOL    HW113679   4.306   5.426   5.036
 4260SOL    HW213680   4.447   5.489   5.091
 4261SOL     OW13681   0.784   1.306   2.292
 4261SOL    HW113682   0.717   1.232   2.307
 4261SOL    HW213683   0.872   1.266   2.269
 4262SOL     OW13684   1.163   6.852   4.877
 4262SOL    HW113685   1.262   6.850   4.889
 4262SOL    HW213686   1.140   6.822   4.784
 4263SOL     OW13687   4.634   5.815   0.048
 4263SOL    HW113688   4.598   5.767   0.129
 4263SOL    HW213689   4.562   5.821   7.007
 4264SOL     OW13690   1.909   1.030   1.493
 4264SOL    HW113691   1.900   1.126   1.465
 4264SOL    HW213692   1.947   1.025   1.585
 4265SOL     OW13693   2.122   1.574   1.086
 4265SOL    HW113694   2.114   1.667   1.050
 4265SOL    HW213695   2.141   1.511   1.010
 4266SOL     OW13696   2.325   5.039   0.059
 4266SOL    HW113697   2.373   5.059   7.002
 4266SOL    HW213698   2.293   5.125   0.100
 4267SOL     OW13699   1.832   3.238   5.114
 4267SOL    HW113700   1.853   3.288   5.030
 4267SOL    HW213701   1.890   3.272   5.188
 4268SOL     OW13702   0.630   1.985   0.913
 4268SOL    HW113703   0.586   1.896   0.907
 4268SOL    HW213704   0.638   2.025   0.821
 4269SOL     OW13705   3.082   3.904   1.472
 4269SOL    HW113706   3.133   3.976   1.425
 4269SOL    HW213707   2.985   3.927   1.471
 4270SOL     OW13708   3.754   3.141   0.299
 4270SOL    HW113709   3.710   3.096   0.221
 4270SOL    HW213710   3.772   3.237   0.277
 4271SOL     OW13711   2.133   0.472   0.764
 4271SOL    HW113712   2.094   0.563   0.749
 4271SOL    HW213713   2.231   0.479   0.778
 4272SOL     OW13714   1.323   4.561   3.658
 4272SOL    HW113715   1.310   4.517   3.747
 4272SOL    HW213716   1.261   4.639   3.650
 4273SOL     OW13717   0.040   6.186   3.739
 4273SOL    HW113718   0.097   6.205   3.818
 4273SOL    HW213719   0.017   6.089   3.736
 4274SOL     OW13720   1.500   0.308   3.486
 4274SOL    HW113721   1.599   0.302   3.473
 4274SOL    HW213722   1.475   0.403   3.504
 4275SOL     OW13723   0.143   0.643   5.792
 4275SOL    HW113724   0.192   0.722   5.756
 4275SOL    HW213725   0.171   0.626   5.886
 4276SOL     OW13726   2.168   3.281   3.269
 4276SOL    HW113727   2.223   3.348   3.318
 4276SOL    HW213728   2.130   3.215   3.333
 4277SOL     OW13729   0.674   6.465   5.972
 4277SOL    HW113730   0.653   6.540   5.909
 4277SOL    HW213731   0.625   6.382   5.943
 4278SOL     OW13732   1.300   6.447   6.270
 4278SOL    HW113733   1.263   6.539   6.281
 4278SOL    HW213734   1.400   6.451   6.270
 4279SOL     OW13735   4.160   5.878   3.837
 4279SOL    HW113736   4.260   5.881   3.845
 4279SOL    HW213737   4.124   5.808   3.898
 4280SOL     OW13738   4.953   3.296   4.332
 4280SOL    HW113739   5.034   3.267   4.384
 4280SOL    HW213740   4.912   3.216   4.289
 4281SOL     OW13741   2.251   4.085   4.466
 4281SOL    HW113742   2.239   4.035   4.552
 4281SOL    HW213743   2.296   4.173   4.484
 4282SOL     OW13744   1.174   0.705   6.795
 4282SOL    HW113745   1.261   0.721   6.749
 4282SOL    HW213746   1.145   0.789   6.841
 4283SOL     OW13747   2.588   1.708   4.105
 4283SOL    HW113748   2.604   1.793   4.155
 4283SOL    HW213749   2.639   1.709   4.019
 4284SOL     OW13750   6.843   2.838   2.921
 4284SOL    HW113751   6.832   2.874   2.829
 4284SOL    HW213752   6.931   2.789   2.927
 4285SOL     OW13753   0.992   6.444   4.211
 4285SOL    HW113754   1.070   6.440   4.149
 4285SOL    HW213755   1.023   6.446   4.306
 4286SOL     OW13756   5.145   5.338   0.802
 4286SOL    HW113757   5.232   5.317   0.847
 4286SOL    HW213758   5.162   5.388   0.718
 4287SOL     OW13759   3.694   5.939   5.902
 4287SOL    HW113760   3.673   5.961   5.807
 4287SOL    HW213761   3.617   5.889   5.943
 4288SOL     OW13762   0.584   6.398   4.350
 4288SOL    HW113763   0.648   6.444   4.288
 4288SOL    HW213764   0.636   6.354   4.423
 4289SOL     OW13765   1.026   4.448   6.609
 4289SOL    HW113766   0.969   4.427   6.689
 4289SOL    HW213767   1.103   4.505   6.638
 4290SOL     OW13768   1.265   1.652   2.609
 4290SOL    HW113769   1.226   1.650   2.517
 4290SOL    HW213770   1.349   1.707   2.609
 4291SOL     OW13771   6.688   3.102   1.793
 4291SOL    HW113772   6.652   3.124   1.884
 4291SOL    HW213773   6.740   3.016   1.798
 4292SOL     OW13774   5.792   5.845   5.167
 4292SOL    HW113775   5.757   5.911   5.100
 4292SOL    HW213776   5.716   5.789   5.201
 4293SOL     OW13777   0.624   2.082   0.650
 4293SOL    HW113778   0.667   2.130   0.573
 4293SOL    HW213779   0.537   2.043   0.621
 4294SOL     OW13780   4.666   2.168   5.361
 4294SOL    HW113781   4.626   2.090   5.313
 4294SOL    HW213782   4.733   2.213   5.302
 4295SOL     OW13783   3.120   4.687   5.617
 4295SOL    HW113784   3.081   4.653   5.703
 4295SOL    HW213785   3.211   4.649   5.604
 4296SOL     OW13786   2.053   1.922   2.555
 4296SOL    HW113787   2.029   1.873   2.471
 4296SOL    HW213788   2.073   2.017   2.533
 4297SOL     OW13789   5.997   0.112   0.205
 4297SOL    HW113790   6.026   0.024   0.167
 4297SOL    HW213791   6.068   0.180   0.189
 4298SOL     OW13792   1.415   4.472   1.686
 4298SOL    HW113793   1.402   4.438   1.779
 4298SOL    HW213794   1.327   4.502   1.649
 4299SOL     OW13795   1.199   5.472   4.729
 4299SOL    HW113796   1.236   5.563   4.714
 4299SOL    HW213797   1.223   5.413   4.652
 4300SOL     OW13798   6.343   0.206   5.849
 4300SOL    HW113799   6.258   0.254   5.870
 4300SOL    HW213800   6.364   0.141   5.923
 4301SOL     OW13801   2.625   0.635   0.718
 4301SOL    HW113802   2.607   0.692   0.798
 4301SOL    HW213803   2.623   0.692   0.635
 4302SOL     OW13804   0.504   0.766   0.172
 4302SOL    HW113805   0.596   0.745   0.205
 4302SOL    HW213806   0.437   0.738   0.241
 4303SOL     OW13807   0.475   4.076   2.326
 4303SOL    HW113808   0.464   4.055   2.228
 4303SOL    HW213809   0.413   4.017   2.379
 4304SOL     OW13810   2.232   3.378   6.393
 4304SOL    HW113811   2.133   3.384   6.406
 4304SOL    HW213812   2.278   3.420   6.471
 4305SOL     OW13813   0.597   1.248   5.026
 4305SOL    HW113814   0.512   1.198   5.044
 4305SOL    HW213815   0.674   1.197   5.065
 4306SOL     OW13816   5.793   5.187   5.856
 4306SOL    HW113817   5.790   5.246   5.936
 4306SOL    HW213818   5.825   5.240   5.777
 4307SOL     OW13819   6.449   3.792   1.138
 4307SOL    HW113820   6.366   3.833   1.174
 4307SOL    HW213821   6.437   3.772   1.040
 4308SOL     OW13822   3.585   0.199   5.418
 4308SOL    HW113823   3.546   0.290   5.432
 4308SOL    HW213824   3.518   0.141   5.373
 4309SOL     OW13825   1.002   0.839   1.296
 4309SOL    HW113826   1.061   0.778   1.349
 4309SOL    HW213827   1.056   0.882   1.224
 4310SOL     OW13828   1.539   7.006   2.702
 4310SOL    HW113829   1.547   0.039   2.781
 4310SOL    HW213830   1.448   7.014   2.662
 4311SOL     OW13831   0.839   5.052   5.103
 4311SOL    HW113832   0.914   5.115   5.085
 4311SOL    HW213833   0.753   5.104   5.109
 4312SOL     OW13834   2.022   5.562   2.377
 4312SOL    HW113835   1.952   5.491   2.372
 4312SOL    HW213836   2.054   5.572   2.471
 4313SOL     OW13837   5.139   1.331   0.996
 4313SOL    HW113838   5.105   1.334   1.090
 4313SOL    HW213839   5.073   1.377   0.936
 4314SOL     OW13840   6.896   2.734   1.308
 4314SOL    HW113841   6.833   2.762   1.380
 4314SOL    HW213842   6.989   2.730   1.344
 4315SOL     OW13843   1.137   1.018   1.748
 4315SOL    HW113844   1.050   0.973   1.768
 4315SOL    HW213845   1.124   1.089   1.679
 4316SOL     OW13846   6.562   1.542   2.463
 4316SOL    HW113847   6.551   1.642   2.466
 4316SOL    HW213848   6.620   1.517   2.386
 4317SOL     OW13849   3.903   0.836   3.214
 4317SOL    HW113850   3.971   0.819   3.143
 4317SOL    HW213851   3.811   0.820   3.177
 4318SOL     OW13852   0.441   2.309   4.866
 4318SOL    HW113853   0.448   2.239   4.937
 4318SOL    HW213854   0.425   2.266   4.778
 4319SOL     OW13855   4.426   3.088   6.400
 4319SOL    HW113856   4.517   3.048   6.402
 4319SOL    HW213857   4.388   3.089   6.493
 4320SOL     OW13858   0.536   6.757   3.418
 4320SOL    HW113859   0.619   6.758   3.362
 4320SOL    HW213860   0.562   6.760   3.515
 4321SOL     OW13861   0.283   0.115   4.154
 4321SOL    HW113862   0.219   0.050   4.113
 4321SOL    HW213863   0.242   0.154   4.237
 4322SOL     OW13864   6.647   0.748   6.829
 4322SOL    HW113865   6.633   0.734   6.927
 4322SOL    HW213866   6.740   0.721   6.804
 4323SOL     OW13867   7.021   2.798   4.471
 4323SOL    HW113868   0.074   2.842   4.432
 4323SOL    HW213869   6.965   2.760   4.397
 4324SOL     OW13870   5.853   2.705   5.654
 4324SOL    HW113871   5.829   2.768   5.728
 4324SOL    HW213872   5.803   2.730   5.571
 4325SOL     OW13873   2.615   2.343   6.538
 4325SOL    HW113874   2.701   2.394   6.538
 4325SOL    HW213875   2.617   2.273   6.609
 4326SOL     OW13876   0.202   2.267   5.221
 4326SOL    HW113877   0.190   2.168   5.228
 4326SOL    HW213878   0.113   2.312   5.231
 4327SOL     OW13879   4.870   0.438   3.129
 4327SOL    HW113880   4.930   0.468   3.202
 4327SOL    HW213881   4.775   0.462   3.152
 4328SOL     OW13882   6.332   5.017   0.983
 4328SOL    HW113883   6.380   4.931   0.993
 4328SOL    HW213884   6.360   5.080   1.056
 4329SOL     OW13885   5.142   1.451   6.135
 4329SOL    HW113886   5.196   1.371   6.162
 4329SOL    HW213887   5.046   1.435   6.159
 4330SOL     OW13888   1.054   0.311   6.370
 4330SOL    HW113889   0.974   0.255   6.393
 4330SOL    HW213890   1.076   0.371   6.447
 4331SOL     OW13891   5.382   2.775   6.122
 4331SOL    HW113892   5.464   2.774   6.179
 4331SOL    HW213893   5.305   2.737   6.174
 4332SOL     OW13894   6.375   4.732   2.186
 4332SOL    HW113895   6.392   4.672   2.108
 4332SOL    HW213896   6.401   4.826   2.162
 4333SOL     OW13897   6.584   2.054   4.879
 4333SOL    HW113898   6.556   1.967   4.840
 4333SOL    HW213899   6.591   2.123   4.806
 4334SOL     OW13900   4.248   6.914   1.725
 4334SOL    HW113901   4.331   6.913   1.669
 4334SOL    HW213902   4.189   6.838   1.699
 4335SOL     OW13903   4.353   4.489   6.369
 4335SOL    HW113904   4.278   4.489   6.436
 4335SOL    HW213905   4.343   4.568   6.308
 4336SOL     OW13906   0.938   0.381   5.631
 4336SOL    HW113907   1.036   0.372   5.650
 4336SOL    HW213908   0.918   0.474   5.601
 4337SOL     OW13909   1.379   5.722   6.156
 4337SOL    HW113910   1.335   5.780   6.087
 4337SOL    HW213911   1.331   5.635   6.163
 4338SOL     OW13912   5.394   6.303   3.007
 4338SOL    HW113913   5.318   6.305   2.942
 4338SOL    HW213914   5.388   6.221   3.064
 4339SOL     OW13915   6.618   1.161   0.329
 4339SOL    HW113916   6.697   1.196   0.279
 4339SOL    HW213917   6.637   1.068   0.360
 4340SOL     OW13918   4.993   3.229   1.408
 4340SOL    HW113919   4.943   3.156   1.362
 4340SOL    HW213920   5.081   3.193   1.441
 4341SOL     OW13921   1.601   3.577   0.610
 4341SOL    HW113922   1.655   3.656   0.640
 4341SOL    HW213923   1.575   3.522   0.690
 4342SOL     OW13924   6.610   2.703   3.019
 4342SOL    HW113925   6.604   2.613   2.976
 4342SOL    HW213926   6.695   2.747   2.993
 4343SOL     OW13927   3.448   3.818   1.571
 4343SOL    HW113928   3.447   3.831   1.472
 4343SOL    HW213929   3.489   3.898   1.615
 4344SOL     OW13930   2.555   3.438   1.712
 4344SOL    HW113931   2.543   3.345   1.678
 4344SOL    HW213932   2.470   3.469   1.756
 4345SOL     OW13933   2.826   0.422   5.917
 4345SOL    HW113934   2.805   0.465   6.005
 4345SOL    HW213935   2.743   0.380   5.881
 4346SOL     OW13936   6.971   3.524   1.755
 4346SOL    HW113937   7.020   3.476   1.829
 4346SOL    HW213938   6.936   3.457   1.690
 4347SOL     OW13939   5.091   6.248   2.561
 4347SOL    HW113940   5.042   6.281   2.481
 4347SOL    HW213941   5.152   6.172   2.534
 4348SOL     OW13942   1.011   3.017   0.453
 4348SOL    HW113943   0.989   3.102   0.407
 4348SOL    HW213944   1.020   2.943   0.386
 4349SOL     OW13945   5.933   0.962   0.702
 4349SOL    HW113946   5.988   0.882   0.677
 4349SOL    HW213947   5.991   1.044   0.699
 4350SOL     OW13948   3.414   0.598   3.520
 4350SOL    HW113949   3.332   0.655   3.530
 4350SOL    HW213950   3.494   0.650   3.550
 4351SOL     OW13951   3.714   0.168   6.989
 4351SOL    HW113952   3.691   0.161   6.892
 4351SOL    HW213953   3.666   0.097   0.012
 4352SOL     OW13954   6.022   1.787   1.168
 4352SOL    HW113955   5.934   1.789   1.121
 4352SOL    HW213956   6.013   1.734   1.253
 4353SOL     OW13957   3.134   5.736   0.861
 4353SOL    HW113958   3.046   5.783   0.874
 4353SOL    HW213959   3.169   5.705   0.949
 4354SOL     OW13960   2.670   1.608   1.479
 4354SOL    HW113961   2.676   1.682   1.546
 4354SOL    HW213962   2.735   1.625   1.405
 4355SOL     OW13963   4.532   0.212   6.629
 4355SOL    HW113964   4.530   0.307   6.599
 4355SOL    HW213965   4.465   0.198   6.702
 4356SOL     OW13966   3.904   3.576   1.280
 4356SOL    HW113967   3.951   3.495   1.247
 4356SOL    HW213968   3.858   3.555   1.367
 4357SOL     OW13969   5.221   0.743   0.583
 4357SOL    HW113970   5.309   0.786   0.565
 4357SOL    HW213971   5.152   0.814   0.600
 4358SOL     OW13972   6.302   0.283   0.663
 4358SOL    HW113973   6.373   0.349   0.637
 4358SOL    HW213974   6.343   0.191   0.668
 4359SOL     OW13975   0.221   3.993   4.464
 4359SOL    HW113976   0.288   3.925   4.495
 4359SOL    HW213977   0.234   4.010   4.366
 4360SOL     OW13978   2.828   3.009   1.467
 4360SOL    HW113979   2.914   2.966   1.494
 4360SOL    HW213980   2.765   3.011   1.545
 4361SOL     OW13981   5.136   2.006   3.002
 4361SOL    HW113982   5.042   2.039   3.008
 4361SOL    HW213983   5.136   1.906   3.013
 4362SOL     OW13984   5.185   3.991   2.879
 4362SOL    HW113985   5.123   4.019   2.806
 4362SOL    HW213986   5.280   4.004   2.850
 4363SOL     OW13987   5.253   6.976   6.682
 4363SOL    HW113988   5.273   6.992   6.586
 4363SOL    HW213989   5.227   0.035   6.726
 4364SOL     OW13990   4.401   3.989   5.384
 4364SOL    HW113991   4.324   3.929   5.364
 4364SOL    HW213992   4.382   4.080   5.348
 4365SOL     OW13993   4.734   2.904   0.185
 4365SOL    HW113994   4.830   2.891   0.157
 4365SOL    HW213995   4.682   2.821   0.164
 4366SOL     OW13996   4.652   4.729   0.485
 4366SOL    HW113997   4.561   4.708   0.450
 4366SOL    HW213998   4.646   4.757   0.581
 4367SOL     OW13999   5.856   6.637   1.123
 4367SOL    HW114000   5.804   6.705   1.072
 4367SOL    HW214001   5.897   6.571   1.059
 4368SOL     OW14002   4.071   6.051   2.006
 4368SOL    HW114003   4.118   5.963   2.000
 4368SOL    HW214004   3.972   6.037   2.000
 4369SOL     OW14005   3.010   5.591   1.584
 4369SOL    HW114006   2.947   5.515   1.569
 4369SOL    HW214007   3.103   5.556   1.599
 4370SOL     OW14008   5.131   3.882   1.300
 4370SOL    HW114009   5.212   3.937   1.280
 4370SOL    HW214010   5.065   3.892   1.226
 4371SOL     OW14011   1.422   1.671   2.156
 4371SOL    HW114012   1.411   1.686   2.058
 4371SOL    HW214013   1.519   1.666   2.179
 4372SOL     OW14014   4.407   0.139   3.781
 4372SOL    HW114015   4.333   0.125   3.847
 4372SOL    HW214016   4.422   0.236   3.767
 4373SOL     OW14017   1.268   1.879   5.420
 4373SOL    HW114018   1.325   1.897   5.500
 4373SOL    HW214019   1.243   1.966   5.377
 4374SOL     OW14020   3.861   1.335   0.028
 4374SOL    HW114021   3.833   1.417   7.007
 4374SOL    HW214022   3.960   1.333   0.036
 4375SOL     OW14023   3.784   5.256   4.661
 4375SOL    HW114024   3.713   5.206   4.710
 4375SOL    HW214025   3.780   5.353   4.687
 4376SOL     OW14026   0.016   2.338   2.888
 4376SOL    HW114027   0.017   2.407   2.960
 4376SOL    HW214028   0.037   2.380   2.800
 4377SOL     OW14029   0.578   5.100   5.811
 4377SOL    HW114030   0.587   5.168   5.738
 4377SOL    HW214031   0.552   5.012   5.772
 4378SOL     OW14032   3.300   1.403   3.992
 4378SOL    HW114033   3.364   1.329   4.013
 4378SOL    HW214034   3.315   1.479   4.055
 4379SOL     OW14035   3.646   1.584   6.077
 4379SOL    HW114036   3.638   1.504   6.135
 4379SOL    HW214037   3.671   1.664   6.133
 4380SOL     OW14038   6.250   2.221   3.518
 4380SOL    HW114039   6.320   2.262   3.460
 4380SOL    HW214040   6.282   2.132   3.551
 4381SOL     OW14041   1.163   4.667   6.674
 4381SOL    HW114042   1.233   4.679   6.744
 4381SOL    HW214043   1.082   4.721   6.698
 4382SOL     OW14044   1.464   4.805   4.907
 4382SOL    HW114045   1.367   4.824   4.920
 4382SOL    HW214046   1.476   4.740   4.832
 4383SOL     OW14047   0.418   4.264   0.233
 4383SOL    HW114048   0.495   4.226   0.286
 4383SOL    HW214049   0.333   4.251   0.283
 4384SOL     OW14050   4.402   0.087   4.448
 4384SOL    HW114051   4.425   0.034   4.367
 4384SOL    HW214052   4.433   0.039   4.530
 4385SOL     OW14053   5.077   0.169   6.027
 4385SOL    HW114054   5.003   0.221   6.070
 4385SOL    HW214055   5.164   0.217   6.043
 4386SOL     OW14056   1.705   2.891   3.657
 4386SOL    HW114057   1.669   2.798   3.659
 4386SOL    HW214058   1.791   2.894   3.710
 4387SOL     OW14059   4.254   2.154   0.983
 4387SOL    HW114060   4.169   2.205   0.970
 4387SOL    HW214061   4.327   2.195   0.928
 4388SOL     OW14062   6.112   2.898   0.284
 4388SOL    HW114063   6.137   2.955   0.362
 4388SOL    HW214064   6.167   2.924   0.205
 4389SOL     OW14065   2.336   1.549   6.379
 4389SOL    HW114066   2.352   1.504   6.467
 4389SOL    HW214067   2.352   1.484   6.305
 4390SOL     OW14068   0.319   1.199   1.579
 4390SOL    HW114069   0.350   1.110   1.544
 4390SOL    HW214070   0.264   1.185   1.661
 4391SOL     OW14071   6.648   6.515   2.450
 4391SOL    HW114072   6.714   6.456   2.402
 4391SOL    HW214073   6.650   6.606   2.409
 4392SOL     OW14074   2.218   2.512   6.347
 4392SOL    HW114075   2.292   2.541   6.406
 4392SOL    HW214076   2.130   2.527   6.392
 4393SOL     OW14077   6.072   0.240   1.858
 4393SOL    HW114078   5.973   0.243   1.871
 4393SOL    HW214079   6.108   0.153   1.891
 4394SOL     OW14080   6.491   1.459   2.963
 4394SOL    HW114081   6.589   1.480   2.957
 4394SOL    HW214082   6.448   1.522   3.027
 4395SOL     OW14083   2.140   3.160   0.831
 4395SOL    HW114084   2.190   3.145   0.745
 4395SOL    HW214085   2.125   3.258   0.844
 4396SOL     OW14086   2.454   1.505   2.486
 4396SOL    HW114087   2.392   1.499   2.564
 4396SOL    HW214088   2.409   1.469   2.404
 4397SOL     OW14089   3.895   1.082   4.601
 4397SOL    HW114090   3.884   1.067   4.700
 4397SOL    HW214091   3.988   1.058   4.573
 4398SOL     OW14092   2.676   2.938   5.812
 4398SOL    HW114093   2.602   2.967   5.751
 4398SOL    HW214094   2.644   2.941   5.907
 4399SOL     OW14095   2.923   6.045   2.110
 4399SOL    HW114096   2.924   6.042   2.210
 4399SOL    HW214097   3.009   6.008   2.075
 4400SOL     OW14098   1.506   6.101   5.197
 4400SOL    HW114099   1.533   6.085   5.102
 4400SOL    HW214100   1.541   6.026   5.254
 4401SOL     OW14101   3.080   0.351   5.797
 4401SOL    HW114102   2.988   0.379   5.824
 4401SOL    HW214103   3.099   0.382   5.704
 4402SOL     OW14104   0.141   0.853   2.023
 4402SOL    HW114105   0.199   0.871   2.102
 4402SOL    HW214106   0.046   0.842   2.054
 4403SOL     OW14107   6.505   6.462   2.976
 4403SOL    HW114108   6.574   6.469   2.903
 4403SOL    HW214109   6.530   6.388   3.039
 4404SOL     OW14110   0.788   5.895   5.088
 4404SOL    HW114111   0.792   5.798   5.068
 4404SOL    HW214112   0.821   5.947   5.010
 4405SOL     OW14113   0.981   5.323   3.182
 4405SOL    HW114114   0.914   5.396   3.165
 4405SOL    HW214115   1.026   5.300   3.096
 4406SOL     OW14116   5.819   4.415   2.475
 4406SOL    HW114117   5.733   4.431   2.523
 4406SOL    HW214118   5.885   4.485   2.501
 4407SOL     OW14119   4.976   0.548   1.144
 4407SOL    HW114120   4.884   0.550   1.104
 4407SOL    HW214121   5.001   0.641   1.173
 4408SOL     OW14122   4.808   0.440   7.021
 4408SOL    HW114123   4.844   0.513   0.051
 4408SOL    HW214124   4.843   0.450   6.928
 4409SOL     OW14125   3.972   0.631   3.879
 4409SOL    HW114126   3.982   0.730   3.873
 4409SOL    HW214127   3.940   0.594   3.792
 4410SOL     OW14128   1.650   0.567   0.718
 4410SOL    HW114129   1.651   0.635   0.792
 4410SOL    HW214130   1.726   0.503   0.732
 4411SOL     OW14131   4.693   4.270   4.789
 4411SOL    HW114132   4.681   4.184   4.739
 4411SOL    HW214133   4.783   4.271   4.832
 4412SOL     OW14134   4.934   6.629   0.734
 4412SOL    HW114135   4.981   6.684   0.804
 4412SOL    HW214136   4.951   6.669   0.644
 4413SOL     OW14137   5.338   6.394   4.717
 4413SOL    HW114138   5.336   6.486   4.757
 4413SOL    HW214139   5.312   6.399   4.621
 4414SOL     OW14140   5.941   3.875   1.251
 4414SOL    HW114141   5.889   3.841   1.330
 4414SOL    HW214142   5.897   3.844   1.167
 4415SOL     OW14143   0.805   4.260   1.396
 4415SOL    HW114144   0.879   4.285   1.332
 4415SOL    HW214145   0.724   4.314   1.375
 4416SOL     OW14146   4.952   3.563   4.260
 4416SOL    HW114147   4.919   3.579   4.167
 4416SOL    HW214148   4.940   3.466   4.283
 4417SOL     OW14149   0.221   3.845   1.916
 4417SOL    HW114150   0.298   3.844   1.980
 4417SOL    HW214151   0.224   3.928   1.860
 4418SOL     OW14152   6.549   2.490   5.078
 4418SOL    HW114153   6.464   2.468   5.031
 4418SOL    HW214154   6.578   2.583   5.055
 4419SOL     OW14155   6.053   6.210   6.470
 4419SOL    HW114156   6.015   6.143   6.407
 4419SOL    HW214157   6.123   6.264   6.423
 4420SOL     OW14158   3.862   0.527   0.363
 4420SOL    HW114159   3.871   0.494   0.457
 4420SOL    HW214160   3.823   0.454   0.306
 4421SOL     OW14161   2.635   2.236   0.283
 4421SOL    HW114162   2.720   2.226   0.336
 4421SOL    HW214163   2.561   2.187   0.329
 4422SOL     OW14164   0.561   2.557   6.618
 4422SOL    HW114165   0.492   2.510   6.673
 4422SOL    HW214166   0.651   2.539   6.657
 4423SOL     OW14167   6.188   4.098   4.018
 4423SOL    HW114168   6.160   4.119   3.924
 4423SOL    HW214169   6.242   4.175   4.054
 4424SOL     OW14170   3.572   5.134   2.397
 4424SOL    HW114171   3.664   5.096   2.407
 4424SOL    HW214172   3.506   5.059   2.387
 4425SOL     OW14173   0.529   5.901   0.602
 4425SOL    HW114174   0.573   5.855   0.679
 4425SOL    HW214175   0.470   5.974   0.637
 4426SOL     OW14176   1.080   0.877   4.473
 4426SOL    HW114177   1.171   0.918   4.478
 4426SOL    HW214178   1.053   0.869   4.377
 4427SOL     OW14179   3.658   6.131   6.914
 4427SOL    HW114180   3.711   6.068   6.972
 4427SOL    HW214181   3.720   6.193   6.867
 4428SOL     OW14182   6.382   5.786   2.740
 4428SOL    HW114183   6.288   5.772   2.710
 4428SOL    HW214184   6.383   5.854   2.814
 4429SOL     OW14185   2.033   5.338   2.681
 4429SOL    HW114186   1.994   5.360   2.770
 4429SOL    HW214187   2.083   5.417   2.646
 4430SOL     OW14188   5.433   4.056   4.054
 4430SOL    HW114189   5.430   4.029   3.958
 4430SOL    HW214190   5.425   3.975   4.112
 4431SOL     OW14191   4.995   0.470   4.601
 4431SOL    HW114192   4.987   0.513   4.691
 4431SOL    HW214193   4.915   0.493   4.546
 4432SOL     OW14194   2.012   3.438   6.564
 4432SOL    HW114195   1.964   3.505   6.507
 4432SOL    HW214196   1.947   3.369   6.595
 4433SOL     OW14197   0.499   0.343   5.091
 4433SOL    HW114198   0.524   0.400   5.170
 4433SOL    HW214199   0.488   0.249   5.121
 4434SOL     OW14200   6.678   0.532   2.562
 4434SOL    HW114201   6.721   0.549   2.473
 4434SOL    HW214202   6.581   0.512   2.549
 4435SOL     OW14203   1.950   4.446   1.804
 4435SOL    HW114204   1.930   4.429   1.708
 4435SOL    HW214205   2.049   4.456   1.816
 4436SOL     OW14206   5.123   2.058   1.624
 4436SOL    HW114207   5.204   2.051   1.566
 4436SOL    HW214208   5.115   1.976   1.680
 4437SOL     OW14209   0.437   5.737   0.124
 4437SOL    HW114210   0.493   5.737   0.207
 4437SOL    HW214211   0.354   5.684   0.140
 4438SOL     OW14212   3.452   1.799   4.675
 4438SOL    HW114213   3.515   1.775   4.601
 4438SOL    HW214214   3.403   1.883   4.651
 4439SOL     OW14215   3.054   5.359   2.245
 4439SOL    HW114216   3.037   5.343   2.148
 4439SOL    HW214217   3.023   5.280   2.298
 4440SOL     OW14218   2.035   5.357   6.179
 4440SOL    HW114219   2.046   5.279   6.118
 4440SOL    HW214220   1.953   5.408   6.155
 4441SOL     OW14221   6.373   1.238   0.847
 4441SOL    HW114222   6.336   1.328   0.869
 4441SOL    HW214223   6.299   1.175   0.824
 4442SOL     OW14224   1.920   4.374   0.868
 4442SOL    HW114225   1.999   4.373   0.806
 4442SOL    HW214226   1.952   4.389   0.962
 4443SOL     OW14227   1.113   6.154   5.526
 4443SOL    HW114228   1.150   6.160   5.434
 4443SOL    HW214229   1.018   6.121   5.522
 4444SOL     OW14230   4.398   6.543   0.437
 4444SOL    HW114231   4.405   6.571   0.341
 4444SOL    HW214232   4.340   6.608   0.486
 4445SOL     OW14233   1.898   3.243   0.686
 4445SOL    HW114234   1.848   3.324   0.718
 4445SOL    HW214235   1.897   3.173   0.758
 4446SOL     OW14236   5.971   2.177   1.450
 4446SOL    HW114237   5.922   2.262   1.427
 4446SOL    HW214238   5.962   2.159   1.548
 4447SOL     OW14239   4.825   5.309   6.022
 4447SOL    HW114240   4.850   5.215   6.047
 4447SOL    HW214241   4.726   5.315   6.012
 4448SOL     OW14242   2.299   6.637   2.735
 4448SOL    HW114243   2.225   6.676   2.789
 4448SOL    HW214244   2.311   6.692   2.651
 4449SOL     OW14245   3.560   2.110   5.266
 4449SOL    HW114246   3.652   2.124   5.303
 4449SOL    HW214247   3.516   2.035   5.315
 4450SOL     OW14248   2.802   5.444   0.782
 4450SOL    HW114249   2.785   5.376   0.854
 4450SOL    HW214250   2.728   5.512   0.782
 4451SOL     OW14251   4.864   6.140   2.672
 4451SOL    HW114252   4.952   6.180   2.647
 4451SOL    HW214253   4.878   6.070   2.742
 4452SOL     OW14254   5.075   4.734   3.607
 4452SOL    HW114255   5.054   4.820   3.653
 4452SOL    HW214256   5.121   4.672   3.671
 4453SOL     OW14257   0.180   5.609   1.445
 4453SOL    HW114258   0.120   5.665   1.388
 4453SOL    HW214259   0.129   5.573   1.522
 4454SOL     OW14260   0.010   0.817   0.132
 4454SOL    HW114261   6.976   0.738   0.140
 4454SOL    HW214262   0.091   0.790   0.081
 4455SOL     OW14263   1.105   0.761   4.213
 4455SOL    HW114264   1.107   0.671   4.257
 4455SOL    HW214265   1.190   0.777   4.164
 4456SOL     OW14266   1.774   5.949   4.531
 4456SOL    HW114267   1.726   6.006   4.596
 4456SOL    HW214268   1.736   5.963   4.439
 4457SOL     OW14269   1.495   2.119   4.691
 4457SOL    HW114270   1.550   2.040   4.666
 4457SOL    HW214271   1.442   2.150   4.612
 4458SOL     OW14272   1.922   2.219   5.514
 4458SOL    HW114273   1.894   2.194   5.421
 4458SOL    HW214274   1.864   2.293   5.547
 4459SOL     OW14275   1.805   4.492   3.447
 4459SOL    HW114276   1.874   4.437   3.496
 4459SOL    HW214277   1.715   4.451   3.462
 4460SOL     OW14278   6.872   3.553   5.133
 4460SOL    HW114279   6.783   3.563   5.090
 4460SOL    HW214280   6.911   3.644   5.151
 4461SOL     OW14281   2.540   0.070   0.684
 4461SOL    HW114282   2.548   7.000   0.697
 4461SOL    HW214283   2.630   0.109   0.663
 4462SOL     OW14284   0.412   4.393   2.646
 4462SOL    HW114285   0.449   4.301   2.657
 4462SOL    HW214286   0.468   4.444   2.580
 4463SOL     OW14287   5.438   2.051   6.757
 4463SOL    HW114288   5.369   2.076   6.824
 4463SOL    HW214289   5.448   1.951   6.756
 4464SOL     OW14290   0.702   3.185   1.271
 4464SOL    HW114291   0.727   3.281   1.258
 4464SOL    HW214292   0.614   3.167   1.226
 4465SOL     OW14293   4.555   4.569   0.897
 4465SOL    HW114294   4.598   4.648   0.853
 4465SOL    HW214295   4.457   4.586   0.907
 4466SOL     OW14296   0.635   2.938   2.271
 4466SOL    HW114297   0.735   2.937   2.265
 4466SOL    HW214298   0.604   2.863   2.330
 4467SOL     OW14299   5.026   4.378   1.626
 4467SOL    HW114300   5.092   4.452   1.614
 4467SOL    HW214301   4.938   4.416   1.656
 4468SOL     OW14302   1.903   3.656   0.254
 4468SOL    HW114303   1.875   3.598   0.330
 4468SOL    HW214304   1.891   3.752   0.280
 4469SOL     OW14305   1.293   6.503   2.329
 4469SOL    HW114306   1.379   6.544   2.298
 4469SOL    HW214307   1.258   6.442   2.258
 4470SOL     OW14308   0.428   0.062   3.122
 4470SOL    HW114309   0.471   0.053   3.032
 4470SOL    HW214310   0.494   0.038   3.193
 4471SOL     OW14311   1.539   0.719   6.377
 4471SOL    HW114312   1.460   0.779   6.375
 4471SOL    HW214313   1.510   0.626   6.402
 4472SOL     OW14314   2.649   3.085   1.055
 4472SOL    HW114315   2.688   3.160   1.001
 4472SOL    HW214316   2.568   3.050   1.008
 4473SOL     OW14317   0.859   2.902   5.533
 4473SOL    HW114318   0.942   2.954   5.511
 4473SOL    HW214319   0.802   2.892   5.452
 4474SOL     OW14320   1.455   6.528   1.499
 4474SOL    HW114321   1.493   6.493   1.413
 4474SOL    HW214322   1.434   6.626   1.488
 4475SOL     OW14323   1.372   3.292   0.925
 4475SOL    HW114324   1.276   3.278   0.950
 4475SOL    HW214325   1.431   3.246   0.992
 4476SOL     OW14326   4.535   0.751   3.650
 4476SOL    HW114327   4.614   0.715   3.601
 4476SOL    HW214328   4.549   0.741   3.749
 4477SOL     OW14329   6.396   1.336   4.909
 4477SOL    HW114330   6.369   1.258   4.966
 4477SOL    HW214331   6.449   1.304   4.831
 4478SOL     OW14332   0.777   0.434   2.429
 4478SOL    HW114333   0.874   0.440   2.453
 4478SOL    HW214334   0.740   0.526   2.419
 4479SOL     OW14335   3.122   3.413   0.253
 4479SOL    HW114336   3.197   3.468   0.216
 4479SOL    HW214337   3.062   3.385   0.178
 4480SOL     OW14338   6.936   1.148   3.490
 4480SOL    HW114339   6.843   1.158   3.455
 4480SOL    HW214340   6.971   1.236   3.520
 4481SOL     OW14341   2.091   4.305   6.380
 4481SOL    HW114342   2.001   4.332   6.415
 4481SOL    HW214343   2.163   4.346   6.437
 4482SOL     OW14344   2.841   6.897   1.436
 4482SOL    HW114345   2.913   6.847   1.486
 4482SOL    HW214346   2.778   6.938   1.501
 4483SOL     OW14347   1.568   2.577   1.792
 4483SOL    HW114348   1.662   2.581   1.759
 4483SOL    HW214349   1.528   2.488   1.768
 4484SOL     OW14350   4.308   0.290   0.508
 4484SOL    HW114351   4.251   0.366   0.476
 4484SOL    HW214352   4.344   0.311   0.599
 4485SOL     OW14353   0.383   2.100   5.677
 4485SOL    HW114354   0.290   2.099   5.640
 4485SOL    HW214355   0.408   2.194   5.702
 4486SOL     OW14356   5.261   5.147   3.563
 4486SOL    HW114357   5.190   5.109   3.623
 4486SOL    HW214358   5.350   5.111   3.590
 4487SOL     OW14359   0.217   3.689   0.073
 4487SOL    HW114360   0.228   3.650   7.009
 4487SOL    HW214361   0.171   3.778   0.066
 4488SOL     OW14362   5.521   4.773   3.341
 4488SOL    HW114363   5.434   4.808   3.375
 4488SOL    HW214364   5.531   4.677   3.365
 4489SOL     OW14365   3.310   6.013   5.715
 4489SOL    HW114366   3.269   6.006   5.806
 4489SOL    HW214367   3.285   6.101   5.675
 4490SOL     OW14368   4.779   1.718   1.906
 4490SOL    HW114369   4.778   1.815   1.885
 4490SOL    HW214370   4.870   1.692   1.939
 4491SOL     OW14371   0.277   4.843   3.060
 4491SOL    HW114372   0.212   4.782   3.106
 4491SOL    HW214373   0.335   4.790   2.998
 4492SOL     OW14374   6.601   0.847   1.769
 4492SOL    HW114375   6.616   0.748   1.765
 4492SOL    HW214376   6.591   0.883   1.677
 4493SOL     OW14377   5.637   0.835   5.985
 4493SOL    HW114378   5.579   0.759   6.013
 4493SOL    HW214379   5.643   0.839   5.886
 4494SOL     OW14380   0.340   1.546   2.343
 4494SOL    HW114381   0.395   1.586   2.416
 4494SOL    HW214382   0.344   1.604   2.262
 4495SOL     OW14383   4.053   6.131   1.604
 4495SOL    HW114384   4.086   6.219   1.568
 4495SOL    HW214385   3.992   6.148   1.681
 4496SOL     OW14386   2.340   5.126   5.461
 4496SOL    HW114387   2.254   5.148   5.505
 4496SOL    HW214388   2.378   5.043   5.501
 4497SOL     OW14389   5.520   6.270   4.868
 4497SOL    HW114390   5.446   6.327   4.832
 4497SOL    HW214391   5.562   6.218   4.793
 4498SOL     OW14392   2.075   5.573   3.204
 4498SOL    HW114393   2.030   5.613   3.283
 4498SOL    HW214394   2.158   5.626   3.183
 4499SOL     OW14395   5.152   2.132   2.351
 4499SOL    HW114396   5.101   2.119   2.266
 4499SOL    HW214397   5.249   2.148   2.331
 4500SOL     OW14398   3.472   6.131   0.401
 4500SOL    HW114399   3.465   6.231   0.403
 4500SOL    HW214400   3.380   6.092   0.401
 4501SOL     OW14401   5.453   0.934   3.238
 4501SOL    HW114402   5.377   0.882   3.276
 4501SOL    HW214403   5.420   1.024   3.209
 4502SOL     OW14404   0.664   3.346   0.412
 4502SOL    HW114405   0.648   3.397   0.327
 4502SOL    HW214406   0.721   3.401   0.473
 4503SOL     OW14407   3.066   1.241   3.213
 4503SOL    HW114408   3.056   1.285   3.302
 4503SOL    HW214409   2.987   1.265   3.155
 4504SOL     OW14410   0.721   3.284   3.932
 4504SOL    HW114411   0.789   3.270   4.004
 4504SOL    HW214412   0.758   3.248   3.845
 4505SOL     OW14413   6.374   3.573   4.058
 4505SOL    HW114414   6.357   3.575   3.960
 4505SOL    HW214415   6.288   3.565   4.107
 4506SOL     OW14416   4.048   4.191   6.916
 4506SOL    HW114417   3.955   4.155   6.928
 4506SOL    HW214418   4.051   4.251   6.836
 4507SOL     OW14419   5.604   2.280   3.164
 4507SOL    HW114420   5.592   2.376   3.190
 4507SOL    HW214421   5.519   2.230   3.179
 4508SOL     OW14422   6.824   4.451   0.957
 4508SOL    HW114423   6.737   4.406   0.978
 4508SOL    HW214424   6.882   4.452   1.038
 4509SOL     OW14425   4.681   1.320   2.380
 4509SOL    HW114426   4.594   1.353   2.344
 4509SOL    HW214427   4.754   1.380   2.349
 4510SOL     OW14428   4.860   1.937   3.545
 4510SOL    HW114429   4.783   1.924   3.483
 4510SOL    HW214430   4.928   1.995   3.501
 4511SOL     OW14431   0.797   3.885   0.390
 4511SOL    HW114432   0.820   3.980   0.369
 4511SOL    HW214433   0.698   3.873   0.384
 4512SOL     OW14434   2.813   3.806   6.455
 4512SOL    HW114435   2.876   3.735   6.425
 4512SOL    HW214436   2.810   3.808   6.555
 4513SOL     OW14437   0.350   2.265   0.647
 4513SOL    HW114438   0.307   2.178   0.674
 4513SOL    HW214439   0.338   2.279   0.549
 4514SOL     OW14440   4.024   5.573   0.046
 4514SOL    HW114441   4.067   5.610   6.992
 4514SOL    HW214442   3.975   5.489   0.022
 4515SOL     OW14443   4.751   6.708   5.837
 4515SOL    HW114444   4.729   6.737   5.744
 4515SOL    HW214445   4.667   6.691   5.888
 4516SOL     OW14446   3.620   1.639   4.827
 4516SOL    HW114447   3.564   1.638   4.910
 4516SOL    HW214448   3.600   1.722   4.776
 4517SOL     OW14449   3.628   0.220   3.971
 4517SOL    HW114450   3.712   0.204   4.023
 4517SOL    HW214451   3.651   0.241   3.876
 4518SOL     OW14452   6.792   6.100   0.649
 4518SOL    HW114453   6.790   6.165   0.724
 4518SOL    HW214454   6.735   6.021   0.671
 4519SOL     OW14455   5.562   6.317   6.127
 4519SOL    HW114456   5.485   6.335   6.066
 4519SOL    HW214457   5.608   6.402   6.149
 4520SOL     OW14458   5.141   5.146   5.268
 4520SOL    HW114459   5.120   5.163   5.172
 4520SOL    HW214460   5.056   5.122   5.316
 4521SOL     OW14461   5.333   2.607   3.933
 4521SOL    HW114462   5.276   2.686   3.958
 4521SOL    HW214463   5.275   2.534   3.899
 4522SOL     OW14464   5.666   4.221   4.062
 4522SOL    HW114465   5.576   4.179   4.069
 4522SOL    HW214466   5.736   4.155   4.090
 4523SOL     OW14467   1.084   2.417   0.443
 4523SOL    HW114468   1.167   2.384   0.488
 4523SOL    HW214469   1.010   2.423   0.509
 4524SOL     OW14470   1.859   3.748   1.654
 4524SOL    HW114471   1.779   3.799   1.685
 4524SOL    HW214472   1.929   3.813   1.621
 4525SOL     OW14473   3.486   1.967   5.970
 4525SOL    HW114474   3.398   1.927   5.993
 4525SOL    HW214475   3.474   2.034   5.897
 4526SOL     OW14476   1.008   6.909   5.112
 4526SOL    HW114477   1.046   6.881   5.023
 4526SOL    HW214478   0.965   6.999   5.103
 4527SOL     OW14479   1.441   2.499   2.918
 4527SOL    HW114480   1.423   2.511   3.015
 4527SOL    HW214481   1.466   2.587   2.877
 4528SOL     OW14482   5.259   2.057   4.156
 4528SOL    HW114483   5.297   1.985   4.097
 4528SOL    HW214484   5.250   2.142   4.104
 4529SOL     OW14485   1.121   2.563   3.267
 4529SOL    HW114486   1.119   2.566   3.367
 4529SOL    HW214487   1.028   2.553   3.232
 4530SOL     OW14488   4.785   4.509   6.546
 4530SOL    HW114489   4.773   4.578   6.617
 4530SOL    HW214490   4.743   4.423   6.576
 4531SOL     OW14491   1.260   6.204   5.266
 4531SOL    HW114492   1.346   6.164   5.234
 4531SOL    HW214493   1.251   6.296   5.229
 4532SOL     OW14494   6.019   0.571   2.051
 4532SOL    HW114495   6.057   0.663   2.051
 4532SOL    HW214496   5.933   0.570   1.999
 4533SOL     OW14497   2.763   6.228   0.883
 4533SOL    HW114498   2.830   6.254   0.814
 4533SOL    HW214499   2.699   6.162   0.845
 4534SOL     OW14500   6.246   1.763   5.042
 4534SOL    HW114501   6.283   1.676   5.073
 4534SOL    HW214502   6.148   1.766   5.062
 4535SOL     OW14503   2.010   6.771   0.813
 4535SOL    HW114504   1.998   6.867   0.788
 4535SOL    HW214505   2.075   6.728   0.750
 4536SOL     OW14506   4.105   0.567   5.592
 4536SOL    HW114507   4.010   0.579   5.621
 4536SOL    HW214508   4.133   0.646   5.536
 4537SOL     OW14509   3.596   3.616   3.441
 4537SOL    HW114510   3.567   3.583   3.531
 4537SOL    HW214511   3.550   3.703   3.421
 4538SOL     OW14512   1.785   2.764   0.486
 4538SOL    HW114513   1.803   2.691   0.552
 4538SOL    HW214514   1.688   2.788   0.488
 4539SOL     OW14515   0.608   4.461   4.931
 4539SOL    HW114516   0.582   4.387   4.869
 4539SOL    HW214517   0.549   4.459   5.012
 4540SOL     OW14518   1.382   1.055   6.745
 4540SOL    HW114519   1.334   1.117   6.684
 4540SOL    HW214520   1.356   0.961   6.725
 4541SOL     OW14521   3.976   2.732   0.660
 4541SOL    HW114522   3.972   2.803   0.591
 4541SOL    HW214523   3.896   2.672   0.652
 4542SOL     OW14524   6.658   2.469   7.016
 4542SOL    HW114525   6.737   2.425   6.973
 4542SOL    HW214526   6.648   2.561   6.980
 4543SOL     OW14527   4.244   1.363   0.294
 4543SOL    HW114528   4.294   1.278   0.309
 4543SOL    HW214529   4.227   1.407   0.382
 4544SOL     OW14530   4.472   6.147   6.803
 4544SOL    HW114531   4.547   6.156   6.868
 4544SOL    HW214532   4.442   6.238   6.774
 4545SOL     OW14533   3.003   3.211   6.213
 4545SOL    HW114534   2.910   3.247   6.212
 4545SOL    HW214535   3.005   3.121   6.169
 4546SOL     OW14536   4.880   6.516   5.081
 4546SOL    HW114537   4.784   6.523   5.054
 4546SOL    HW214538   4.924   6.605   5.070
 4547SOL     OW14539   0.102   6.758   1.012
 4547SOL    HW114540   0.035   6.825   0.979
 4547SOL    HW214541   0.112   6.685   0.944
 4548SOL     OW14542   4.182   0.692   1.521
 4548SOL    HW114543   4.116   0.741   1.464
 4548SOL    HW214544   4.190   0.737   1.610
 4549SOL     OW14545   6.943   5.334   3.678
 4549SOL    HW114546   6.960   5.262   3.745
 4549SOL    HW214547   6.942   5.294   3.586
 4550SOL     OW14548   2.576   5.724   6.957
 4550SOL    HW114549   2.523   5.777   7.024
 4550SOL    HW214550   2.518   5.655   6.915
 4551SOL     OW14551   3.602   3.211   6.509
 4551SOL    HW114552   3.510   3.186   6.537
 4551SOL    HW214553   3.614   3.189   6.412
 4552SOL     OW14554   5.701   0.336   6.285
 4552SOL    HW114555   5.641   0.313   6.361
 4552SOL    HW214556   5.773   0.267   6.277
 4553SOL     OW14557   0.620   0.128   0.691
 4553SOL    HW114558   0.594   0.181   0.610
 4553SOL    HW214559   0.551   0.058   0.708
 4554SOL     OW14560   5.414   5.963   2.792
 4554SOL    HW114561   5.392   5.978   2.695
 4554SOL    HW214562   5.330   5.955   2.845
 4555SOL     OW14563   0.803   0.677   3.471
 4555SOL    HW114564   0.824   0.756   3.528
 4555SOL    HW214565   0.840   0.594   3.513
 4556SOL     OW14566   5.287   5.022   4.504
 4556SOL    HW114567   5.366   4.965   4.483
 4556SOL    HW214568   5.311   5.119   4.492
 4557SOL     OW14569   0.929   6.220   5.179
 4557SOL    HW114570   0.932   6.177   5.269
 4557SOL    HW214571   0.953   6.152   5.109
 4558SOL     OW14572   0.599   4.005   3.648
 4558SOL    HW114573   0.698   3.998   3.661
 4558SOL    HW214574   0.567   4.093   3.682
 4559SOL     OW14575   0.539   3.383   3.747
 4559SOL    HW114576   0.596   3.337   3.816
 4559SOL    HW214577   0.473   3.318   3.709
 4560SOL     OW14578   6.417   3.032   4.412
 4560SOL    HW114579   6.463   2.976   4.343
 4560SOL    HW214580   6.454   3.125   4.410
 4561SOL     OW14581   5.123   3.525   5.208
 4561SOL    HW114582   5.060   3.555   5.137
 4561SOL    HW214583   5.217   3.530   5.174
 4562SOL     OW14584   4.932   0.514   0.344
 4562SOL    HW114585   5.013   0.518   0.403
 4562SOL    HW214586   4.850   0.511   0.400
 4563SOL     OW14587   1.061   3.298   2.626
 4563SOL    HW114588   1.135   3.338   2.571
 4563SOL    HW214589   0.974   3.340   2.600
 4564SOL     OW14590   2.056   3.737   2.529
 4564SOL    HW114591   2.051   3.657   2.588
 4564SOL    HW214592   1.964   3.762   2.498
 4565SOL     OW14593   2.359   6.677   4.942
 4565SOL    HW114594   2.293   6.748   4.915
 4565SOL    HW214595   2.310   6.598   4.979
 4566SOL     OW14596   6.652   5.073   2.453
 4566SOL    HW114597   6.683   5.123   2.534
 4566SOL    HW214598   6.552   5.068   2.454
 4567SOL     OW14599   1.344   0.777   0.356
 4567SOL    HW114600   1.276   0.846   0.335
 4567SOL    HW214601   1.407   0.767   0.279
 4568SOL     OW14602   6.979   4.481   4.259
 4568SOL    HW114603   6.974   4.383   4.240
 4568SOL    HW214604   7.012   4.529   4.177
 4569SOL     OW14605   6.662   2.790   3.924
 4569SOL    HW114606   6.716   2.709   3.901
 4569SOL    HW214607   6.689   2.866   3.865
 4570SOL     OW14608   4.938   5.799   1.722
 4570SOL    HW114609   5.037   5.804   1.739
 4570SOL    HW214610   4.920   5.722   1.660
 4571SOL     OW14611   2.113   2.091   4.955
 4571SOL    HW114612   2.032   2.074   4.898
 4571SOL    HW214613   2.145   2.004   4.993
 4572SOL     OW14614   5.280   3.359   1.102
 4572SOL    HW114615   5.198   3.300   1.104
 4572SOL    HW214616   5.358   3.306   1.068
 4573SOL     OW14617   2.821   4.742   1.332
 4573SOL    HW114618   2.775   4.831   1.338
 4573SOL    HW214619   2.754   4.673   1.304
 4574SOL     OW14620   4.876   0.126   1.987
 4574SOL    HW114621   4.800   0.062   1.980
 4574SOL    HW214622   4.915   0.143   1.896
 4575SOL     OW14623   6.966   1.527   5.400
 4575SOL    HW114624   6.971   1.448   5.461
 4575SOL    HW214625   6.886   1.519   5.341
 4576SOL     OW14626   3.109   3.904   6.670
 4576SOL    HW114627   3.208   3.907   6.658
 4576SOL    HW214628   3.069   3.992   6.644
 4577SOL     OW14629   6.771   1.443   2.293
 4577SOL    HW114630   6.776   1.493   2.207
 4577SOL    HW214631   6.859   1.450   2.340
 4578SOL     OW14632   2.162   0.756   2.334
 4578SOL    HW114633   2.251   0.800   2.343
 4578SOL    HW214634   2.091   0.819   2.366
 4579SOL     OW14635   3.531   0.895   2.375
 4579SOL    HW114636   3.538   0.797   2.355
 4579SOL    HW214637   3.473   0.939   2.307
 4580SOL     OW14638   0.630   6.998   1.662
 4580SOL    HW114639   0.631   0.046   1.597
 4580SOL    HW214640   0.654   6.913   1.615
 4581SOL     OW14641   3.466   0.115   1.106
 4581SOL    HW114642   3.491   0.124   1.202
 4581SOL    HW214643   3.501   0.028   1.071
 4582SOL     OW14644   5.806   1.200   4.512
 4582SOL    HW114645   5.765   1.109   4.508
 4582SOL    HW214646   5.906   1.191   4.515
 4583SOL     OW14647   1.568   6.291   6.706
 4583SOL    HW114648   1.634   6.280   6.780
 4583SOL    HW214649   1.612   6.335   6.628
 4584SOL     OW14650   6.429   0.570   3.961
 4584SOL    HW114651   6.408   0.571   4.059
 4584SOL    HW214652   6.394   0.654   3.919
 4585SOL     OW14653   1.596   3.437   2.214
 4585SOL    HW114654   1.553   3.351   2.186
 4585SOL    HW214655   1.609   3.495   2.133
 4586SOL     OW14656   0.437   4.579   6.310
 4586SOL    HW114657   0.404   4.546   6.399
 4586SOL    HW214658   0.503   4.653   6.324
 4587SOL     OW14659   3.989   3.251   6.267
 4587SOL    HW114660   3.917   3.298   6.216
 4587SOL    HW214661   3.958   3.234   6.361
 4588SOL     OW14662   1.937   5.217   6.694
 4588SOL    HW114663   1.915   5.312   6.715
 4588SOL    HW214664   1.883   5.157   6.752
 4589SOL     OW14665   4.470   6.203   2.314
 4589SOL    HW114666   4.544   6.157   2.362
 4589SOL    HW214667   4.505   6.287   2.272
 4590SOL     OW14668   1.850   4.887   1.795
 4590SOL    HW114669   1.752   4.888   1.774
 4590SOL    HW214670   1.900   4.933   1.722
 4591SOL     OW14671   2.133   1.926   5.738
 4591SOL    HW114672   2.122   1.832   5.770
 4591SOL    HW214673   2.188   1.977   5.805
 4592SOL     OW14674   2.640   2.307   2.527
 4592SOL    HW114675   2.683   2.294   2.616
 4592SOL    HW214676   2.552   2.354   2.539
 4593SOL     OW14677   2.040   5.204   5.274
 4593SOL    HW114678   2.033   5.113   5.316
 4593SOL    HW214679   2.133   5.238   5.285
 4594SOL     OW14680   0.923   6.708   2.920
 4594SOL    HW114681   0.943   6.627   2.974
 4594SOL    HW214682   0.982   6.784   2.949
 4595SOL     OW14683   5.350   1.767   7.016
 4595SOL    HW114684   5.384   1.767   6.922
 4595SOL    HW214685   5.419   1.807   0.049
 4596SOL     OW14686   0.049   1.797   1.974
 4596SOL    HW114687   0.018   1.883   2.014
 4596SOL    HW214688   7.020   1.722   2.007
 4597SOL     OW14689   2.290   5.101   1.019
 4597SOL    HW114690   2.307   5.013   1.065
 4597SOL    HW214691   2.202   5.097   0.972
 4598SOL     OW14692   0.019   2.992   0.610
 4598SOL    HW114693   0.064   3.081   0.607
 4598SOL    HW214694   0.086   2.921   0.632
 4599SOL     OW14695   2.977   6.097   3.263
 4599SOL    HW114696   2.910   6.125   3.194
 4599SOL    HW214697   2.931   6.047   3.336
 4600SOL     OW14698   0.383   6.684   5.944
 4600SOL    HW114699   0.312   6.625   5.982
 4600SOL    HW214700   0.368   6.778   5.973
 4601SOL     OW14701   1.712   1.455   5.247
 4601SOL    HW114702   1.617   1.453   5.280
 4601SOL    HW214703   1.761   1.377   5.286
 4602SOL     OW14704   4.481   6.894   5.535
 4602SOL    HW114705   4.441   6.962   5.597
 4602SOL    HW214706   4.573   6.872   5.566
 4603SOL     OW14707   4.528   0.007   6.987
 4603SOL    HW114708   4.615   0.011   0.009
 4603SOL    HW214709   4.502   0.099   6.958
 4604SOL     OW14710   0.210   0.080   3.726
 4604SOL    HW114711   0.137   0.057   3.663
 4604SOL    HW214712   0.288   0.116   3.675
 4605SOL     OW14713   4.096   1.425   2.161
 4605SOL    HW114714   4.072   1.367   2.239
 4605SOL    HW214715   4.166   1.491   2.189
 4606SOL     OW14716   6.595   0.211   4.205
 4606SOL    HW114717   6.543   0.220   4.120
 4606SOL    HW214718   6.686   0.174   4.185
 4607SOL     OW14719   2.355   1.775   1.359
 4607SOL    HW114720   2.427   1.751   1.293
 4607SOL    HW214721   2.374   1.866   1.396
 4608SOL     OW14722   0.242   3.044   5.818
 4608SOL    HW114723   0.319   3.094   5.779
 4608SOL    HW214724   0.177   3.108   5.858
 4609SOL     OW14725   5.606   4.272   6.580
 4609SOL    HW114726   5.606   4.182   6.537
 4609SOL    HW214727   5.556   4.267   6.667
 4610SOL     OW14728   4.614   4.050   6.234
 4610SOL    HW114729   4.603   3.997   6.319
 4610SOL    HW214730   4.701   4.027   6.192
 4611SOL     OW14731   0.488   0.430   6.690
 4611SOL    HW114732   0.541   0.382   6.620
 4611SOL    HW214733   0.525   0.521   6.703
 4612SOL     OW14734   1.157   1.082   2.147
 4612SOL    HW114735   1.221   1.156   2.163
 4612SOL    HW214736   1.198   1.015   2.085
 4613SOL     OW14737   1.204   5.194   3.765
 4613SOL    HW114738   1.112   5.175   3.799
 4613SOL    HW214739   1.236   5.116   3.711
 4614SOL     OW14740   6.418   4.984   2.040
 4614SOL    HW114741   6.461   4.949   1.958
 4614SOL    HW214742   6.346   5.049   2.015
 4615SOL     OW14743   0.605   4.734   6.611
 4615SOL    HW114744   0.615   4.812   6.673
 4615SOL    HW214745   0.548   4.664   6.653
 4616SOL     OW14746   1.493   5.025   5.581
 4616SOL    HW114747   1.450   4.944   5.621
 4616SOL    HW214748   1.592   5.009   5.574
 4617SOL     OW14749   1.120   4.199   4.862
 4617SOL    HW114750   1.071   4.243   4.937
 4617SOL    HW214751   1.160   4.113   4.894
 4618SOL     OW14752   2.111   4.075   5.185
 4618SOL    HW114753   2.122   4.081   5.284
 4618SOL    HW214754   2.199   4.055   5.143
 4619SOL     OW14755   5.144   5.761   6.579
 4619SOL    HW114756   5.150   5.857   6.605
 4619SOL    HW214757   5.180   5.748   6.487
 4620SOL     OW14758   0.397   4.985   2.631
 4620SOL    HW114759   0.404   5.015   2.726
 4620SOL    HW214760   0.457   4.907   2.616
 4621SOL     OW14761   2.985   6.959   2.070
 4621SOL    HW114762   3.002   6.938   1.974
 4621SOL    HW214763   2.888   6.982   2.082
 4622SOL     OW14764   6.327   6.609   0.675
 4622SOL    HW114765   6.245   6.648   0.717
 4622SOL    HW214766   6.338   6.514   0.707
 4623SOL     OW14767   3.057   4.945   2.130
 4623SOL    HW114768   3.045   4.976   2.225
 4623SOL    HW214769   3.147   4.973   2.097
 4624SOL     OW14770   5.506   1.385   0.102
 4624SOL    HW114771   5.505   1.334   0.188
 4624SOL    HW214772   5.418   1.374   0.056
 4625SOL     OW14773   0.805   0.174   1.972
 4625SOL    HW114774   0.776   0.210   2.061
 4625SOL    HW214775   0.895   0.132   1.981
 4626SOL     OW14776   4.115   3.617   2.058
 4626SOL    HW114777   4.052   3.648   1.987
 4626SOL    HW214778   4.186   3.561   2.017
 4627SOL     OW14779   5.911   6.200   4.942
 4627SOL    HW114780   5.880   6.106   4.955
 4627SOL    HW214781   6.007   6.199   4.912
 4628SOL     OW14782   6.580   2.788   1.973
 4628SOL    HW114783   6.644   2.792   1.896
 4628SOL    HW214784   6.488   2.769   1.939
 4629SOL     OW14785   0.997   5.467   1.006
 4629SOL    HW114786   1.067   5.402   1.036
 4629SOL    HW214787   0.979   5.454   0.909
 4630SOL     OW14788   1.695   3.166   1.552
 4630SOL    HW114789   1.664   3.075   1.525
 4630SOL    HW214790   1.792   3.162   1.578
 4631SOL     OW14791   5.506   1.475   1.008
 4631SOL    HW114792   5.574   1.490   1.080
 4631SOL    HW214793   5.547   1.425   0.932
 4632SOL     OW14794   2.073   5.402   3.850
 4632SOL    HW114795   2.172   5.385   3.851
 4632SOL    HW214796   2.046   5.435   3.760
 4633SOL     OW14797   5.174   3.935   4.445
 4633SOL    HW114798   5.152   3.920   4.541
 4633SOL    HW214799   5.247   3.873   4.418
 4634SOL     OW14800   3.385   2.971   4.801
 4634SOL    HW114801   3.312   3.012   4.856
 4634SOL    HW214802   3.361   2.977   4.704
 4635SOL     OW14803   3.626   0.200   2.186
 4635SOL    HW114804   3.593   0.295   2.187
 4635SOL    HW214805   3.599   0.156   2.101
 4636SOL     OW14806   1.593   6.121   6.302
 4636SOL    HW114807   1.577   6.212   6.265
 4636SOL    HW214808   1.506   6.074   6.315
 4637SOL     OW14809   1.639   2.555   3.578
 4637SOL    HW114810   1.623   2.463   3.543
 4637SOL    HW214811   1.582   2.570   3.659
 4638SOL     OW14812   3.982   4.481   6.867
 4638SOL    HW114813   4.038   4.554   6.829
 4638SOL    HW214814   3.998   4.474   6.965
 4639SOL     OW14815   3.838   2.637   1.313
 4639SOL    HW114816   3.772   2.596   1.375
 4639SOL    HW214817   3.883   2.713   1.360
 4640SOL     OW14818   0.433   2.249   0.356
 4640SOL    HW114819   0.392   2.339   0.345
 4640SOL    HW214820   0.532   2.257   0.365
 4641SOL     OW14821   1.250   6.406   4.690
 4641SOL    HW114822   1.277   6.499   4.666
 4641SOL    HW214823   1.263   6.346   4.610
 4642SOL     OW14824   5.865   1.208   6.035
 4642SOL    HW114825   5.891   1.278   6.101
 4642SOL    HW214826   5.925   1.214   5.955
 4643SOL     OW14827   1.093   1.979   6.783
 4643SOL    HW114828   1.123   2.026   6.699
 4643SOL    HW214829   0.999   1.949   6.772
 4644SOL     OW14830   1.296   1.689   1.024
 4644SOL    HW114831   1.394   1.683   1.044
 4644SOL    HW214832   1.245   1.707   1.108
 4645SOL     OW14833   5.612   2.817   5.509
 4645SOL    HW114834   5.587   2.764   5.428
 4645SOL    HW214835   5.536   2.876   5.536
 4646SOL     OW14836   1.263   3.962   2.342
 4646SOL    HW114837   1.177   3.972   2.292
 4646SOL    HW214838   1.305   4.052   2.354
 4647SOL     OW14839   1.666   6.346   2.203
 4647SOL    HW114840   1.619   6.283   2.266
 4647SOL    HW214841   1.706   6.421   2.255
 4648SOL     OW14842   2.794   1.616   4.292
 4648SOL    HW114843   2.804   1.699   4.347
 4648SOL    HW214844   2.729   1.632   4.218
 4649SOL     OW14845   5.282   4.081   0.986
 4649SOL    HW114846   5.316   4.168   1.022
 4649SOL    HW214847   5.227   4.099   0.904
 4650SOL     OW14848   3.630   4.517   0.704
 4650SOL    HW114849   3.560   4.445   0.700
 4650SOL    HW214850   3.702   4.496   0.638
 4651SOL     OW14851   1.601   3.268   0.203
 4651SOL    HW114852   1.577   3.343   0.142
 4651SOL    HW214853   1.639   3.304   0.288
 4652SOL     OW14854   6.263   6.809   5.892
 4652SOL    HW114855   6.354   6.767   5.893
 4652SOL    HW214856   6.196   6.745   5.929
 4653SOL     OW14857   1.015   6.626   0.952
 4653SOL    HW114858   0.968   6.641   0.865
 4653SOL    HW214859   1.009   6.530   0.978
 4654SOL     OW14860   0.524   0.735   5.522
 4654SOL    HW114861   0.596   0.763   5.459
 4654SOL    HW214862   0.449   0.802   5.518
 4655SOL     OW14863   5.303   5.449   3.602
 4655SOL    HW114864   5.384   5.494   3.642
 4655SOL    HW214865   5.319   5.351   3.597
 4656SOL     OW14866   6.646   0.637   1.301
 4656SOL    HW114867   6.673   0.667   1.209
 4656SOL    HW214868   6.563   0.583   1.295
 4657SOL     OW14869   3.570   1.982   2.232
 4657SOL    HW114870   3.644   2.034   2.191
 4657SOL    HW214871   3.594   1.958   2.326
 4658SOL     OW14872   1.784   1.070   6.954
 4658SOL    HW114873   1.818   0.993   6.900
 4658SOL    HW214874   1.856   1.103   7.015
 4659SOL     OW14875   2.450   5.238   1.210
 4659SOL    HW114876   2.403   5.182   1.142
 4659SOL    HW214877   2.521   5.293   1.166
 4660SOL     OW14878   0.338   4.708   4.951
 4660SOL    HW114879   0.419   4.750   4.992
 4660SOL    HW214880   0.338   4.610   4.968
 4661SOL     OW14881   0.247   0.922   4.857
 4661SOL    HW114882   0.217   0.872   4.776
 4661SOL    HW214883   0.193   0.893   4.936
 4662SOL     OW14884   2.651   0.505   6.919
 4662SOL    HW114885   2.691   0.507   7.011
 4662SOL    HW214886   2.653   0.411   6.884
 4663SOL     OW14887   0.545   6.995   1.262
 4663SOL    HW114888   0.629   6.957   1.224
 4663SOL    HW214889   0.470   6.930   1.248
 4664SOL     OW14890   6.844   6.109   5.307
 4664SOL    HW114891   6.860   6.032   5.369
 4664SOL    HW214892   6.894   6.190   5.341
 4665SOL     OW14893   6.928   1.673   2.555
 4665SOL    HW114894   6.937   1.743   2.485
 4665SOL    HW214895   6.990   1.597   2.534
 4666SOL     OW14896   2.233   2.851   5.591
 4666SOL    HW114897   2.176   2.823   5.668
 4666SOL    HW214898   2.306   2.785   5.577
 4667SOL     OW14899   6.044   2.196   0.889
 4667SOL    HW114900   5.958   2.237   0.920
 4667SOL    HW214901   6.029   2.100   0.866
 4668SOL     OW14902   4.746   1.942   5.133
 4668SOL    HW114903   4.719   1.992   5.050
 4668SOL    HW214904   4.666   1.930   5.192
 4669SOL     OW14905   6.019   6.403   6.199
 4669SOL    HW114906   5.928   6.363   6.207
 4669SOL    HW214907   6.088   6.333   6.219
 4670SOL     OW14908   0.907   3.225   0.317
 4670SOL    HW114909   0.977   3.295   0.304
 4670SOL    HW214910   0.820   3.268   0.341
 4671SOL     OW14911   6.520   2.270   1.608
 4671SOL    HW114912   6.484   2.189   1.563
 4671SOL    HW214913   6.619   2.274   1.596
 4672SOL     OW14914   4.131   3.146   0.665
 4672SOL    HW114915   4.156   3.057   0.701
 4672SOL    HW214916   4.031   3.156   0.665
 4673SOL     OW14917   4.816   1.795   0.522
 4673SOL    HW114918   4.788   1.890   0.514
 4673SOL    HW214919   4.776   1.741   0.448
 4674SOL     OW14920   0.530   2.876   0.166
 4674SOL    HW114921   0.616   2.924   0.150
 4674SOL    HW214922   0.477   2.923   0.236
 4675SOL     OW14923   1.741   6.733   0.437
 4675SOL    HW114924   1.701   6.689   0.518
 4675SOL    HW214925   1.841   6.735   0.447
 4676SOL     OW14926   7.003   5.569   4.455
 4676SOL    HW114927   7.004   5.508   4.376
 4676SOL    HW214928   6.992   5.516   4.539
 4677SOL     OW14929   5.336   6.692   6.947
 4677SOL    HW114930   5.401   6.697   6.871
 4677SOL    HW214931   5.359   6.613   7.004
 4678SOL     OW14932   2.615   5.156   0.591
 4678SOL    HW114933   2.518   5.162   0.568
 4678SOL    HW214934   2.656   5.080   0.541
 4679SOL     OW14935   2.069   6.492   5.605
 4679SOL    HW114936   2.066   6.591   5.589
 4679SOL    HW214937   2.015   6.445   5.535
 4680SOL     OW14938   1.235   5.389   5.619
 4680SOL    HW114939   1.145   5.429   5.605
 4680SOL    HW214940   1.270   5.414   5.709
 4681SOL     OW14941   0.139   6.080   6.107
 4681SOL    HW114942   0.165   6.090   6.203
 4681SOL    HW214943   0.204   6.131   6.050
 4682SOL     OW14944   2.850   6.636   0.920
 4682SOL    HW114945   2.752   6.616   0.925
 4682SOL    HW214946   2.885   6.605   0.831
 4683SOL     OW14947   0.367   5.674   3.891
 4683SOL    HW114948   0.427   5.677   3.811
 4683SOL    HW214949   0.383   5.589   3.942
 4684SOL     OW14950   2.072   1.070   4.190
 4684SOL    HW114951   2.090   0.984   4.239
 4684SOL    HW214952   2.154   1.096   4.138
 4685SOL     OW14953   5.145   4.829   3.943
 4685SOL    HW114954   5.157   4.920   3.904
 4685SOL    HW214955   5.186   4.826   4.034
 4686SOL     OW14956   4.281   5.183   5.823
 4686SOL    HW114957   4.361   5.173   5.764
 4686SOL    HW214958   4.279   5.275   5.862
 4687SOL     OW14959   4.507   1.105   4.753
 4687SOL    HW114960   4.600   1.113   4.717
 4687SOL    HW214961   4.491   1.178   4.819
 4688SOL     OW14962   0.364   0.359   1.059
 4688SOL    HW114963   0.333   0.295   1.129
 4688SOL    HW214964   0.449   0.327   1.020
 4689SOL     OW14965   2.031   6.237   4.568
 4689SOL    HW114966   2.016   6.182   4.485
 4689SOL    HW214967   1.981   6.323   4.560
 4690SOL     OW14968   3.333   2.247   0.016
 4690SOL    HW114969   3.295   2.155   0.007
 4690SOL    HW214970   3.432   2.242   0.018
 4691SOL     OW14971   2.833   4.550   0.247
 4691SOL    HW114972   2.736   4.532   0.264
 4691SOL    HW214973   2.875   4.470   0.203
 4692SOL     OW14974   0.925   5.024   3.555
 4692SOL    HW114975   0.985   5.066   3.486
 4692SOL    HW214976   0.833   5.015   3.518
 4693SOL     OW14977   0.247   1.893   2.547
 4693SOL    HW114978   0.263   1.977   2.598
 4693SOL    HW214979   0.226   1.915   2.452
 4694SOL     OW14980   1.595   0.713   4.931
 4694SOL    HW114981   1.636   0.791   4.883
 4694SOL    HW214982   1.643   0.629   4.905
 4695SOL     OW14983   3.431   3.474   2.959
 4695SOL    HW114984   3.402   3.439   2.870
 4695SOL    HW214985   3.528   3.453   2.974
 4696SOL     OW14986   0.758   2.173   6.528
 4696SOL    HW114987   0.711   2.205   6.610
 4696SOL    HW214988   0.857   2.169   6.545
 4697SOL     OW14989   0.965   5.049   6.700
 4697SOL    HW114990   0.997   5.107   6.775
 4697SOL    HW214991   0.941   5.105   6.621
 4698SOL     OW14992   5.903   3.195   1.943
 4698SOL    HW114993   5.907   3.096   1.959
 4698SOL    HW214994   5.854   3.213   1.857
 4699SOL     OW14995   6.719   0.696   2.888
 4699SOL    HW114996   6.728   0.785   2.933
 4699SOL    HW214997   6.689   0.710   2.793
 4700SOL     OW14998   5.299   6.865   4.731
 4700SOL    HW114999   5.360   6.904   4.662
 4700SOL    HW215000   5.204   6.888   4.709
 4701SOL     OW15001   2.572   1.273   5.933
 4701SOL    HW115002   2.580   1.197   5.996
 4701SOL    HW215003   2.630   1.257   5.853
 4702SOL     OW15004   3.540   3.182   0.808
 4702SOL    HW115005   3.585   3.095   0.787
 4702SOL    HW215006   3.441   3.170   0.807
 4703SOL     OW15007   0.906   6.447   1.869
 4703SOL    HW115008   0.989   6.395   1.891
 4703SOL    HW215009   0.903   6.529   1.926
 4704SOL     OW15010   4.562   0.046   6.150
 4704SOL    HW115011   4.583   0.045   6.053
 4704SOL    HW215012   4.637   0.090   6.200
 4705SOL     OW15013   3.173   3.106   4.881
 4705SOL    HW115014   3.219   3.195   4.879
 4705SOL    HW215015   3.161   3.078   4.976
 4706SOL     OW15016   5.652   2.856   0.301
 4706SOL    HW115017   5.746   2.822   0.291
 4706SOL    HW215018   5.653   2.954   0.315
 4707SOL     OW15019   2.806   3.837   1.468
 4707SOL    HW115020   2.806   3.853   1.370
 4707SOL    HW215021   2.841   3.745   1.487
 4708SOL     OW15022   2.312   2.593   2.360
 4708SOL    HW115023   2.242   2.543   2.309
 4708SOL    HW215024   2.268   2.659   2.421
 4709SOL     OW15025   2.900   3.878   0.581
 4709SOL    HW115026   2.863   3.939   0.511
 4709SOL    HW215027   2.825   3.830   0.626
 4710SOL     OW15028   4.395   2.386   1.379
 4710SOL    HW115029   4.297   2.402   1.367
 4710SOL    HW215030   4.413   2.356   1.473
 4711SOL     OW15031   2.495   0.531   3.384
 4711SOL    HW115032   2.487   0.444   3.431
 4711SOL    HW215033   2.547   0.519   3.299
 4712SOL     OW15034   1.354   3.242   6.960
 4712SOL    HW115035   1.422   3.170   6.945
 4712SOL    HW215036   1.288   3.242   6.885
 4713SOL     OW15037   0.687   6.160   0.839
 4713SOL    HW115038   0.599   6.112   0.832
 4713SOL    HW215039   0.748   6.110   0.899
 4714SOL     OW15040   4.175   1.717   0.811
 4714SOL    HW115041   4.143   1.804   0.773
 4714SOL    HW215042   4.217   1.662   0.740
 4715SOL     OW15043   5.149   4.060   5.203
 4715SOL    HW115044   5.056   4.067   5.169
 4715SOL    HW215045   5.147   4.031   5.299
 4716SOL     OW15046   1.860   5.475   6.715
 4716SOL    HW115047   1.781   5.429   6.755
 4716SOL    HW215048   1.845   5.574   6.717
 4717SOL     OW15049   2.143   4.997   5.030
 4717SOL    HW115050   2.238   4.998   5.061
 4717SOL    HW215051   2.082   4.994   5.109
 4718SOL     OW15052   5.028   6.794   0.131
 4718SOL    HW115053   5.110   6.738   0.133
 4718SOL    HW215054   4.954   6.743   0.087
 4719SOL     OW15055   4.457   2.931   1.272
 4719SOL    HW115056   4.423   2.848   1.315
 4719SOL    HW215057   4.410   3.010   1.312
 4720SOL     OW15058   2.216   1.574   3.592
 4720SOL    HW115059   2.262   1.499   3.638
 4720SOL    HW215060   2.270   1.603   3.513
 4721SOL     OW15061   1.793   1.634   1.839
 4721SOL    HW115062   1.768   1.546   1.799
 4721SOL    HW215063   1.866   1.621   1.906
 4722SOL     OW15064   2.112   1.042   2.111
 4722SOL    HW115065   2.206   1.062   2.139
 4722SOL    HW215066   2.112   0.972   2.040
 4723SOL     OW15067   3.288   0.639   5.680
 4723SOL    HW115068   3.223   0.571   5.647
 4723SOL    HW215069   3.375   0.596   5.700
 4724SOL     OW15070   4.037   5.431   0.958
 4724SOL    HW115071   4.050   5.477   1.045
 4724SOL    HW215072   4.074   5.338   0.963
 4725SOL     OW15073   5.981   5.076   2.870
 4725SOL    HW115074   5.885   5.054   2.849
 4725SOL    HW215075   6.039   5.046   2.794
 4726SOL     OW15076   6.276   6.965   3.909
 4726SOL    HW115077   6.333   6.973   3.827
 4726SOL    HW215078   6.264   6.868   3.932
 4727SOL     OW15079   4.879   6.499   1.654
 4727SOL    HW115080   4.803   6.453   1.699
 4727SOL    HW215081   4.847   6.540   1.569
 4728SOL     OW15082   6.734   6.085   6.684
 4728SOL    HW115083   6.677   6.007   6.710
 4728SOL    HW215084   6.773   6.069   6.594
 4729SOL     OW15085   3.228   0.434   1.251
 4729SOL    HW115086   3.276   0.503   1.305
 4729SOL    HW215087   3.143   0.472   1.215
 4730SOL     OW15088   0.998   0.569   6.290
 4730SOL    HW115089   0.995   0.472   6.314
 4730SOL    HW215090   1.016   0.624   6.372
 4731SOL     OW15091   5.212   1.498   5.874
 4731SOL    HW115092   5.198   1.472   5.970
 4731SOL    HW215093   5.172   1.428   5.815
 4732SOL     OW15094   0.862   0.114   6.464
 4732SOL    HW115095   0.901   0.043   6.523
 4732SOL    HW215096   0.763   0.120   6.479
 4733SOL     OW15097   5.473   4.045   2.867
 4733SOL    HW115098   5.506   4.139   2.857
 4733SOL    HW215099   5.503   4.008   2.955
 4734SOL     OW15100   6.337   3.710   5.992
 4734SOL    HW115101   6.398   3.789   5.995
 4734SOL    HW215102   6.246   3.738   5.962
 4735SOL     OW15103   0.808   3.678   3.380
 4735SOL    HW115104   0.878   3.737   3.420
 4735SOL    HW215105   0.753   3.637   3.453
 4736SOL     OW15106   1.089   0.167   2.280
 4736SOL    HW115107   1.043   0.110   2.347
 4736SOL    HW215108   1.159   0.223   2.325
 4737SOL     OW15109   3.181   5.340   2.621
 4737SOL    HW115110   3.238   5.303   2.547
 4737SOL    HW215111   3.224   5.422   2.658
 4738SOL     OW15112   1.107   0.643   3.486
 4738SOL    HW115113   1.150   0.636   3.575
 4738SOL    HW215114   1.104   0.552   3.443
 4739SOL     OW15115   3.703   0.003   1.504
 4739SOL    HW115116   3.619   6.978   1.512
 4739SOL    HW215117   3.780   6.968   1.490
 4740SOL     OW15118   0.872   2.122   5.336
 4740SOL    HW115119   0.844   2.032   5.303
 4740SOL    HW215120   0.969   2.119   5.362
 4741SOL     OW15121   4.159   3.486   4.921
 4741SOL    HW115122   4.205   3.450   4.840
 4741SOL    HW215123   4.113   3.572   4.898
 4742SOL     OW15124   4.289   0.798   3.556
 4742SOL    HW115125   4.373   0.792   3.608
 4742SOL    HW215126   4.228   0.865   3.599
 4743SOL     OW15127   0.435   5.085   0.900
 4743SOL    HW115128   0.513   5.025   0.880
 4743SOL    HW215129   0.453   5.135   0.984
 4744SOL     OW15130   1.088   4.838   2.050
 4744SOL    HW115131   1.087   4.874   2.143
 4744SOL    HW215132   1.115   4.910   1.986
 4745SOL     OW15133   1.751   3.051   0.098
 4745SOL    HW115134   1.712   3.126   0.151
 4745SOL    HW215135   1.782   3.085   0.010
 4746SOL     OW15136   6.223   6.016   4.357
 4746SOL    HW115137   6.191   5.946   4.292
 4746SOL    HW215138   6.252   5.971   4.441
 4747SOL     OW15139   4.150   0.831   0.563
 4747SOL    HW115140   4.067   0.812   0.616
 4747SOL    HW215141   4.208   0.895   0.614
 4748SOL     OW15142   2.365   0.030   3.705
 4748SOL    HW115143   2.446   6.999   3.714
 4748SOL    HW215144   2.384   0.118   3.749
 4749SOL     OW15145   2.756   1.328   1.218
 4749SOL    HW115146   2.702   1.408   1.191
 4749SOL    HW215147   2.701   1.245   1.202
 4750SOL     OW15148   5.653   2.972   6.054
 4750SOL    HW115149   5.710   2.906   6.005
 4750SOL    HW215150   5.587   2.922   6.110
 4751SOL     OW15151   3.686   1.676   2.408
 4751SOL    HW115152   3.668   1.774   2.398
 4751SOL    HW215153   3.601   1.625   2.396
 4752SOL     OW15154   6.203   6.498   6.667
 4752SOL    HW115155   6.146   6.496   6.749
 4752SOL    HW215156   6.290   6.452   6.686
 4753SOL     OW15157   3.223   5.756   5.031
 4753SOL    HW115158   3.230   5.800   5.121
 4753SOL    HW215159   3.179   5.667   5.040
 4754SOL     OW15160   5.892   4.735   0.480
 4754SOL    HW115161   5.845   4.648   0.496
 4754SOL    HW215162   5.828   4.810   0.498
 4755SOL     OW15163   6.689   1.179   2.198
 4755SOL    HW115164   6.760   1.112   2.217
 4755SOL    HW215165   6.727   1.271   2.207
 4756SOL     OW15166   0.098   3.855   4.723
 4756SOL    HW115167   0.183   3.908   4.731
 4756SOL    HW215168   0.120   3.758   4.727
 4757SOL     OW15169   2.422   3.616   1.387
 4757SOL    HW115170   2.351   3.557   1.428
 4757SOL    HW215171   2.465   3.670   1.458
 4758SOL     OW15172   2.060   5.272   1.980
 4758SOL    HW115173   2.158   5.253   1.973
 4758SOL    HW215174   2.025   5.235   2.066
 4759SOL     OW15175   0.649   6.504   3.103
 4759SOL    HW115176   0.709   6.462   3.172
 4759SOL    HW215177   0.559   6.461   3.107
 4760SOL     OW15178   0.735   0.694   2.332
 4760SOL    HW115179   0.813   0.685   2.271
 4760SOL    HW215180   0.651   0.700   2.278
 4761SOL     OW15181   4.196   6.008   2.464
 4761SOL    HW115182   4.259   6.042   2.534
 4761SOL    HW215183   4.173   6.082   2.401
 4762SOL     OW15184   0.618   0.907   2.672
 4762SOL    HW115185   0.646   0.967   2.597
 4762SOL    HW215186   0.596   0.817   2.636
 4763SOL     OW15187   5.025   3.859   1.618
 4763SOL    HW115188   5.018   3.835   1.521
 4763SOL    HW215189   5.000   3.955   1.630
 4764SOL     OW15190   4.399   2.914   6.650
 4764SOL    HW115191   4.454   2.914   6.733
 4764SOL    HW215192   4.426   2.837   6.592
 4765SOL     OW15193   3.611   1.473   5.537
 4765SOL    HW115194   3.537   1.433   5.484
 4765SOL    HW215195   3.587   1.566   5.563
 4766SOL     OW15196   1.174   0.993   2.922
 4766SOL    HW115197   1.082   1.011   2.888
 4766SOL    HW215198   1.212   0.913   2.876
 4767SOL     OW15199   2.580   4.975   2.592
 4767SOL    HW115200   2.652   4.906   2.581
 4767SOL    HW215201   2.609   5.061   2.550
 4768SOL     OW15202   4.586   2.677   6.106
 4768SOL    HW115203   4.606   2.747   6.038
 4768SOL    HW215204   4.503   2.702   6.156
 4769SOL     OW15205   3.217   2.934   0.382
 4769SOL    HW115206   3.199   2.839   0.407
 4769SOL    HW215207   3.139   2.991   0.409
 4770SOL     OW15208   0.045   1.754   3.835
 4770SOL    HW115209   0.098   1.690   3.778
 4770SOL    HW215210   0.040   1.718   3.928
 4771SOL     OW15211   3.056   1.489   4.277
 4771SOL    HW115212   3.042   1.422   4.204
 4771SOL    HW215213   2.968   1.530   4.303
 4772SOL     OW15214   2.895   5.310   2.552
 4772SOL    HW115215   2.980   5.355   2.579
 4772SOL    HW215216   2.840   5.374   2.499
 4773SOL     OW15217   3.332   5.762   3.993
 4773SOL    HW115218   3.413   5.782   3.938
 4773SOL    HW215219   3.276   5.845   4.001
 4774SOL     OW15220   0.167   4.237   0.678
 4774SOL    HW115221   0.145   4.275   0.767
 4774SOL    HW215222   0.132   4.297   0.606
 4775SOL     OW15223   5.174   5.057   4.161
 4775SOL    HW115224   5.270   5.042   4.137
 4775SOL    HW215225   5.159   5.026   4.255
 4776SOL     OW15226   6.852   1.787   5.496
 4776SOL    HW115227   6.899   1.705   5.528
 4776SOL    HW215228   6.776   1.808   5.557
 4777SOL     OW15229   0.973   6.421   3.512
 4777SOL    HW115230   0.918   6.378   3.440
 4777SOL    HW215231   0.917   6.435   3.593
 4778SOL     OW15232   1.372   0.660   1.166
 4778SOL    HW115233   1.275   0.644   1.180
 4778SOL    HW215234   1.400   0.623   1.078
 4779SOL     OW15235   4.597   1.755   4.471
 4779SOL    HW115236   4.606   1.796   4.381
 4779SOL    HW215237   4.502   1.729   4.487
 4780SOL     OW15238   4.978   2.853   4.526
 4780SOL    HW115239   4.906   2.801   4.572
 4780SOL    HW215240   5.051   2.791   4.497
 4781SOL     OW15241   3.038   5.174   1.303
 4781SOL    HW115242   3.032   5.083   1.344
 4781SOL    HW215243   3.114   5.224   1.343
 4782SOL     OW15244   1.233   0.194   2.951
 4782SOL    HW115245   1.208   0.185   2.854
 4782SOL    HW215246   1.151   0.214   3.004
 4783SOL     OW15247   1.018   4.366   6.884
 4783SOL    HW115248   0.985   4.418   6.963
 4783SOL    HW215249   1.018   4.269   6.906
 4784SOL     OW15250   6.562   2.686   6.610
 4784SOL    HW115251   6.662   2.694   6.619
 4784SOL    HW215252   6.524   2.773   6.579
 4785SOL     OW15253   0.523   1.403   4.478
 4785SOL    HW115254   0.464   1.323   4.479
 4785SOL    HW215255   0.558   1.420   4.570
 4786SOL     OW15256   1.542   6.656   0.631
 4786SOL    HW115257   1.610   6.604   0.683
 4786SOL    HW215258   1.524   6.610   0.544
 4787SOL     OW15259   4.304   1.547   5.476
 4787SOL    HW115260   4.291   1.516   5.571
 4787SOL    HW215261   4.270   1.640   5.467
 4788SOL     OW15262   6.831   5.829   0.920
 4788SOL    HW115263   6.801   5.822   0.825
 4788SOL    HW215264   6.762   5.788   0.979
 4789SOL     OW15265   5.505   0.911   1.421
 4789SOL    HW115266   5.542   1.003   1.432
 4789SOL    HW215267   5.440   0.909   1.345
 4790SOL     OW15268   0.149   2.602   6.575
 4790SOL    HW115269   0.235   2.550   6.578
 4790SOL    HW215270   0.152   2.667   6.499
 4791SOL     OW15271   0.887   0.648   6.878
 4791SOL    HW115272   0.846   0.648   6.787
 4791SOL    HW215273   0.956   0.575   6.883
 4792SOL     OW15274   0.693   4.178   1.686
 4792SOL    HW115275   0.695   4.114   1.609
 4792SOL    HW215276   0.630   4.253   1.666
 4793SOL     OW15277   1.418   3.065   5.070
 4793SOL    HW115278   1.344   3.036   5.131
 4793SOL    HW215279   1.489   3.109   5.124
 4794SOL     OW15280   5.677   1.371   6.505
 4794SOL    HW115281   5.645   1.335   6.417
 4794SOL    HW215282   5.767   1.333   6.526
 4795SOL     OW15283   0.057   6.550   6.977
 4795SOL    HW115284   0.071   6.640   7.018
 4795SOL    HW215285   0.034   6.485   0.021
 4796SOL     OW15286   5.655   2.025   5.914
 4796SOL    HW115287   5.572   1.977   5.884
 4796SOL    HW215288   5.671   2.006   6.011
 4797SOL     OW15289   2.914   5.237   5.059
 4797SOL    HW115290   2.950   5.317   5.107
 4797SOL    HW215291   2.817   5.226   5.080
 4798SOL     OW15292   3.769   6.196   6.442
 4798SOL    HW115293   3.770   6.097   6.451
 4798SOL    HW215294   3.686   6.233   6.486
 4799SOL     OW15295   4.510   3.822   1.395
 4799SOL    HW115296   4.600   3.779   1.398
 4799SOL    HW215297   4.445   3.762   1.348
 4800SOL     OW15298   0.921   4.463   0.086
 4800SOL    HW115299   0.906   4.542   0.146
 4800SOL    HW215300   1.006   4.417   0.113
 4801SOL     OW15301   4.850   3.268   3.322
 4801SOL    HW115302   4.753   3.284   3.340
 4801SOL    HW215303   4.899   3.355   3.327
 4802SOL     OW15304   6.664   0.660   4.649
 4802SOL    HW115305   6.710   0.710   4.577
 4802SOL    HW215306   6.566   0.683   4.650
 4803SOL     OW15307   5.274   3.545   5.862
 4803SOL    HW115308   5.283   3.500   5.773
 4803SOL    HW215309   5.315   3.487   5.932
 4804SOL     OW15310   5.856   2.806   0.815
 4804SOL    HW115311   5.829   2.807   0.719
 4804SOL    HW215312   5.892   2.896   0.841
 4805SOL     OW15313   5.962   0.263   5.336
 4805SOL    HW115314   5.914   0.176   5.323
 4805SOL    HW215315   5.894   0.336   5.346
 4806SOL     OW15316   1.556   2.718   3.366
 4806SOL    HW115317   1.585   2.648   3.431
 4806SOL    HW215318   1.497   2.677   3.297
 4807SOL     OW15319   0.991   3.559   0.919
 4807SOL    HW115320   0.911   3.540   0.862
 4807SOL    HW215321   1.066   3.592   0.861
 4808SOL     OW15322   2.558   6.364   3.344
 4808SOL    HW115323   2.518   6.272   3.341
 4808SOL    HW215324   2.600   6.379   3.434
 4809SOL     OW15325   2.715   3.592   0.873
 4809SOL    HW115326   2.798   3.635   0.909
 4809SOL    HW215327   2.708   3.613   0.775
 4810SOL     OW15328   1.915   5.579   4.526
 4810SOL    HW115329   1.855   5.566   4.446
 4810SOL    HW215330   1.860   5.608   4.604
 4811SOL     OW15331   2.948   3.185   4.720
 4811SOL    HW115332   3.002   3.119   4.771
 4811SOL    HW215333   2.858   3.195   4.762
 4812SOL     OW15334   1.745   6.071   1.260
 4812SOL    HW115335   1.772   6.021   1.342
 4812SOL    HW215336   1.818   6.065   1.191
 4813SOL     OW15337   1.135   2.525   4.708
 4813SOL    HW115338   1.126   2.429   4.682
 4813SOL    HW215339   1.103   2.536   4.802
 4814SOL     OW15340   4.660   1.246   0.496
 4814SOL    HW115341   4.584   1.232   0.559
 4814SOL    HW215342   4.637   1.207   0.407
 4815SOL     OW15343   6.567   4.211   3.091
 4815SOL    HW115344   6.557   4.115   3.118
 4815SOL    HW215345   6.660   4.226   3.056
 4816SOL     OW15346   2.741   0.615   2.668
 4816SOL    HW115347   2.751   0.591   2.572
 4816SOL    HW215348   2.700   0.706   2.676
 4817SOL     OW15349   4.512   3.431   6.893
 4817SOL    HW115350   4.531   3.525   6.865
 4817SOL    HW215351   4.549   3.367   6.825
 4818SOL     OW15352   4.708   6.539   5.577
 4818SOL    HW115353   4.734   6.443   5.571
 4818SOL    HW215354   4.609   6.548   5.561
 4819SOL     OW15355   3.650   0.109   0.622
 4819SOL    HW115356   3.654   0.083   0.525
 4819SOL    HW215357   3.559   0.146   0.642
 4820SOL     OW15358   0.687   5.383   1.333
 4820SOL    HW115359   0.768   5.337   1.368
 4820SOL    HW215360   0.714   5.463   1.279
 4821SOL     OW15361   6.729   5.819   1.252
 4821SOL    HW115362   6.687   5.746   1.197
 4821SOL    HW215363   6.669   5.841   1.329
 4822SOL     OW15364   0.358   3.512   1.936
 4822SOL    HW115365   0.445   3.548   1.967
 4822SOL    HW215366   0.333   3.554   1.849
 4823SOL     OW15367   6.696   1.818   2.669
 4823SOL    HW115368   6.764   1.777   2.609
 4823SOL    HW215369   6.612   1.833   2.618
 4824SOL     OW15370   4.939   1.199   3.006
 4824SOL    HW115371   4.952   1.112   2.959
 4824SOL    HW215372   4.998   1.268   2.964
 4825SOL     OW15373   2.323   4.349   4.549
 4825SOL    HW115374   2.390   4.407   4.595
 4825SOL    HW215375   2.267   4.405   4.487
 4826SOL     OW15376   0.760   5.938   6.789
 4826SOL    HW115377   0.816   5.960   6.869
 4826SOL    HW215378   0.797   5.856   6.745
 4827SOL     OW15379   5.385   0.841   6.455
 4827SOL    HW115380   5.403   0.840   6.554
 4827SOL    HW215381   5.440   0.771   6.410
 4828SOL     OW15382   6.815   2.710   6.637
 4828SOL    HW115383   6.864   2.791   6.671
 4828SOL    HW215384   6.876   2.656   6.580
 4829SOL     OW15385   2.260   1.293   5.592
 4829SOL    HW115386   2.280   1.202   5.555
 4829SOL    HW215387   2.261   1.361   5.519
 4830SOL     OW15388   6.450   4.536   4.481
 4830SOL    HW115389   6.435   4.612   4.544
 4830SOL    HW215390   6.465   4.452   4.533
 4831SOL     OW15391   0.051   1.572   6.497
 4831SOL    HW115392   0.030   1.620   6.412
 4831SOL    HW215393   0.148   1.547   6.498
 4832SOL     OW15394   1.408   2.491   6.351
 4832SOL    HW115395   1.442   2.482   6.258
 4832SOL    HW215396   1.474   2.542   6.406
 4833SOL     OW15397   6.634   2.545   1.732
 4833SOL    HW115398   6.696   2.473   1.702
 4833SOL    HW215399   6.579   2.578   1.655
 4834SOL     OW15400   5.880   0.810   3.499
 4834SOL    HW115401   5.867   0.713   3.519
 4834SOL    HW215402   5.978   0.831   3.501
 4835SOL     OW15403   2.434   2.443   5.968
 4835SOL    HW115404   2.349   2.393   5.959
 4835SOL    HW215405   2.496   2.419   5.893
 4836SOL     OW15406   5.782   5.040   3.512
 4836SOL    HW115407   5.874   5.012   3.482
 4836SOL    HW215408   5.721   5.043   3.434
 4837SOL     OW15409   6.950   5.127   1.984
 4837SOL    HW115410   0.017   5.100   1.994
 4837SOL    HW215411   6.943   5.209   1.927
 4838SOL     OW15412   3.025   6.615   3.208
 4838SOL    HW115413   2.928   6.609   3.232
 4838SOL    HW215414   3.040   6.575   3.117
 4839SOL     OW15415   0.541   0.204   5.859
 4839SOL    HW115416   0.552   0.216   5.958
 4839SOL    HW215417   0.630   0.198   5.816
 4840SOL     OW15418   6.170   5.297   5.749
 4840SOL    HW115419   6.218   5.210   5.735
 4840SOL    HW215420   6.215   5.368   5.696
 4841SOL     OW15421   1.017   5.083   2.223
 4841SOL    HW115422   0.962   5.160   2.256
 4841SOL    HW215423   1.039   5.023   2.299
 4842SOL     OW15424   3.449   6.762   0.471
 4842SOL    HW115425   3.382   6.701   0.428
 4842SOL    HW215426   3.531   6.709   0.495
 4843SOL     OW15427   2.425   4.001   0.499
 4843SOL    HW115428   2.389   3.950   0.421
 4843SOL    HW215429   2.417   3.945   0.582
 4844SOL     OW15430   0.431   1.115   5.538
 4844SOL    HW115431   0.408   1.099   5.634
 4844SOL    HW215432   0.360   1.173   5.497
 4845SOL     OW15433   5.926   6.794   3.820
 4845SOL    HW115434   5.924   6.827   3.914
 4845SOL    HW215435   6.021   6.777   3.793
 4846SOL     OW15436   0.293   4.411   4.947
 4846SOL    HW115437   0.343   4.327   4.969
 4846SOL    HW215438   0.196   4.390   4.938
 4847SOL     OW15439   5.380   3.764   4.266
 4847SOL    HW115440   5.452   3.817   4.221
 4847SOL    HW215441   5.400   3.757   4.364
 4848SOL     OW15442   3.100   3.667   1.225
 4848SOL    HW115443   3.007   3.675   1.259
 4848SOL    HW215444   3.150   3.600   1.281
 4849SOL     OW15445   2.732   6.424   0.003
 4849SOL    HW115446   2.653   6.479   0.031
 4849SOL    HW215447   2.742   6.346   0.065
 4850SOL     OW15448   3.498   6.629   3.275
 4850SOL    HW115449   3.531   6.589   3.361
 4850SOL    HW215450   3.415   6.681   3.291
 4851SOL     OW15451   5.427   1.754   5.582
 4851SOL    HW115452   5.346   1.761   5.523
 4851SOL    HW215453   5.429   1.665   5.626
 4852SOL     OW15454   1.124   1.973   1.639
 4852SOL    HW115455   1.186   2.034   1.690
 4852SOL    HW215456   1.065   1.925   1.703
 4853SOL     OW15457   3.181   0.553   0.818
 4853SOL    HW115458   3.278   0.527   0.826
 4853SOL    HW215459   3.129   0.509   0.891
 4854SOL     OW15460   4.636   0.097   5.074
 4854SOL    HW115461   4.561   0.066   5.133
 4854SOL    HW215462   4.621   0.065   4.981
 4855SOL     OW15463   0.111   2.630   2.161
 4855SOL    HW115464   0.015   2.629   2.191
 4855SOL    HW215465   0.155   2.713   2.196
 4856SOL     OW15466   6.796   4.952   2.915
 4856SOL    HW115467   6.870   4.931   2.978
 4856SOL    HW215468   6.710   4.919   2.953
 4857SOL     OW15469   6.853   1.289   5.837
 4857SOL    HW115470   6.860   1.389   5.839
 4857SOL    HW215471   6.757   1.262   5.847
 4858SOL     OW15472   1.429   6.808   2.877
 4858SOL    HW115473   1.448   6.905   2.857
 4858SOL    HW215474   1.495   6.751   2.827
 4859SOL     OW15475   3.694   6.892   5.879
 4859SOL    HW115476   3.703   6.967   5.813
 4859SOL    HW215477   3.608   6.901   5.928
 4860SOL     OW15478   2.580   5.353   0.087
 4860SOL    HW115479   2.647   5.364   0.013
 4860SOL    HW215480   2.617   5.390   0.171
 4861SOL     OW15481   4.227   3.944   6.017
 4861SOL    HW115482   4.271   3.855   6.013
 4861SOL    HW215483   4.139   3.936   6.063
 4862SOL     OW15484   1.678   0.536   0.107
 4862SOL    HW115485   1.661   0.632   0.130
 4862SOL    HW215486   1.733   0.495   0.180
 4863SOL     OW15487   4.828   3.564   5.825
 4863SOL    HW115488   4.801   3.650   5.782
 4863SOL    HW215489   4.765   3.492   5.797
 4864SOL     OW15490   3.381   1.536   3.714
 4864SOL    HW115491   3.372   1.514   3.811
 4864SOL    HW215492   3.470   1.503   3.681
 4865SOL     OW15493   1.283   5.644   4.931
 4865SOL    HW115494   1.335   5.612   5.011
 4865SOL    HW215495   1.252   5.565   4.878
 4866SOL     OW15496   0.392   4.159   5.567
 4866SOL    HW115497   0.466   4.095   5.548
 4866SOL    HW215498   0.322   4.153   5.496
 4867SOL     OW15499   3.944   1.093   3.298
 4867SOL    HW115500   3.848   1.113   3.321
 4867SOL    HW215501   3.950   1.002   3.259
 4868SOL     OW15502   0.031   6.109   1.326
 4868SOL    HW115503   7.014   6.197   1.319
 4868SOL    HW215504   0.124   6.116   1.291
 4869SOL     OW15505   7.013   0.843   0.579
 4869SOL    HW115506   0.039   0.779   0.524
 4869SOL    HW215507   0.036   0.929   0.588
 4870SOL     OW15508   1.790   0.716   0.534
 4870SOL    HW115509   1.730   0.767   0.471
 4870SOL    HW215510   1.739   0.638   0.572
 4871SOL     OW15511   1.151   1.664   4.142
 4871SOL    HW115512   1.168   1.691   4.048
 4871SOL    HW215513   1.166   1.566   4.152
 4872SOL     OW15514   5.570   0.481   3.143
 4872SOL    HW115515   5.614   0.571   3.152
 4872SOL    HW215516   5.612   0.431   3.067
 4873SOL     OW15517   6.535   6.893   3.482
 4873SOL    HW115518   6.461   6.957   3.503
 4873SOL    HW215519   6.541   6.824   3.554
 4874SOL     OW15520   5.726   4.453   2.747
 4874SOL    HW115521   5.721   4.353   2.738
 4874SOL    HW215522   5.765   4.477   2.836
 4875SOL     OW15523   6.717   6.822   4.397
 4875SOL    HW115524   6.785   6.827   4.323
 4875SOL    HW215525   6.764   6.830   4.485
 4876SOL     OW15526   5.963   2.008   2.166
 4876SOL    HW115527   5.936   2.077   2.098
 4876SOL    HW215528   6.060   1.988   2.156
 4877SOL     OW15529   0.734   1.498   0.301
 4877SOL    HW115530   0.810   1.552   0.338
 4877SOL    HW215531   0.651   1.554   0.297
 4878SOL     OW15532   6.377   4.114   4.251
 4878SOL    HW115533   6.400   4.185   4.184
 4878SOL    HW215534   6.282   4.126   4.280
 4879SOL     OW15535   5.432   1.188   3.137
 4879SOL    HW115536   5.462   1.273   3.180
 4879SOL    HW215537   5.400   1.207   3.044
 4880SOL     OW15538   0.486   3.415   6.810
 4880SOL    HW115539   0.533   3.492   6.854
 4880SOL    HW215540   0.387   3.427   6.820
 4881SOL     OW15541   6.855   3.822   2.090
 4881SOL    HW115542   6.759   3.799   2.075
 4881SOL    HW215543   6.913   3.748   2.054
 4882SOL     OW15544   5.229   2.349   4.107
 4882SOL    HW115545   5.145   2.361   4.054
 4882SOL    HW215546   5.243   2.428   4.167
 4883SOL     OW15547   0.076   4.427   6.276
 4883SOL    HW115548   0.134   4.437   6.195
 4883SOL    HW215549   0.126   4.456   6.357
 4884SOL     OW15550   1.840   2.552   1.737
 4884SOL    HW115551   1.814   2.499   1.656
 4884SOL    HW215552   1.938   2.567   1.737
 4885SOL     OW15553   1.083   6.092   6.494
 4885SOL    HW115554   1.169   6.139   6.473
 4885SOL    HW215555   1.021   6.102   6.416
 4886SOL     OW15556   3.218   0.720   2.209
 4886SOL    HW115557   3.177   0.696   2.297
 4886SOL    HW215558   3.185   0.657   2.138
 4887SOL     OW15559   5.306   5.786   0.866
 4887SOL    HW115560   5.237   5.732   0.913
 4887SOL    HW215561   5.281   5.883   0.871
 4888SOL     OW15562   3.778   6.537   3.063
 4888SOL    HW115563   3.799   6.524   3.160
 4888SOL    HW215564   3.725   6.621   3.051
 4889SOL     OW15565   5.278   3.161   3.505
 4889SOL    HW115566   5.340   3.195   3.434
 4889SOL    HW215567   5.292   3.212   3.590
 4890SOL     OW15568   6.790   2.340   4.807
 4890SOL    HW115569   6.812   2.293   4.722
 4890SOL    HW215570   6.777   2.438   4.789
 4891SOL     OW15571   3.370   5.902   0.134
 4891SOL    HW115572   3.272   5.885   0.132
 4891SOL    HW215573   3.386   6.001   0.140
 4892SOL     OW15574   4.915   4.619   1.811
 4892SOL    HW115575   4.871   4.573   1.888
 4892SOL    HW215576   4.948   4.709   1.841
 4893SOL     OW15577   2.606   2.604   1.024
 4893SOL    HW115578   2.524   2.564   0.983
 4893SOL    HW215579   2.675   2.532   1.037
 4894SOL     OW15580   4.996   5.852   0.441
 4894SOL    HW115581   5.071   5.814   0.495
 4894SOL    HW215582   4.927   5.781   0.424
 4895SOL     OW15583   6.404   3.591   5.243
 4895SOL    HW115584   6.435   3.647   5.320
 4895SOL    HW215585   6.335   3.526   5.275
 4896SOL     OW15586   2.426   4.937   5.083
 4896SOL    HW115587   2.442   4.840   5.098
 4896SOL    HW215588   2.406   4.953   4.986
 4897SOL     OW15589   2.873   1.852   5.972
 4897SOL    HW115590   2.777   1.836   5.950
 4897SOL    HW215591   2.881   1.936   6.027
 4898SOL     OW15592   4.833   2.324   2.947
 4898SOL    HW115593   4.805   2.268   2.869
 4898SOL    HW215594   4.803   2.419   2.933
 4899SOL     OW15595   6.352   5.550   1.240
 4899SOL    HW115596   6.398   5.577   1.325
 4899SOL    HW215597   6.320   5.632   1.192
 4900SOL     OW15598   3.074   5.455   5.755
 4900SOL    HW115599   2.998   5.410   5.707
 4900SOL    HW215600   3.158   5.403   5.741
 4901SOL     OW15601   2.288   0.678   6.277
 4901SOL    HW115602   2.236   0.610   6.225
 4901SOL    HW215603   2.361   0.632   6.328
 4902SOL     OW15604   2.138   0.047   5.763
 4902SOL    HW115605   2.129   0.036   5.664
 4902SOL    HW215606   2.067   0.110   5.796
 4903SOL     OW15607   5.329   3.437   3.019
 4903SOL    HW115608   5.253   3.440   2.955
 4903SOL    HW215609   5.410   3.399   2.974
 4904SOL     OW15610   2.722   0.288   2.104
 4904SOL    HW115611   2.652   0.359   2.116
 4904SOL    HW215612   2.741   0.245   2.192
 4905SOL     OW15613   2.294   1.368   1.183
 4905SOL    HW115614   2.301   1.414   1.272
 4905SOL    HW215615   2.209   1.396   1.138
 4906SOL     OW15616   5.380   3.536   5.128
 4906SOL    HW115617   5.448   3.483   5.077
 4906SOL    HW215618   5.427   3.602   5.186
 4907SOL     OW15619   4.737   2.062   0.729
 4907SOL    HW115620   4.672   1.986   0.740
 4907SOL    HW215621   4.786   2.076   0.815
 4908SOL     OW15622   2.495   6.577   7.022
 4908SOL    HW115623   2.479   6.596   6.925
 4908SOL    HW215624   2.409   6.583   0.044
 4909SOL     OW15625   5.072   6.727   5.084
 4909SOL    HW115626   5.064   6.799   5.153
 4909SOL    HW215627   5.114   6.646   5.126
 4910SOL     OW15628   4.263   2.164   6.581
 4910SOL    HW115629   4.301   2.171   6.673
 4910SOL    HW215630   4.301   2.083   6.535
 4911SOL     OW15631   6.211   4.788   3.761
 4911SOL    HW115632   6.156   4.856   3.809
 4911SOL    HW215633   6.152   4.716   3.724
 4912SOL     OW15634   5.972   3.708   4.382
 4912SOL    HW115635   5.886   3.759   4.377
 4912SOL    HW215636   6.034   3.753   4.445
 4913SOL     OW15637   1.250   4.005   5.811
 4913SOL    HW115638   1.307   3.994   5.729
 4913SOL    HW215639   1.246   3.919   5.861
 4914SOL     OW15640   2.748   6.929   4.308
 4914SOL    HW115641   2.738   6.995   4.234
 4914SOL    HW215642   2.837   6.884   4.301
 4915SOL     OW15643   4.765   0.113   4.456
 4915SOL    HW115644   4.731   0.155   4.372
 4915SOL    HW215645   4.758   0.178   4.532
 4916SOL     OW15646   6.062   3.109   3.733
 4916SOL    HW115647   6.022   3.188   3.687
 4916SOL    HW215648   6.127   3.141   3.803
 4917SOL     OW15649   5.109   6.034   6.652
 4917SOL    HW115650   5.166   6.021   6.733
 4917SOL    HW215651   5.036   6.099   6.673
 4918SOL     OW15652   4.477   6.318   4.206
 4918SOL    HW115653   4.449   6.312   4.301
 4918SOL    HW215654   4.466   6.412   4.174
 4919SOL     OW15655   4.878   3.959   1.883
 4919SOL    HW115656   4.936   3.915   1.815
 4919SOL    HW215657   4.786   3.970   1.845
 4920SOL     OW15658   6.176   1.028   5.762
 4920SOL    HW115659   6.153   1.027   5.664
 4920SOL    HW215660   6.134   1.107   5.805
 4921SOL     OW15661   6.309   0.996   2.291
 4921SOL    HW115662   6.361   0.988   2.206
 4921SOL    HW215663   6.372   0.995   2.369
 4922SOL     OW15664   4.047   6.982   5.672
 4922SOL    HW115665   4.087   6.933   5.749
 4922SOL    HW215666   4.037   6.921   5.594
 4923SOL     OW15667   4.077   1.189   2.314
 4923SOL    HW115668   4.117   1.121   2.375
 4923SOL    HW215669   4.054   1.146   2.227
 4924SOL     OW15670   3.186   1.912   4.475
 4924SOL    HW115671   3.226   2.003   4.486
 4924SOL    HW215672   3.172   1.893   4.378
 4925SOL     OW15673   5.118   0.075   3.945
 4925SOL    HW115674   5.024   0.040   3.943
 4925SOL    HW215675   5.173   0.029   3.876
 4926SOL     OW15676   4.676   2.610   1.979
 4926SOL    HW115677   4.579   2.583   1.976
 4926SOL    HW215678   4.690   2.675   2.053
 4927SOL     OW15679   2.162   1.752   0.823
 4927SOL    HW115680   2.248   1.776   0.869
 4927SOL    HW215681   2.181   1.689   0.748
 4928SOL     OW15682   0.684   1.772   1.827
 4928SOL    HW115683   0.642   1.683   1.814
 4928SOL    HW215684   0.643   1.838   1.763
 4929SOL     OW15685   6.310   0.098   5.269
 4929SOL    HW115686   6.253   0.174   5.302
 4929SOL    HW215687   6.354   0.124   5.184
 4930SOL     OW15688   4.778   5.840   2.483
 4930SOL    HW115689   4.754   5.790   2.399
 4930SOL    HW215690   4.878   5.844   2.491
 4931SOL     OW15691   4.174   0.276   1.080
 4931SOL    HW115692   4.266   0.314   1.079
 4931SOL    HW215693   4.107   0.350   1.089
 4932SOL     OW15694   3.882   4.047   4.208
 4932SOL    HW115695   3.959   4.106   4.182
 4932SOL    HW215696   3.840   4.082   4.292
 4933SOL     OW15697   1.924   0.807   5.055
 4933SOL    HW115698   1.865   0.877   5.015
 4933SOL    HW215699   1.893   0.785   5.147
 4934SOL     OW15700   1.930   0.200   2.845
 4934SOL    HW115701   1.909   0.228   2.751
 4934SOL    HW215702   1.986   0.271   2.889
 4935SOL     OW15703   6.576   0.406   4.383
 4935SOL    HW115704   6.631   0.388   4.465
 4935SOL    HW215705   6.575   0.326   4.324
 4936SOL     OW15706   4.650   2.585   0.349
 4936SOL    HW115707   4.602   2.503   0.318
 4936SOL    HW215708   4.740   2.561   0.384
 4937SOL     OW15709   3.592   2.889   4.984
 4937SOL    HW115710   3.675   2.904   4.931
 4937SOL    HW215711   3.512   2.906   4.926
 4938SOL     OW15712   2.355   4.965   6.628
 4938SOL    HW115713   2.410   4.932   6.551
 4938SOL    HW215714   2.396   4.934   6.714
 4939SOL     OW15715   5.075   2.813   6.495
 4939SOL    HW115716   5.133   2.894   6.496
 4939SOL    HW215717   5.057   2.783   6.589
 4940SOL     OW15718   0.722   5.937   3.212
 4940SOL    HW115719   0.717   6.003   3.137
 4940SOL    HW215720   0.769   5.978   3.290
 4941SOL     OW15721   6.902   0.591   0.131
 4941SOL    HW115722   6.818   0.556   0.089
 4941SOL    HW215723   6.967   0.516   0.144
 4942SOL     OW15724   5.183   2.657   6.280
 4942SOL    HW115725   5.157   2.561   6.267
 4942SOL    HW215726   5.168   2.684   6.375
 4943SOL     OW15727   6.733   3.315   1.163
 4943SOL    HW115728   6.748   3.283   1.257
 4943SOL    HW215729   6.655   3.378   1.162
 4944SOL     OW15730   2.125   3.373   2.436
 4944SOL    HW115731   2.153   3.290   2.387
 4944SOL    HW215732   2.130   3.451   2.374
 4945SOL     OW15733   6.792   5.736   4.036
 4945SOL    HW115734   6.748   5.758   3.949
 4945SOL    HW215735   6.874   5.681   4.019
 4946SOL     OW15736   6.746   4.718   2.693
 4946SOL    HW115737   6.723   4.738   2.598
 4946SOL    HW215738   6.822   4.776   2.722
 4947SOL     OW15739   5.806   6.883   0.446
 4947SOL    HW115740   5.810   6.976   0.408
 4947SOL    HW215741   5.751   6.825   0.386
 4948SOL     OW15742   2.570   0.920   1.975
 4948SOL    HW115743   2.569   0.972   1.889
 4948SOL    HW215744   2.559   0.983   2.052
 4949SOL     OW15745   5.677   2.296   5.803
 4949SOL    HW115746   5.650   2.213   5.851
 4949SOL    HW215747   5.652   2.288   5.706
 4950SOL     OW15748   3.742   5.572   3.884
 4950SOL    HW115749   3.810   5.539   3.818
 4950SOL    HW215750   3.734   5.505   3.959
 4951SOL     OW15751   4.496   2.335   3.989
 4951SOL    HW115752   4.512   2.378   4.079
 4951SOL    HW215753   4.498   2.406   3.918
 4952SOL     OW15754   5.808   5.343   4.507
 4952SOL    HW115755   5.796   5.253   4.464
 4952SOL    HW215756   5.905   5.359   4.522
 4953SOL     OW15757   1.184   5.379   1.792
 4953SOL    HW115758   1.196   5.316   1.869
 4953SOL    HW215759   1.093   5.420   1.795
 4954SOL     OW15760   0.390   6.689   5.465
 4954SOL    HW115761   0.399   6.674   5.563
 4954SOL    HW215762   0.478   6.671   5.420
 4955SOL     OW15763   1.417   0.342   1.992
 4955SOL    HW115764   1.374   0.275   1.932
 4955SOL    HW215765   1.459   0.414   1.937
 4956SOL     OW15766   6.081   5.759   2.521
 4956SOL    HW115767   6.046   5.820   2.592
 4956SOL    HW215768   6.022   5.678   2.515
 4957SOL     OW15769   1.353   5.394   4.490
 4957SOL    HW115770   1.409   5.462   4.537
 4957SOL    HW215771   1.393   5.374   4.400
 4958SOL     OW15772   6.591   6.242   0.167
 4958SOL    HW115773   6.659   6.232   0.241
 4958SOL    HW215774   6.614   6.179   0.093
 4959SOL     OW15775   0.804   2.295   0.119
 4959SOL    HW115776   0.835   2.369   0.178
 4959SOL    HW215777   0.705   2.301   0.108
 4960SOL     OW15778   4.242   6.401   5.267
 4960SOL    HW115779   4.256   6.321   5.325
 4960SOL    HW215780   4.312   6.470   5.288
 4961SOL     OW15781   6.045   6.688   5.149
 4961SOL    HW115782   6.075   6.779   5.176
 4961SOL    HW215783   5.967   6.696   5.086
 4962SOL     OW15784   5.999   2.447   2.328
 4962SOL    HW115785   6.090   2.462   2.365
 4962SOL    HW215786   5.983   2.510   2.252
 4963SOL     OW15787   0.767   4.704   2.138
 4963SOL    HW115788   0.672   4.676   2.150
 4963SOL    HW215789   0.808   4.651   2.064
 4964SOL     OW15790   4.099   1.298   4.043
 4964SOL    HW115791   4.067   1.218   3.992
 4964SOL    HW215792   4.195   1.316   4.021
 4965SOL     OW15793   0.107   5.299   5.192
 4965SOL    HW115794   0.086   5.321   5.287
 4965SOL    HW215795   0.182   5.233   5.189
 4966SOL     OW15796   4.940   5.815   6.374
 4966SOL    HW115797   4.968   5.728   6.333
 4966SOL    HW215798   4.920   5.802   6.471
 4967SOL     OW15799   5.425   0.798   6.763
 4967SOL    HW115800   5.437   0.779   6.860
 4967SOL    HW215801   5.327   0.805   6.742
 4968SOL     OW15802   5.527   3.232   7.011
 4968SOL    HW115803   5.464   3.296   6.967
 4968SOL    HW215804   5.573   3.177   6.941
 4969SOL     OW15805   0.782   0.539   1.568
 4969SOL    HW115806   0.766   0.578   1.478
 4969SOL    HW215807   0.703   0.484   1.596
 4970SOL     OW15808   1.968   2.132   6.262
 4970SOL    HW115809   1.995   2.167   6.173
 4970SOL    HW215810   1.944   2.035   6.254
 4971SOL     OW15811   6.674   5.782   3.410
 4971SOL    HW115812   6.700   5.870   3.371
 4971SOL    HW215813   6.643   5.721   3.337
 4972SOL     OW15814   2.197   2.283   4.411
 4972SOL    HW115815   2.248   2.326   4.336
 4972SOL    HW215816   2.125   2.225   4.374
 4973SOL     OW15817   4.287   6.083   2.885
 4973SOL    HW115818   4.349   6.061   2.961
 4973SOL    HW215819   4.199   6.040   2.902
 4974SOL     OW15820   3.802   0.146   6.095
 4974SOL    HW115821   3.879   0.150   6.031
 4974SOL    HW215822   3.725   0.198   6.058
 4975SOL     OW15823   4.090   6.005   6.852
 4975SOL    HW115824   4.025   6.076   6.825
 4975SOL    HW215825   4.108   6.012   6.950
 4976SOL     OW15826   2.841   1.096   5.137
 4976SOL    HW115827   2.867   1.061   5.047
 4976SOL    HW215828   2.837   1.196   5.134
 4977SOL     OW15829   3.790   3.075   1.685
 4977SOL    HW115830   3.714   3.131   1.716
 4977SOL    HW215831   3.865   3.080   1.751
 4978SOL     OW15832   5.980   3.993   6.265
 4978SOL    HW115833   5.903   3.955   6.214
 4978SOL    HW215834   6.065   3.952   6.233
 4979SOL     OW15835   1.403   1.714   3.847
 4979SOL    HW115836   1.346   1.654   3.791
 4979SOL    HW215837   1.393   1.808   3.814
 4980SOL     OW15838   2.489   5.159   2.275
 4980SOL    HW115839   2.530   5.250   2.280
 4980SOL    HW215840   2.394   5.163   2.308
 4981SOL     OW15841   5.429   5.995   5.916
 4981SOL    HW115842   5.443   6.006   6.014
 4981SOL    HW215843   5.418   5.898   5.894
 4982SOL     OW15844   2.851   1.695   6.636
 4982SOL    HW115845   2.883   1.627   6.570
 4982SOL    HW215846   2.879   1.669   6.728
 4983SOL     OW15847   6.960   1.815   4.350
 4983SOL    HW115848   6.932   1.751   4.278
 4983SOL    HW215849   6.882   1.837   4.407
 4984SOL     OW15850   5.349   5.517   4.247
 4984SOL    HW115851   5.263   5.558   4.277
 4984SOL    HW215852   5.340   5.487   4.152
 4985SOL     OW15853   6.222   3.880   1.241
 4985SOL    HW115854   6.213   3.805   1.306
 4985SOL    HW215855   6.139   3.937   1.244
 4986SOL     OW15856   3.383   5.123   3.602
 4986SOL    HW115857   3.393   5.222   3.593
 4986SOL    HW215858   3.395   5.097   3.697
 4987SOL     OW15859   1.716   2.796   0.206
 4987SOL    HW115860   1.726   2.879   0.152
 4987SOL    HW215861   1.755   2.810   0.297
 4988SOL     OW15862   2.107   1.772   4.794
 4988SOL    HW115863   2.141   1.866   4.799
 4988SOL    HW215864   2.140   1.720   4.873
 4989SOL     OW15865   0.038   0.709   1.226
 4989SOL    HW115866   6.969   0.712   1.203
 4989SOL    HW215867   0.063   0.617   1.256
 4990SOL     OW15868   1.999   2.089   6.772
 4990SOL    HW115869   1.905   2.118   6.787
 4990SOL    HW215870   2.056   2.168   6.751
 4991SOL     OW15871   2.840   1.992   5.668
 4991SOL    HW115872   2.914   1.979   5.734
 4991SOL    HW215873   2.783   1.909   5.666
 4992SOL     OW15874   4.640   0.250   4.670
 4992SOL    HW115875   4.575   0.266   4.596
 4992SOL    HW215876   4.646   0.331   4.728
 4993SOL     OW15877   1.196   6.494   4.385
 4993SOL    HW115878   1.288   6.454   4.393
 4993SOL    HW215879   1.204   6.588   4.351
 4994SOL     OW15880   6.918   6.563   2.935
 4994SOL    HW115881   6.835   6.580   2.882
 4994SOL    HW215882   6.898   6.576   3.032
 4995SOL     OW15883   6.272   3.178   4.993
 4995SOL    HW115884   6.258   3.254   4.930
 4995SOL    HW215885   6.246   3.092   4.950
 4996SOL     OW15886   0.765   1.311   3.809
 4996SOL    HW115887   0.689   1.277   3.865
 4996SOL    HW215888   0.765   1.411   3.811
 4997SOL     OW15889   6.584   2.379   3.423
 4997SOL    HW115890   6.551   2.409   3.512
 4997SOL    HW215891   6.606   2.460   3.367
 4998SOL     OW15892   1.072   5.582   5.284
 4998SOL    HW115893   1.092   5.648   5.213
 4998SOL    HW215894   1.156   5.537   5.314
 4999SOL     OW15895   6.651   4.578   1.206
 4999SOL    HW115896   6.659   4.574   1.306
 4999SOL    HW215897   6.580   4.514   1.176
 5000SOL     OW15898   6.138   5.478   3.700
 5000SOL    HW115899   6.220   5.527   3.731
 5000SOL    HW215900   6.128   5.486   3.601
 5001SOL     OW15901   4.824   3.777   5.494
 5001SOL    HW115902   4.828   3.685   5.454
 5001SOL    HW215903   4.783   3.772   5.585
 5002SOL     OW15904   1.359   2.580   1.449
 5002SOL    HW115905   1.269   2.549   1.419
 5002SOL    HW215906   1.348   2.631   1.535
 5003SOL     OW15907   5.593   5.899   4.793
 5003SOL    HW115908   5.602   5.972   4.725
 5003SOL    HW215909   5.635   5.815   4.757
 5004SOL     OW15910   2.211   5.059   6.221
 5004SOL    HW115911   2.189   5.068   6.318
 5004SOL    HW215912   2.271   4.980   6.208
 5005SOL     OW15913   5.116   1.974   6.746
 5005SOL    HW115914   5.170   2.041   6.798
 5005SOL    HW215915   5.142   1.977   6.650
 5006SOL     OW15916   4.340   5.454   1.784
 5006SOL    HW115917   4.310   5.505   1.866
 5006SOL    HW215918   4.263   5.446   1.721
 5007SOL     OW15919   3.564   0.537   4.606
 5007SOL    HW115920   3.591   0.611   4.543
 5007SOL    HW215921   3.619   0.456   4.587
 5008SOL     OW15922   6.160   2.086   4.067
 5008SOL    HW115923   6.066   2.069   4.037
 5008SOL    HW215924   6.218   2.105   3.988
 5009SOL     OW15925   3.463   6.694   2.335
 5009SOL    HW115926   3.440   6.772   2.278
 5009SOL    HW215927   3.544   6.649   2.299
 5010SOL     OW15928   3.224   3.876   6.345
 5010SOL    HW115929   3.310   3.926   6.350
 5010SOL    HW215930   3.152   3.936   6.310
 5011SOL     OW15931   0.723   2.275   5.088
 5011SOL    HW115932   0.740   2.265   5.186
 5011SOL    HW215933   0.656   2.349   5.073
 5012SOL     OW15934   6.126   1.752   6.865
 5012SOL    HW115935   6.087   1.687   6.800
 5012SOL    HW215936   6.201   1.709   6.915
 5013SOL     OW15937   4.957   1.773   5.223
 5013SOL    HW115938   4.870   1.822   5.218
 5013SOL    HW215939   4.962   1.707   5.148
 5014SOL     OW15940   1.202   4.718   6.377
 5014SOL    HW115941   1.190   4.713   6.476
 5014SOL    HW215942   1.112   4.714   6.333
 5015SOL     OW15943   4.781   2.489   4.020
 5015SOL    HW115944   4.700   2.494   4.078
 5015SOL    HW215945   4.791   2.574   3.968
 5016SOL     OW15946   1.797   5.696   1.262
 5016SOL    HW115947   1.758   5.609   1.292
 5016SOL    HW215948   1.879   5.717   1.315
 5017SOL     OW15949   6.849   1.127   1.539
 5017SOL    HW115950   6.930   1.186   1.533
 5017SOL    HW215951   6.857   1.052   1.473
 5018SOL     OW15952   5.782   5.388   4.204
 5018SOL    HW115953   5.796   5.472   4.257
 5018SOL    HW215954   5.861   5.328   4.217
 5019SOL     OW15955   3.090   5.664   4.656
 5019SOL    HW115956   3.089   5.573   4.699
 5019SOL    HW215957   2.997   5.694   4.638
 5020SOL     OW15958   4.974   5.262   0.412
 5020SOL    HW115959   5.023   5.345   0.387
 5020SOL    HW215960   5.034   5.183   0.402
 5021SOL     OW15961   2.776   4.949   5.143
 5021SOL    HW115962   2.738   4.884   5.209
 5021SOL    HW215963   2.869   4.921   5.119
 5022SOL     OW15964   1.466   2.822   6.469
 5022SOL    HW115965   1.398   2.842   6.399
 5022SOL    HW215966   1.556   2.848   6.437
 5023SOL     OW15967   6.345   3.521   3.786
 5023SOL    HW115968   6.410   3.593   3.760
 5023SOL    HW215969   6.382   3.432   3.758
 5024SOL     OW15970   5.069   4.094   5.757
 5024SOL    HW115971   5.112   4.044   5.833
 5024SOL    HW215972   4.970   4.087   5.764
 5025SOL     OW15973   6.266   6.613   5.005
 5025SOL    HW115974   6.328   6.691   4.998
 5025SOL    HW215975   6.179   6.643   5.045
 5026SOL     OW15976   1.050   5.620   2.699
 5026SOL    HW115977   1.105   5.559   2.756
 5026SOL    HW215978   0.976   5.658   2.753
 5027SOL     OW15979   1.125   5.669   3.114
 5027SOL    HW115980   1.027   5.672   3.134
 5027SOL    HW215981   1.141   5.623   3.027
 5028SOL     OW15982   0.506   6.769   2.635
 5028SOL    HW115983   0.437   6.721   2.581
 5028SOL    HW215984   0.465   6.848   2.680
 5029SOL     OW15985   5.797   0.853   3.993
 5029SOL    HW115986   5.752   0.868   3.905
 5029SOL    HW215987   5.727   0.846   4.065
 5030SOL     OW15988   1.419   5.865   0.484
 5030SOL    HW115989   1.345   5.915   0.529
 5030SOL    HW215990   1.501   5.868   0.541
 5031SOL     OW15991   5.212   0.176   6.867
 5031SOL    HW115992   5.144   0.121   6.915
 5031SOL    HW215993   5.240   0.253   6.925
 5032SOL     OW15994   1.644   5.472   2.965
 5032SOL    HW115995   1.630   5.442   3.059
 5032SOL    HW215996   1.706   5.550   2.964
 5033SOL     OW15997   1.443   4.444   4.833
 5033SOL    HW115998   1.437   4.348   4.806
 5033SOL    HW215999   1.520   4.487   4.785
 5034SOL     OW16000   1.016   2.474   5.893
 5034SOL    HW116001   1.105   2.506   5.923
 5034SOL    HW216002   1.025   2.382   5.853
 5035SOL     OW16003   6.966   4.666   0.801
 5035SOL    HW116004   6.913   4.583   0.821
 5035SOL    HW216005   7.014   4.696   0.884
 5036SOL     OW16006   0.834   1.555   2.195
 5036SOL    HW116007   0.838   1.463   2.234
 5036SOL    HW216008   0.744   1.571   2.154
 5037SOL     OW16009   5.519   3.724   0.717
 5037SOL    HW116010   5.451   3.777   0.667
 5037SOL    HW216011   5.473   3.655   0.773
 5038SOL     OW16012   3.062   5.725   5.721
 5038SOL    HW116013   3.080   5.627   5.714
 5038SOL    HW216014   2.963   5.740   5.721
 5039SOL     OW16015   0.822   1.812   3.917
 5039SOL    HW116016   0.855   1.761   3.996
 5039SOL    HW216017   0.755   1.880   3.946
 5040SOL     OW16018   1.968   2.811   6.282
 5040SOL    HW116019   1.966   2.870   6.201
 5040SOL    HW216020   1.922   2.725   6.261
 5041SOL     OW16021   0.632   5.406   0.016
 5041SOL    HW116022   0.607   5.382   0.109
 5041SOL    HW216023   0.630   5.506   0.005
 5042SOL     OW16024   5.859   0.955   6.128
 5042SOL    HW116025   5.871   1.051   6.106
 5042SOL    HW216026   5.804   0.910   6.058
 5043SOL     OW16027   5.599   6.009   3.960
 5043SOL    HW116028   5.615   5.922   3.913
 5043SOL    HW216029   5.685   6.043   3.997
 5044SOL     OW16030   0.318   3.844   2.626
 5044SOL    HW116031   0.333   3.941   2.645
 5044SOL    HW216032   0.219   3.826   2.626
 5045SOL     OW16033   5.239   3.192   5.488
 5045SOL    HW116034   5.209   3.174   5.395
 5045SOL    HW216035   5.249   3.291   5.502
 5046SOL     OW16036   3.817   3.240   5.977
 5046SOL    HW116037   3.909   3.208   5.954
 5046SOL    HW216038   3.776   3.285   5.898
 5047SOL     OW16039   6.634   1.770   1.595
 5047SOL    HW116040   6.712   1.788   1.655
 5047SOL    HW216041   6.575   1.850   1.591
 5048SOL     OW16042   5.605   4.584   6.841
 5048SOL    HW116043   5.687   4.537   6.807
 5048SOL    HW216044   5.619   4.609   6.937
 5049SOL     OW16045   0.780   0.658   0.240
 5049SOL    HW116046   0.835   0.739   0.261
 5049SOL    HW216047   0.816   0.579   0.290
 5050SOL     OW16048   1.185   3.961   1.051
 5050SOL    HW116049   1.141   3.978   1.139
 5050SOL    HW216050   1.243   3.879   1.058
 5051SOL     OW16051   2.298   4.012   5.643
 5051SOL    HW116052   2.319   3.989   5.738
 5051SOL    HW216053   2.369   4.073   5.607
 5052SOL     OW16054   6.474   2.571   1.108
 5052SOL    HW116055   6.419   2.494   1.139
 5052SOL    HW216056   6.445   2.654   1.156
 5053SOL     OW16057   0.688   3.963   1.053
 5053SOL    HW116058   0.784   3.951   1.025
 5053SOL    HW216059   0.660   4.057   1.033
 5054SOL     OW16060   4.645   5.526   4.654
 5054SOL    HW116061   4.576   5.525   4.582
 5054SOL    HW216062   4.606   5.565   4.737
 5055SOL     OW16063   0.844   0.075   4.094
 5055SOL    HW116064   0.799   0.140   4.155
 5055SOL    HW216065   0.926   0.039   4.138
 5056SOL     OW16066   3.004   1.231   6.908
 5056SOL    HW116067   3.078   1.254   6.970
 5056SOL    HW216068   2.916   1.249   6.952
 5057SOL     OW16069   0.441   3.794   3.172
 5057SOL    HW116070   0.361   3.783   3.113
 5057SOL    HW216071   0.487   3.706   3.181
 5058SOL     OW16072   3.773   1.786   6.857
 5058SOL    HW116073   3.733   1.840   6.783
 5058SOL    HW216074   3.872   1.802   6.860
 5059SOL     OW16075   5.251   2.558   2.759
 5059SOL    HW116076   5.260   2.465   2.724
 5059SOL    HW216077   5.154   2.584   2.761
 5060SOL     OW16078   0.453   3.209   5.728
 5060SOL    HW116079   0.402   3.287   5.693
 5060SOL    HW216080   0.507   3.168   5.653
 5061SOL     OW16081   4.349   2.734   6.241
 5061SOL    HW116082   4.310   2.713   6.331
 5061SOL    HW216083   4.284   2.707   6.170
 5062SOL     OW16084   5.387   1.550   3.058
 5062SOL    HW116085   5.469   1.531   3.111
 5062SOL    HW216086   5.413   1.581   2.967
 5063SOL     OW16087   0.334   0.768   0.580
 5063SOL    HW116088   0.346   0.720   0.493
 5063SOL    HW216089   0.421   0.769   0.630
 5064SOL     OW16090   6.895   5.159   0.606
 5064SOL    HW116091   6.875   5.081   0.547
 5064SOL    HW216092   6.815   5.219   0.611
 5065SOL     OW16093   0.717   1.899   2.432
 5065SOL    HW116094   0.650   1.826   2.443
 5065SOL    HW216095   0.792   1.885   2.497
 5066SOL     OW16096   0.904   5.336   3.803
 5066SOL    HW116097   0.932   5.242   3.818
 5066SOL    HW216098   0.932   5.392   3.881
 5067SOL     OW16099   4.162   2.907   0.806
 5067SOL    HW116100   4.101   2.831   0.788
 5067SOL    HW216101   4.257   2.876   0.804
 5068SOL     OW16102   1.385   6.033   0.974
 5068SOL    HW116103   1.443   5.974   1.030
 5068SOL    HW216104   1.439   6.110   0.941
 5069SOL     OW16105   4.134   4.558   6.532
 5069SOL    HW116106   4.102   4.470   6.568
 5069SOL    HW216107   4.129   4.627   6.604
 5070SOL     OW16108   0.825   3.476   6.656
 5070SOL    HW116109   0.798   3.572   6.671
 5070SOL    HW216110   0.751   3.428   6.609
 5071SOL     OW16111   1.558   6.520   3.144
 5071SOL    HW116112   1.530   6.424   3.142
 5071SOL    HW216113   1.480   6.578   3.123
 5072SOL     OW16114   0.893   2.467   2.752
 5072SOL    HW116115   0.919   2.393   2.691
 5072SOL    HW216116   0.973   2.525   2.770
 5073SOL     OW16117   1.990   1.488   4.687
 5073SOL    HW116118   1.967   1.417   4.754
 5073SOL    HW216119   2.012   1.573   4.734
 5074SOL     OW16120   3.491   2.137   1.510
 5074SOL    HW116121   3.458   2.212   1.567
 5074SOL    HW216122   3.519   2.061   1.568
 5075SOL     OW16123   6.077   2.016   6.742
 5075SOL    HW116124   6.107   1.938   6.797
 5075SOL    HW216125   6.155   2.078   6.729
 5076SOL     OW16126   6.960   1.608   6.008
 5076SOL    HW116127   6.934   1.562   6.093
 5076SOL    HW216128   0.029   1.634   6.013
 5077SOL     OW16129   1.118   5.247   4.409
 5077SOL    HW116130   1.147   5.182   4.338
 5077SOL    HW216131   1.191   5.312   4.427
 5078SOL     OW16132   5.659   1.760   2.713
 5078SOL    HW116133   5.673   1.784   2.809
 5078SOL    HW216134   5.738   1.708   2.680
 5079SOL     OW16135   1.717   3.718   6.086
 5079SOL    HW116136   1.783   3.787   6.117
 5079SOL    HW216137   1.765   3.649   6.032
 5080SOL     OW16138   6.624   5.841   6.715
 5080SOL    HW116139   6.555   5.866   6.648
 5080SOL    HW216140   6.585   5.776   6.781
 5081SOL     OW16141   4.056   4.356   6.307
 5081SOL    HW116142   4.110   4.433   6.341
 5081SOL    HW216143   4.102   4.270   6.329
 5082SOL     OW16144   5.695   0.061   3.002
 5082SOL    HW116145   5.619   0.060   3.067
 5082SOL    HW216146   5.746   7.003   3.009
 5083SOL     OW16147   0.117   0.737   3.342
 5083SOL    HW116148   0.211   0.710   3.323
 5083SOL    HW216149   0.054   0.683   3.285
 5084SOL     OW16150   3.665   5.098   5.716
 5084SOL    HW116151   3.666   4.998   5.708
 5084SOL    HW216152   3.754   5.130   5.748
 5085SOL     OW16153   1.028   3.415   6.474
 5085SOL    HW116154   0.967   3.456   6.543
 5085SOL    HW216155   0.988   3.329   6.441
 5086SOL     OW16156   0.801   4.250   2.150
 5086SOL    HW116157   0.882   4.298   2.183
 5086SOL    HW216158   0.802   4.248   2.050
 5087SOL     OW16159   6.474   5.301   1.881
 5087SOL    HW116160   6.402   5.239   1.848
 5087SOL    HW216161   6.559   5.250   1.892
 5088SOL     OW16162   4.651   4.656   2.519
 5088SOL    HW116163   4.683   4.616   2.433
 5088SOL    HW216164   4.665   4.755   2.517
 5089SOL     OW16165   4.176   5.955   6.250
 5089SOL    HW116166   4.100   6.017   6.269
 5089SOL    HW216167   4.222   5.983   6.165
 5090SOL     OW16168   2.292   6.377   4.546
 5090SOL    HW116169   2.269   6.474   4.544
 5090SOL    HW216170   2.208   6.323   4.530
 5091SOL     OW16171   6.141   5.669   4.721
 5091SOL    HW116172   6.215   5.640   4.782
 5091SOL    HW216173   6.113   5.592   4.663
 5092SOL     OW16174   3.291   3.016   4.556
 5092SOL    HW116175   3.318   2.980   4.467
 5092SOL    HW216176   3.193   3.034   4.557
 5093SOL     OW16177   3.297   2.079   3.110
 5093SOL    HW116178   3.261   2.149   3.171
 5093SOL    HW216179   3.330   2.001   3.164
 5094SOL     OW16180   2.252   4.613   4.891
 5094SOL    HW116181   2.206   4.568   4.814
 5094SOL    HW216182   2.313   4.547   4.936
 5095SOL     OW16183   6.025   2.540   3.320
 5095SOL    HW116184   5.952   2.478   3.291
 5095SOL    HW216185   6.003   2.577   3.411
 5096SOL     OW16186   6.515   3.157   5.097
 5096SOL    HW116187   6.572   3.230   5.059
 5096SOL    HW216188   6.425   3.160   5.054
 5097SOL     OW16189   0.877   0.207   5.974
 5097SOL    HW116190   0.868   0.208   5.874
 5097SOL    HW216191   0.960   0.256   6.001
 5098SOL     OW16192   2.762   1.859   0.495
 5098SOL    HW116193   2.729   1.924   0.564
 5098SOL    HW216194   2.769   1.768   0.536
 5099SOL     OW16195   1.741   5.428   1.740
 5099SOL    HW116196   1.687   5.464   1.816
 5099SOL    HW216197   1.793   5.349   1.770
 5100SOL     OW16198   0.190   3.461   1.512
 5100SOL    HW116199   0.176   3.533   1.580
 5100SOL    HW216200   0.255   3.393   1.548
 5101SOL     OW16201   4.745   2.018   6.012
 5101SOL    HW116202   4.694   2.081   5.953
 5101SOL    HW216203   4.712   2.027   6.106
 5102SOL     OW16204   5.870   4.717   5.026
 5102SOL    HW116205   5.886   4.746   5.121
 5102SOL    HW216206   5.807   4.782   4.982
 5103SOL     OW16207   0.500   0.063   5.119
 5103SOL    HW116208   0.457   0.084   5.031
 5103SOL    HW216209   0.535   6.997   5.118
 5104SOL     OW16210   3.630   2.918   3.891
 5104SOL    HW116211   3.667   2.888   3.804
 5104SOL    HW216212   3.557   2.855   3.919
 5105SOL     OW16213   4.657   2.213   6.547
 5105SOL    HW116214   4.705   2.184   6.630
 5105SOL    HW216215   4.560   2.229   6.569
 5106SOL     OW16216   4.043   0.502   0.994
 5106SOL    HW116217   4.079   0.523   0.903
 5106SOL    HW216218   3.952   0.464   0.986
 5107SOL     OW16219   6.409   4.129   0.345
 5107SOL    HW116220   6.392   4.207   0.405
 5107SOL    HW216221   6.504   4.098   0.356
 5108SOL     OW16222   4.437   4.262   0.350
 5108SOL    HW116223   4.373   4.302   0.284
 5108SOL    HW216224   4.517   4.228   0.301
 5109SOL     OW16225   0.912   2.638   2.212
 5109SOL    HW116226   0.855   2.645   2.129
 5109SOL    HW216227   0.863   2.584   2.280
 5110SOL     OW16228   3.675   6.947   4.830
 5110SOL    HW116229   3.693   6.854   4.796
 5110SOL    HW216230   3.737   7.011   4.785
 5111SOL     OW16231   2.412   6.488   6.411
 5111SOL    HW116232   2.357   6.559   6.366
 5111SOL    HW216233   2.508   6.515   6.409
 5112SOL     OW16234   0.903   3.508   2.468
 5112SOL    HW116235   0.982   3.566   2.490
 5112SOL    HW216236   0.895   3.499   2.369
 5113SOL     OW16237   3.029   4.885   1.407
 5113SOL    HW116238   3.034   4.890   1.507
 5113SOL    HW216239   2.950   4.830   1.380
 5114SOL     OW16240   4.877   4.150   1.012
 5114SOL    HW116241   4.779   4.156   0.992
 5114SOL    HW216242   4.896   4.192   1.100
 5115SOL     OW16243   1.634   3.861   0.235
 5115SOL    HW116244   1.603   3.887   0.327
 5115SOL    HW216245   1.573   3.902   0.167
 5116SOL     OW16246   0.911   6.031   5.889
 5116SOL    HW116247   0.853   6.029   5.970
 5116SOL    HW216248   0.938   6.125   5.869
 5117SOL     OW16249   0.631   3.886   4.189
 5117SOL    HW116250   0.723   3.849   4.196
 5117SOL    HW216251   0.566   3.813   4.169
 5118SOL     OW16252   4.903   5.305   0.919
 5118SOL    HW116253   4.982   5.327   0.862
 5118SOL    HW216254   4.888   5.206   0.918
 5119SOL     OW16255   5.277   1.318   6.825
 5119SOL    HW116256   5.228   1.248   6.772
 5119SOL    HW216257   5.375   1.312   6.804
 5120SOL     OW16258   5.312   6.110   0.132
 5120SOL    HW116259   5.386   6.091   0.068
 5120SOL    HW216260   5.244   6.037   0.127
 5121SOL     OW16261   2.282   3.722   6.878
 5121SOL    HW116262   2.286   3.654   6.951
 5121SOL    HW216263   2.228   3.801   6.908
 5122SOL     OW16264   5.385   5.647   3.316
 5122SOL    HW116265   5.479   5.682   3.325
 5122SOL    HW216266   5.388   5.547   3.309
 5123SOL     OW16267   4.493   2.256   1.657
 5123SOL    HW116268   4.593   2.250   1.663
 5123SOL    HW216269   4.453   2.167   1.678
 5124SOL     OW16270   0.415   6.233   4.175
 5124SOL    HW116271   0.445   6.138   4.171
 5124SOL    HW216272   0.472   6.283   4.241
 5125SOL     OW16273   4.938   3.087   3.957
 5125SOL    HW116274   5.036   3.072   3.945
 5125SOL    HW216275   4.915   3.077   4.054
 5126SOL     OW16276   3.135   0.872   2.575
 5126SOL    HW116277   3.115   0.791   2.521
 5126SOL    HW216278   3.181   0.846   2.660
 5127SOL     OW16279   2.071   5.912   1.050
 5127SOL    HW116280   2.130   5.967   0.991
 5127SOL    HW216281   2.126   5.843   1.097
 5128SOL     OW16282   3.884   0.370   2.023
 5128SOL    HW116283   3.820   0.439   2.055
 5128SOL    HW216284   3.842   0.279   2.031
 5129SOL     OW16285   5.905   5.758   0.176
 5129SOL    HW116286   5.976   5.823   0.150
 5129SOL    HW216287   5.894   5.758   0.275
 5130SOL     OW16288   5.874   4.907   2.187
 5130SOL    HW116289   5.902   4.819   2.148
 5130SOL    HW216290   5.847   4.968   2.113
 5131SOL     OW16291   1.944   2.140   2.122
 5131SOL    HW116292   1.971   2.044   2.118
 5131SOL    HW216293   1.902   2.167   2.035
 5132SOL     OW16294   2.687   6.481   6.379
 5132SOL    HW116295   2.748   6.534   6.319
 5132SOL    HW216296   2.715   6.386   6.378
 5133SOL     OW16297   4.214   5.295   5.041
 5133SOL    HW116298   4.210   5.214   4.982
 5133SOL    HW216299   4.135   5.296   5.102
 5134SOL     OW16300   0.530   2.962   6.938
 5134SOL    HW116301   0.508   2.998   0.001
 5134SOL    HW216302   0.453   2.910   6.902
 5135SOL     OW16303   5.890   1.680   2.588
 5135SOL    HW116304   5.919   1.659   2.495
 5135SOL    HW216305   5.962   1.654   2.653
 5136SOL     OW16306   3.496   1.735   6.987
 5136SOL    HW116307   3.454   1.657   0.005
 5136SOL    HW216308   3.593   1.718   6.974
 5137SOL     OW16309   4.086   3.642   0.200
 5137SOL    HW116310   4.097   3.631   0.102
 5137SOL    HW216311   4.107   3.737   0.225
 5138SOL     OW16312   2.714   2.485   6.098
 5138SOL    HW116313   2.675   2.449   6.014
 5138SOL    HW216314   2.651   2.553   6.137
 5139SOL     OW16315   0.351   6.821   3.818
 5139SOL    HW116316   0.359   6.892   3.748
 5139SOL    HW216317   0.411   6.842   3.894
 5140SOL     OW16318   3.322   3.498   2.692
 5140SOL    HW116319   3.265   3.498   2.775
 5140SOL    HW216320   3.285   3.565   2.627
 5141SOL     OW16321   1.615   3.134   5.224
 5141SOL    HW116322   1.680   3.181   5.164
 5141SOL    HW216323   1.660   3.055   5.266
 5142SOL     OW16324   5.101   3.131   1.120
 5142SOL    HW116325   5.005   3.114   1.097
 5142SOL    HW216326   5.130   3.069   1.192
 5143SOL     OW16327   6.893   5.131   6.502
 5143SOL    HW116328   6.937   5.065   6.564
 5143SOL    HW216329   6.795   5.112   6.498
 5144SOL     OW16330   2.174   1.202   5.198
 5144SOL    HW116331   2.245   1.264   5.165
 5144SOL    HW216332   2.190   1.110   5.163
 5145SOL     OW16333   3.501   4.856   6.548
 5145SOL    HW116334   3.566   4.829   6.619
 5145SOL    HW216335   3.509   4.795   6.470
 5146SOL     OW16336   3.626   5.564   1.064
 5146SOL    HW116337   3.533   5.597   1.045
 5146SOL    HW216338   3.636   5.549   1.163
 5147SOL     OW16339   0.441   5.850   5.847
 5147SOL    HW116340   0.443   5.778   5.777
 5147SOL    HW216341   0.512   5.918   5.827
 5148SOL     OW16342   0.180   0.724   1.531
 5148SOL    HW116343   0.138   0.707   1.620
 5148SOL    HW216344   0.134   0.800   1.486
 5149SOL     OW16345   6.432   0.350   4.802
 5149SOL    HW116346   6.487   0.287   4.747
 5149SOL    HW216347   6.381   0.411   4.742
 5150SOL     OW16348   2.619   5.124   5.855
 5150SOL    HW116349   2.576   5.209   5.884
 5150SOL    HW216350   2.551   5.050   5.857
 5151SOL     OW16351   5.368   6.770   5.981
 5151SOL    HW116352   5.375   6.729   5.890
 5151SOL    HW216353   5.313   6.853   5.976
 5152SOL     OW16354   0.325   4.825   6.451
 5152SOL    HW116355   0.279   4.904   6.410
 5152SOL    HW216356   0.376   4.855   6.532
 5153SOL     OW16357   2.974   3.069   1.179
 5153SOL    HW116358   2.999   2.995   1.115
 5153SOL    HW216359   2.876   3.067   1.195
 5154SOL     OW16360   1.420   3.746   5.295
 5154SOL    HW116361   1.380   3.826   5.251
 5154SOL    HW216362   1.380   3.735   5.386
 5155SOL     OW16363   4.232   0.754   2.320
 5155SOL    HW116364   4.147   0.748   2.267
 5155SOL    HW216365   4.250   0.666   2.364
 5156SOL     OW16366   5.510   3.603   5.592
 5156SOL    HW116367   5.533   3.594   5.689
 5156SOL    HW216368   5.452   3.683   5.579
 5157SOL     OW16369   6.996   2.790   3.982
 5157SOL    HW116370   0.004   2.750   3.898
 5157SOL    HW216371   7.018   2.888   3.984
 5158SOL     OW16372   3.686   0.879   1.900
 5158SOL    HW116373   3.702   0.886   1.999
 5158SOL    HW216374   3.605   0.933   1.876
 5159SOL     OW16375   1.697   3.811   4.923
 5159SOL    HW116376   1.616   3.792   4.978
 5159SOL    HW216377   1.765   3.739   4.938
 5160SOL     OW16378   2.366   2.321   3.006
 5160SOL    HW116379   2.302   2.309   3.081
 5160SOL    HW216380   2.442   2.256   3.016
 5161SOL     OW16381   1.403   2.121   0.050
 5161SOL    HW116382   1.391   2.214   0.087
 5161SOL    HW216383   1.426   2.126   6.981
 5162SOL     OW16384   6.353   5.774   4.981
 5162SOL    HW116385   6.262   5.764   5.019
 5162SOL    HW216386   6.356   5.853   4.920
 5163SOL     OW16387   6.232   3.554   1.022
 5163SOL    HW116388   6.307   3.612   0.989
 5163SOL    HW216389   6.269   3.480   1.078
 5164SOL     OW16390   6.750   6.407   5.245
 5164SOL    HW116391   6.814   6.386   5.319
 5164SOL    HW216392   6.801   6.415   5.159
 5165SOL     OW16393   5.943   4.480   4.912
 5165SOL    HW116394   5.849   4.459   4.883
 5165SOL    HW216395   5.942   4.561   4.971
 5166SOL     OW16396   0.121   0.665   2.909
 5166SOL    HW116397   0.092   0.607   2.832
 5166SOL    HW216398   0.054   0.659   2.983
 5167SOL     OW16399   2.230   0.169   4.771
 5167SOL    HW116400   2.146   0.170   4.825
 5167SOL    HW216401   2.208   0.155   4.675
 5168SOL     OW16402   3.274   1.440   2.081
 5168SOL    HW116403   3.283   1.351   2.037
 5168SOL    HW216404   3.250   1.509   2.012
 5169SOL     OW16405   3.415   5.831   6.505
 5169SOL    HW116406   3.457   5.890   6.574
 5169SOL    HW216407   3.317   5.850   6.500
 5170SOL     OW16408   3.944   4.998   4.655
 5170SOL    HW116409   3.882   5.009   4.732
 5170SOL    HW216410   4.038   5.015   4.685
 5171SOL     OW16411   2.410   4.298   5.813
 5171SOL    HW116412   2.456   4.297   5.902
 5171SOL    HW216413   2.447   4.225   5.755
 5172SOL     OW16414   1.822   3.230   6.273
 5172SOL    HW116415   1.893   3.208   6.207
 5172SOL    HW216416   1.734   3.241   6.226
 5173SOL     OW16417   0.790   2.123   4.866
 5173SOL    HW116418   0.885   2.151   4.851
 5173SOL    HW216419   0.750   2.178   4.939
 5174SOL     OW16420   2.937   4.972   6.786
 5174SOL    HW116421   2.994   4.977   6.704
 5174SOL    HW216422   2.965   5.044   6.850
 5175SOL     OW16423   1.116   5.363   0.209
 5175SOL    HW116424   1.203   5.391   0.170
 5175SOL    HW216425   1.132   5.292   0.278
 5176SOL     OW16426   5.963   3.448   6.661
 5176SOL    HW116427   5.971   3.398   6.575
 5176SOL    HW216428   5.900   3.401   6.722
 5177SOL     OW16429   4.766   5.162   0.175
 5177SOL    HW116430   4.827   5.091   0.210
 5177SOL    HW216431   4.798   5.252   0.204
 5178SOL     OW16432   3.283   4.627   0.606
 5178SOL    HW116433   3.262   4.665   0.516
 5178SOL    HW216434   3.198   4.612   0.656
 5179SOL     OW16435   2.648   5.878   5.514
 5179SOL    HW116436   2.586   5.819   5.565
 5179SOL    HW216437   2.598   5.957   5.477
 5180SOL     OW16438   5.068   1.727   5.901
 5180SOL    HW116439   5.137   1.661   5.871
 5180SOL    HW216440   5.103   1.778   5.979
 5181SOL     OW16441   2.705   6.436   2.890
 5181SOL    HW116442   2.786   6.384   2.862
 5181SOL    HW216443   2.624   6.398   2.846
 5182SOL     OW16444   4.751   3.884   0.808
 5182SOL    HW116445   4.690   3.959   0.835
 5182SOL    HW216446   4.697   3.811   0.765
 5183SOL     OW16447   2.828   1.202   3.081
 5183SOL    HW116448   2.769   1.160   3.150
 5183SOL    HW216449   2.785   1.285   3.046
 5184SOL     OW16450   0.743   2.088   3.327
 5184SOL    HW116451   0.739   2.168   3.267
 5184SOL    HW216452   0.815   2.026   3.295
 5185SOL     OW16453   4.812   0.842   1.952
 5185SOL    HW116454   4.875   0.766   1.935
 5185SOL    HW216455   4.723   0.821   1.911
 5186SOL     OW16456   5.381   3.443   6.844
 5186SOL    HW116457   5.321   3.485   6.911
 5186SOL    HW216458   5.463   3.499   6.833
 5187SOL     OW16459   4.759   4.467   4.590
 5187SOL    HW116460   4.780   4.533   4.663
 5187SOL    HW216461   4.762   4.374   4.627
 5188SOL     OW16462   0.978   0.702   3.242
 5188SOL    HW116463   0.887   0.744   3.246
 5188SOL    HW216464   1.014   0.691   3.335
 5189SOL     OW16465   4.840   5.478   5.708
 5189SOL    HW116466   4.748   5.475   5.669
 5189SOL    HW216467   4.836   5.514   5.801
 5190SOL     OW16468   1.658   1.610   2.456
 5190SOL    HW116469   1.718   1.642   2.383
 5190SOL    HW216470   1.698   1.530   2.500
 5191SOL     OW16471   5.088   1.442   2.431
 5191SOL    HW116472   5.175   1.486   2.411
 5191SOL    HW216473   5.078   1.359   2.376
 5192SOL     OW16474   6.508   4.062   2.479
 5192SOL    HW116475   6.468   4.144   2.518
 5192SOL    HW216476   6.606   4.076   2.466
 5193SOL     OW16477   3.801   4.901   3.206
 5193SOL    HW116478   3.845   4.870   3.290
 5193SOL    HW216479   3.861   4.881   3.128
 5194SOL     OW16480   5.430   0.423   0.368
 5194SOL    HW116481   5.415   0.364   0.288
 5194SOL    HW216482   5.345   0.430   0.420
 5195SOL     OW16483   0.305   4.904   5.284
 5195SOL    HW116484   0.222   4.850   5.273
 5195SOL    HW216485   0.369   4.856   5.345
 5196SOL     OW16486   1.639   3.314   3.242
 5196SOL    HW116487   1.558   3.312   3.300
 5196SOL    HW216488   1.673   3.221   3.230
 5197SOL     OW16489   3.024   6.439   5.503
 5197SOL    HW116490   3.089   6.433   5.427
 5197SOL    HW216491   3.069   6.482   5.581
 5198SOL     OW16492   4.599   1.352   6.469
 5198SOL    HW116493   4.518   1.333   6.414
 5198SOL    HW216494   4.614   1.450   6.474
 5199SOL     OW16495   0.800   6.503   3.734
 5199SOL    HW116496   0.818   6.410   3.766
 5199SOL    HW216497   0.701   6.520   3.734
 5200SOL     OW16498   5.899   6.467   5.918
 5200SOL    HW116499   5.959   6.397   5.880
 5200SOL    HW216500   5.803   6.444   5.898
 5201SOL     OW16501   6.932   3.740   5.410
 5201SOL    HW116502   7.017   3.753   5.460
 5201SOL    HW216503   6.875   3.673   5.458
 5202SOL     OW16504   3.548   3.136   5.999
 5202SOL    HW116505   3.526   3.069   5.928
 5202SOL    HW216506   3.620   3.197   5.965
 5203SOL     OW16507   0.097   6.809   5.003
 5203SOL    HW116508   0.052   6.896   5.024
 5203SOL    HW216509   0.029   6.743   4.971
 5204SOL     OW16510   1.950   0.392   2.126
 5204SOL    HW116511   1.859   0.429   2.147
 5204SOL    HW216512   1.944   0.333   2.045
 5205SOL     OW16513   5.826   6.883   1.538
 5205SOL    HW116514   5.770   6.929   1.607
 5205SOL    HW216515   5.915   6.862   1.577
 5206SOL     OW16516   1.122   4.670   4.923
 5206SOL    HW116517   1.147   4.763   4.953
 5206SOL    HW216518   1.081   4.621   5.000
 5207SOL     OW16519   4.691   1.754   4.815
 5207SOL    HW116520   4.602   1.800   4.815
 5207SOL    HW216521   4.754   1.803   4.755
 5208SOL     OW16522   6.924   1.304   0.718
 5208SOL    HW116523   6.905   1.401   0.701
 5208SOL    HW216524   6.843   1.250   0.695
 5209SOL     OW16525   4.403   5.729   2.858
 5209SOL    HW116526   4.315   5.683   2.845
 5209SOL    HW216527   4.442   5.754   2.769
 5210SOL     OW16528   6.452   3.943   2.189
 5210SOL    HW116529   6.476   3.995   2.271
 5210SOL    HW216530   6.392   3.998   2.131
 5211SOL     OW16531   4.974   3.084   4.676
 5211SOL    HW116532   4.979   3.017   4.602
 5211SOL    HW216533   4.948   3.037   4.761
 5212SOL     OW16534   6.698   4.082   0.371
 5212SOL    HW116535   6.710   4.025   0.290
 5212SOL    HW216536   6.706   4.179   0.345
 5213SOL     OW16537   3.051   3.052   4.369
 5213SOL    HW116538   2.953   3.042   4.387
 5213SOL    HW216539   3.073   3.149   4.362
 5214SOL     OW16540   6.008   3.250   5.125
 5214SOL    HW116541   6.107   3.243   5.113
 5214SOL    HW216542   5.963   3.175   5.076
 5215SOL     OW16543   0.508   4.334   5.163
 5215SOL    HW116544   0.500   4.392   5.244
 5215SOL    HW216545   0.435   4.265   5.164
 5216SOL     OW16546   0.377   4.025   0.046
 5216SOL    HW116547   0.279   4.008   0.034
 5216SOL    HW216548   0.390   4.105   0.104
 5217SOL     OW16549   3.088   0.700   1.833
 5217SOL    HW116550   3.178   0.693   1.788
 5217SOL    HW216551   3.092   0.653   1.921
 5218SOL     OW16552   6.548   6.520   0.394
 5218SOL    HW116553   6.550   6.594   0.326
 5218SOL    HW216554   6.504   6.439   0.354
 5219SOL     OW16555   4.033   1.990   4.385
 5219SOL    HW116556   3.954   2.028   4.433
 5219SOL    HW216557   4.104   2.060   4.377
 5220SOL     OW16558   2.469   4.554   4.655
 5220SOL    HW116559   2.471   4.568   4.754
 5220SOL    HW216560   2.547   4.600   4.613
 5221SOL     OW16561   4.077   0.132   0.542
 5221SOL    HW116562   4.065   0.061   0.612
 5221SOL    HW216563   4.175   0.153   0.533
 5222SOL     OW16564   5.522   2.026   1.864
 5222SOL    HW116565   5.472   2.102   1.907
 5222SOL    HW216566   5.581   1.983   1.933
 5223SOL     OW16567   0.169   1.311   0.671
 5223SOL    HW116568   0.069   1.304   0.672
 5223SOL    HW216569   0.206   1.254   0.598
 5224SOL     OW16570   2.514   1.395   4.636
 5224SOL    HW116571   2.466   1.472   4.592
 5224SOL    HW216572   2.497   1.398   4.734
 5225SOL     OW16573   6.745   3.813   5.987
 5225SOL    HW116574   6.788   3.812   5.896
 5225SOL    HW216575   6.788   3.884   6.043
 5226SOL     OW16576   0.533   0.437   4.060
 5226SOL    HW116577   0.550   0.507   4.130
 5226SOL    HW216578   0.488   0.479   3.981
 5227SOL     OW16579   3.035   2.777   6.505
 5227SOL    HW116580   3.035   2.876   6.514
 5227SOL    HW216581   3.001   2.736   6.590
 5228SOL     OW16582   0.314   2.331   6.002
 5228SOL    HW116583   0.215   2.340   5.999
 5228SOL    HW216584   0.352   2.353   5.912
 5229SOL     OW16585   3.794   1.881   1.487
 5229SOL    HW116586   3.834   1.964   1.449
 5229SOL    HW216587   3.867   1.818   1.513
 5230SOL     OW16588   5.879   0.802   2.296
 5230SOL    HW116589   5.849   0.713   2.330
 5230SOL    HW216590   5.870   0.803   2.196
 5231SOL     OW16591   6.762   4.063   2.431
 5231SOL    HW116592   6.756   4.127   2.355
 5231SOL    HW216593   6.799   3.976   2.398
 5232SOL     OW16594   2.337   1.432   6.129
 5232SOL    HW116595   2.251   1.457   6.084
 5232SOL    HW216596   2.413   1.481   6.087
 5233SOL     OW16597   2.235   6.843   3.880
 5233SOL    HW116598   2.298   6.866   3.806
 5233SOL    HW216599   2.238   6.915   3.950
 5234SOL     OW16600   3.755   2.532   6.138
 5234SOL    HW116601   3.677   2.509   6.196
 5234SOL    HW216602   3.838   2.541   6.194
 5235SOL     OW16603   2.448   2.789   1.716
 5235SOL    HW116604   2.371   2.768   1.656
 5235SOL    HW216605   2.413   2.823   1.804
 5236SOL     OW16606   2.670   5.263   1.966
 5236SOL    HW116607   2.724   5.341   1.998
 5236SOL    HW216608   2.719   5.178   1.985
 5237SOL     OW16609   0.879   1.394   1.447
 5237SOL    HW116610   0.807   1.332   1.416
 5237SOL    HW216611   0.880   1.476   1.389
 5238SOL     OW16612   5.922   1.285   3.145
 5238SOL    HW116613   5.891   1.207   3.091
 5238SOL    HW216614   5.867   1.293   3.228
 5239SOL     OW16615   2.537   3.439   0.047
 5239SOL    HW116616   2.536   3.339   0.055
 5239SOL    HW216617   2.443   3.472   0.033
 5240SOL     OW16618   1.856   3.309   4.865
 5240SOL    HW116619   1.758   3.307   4.845
 5240SOL    HW216620   1.903   3.360   4.793
 5241SOL     OW16621   2.342   4.902   2.731
 5241SOL    HW116622   2.405   4.939   2.663
 5241SOL    HW216623   2.279   4.973   2.762
 5242SOL     OW16624   4.650   6.217   5.808
 5242SOL    HW116625   4.701   6.214   5.722
 5242SOL    HW216626   4.622   6.124   5.833
 5243SOL     OW16627   2.501   5.378   4.064
 5243SOL    HW116628   2.595   5.403   4.042
 5243SOL    HW216629   2.498   5.335   4.154
 5244SOL     OW16630   5.885   6.627   6.646
 5244SOL    HW116631   5.930   6.716   6.645
 5244SOL    HW216632   5.925   6.569   6.574
 5245SOL     OW16633   3.159   4.067   2.000
 5245SOL    HW116634   3.073   4.117   2.003
 5245SOL    HW216635   3.183   4.046   1.905
 5246SOL     OW16636   6.598   2.912   5.481
 5246SOL    HW116637   6.548   2.991   5.446
 5246SOL    HW216638   6.559   2.828   5.443
 5247SOL     OW16639   4.687   1.366   4.698
 5247SOL    HW116640   4.714   1.393   4.790
 5247SOL    HW216641   4.727   1.277   4.676
 5248SOL     OW16642   4.389   1.357   2.364
 5248SOL    HW116643   4.319   1.294   2.330
 5248SOL    HW216644   4.369   1.449   2.330
 5249SOL     OW16645   0.860   5.335   2.273
 5249SOL    HW116646   0.854   5.394   2.353
 5249SOL    HW216647   0.768   5.315   2.239
 5250SOL     OW16648   1.362   5.096   6.963
 5250SOL    HW116649   1.311   5.049   6.890
 5250SOL    HW216650   1.443   5.140   6.924
 5251SOL     OW16651   2.408   4.095   6.581
 5251SOL    HW116652   2.411   4.073   6.678
 5251SOL    HW216653   2.476   4.166   6.561
 5252SOL     OW16654   4.008   5.666   4.020
 5252SOL    HW116655   4.043   5.573   4.009
 5252SOL    HW216656   3.940   5.684   3.950
 5253SOL     OW16657   0.477   6.504   3.495
 5253SOL    HW116658   0.491   6.527   3.591
 5253SOL    HW216659   0.498   6.583   3.438
 5254SOL     OW16660   4.465   6.386   2.092
 5254SOL    HW116661   4.523   6.455   2.135
 5254SOL    HW216662   4.414   6.428   2.017
 5255SOL     OW16663   0.631   1.573   6.286
 5255SOL    HW116664   0.631   1.520   6.201
 5255SOL    HW216665   0.683   1.524   6.356
 5256SOL     OW16666   3.755   1.630   2.667
 5256SOL    HW116667   3.746   1.535   2.698
 5256SOL    HW216668   3.707   1.642   2.580
 5257SOL     OW16669   5.908   0.988   6.890
 5257SOL    HW116670   5.813   1.016   6.884
 5257SOL    HW216671   5.952   1.036   6.967
 5258SOL     OW16672   5.731   2.186   5.353
 5258SOL    HW116673   5.811   2.221   5.403
 5258SOL    HW216674   5.752   2.097   5.314
 5259SOL     OW16675   4.669   6.426   4.628
 5259SOL    HW116676   4.702   6.351   4.685
 5259SOL    HW216677   4.725   6.432   4.546
 5260SOL     OW16678   1.806   0.003   2.372
 5260SOL    HW116679   1.838   6.956   2.430
 5260SOL    HW216680   1.884   0.049   2.331
 5261SOL     OW16681   6.976   5.106   0.135
 5261SOL    HW116682   7.027   5.149   0.061
 5261SOL    HW216683   7.024   5.023   0.164
 5262SOL     OW16684   1.272   2.106   1.850
 5262SOL    HW116685   1.210   2.064   1.916
 5262SOL    HW216686   1.356   2.052   1.842
 5263SOL     OW16687   7.012   6.212   1.894
 5263SOL    HW116688   0.006   6.170   1.982
 5263SOL    HW216689   6.945   6.286   1.908
 5264SOL     OW16690   5.755   2.577   2.849
 5264SOL    HW116691   5.802   2.570   2.761
 5264SOL    HW216692   5.771   2.495   2.903
 5265SOL     OW16693   1.417   5.950   5.978
 5265SOL    HW116694   1.398   6.046   5.955
 5265SOL    HW216695   1.475   5.947   6.060
 5266SOL     OW16696   0.752   0.217   6.833
 5266SOL    HW116697   0.719   0.162   6.756
 5266SOL    HW216698   0.826   0.168   6.879
 5267SOL     OW16699   6.504   1.187   4.707
 5267SOL    HW116700   6.497   1.090   4.685
 5267SOL    HW216701   6.590   1.223   4.672
 5268SOL     OW16702   5.672   0.415   5.005
 5268SOL    HW116703   5.694   0.510   5.027
 5268SOL    HW216704   5.577   0.396   5.030
 5269SOL     OW16705   1.731   0.460   4.082
 5269SOL    HW116706   1.817   0.415   4.056
 5269SOL    HW216707   1.733   0.555   4.052
 5270SOL     OW16708   1.597   1.744   6.274
 5270SOL    HW116709   1.670   1.793   6.226
 5270SOL    HW216710   1.636   1.689   6.348
 5271SOL     OW16711   1.447   6.956   5.965
 5271SOL    HW116712   1.433   6.944   5.867
 5271SOL    HW216713   1.360   6.944   6.012
 5272SOL     OW16714   4.224   0.050   5.939
 5272SOL    HW116715   4.258   0.069   6.031
 5272SOL    HW216716   4.218   6.979   5.926
 5273SOL     OW16717   1.857   1.554   3.311
 5273SOL    HW116718   1.759   1.556   3.291
 5273SOL    HW216719   1.871   1.540   3.409
 5274SOL     OW16720   6.383   4.612   1.518
 5274SOL    HW116721   6.448   4.540   1.545
 5274SOL    HW216722   6.300   4.570   1.482
 5275SOL     OW16723   5.728   6.868   6.398
 5275SOL    HW116724   5.669   6.947   6.381
 5275SOL    HW216725   5.801   6.893   6.461
 5276SOL     OW16726   2.524   6.530   1.396
 5276SOL    HW116727   2.619   6.499   1.387
 5276SOL    HW216728   2.497   6.579   1.313
 5277SOL     OW16729   1.599   2.918   1.479
 5277SOL    HW116730   1.587   2.822   1.457
 5277SOL    HW216731   1.552   2.938   1.565
 5278SOL     OW16732   3.991   3.361   5.083
 5278SOL    HW116733   4.073   3.380   5.029
 5278SOL    HW216734   4.014   3.300   5.158
 5279SOL     OW16735   1.516   0.110   2.934
 5279SOL    HW116736   1.536   0.032   2.993
 5279SOL    HW216737   1.424   0.144   2.953
 5280SOL     OW16738   3.800   0.736   3.470
 5280SOL    HW116739   3.834   0.643   3.485
 5280SOL    HW216740   3.854   0.779   3.398
 5281SOL     OW16741   6.899   2.987   3.563
 5281SOL    HW116742   6.871   3.011   3.470
 5281SOL    HW216743   6.982   3.037   3.587
 5282SOL     OW16744   4.904   2.167   1.471
 5282SOL    HW116745   4.982   2.137   1.525
 5282SOL    HW216746   4.875   2.093   1.409
 5283SOL     OW16747   5.742   4.986   5.279
 5283SOL    HW116748   5.697   4.908   5.322
 5283SOL    HW216749   5.682   5.025   5.209
 5284SOL     OW16750   5.653   2.804   3.828
 5284SOL    HW116751   5.671   2.738   3.755
 5284SOL    HW216752   5.737   2.854   3.850
 5285SOL     OW16753   4.554   4.976   2.333
 5285SOL    HW116754   4.454   4.983   2.336
 5285SOL    HW216755   4.593   5.065   2.310
 5286SOL     OW16756   1.741   4.720   2.171
 5286SOL    HW116757   1.649   4.759   2.173
 5286SOL    HW216758   1.749   4.656   2.095
 5287SOL     OW16759   6.787   0.893   3.082
 5287SOL    HW116760   6.708   0.944   3.116
 5287SOL    HW216761   6.870   0.930   3.124
 5288SOL     OW16762   4.030   0.733   0.320
 5288SOL    HW116763   3.994   0.643   0.345
 5288SOL    HW216764   4.087   0.768   0.394
 5289SOL     OW16765   1.708   0.281   1.629
 5289SOL    HW116766   1.767   0.209   1.593
 5289SOL    HW216767   1.740   0.370   1.598
 5290SOL     OW16768   5.508   6.676   6.414
 5290SOL    HW116769   5.565   6.752   6.386
 5290SOL    HW216770   5.416   6.687   6.377
 5291SOL     OW16771   1.115   4.918   0.925
 5291SOL    HW116772   1.162   4.983   0.985
 5291SOL    HW216773   1.179   4.845   0.898
 5292SOL     OW16774   5.638   1.228   1.145
 5292SOL    HW116775   5.593   1.158   1.090
 5292SOL    HW216776   5.737   1.219   1.137
 5293SOL     OW16777   1.836   1.206   3.666
 5293SOL    HW116778   1.745   1.248   3.673
 5293SOL    HW216779   1.850   1.145   3.743
 5294SOL     OW16780   3.554   2.163   6.876
 5294SOL    HW116781   3.642   2.178   6.922
 5294SOL    HW216782   3.568   2.156   6.778
 5295SOL     OW16783   6.749   2.320   3.763
 5295SOL    HW116784   6.792   2.268   3.689
 5295SOL    HW216785   6.723   2.257   3.837
 5296SOL     OW16786   0.466   4.287   6.427
 5296SOL    HW116787   0.565   4.287   6.439
 5296SOL    HW216788   0.424   4.344   6.499
 5297SOL     OW16789   0.992   2.217   2.111
 5297SOL    HW116790   0.929   2.262   2.176
 5297SOL    HW216791   1.073   2.274   2.100
 5298SOL     OW16792   1.210   3.287   2.023
 5298SOL    HW116793   1.185   3.289   2.120
 5298SOL    HW216794   1.236   3.380   1.994
 5299SOL     OW16795   3.614   0.143   6.743
 5299SOL    HW116796   3.636   0.065   6.684
 5299SOL    HW216797   3.518   0.168   6.730
 5300SOL     OW16798   0.040   4.995   4.570
 5300SOL    HW116799   0.074   4.904   4.595
 5300SOL    HW216800   6.968   4.994   4.571
 5301SOL     OW16801   5.748   6.819   5.795
 5301SOL    HW116802   5.729   6.786   5.888
 5301SOL    HW216803   5.766   6.741   5.735
 5302SOL     OW16804   6.943   3.835   2.919
 5302SOL    HW116805   6.926   3.897   2.842
 5302SOL    HW216806   6.924   3.741   2.892
 5303SOL     OW16807   2.606   4.957   2.125
 5303SOL    HW116808   2.562   5.033   2.175
 5303SOL    HW216809   2.680   4.994   2.069
 5304SOL     OW16810   5.763   2.198   6.244
 5304SOL    HW116811   5.731   2.110   6.209
 5304SOL    HW216812   5.849   2.185   6.294
 5305SOL     OW16813   3.865   1.765   5.142
 5305SOL    HW116814   3.875   1.761   5.042
 5305SOL    HW216815   3.769   1.752   5.166
 5306SOL     OW16816   2.289   6.548   3.604
 5306SOL    HW116817   2.275   6.568   3.701
 5306SOL    HW216818   2.383   6.573   3.579
 5307SOL     OW16819   4.944   6.991   6.495
 5307SOL    HW116820   4.881   6.938   6.439
 5307SOL    HW216821   5.038   6.969   6.469
 5308SOL     OW16822   6.394   1.508   0.576
 5308SOL    HW116823   6.346   1.420   0.587
 5308SOL    HW216824   6.400   1.553   0.665
 5309SOL     OW16825   3.406   4.378   6.577
 5309SOL    HW116826   3.477   4.349   6.513
 5309SOL    HW216827   3.376   4.471   6.554
 5310SOL     OW16828   5.031   2.643   0.179
 5310SOL    HW116829   5.002   2.563   0.127
 5310SOL    HW216830   4.982   2.645   0.266
 5311SOL     OW16831   6.840   5.624   6.903
 5311SOL    HW116832   6.754   5.653   6.945
 5311SOL    HW216833   6.890   5.704   6.871
 5312SOL     OW16834   0.736   3.963   2.188
 5312SOL    HW116835   0.677   3.982   2.109
 5312SOL    HW216836   0.792   4.044   2.207
 5313SOL     OW16837   1.009   6.431   6.145
 5313SOL    HW116838   1.032   6.458   6.052
 5313SOL    HW216839   0.967   6.509   6.193
 5314SOL     OW16840   4.875   4.227   1.283
 5314SOL    HW116841   4.971   4.213   1.309
 5314SOL    HW216842   4.821   4.148   1.310
 5315SOL     OW16843   5.337   0.368   3.107
 5315SOL    HW116844   5.353   0.314   3.024
 5315SOL    HW216845   5.419   0.420   3.130
 5316SOL     OW16846   5.429   5.365   5.046
 5316SOL    HW116847   5.391   5.337   4.958
 5316SOL    HW216848   5.495   5.438   5.032
 5317SOL     OW16849   0.312   4.643   1.489
 5317SOL    HW116850   0.247   4.711   1.524
 5317SOL    HW216851   0.349   4.675   1.402
 5318SOL     OW16852   6.999   2.460   3.133
 5318SOL    HW116853   0.057   2.509   3.117
 5318SOL    HW216854   7.010   2.397   3.209
 5319SOL     OW16855   2.663   5.992   2.496
 5319SOL    HW116856   2.617   5.906   2.476
 5319SOL    HW216857   2.757   5.989   2.461
 5320SOL     OW16858   6.574   1.517   0.825
 5320SOL    HW116859   6.538   1.562   0.906
 5320SOL    HW216860   6.652   1.460   0.850
 5321SOL     OW16861   2.307   5.347   0.110
 5321SOL    HW116862   2.267   5.362   0.020
 5321SOL    HW216863   2.403   5.321   0.101
 5322SOL     OW16864   2.736   6.179   6.663
 5322SOL    HW116865   2.801   6.219   6.728
 5322SOL    HW216866   2.643   6.208   6.688
 5323SOL     OW16867   6.750   3.820   0.217
 5323SOL    HW116868   6.730   3.898   0.158
 5323SOL    HW216869   6.792   3.747   0.163
 5324SOL     OW16870   4.034   3.125   2.389
 5324SOL    HW116871   4.050   3.189   2.464
 5324SOL    HW216872   4.082   3.156   2.307
 5325SOL     OW16873   3.402   0.027   5.303
 5325SOL    HW116874   3.474   6.986   5.294
 5325SOL    HW216875   3.341   0.023   5.224
 5326SOL     OW16876   5.492   0.550   3.742
 5326SOL    HW116877   5.540   0.463   3.729
 5326SOL    HW216878   5.477   0.565   3.840
 5327SOL     OW16879   6.453   6.282   3.671
 5327SOL    HW116880   6.501   6.221   3.608
 5327SOL    HW216881   6.395   6.344   3.619
 5328SOL     OW16882   2.445   4.908   5.857
 5328SOL    HW116883   2.462   4.916   5.759
 5328SOL    HW216884   2.348   4.890   5.872
 5329SOL     OW16885   0.454   0.040   5.587
 5329SOL    HW116886   0.526   6.999   5.596
 5329SOL    HW216887   0.468   0.111   5.656
 5330SOL     OW16888   4.364   3.730   0.457
 5330SOL    HW116889   4.273   3.688   0.464
 5330SOL    HW216890   4.357   3.828   0.477
 5331SOL     OW16891   6.037   0.567   0.120
 5331SOL    HW116892   6.016   0.580   0.023
 5331SOL    HW216893   5.968   0.613   0.175
 5332SOL     OW16894   0.824   3.314   6.899
 5332SOL    HW116895   0.764   3.278   6.971
 5332SOL    HW216896   0.780   3.392   6.855
 5333SOL     OW16897   0.387   6.773   4.076
 5333SOL    HW116898   0.412   6.855   4.128
 5333SOL    HW216899   0.289   6.758   4.083
 5334SOL     OW16900   3.429   5.916   0.746
 5334SOL    HW116901   3.397   5.965   0.827
 5334SOL    HW216902   3.350   5.887   0.692
 5335SOL     OW16903   6.937   4.895   1.772
 5335SOL    HW116904   6.990   4.872   1.853
 5335SOL    HW216905   6.915   4.812   1.721
 5336SOL     OW16906   1.960   2.976   6.050
 5336SOL    HW116907   2.010   2.952   5.967
 5336SOL    HW216908   1.976   3.073   6.071
 5337SOL     OW16909   6.500   2.110   0.885
 5337SOL    HW116910   6.526   2.059   0.803
 5337SOL    HW216911   6.432   2.058   0.937
 5338SOL     OW16912   6.880   2.380   1.295
 5338SOL    HW116913   6.922   2.438   1.225
 5338SOL    HW216914   6.781   2.376   1.280
 5339SOL     OW16915   4.959   3.442   2.294
 5339SOL    HW116916   4.914   3.529   2.314
 5339SOL    HW216917   4.998   3.445   2.202
 5340SOL     OW16918   5.552   3.268   0.955
 5340SOL    HW116919   5.570   3.186   1.010
 5340SOL    HW216920   5.639   3.303   0.919
 5341SOL     OW16921   4.519   4.959   3.276
 5341SOL    HW116922   4.545   5.038   3.220
 5341SOL    HW216923   4.538   4.875   3.226
 5342SOL     OW16924   6.130   4.818   4.688
 5342SOL    HW116925   6.150   4.821   4.786
 5342SOL    HW216926   6.216   4.803   4.638
 5343SOL     OW16927   4.381   3.644   1.214
 5343SOL    HW116928   4.452   3.665   1.146
 5343SOL    HW216929   4.329   3.564   1.184
 5344SOL     OW16930   6.613   1.826   6.829
 5344SOL    HW116931   6.683   1.860   6.766
 5344SOL    HW216932   6.644   1.739   6.869
 5345SOL     OW16933   3.697   0.681   6.987
 5345SOL    HW116934   3.669   0.768   7.026
 5345SOL    HW216935   3.795   0.669   6.998
 5346SOL     OW16936   2.239   5.865   2.987
 5346SOL    HW116937   2.212   5.949   3.034
 5346SOL    HW216938   2.327   5.834   3.021
 5347SOL     OW16939   6.139   2.657   5.452
 5347SOL    HW116940   6.101   2.629   5.540
 5347SOL    HW216941   6.168   2.753   5.456
 5348SOL     OW16942   5.628   2.756   5.213
 5348SOL    HW116943   5.533   2.785   5.210
 5348SOL    HW216944   5.672   2.776   5.126
 5349SOL     OW16945   1.269   4.130   0.559
 5349SOL    HW116946   1.177   4.094   0.545
 5349SOL    HW216947   1.316   4.138   0.471
 5350SOL     OW16948   1.160   6.790   6.767
 5350SOL    HW116949   1.083   6.760   6.822
 5350SOL    HW216950   1.219   6.712   6.746
 5351SOL     OW16951   0.778   6.354   3.281
 5351SOL    HW116952   0.705   6.323   3.341
 5351SOL    HW216953   0.847   6.283   3.273
 5352SOL     OW16954   0.259   3.365   6.117
 5352SOL    HW116955   0.342   3.357   6.062
 5352SOL    HW216956   0.271   3.315   6.202
 5353SOL     OW16957   2.688   6.868   2.880
 5353SOL    HW116958   2.617   6.803   2.909
 5353SOL    HW216959   2.696   6.866   2.781
 5354SOL     OW16960   1.877   6.604   1.511
 5354SOL    HW116961   1.856   6.697   1.542
 5354SOL    HW216962   1.873   6.541   1.588
 5355SOL     OW16963   4.674   4.154   5.586
 5355SOL    HW116964   4.710   4.185   5.674
 5355SOL    HW216965   4.620   4.070   5.600
 5356SOL     OW16966   6.370   6.994   1.376
 5356SOL    HW116967   6.385   0.038   1.444
 5356SOL    HW216968   6.409   7.022   1.288
 5357SOL     OW16969   6.200   2.812   2.237
 5357SOL    HW116970   6.230   2.724   2.202
 5357SOL    HW216971   6.191   2.877   2.162
 5358SOL     OW16972   5.392   6.251   5.145
 5358SOL    HW116973   5.452   6.207   5.211
 5358SOL    HW216974   5.438   6.260   5.057
 5359SOL     OW16975   3.204   1.907   5.988
 5359SOL    HW116976   3.202   1.899   5.888
 5359SOL    HW216977   3.121   1.952   6.020
 5360SOL     OW16978   5.219   5.794   2.305
 5360SOL    HW116979   5.216   5.868   2.239
 5360SOL    HW216980   5.128   5.755   2.317
 5361SOL     OW16981   1.104   3.666   2.647
 5361SOL    HW116982   1.044   3.747   2.641
 5361SOL    HW216983   1.050   3.588   2.678
 5362SOL     OW16984   6.244   1.715   4.009
 5362SOL    HW116985   6.233   1.814   3.998
 5362SOL    HW216986   6.284   1.676   3.926
 5363SOL     OW16987   6.155   3.986   6.566
 5363SOL    HW116988   6.141   4.056   6.497
 5363SOL    HW216989   6.223   3.920   6.535
 5364SOL     OW16990   4.740   1.986   1.855
 5364SOL    HW116991   4.744   2.076   1.810
 5364SOL    HW216992   4.823   1.973   1.909
 5365SOL     OW16993   3.198   2.560   6.468
 5365SOL    HW116994   3.141   2.641   6.484
 5365SOL    HW216995   3.165   2.511   6.387
 5366SOL     OW16996   0.032   4.430   3.746
 5366SOL    HW116997   0.077   4.477   3.671
 5366SOL    HW216998   6.971   4.472   3.764
 5367SOL     OW16999   6.610   5.423   1.460
 5367SOL    HW117000   6.565   5.499   1.506
 5367SOL    HW217001   6.591   5.338   1.509
 5368SOL     OW17002   6.995   5.359   4.877
 5368SOL    HW117003   7.014   5.261   4.869
 5368SOL    HW217004   0.040   5.403   4.929
 5369SOL     OW17005   4.003   0.678   2.166
 5369SOL    HW117006   3.912   0.648   2.137
 5369SOL    HW217007   4.064   0.679   2.087
 5370SOL     OW17008   2.080   2.333   0.013
 5370SOL    HW117009   1.989   2.313   7.003
 5370SOL    HW217010   2.090   2.432   0.023
 5371SOL     OW17011   6.273   5.140   3.008
 5371SOL    HW117012   6.345   5.089   3.054
 5371SOL    HW217013   6.204   5.168   3.074
 5372SOL     OW17014   1.007   1.288   4.845
 5372SOL    HW117015   1.086   1.268   4.787
 5372SOL    HW217016   1.018   1.243   4.934
 5373SOL     OW17017   4.494   6.686   0.950
 5373SOL    HW117018   4.486   6.655   1.045
 5373SOL    HW217019   4.546   6.620   0.897
 5374SOL     OW17020   1.932   3.306   1.517
 5374SOL    HW117021   2.002   3.236   1.530
 5374SOL    HW217022   1.943   3.348   1.427
 5375SOL     OW17023   3.016   4.823   5.092
 5375SOL    HW117024   3.016   4.810   5.192
 5375SOL    HW217025   2.981   4.741   5.048
 5376SOL     OW17026   6.363   6.904   2.308
 5376SOL    HW117027   6.287   6.858   2.355
 5376SOL    HW217028   6.348   7.003   2.311
 5377SOL     OW17029   0.732   3.453   1.290
 5377SOL    HW117030   0.659   3.477   1.226
 5377SOL    HW217031   0.807   3.519   1.282
 5378SOL     OW17032   4.951   0.671   5.152
 5378SOL    HW117033   4.895   0.753   5.145
 5378SOL    HW217034   4.927   0.622   5.236
 5379SOL     OW17035   3.354   1.788   4.079
 5379SOL    HW117036   3.407   1.758   4.000
 5379SOL    HW217037   3.417   1.808   4.155
 5380SOL     OW17038   4.551   0.016   1.203
 5380SOL    HW117039   4.649   0.003   1.187
 5380SOL    HW217040   4.525   0.110   1.180
 5381SOL     OW17041   2.768   1.611   2.150
 5381SOL    HW117042   2.779   1.672   2.229
 5381SOL    HW217043   2.857   1.595   2.108
 5382SOL     OW17044   3.556   0.335   2.896
 5382SOL    HW117045   3.527   0.239   2.895
 5382SOL    HW217046   3.656   0.340   2.891
 5383SOL     OW17047   2.342   4.444   5.401
 5383SOL    HW117048   2.357   4.449   5.500
 5383SOL    HW217049   2.355   4.534   5.360
 5384SOL     OW17050   4.917   5.803   5.672
 5384SOL    HW117051   5.006   5.774   5.707
 5384SOL    HW217052   4.894   5.749   5.591
 5385SOL     OW17053   4.045   4.007   1.041
 5385SOL    HW117054   4.018   4.014   0.945
 5385SOL    HW217055   3.989   3.936   1.085
 5386SOL     OW17056   3.946   5.576   3.256
 5386SOL    HW117057   3.899   5.641   3.317
 5386SOL    HW217058   3.878   5.524   3.205
 5387SOL     OW17059   1.463   2.689   5.361
 5387SOL    HW117060   1.494   2.685   5.456
 5387SOL    HW217061   1.378   2.742   5.356
 5388SOL     OW17062   6.753   6.394   3.343
 5388SOL    HW117063   6.811   6.383   3.424
 5388SOL    HW217064   6.719   6.304   3.314
 5389SOL     OW17065   6.912   1.726   5.168
 5389SOL    HW117066   6.930   1.823   5.152
 5389SOL    HW217067   6.942   1.701   5.260
 5390SOL     OW17068   5.806   2.491   3.764
 5390SOL    HW117069   5.736   2.472   3.695
 5390SOL    HW217070   5.783   2.443   3.849
 5391SOL     OW17071   5.180   2.919   1.252
 5391SOL    HW117072   5.274   2.889   1.269
 5391SOL    HW217073   5.126   2.911   1.336
 5392SOL     OW17074   5.050   1.339   3.644
 5392SOL    HW117075   4.964   1.299   3.677
 5392SOL    HW217076   5.098   1.383   3.721
 5393SOL     OW17077   5.096   2.751   2.421
 5393SOL    HW117078   5.014   2.807   2.406
 5393SOL    HW217079   5.144   2.782   2.503
 5394SOL     OW17080   0.481   3.432   3.202
 5394SOL    HW117081   0.404   3.464   3.258
 5394SOL    HW217082   0.447   3.369   3.132
 5395SOL     OW17083   0.532   0.498   1.924
 5395SOL    HW117084   0.562   0.432   1.856
 5395SOL    HW217085   0.480   0.571   1.880
 5396SOL     OW17086   3.469   2.502   6.866
 5396SOL    HW117087   3.431   2.413   6.842
 5396SOL    HW217088   3.517   2.496   6.953
 5397SOL     OW17089   0.117   6.941   3.080
 5397SOL    HW117090   0.201   6.982   3.116
 5397SOL    HW217091   0.064   7.011   3.031
 5398SOL     OW17092   6.070   2.531   3.838
 5398SOL    HW117093   6.116   2.542   3.750
 5398SOL    HW217094   5.973   2.514   3.823
 5399SOL     OW17095   3.046   2.276   0.146
 5399SOL    HW117096   2.989   2.323   0.213
 5399SOL    HW217097   3.081   2.342   0.079
 5400SOL     OW17098   4.238   3.067   1.009
 5400SOL    HW117099   4.216   3.015   0.927
 5400SOL    HW217100   4.217   3.011   1.090
 5401SOL     OW17101   4.439   3.242   1.074
 5401SOL    HW117102   4.374   3.166   1.079
 5401SOL    HW217103   4.398   3.324   1.116
 5402SOL     OW17104   2.214   5.460   0.982
 5402SOL    HW117105   2.230   5.522   0.905
 5402SOL    HW217106   2.259   5.372   0.965
 5403SOL     OW17107   6.934   3.123   5.304
 5403SOL    HW117108   7.006   3.090   5.243
 5403SOL    HW217109   6.928   3.063   5.384
 5404SOL     OW17110   4.205   6.654   6.407
 5404SOL    HW117111   4.176   6.740   6.365
 5404SOL    HW217112   4.305   6.648   6.407
 5405SOL     OW17113   5.710   5.181   6.558
 5405SOL    HW117114   5.676   5.160   6.466
 5405SOL    HW217115   5.660   5.127   6.626
 5406SOL     OW17116   2.008   1.339   4.916
 5406SOL    HW117117   2.101   1.311   4.891
 5406SOL    HW217118   1.966   1.269   4.974
 5407SOL     OW17119   1.813   2.157   2.361
 5407SOL    HW117120   1.888   2.167   2.427
 5407SOL    HW217121   1.849   2.168   2.268
 5408SOL     OW17122   2.680   2.438   3.989
 5408SOL    HW117123   2.774   2.432   4.022
 5408SOL    HW217124   2.680   2.435   3.889
 5409SOL     OW17125   6.653   4.351   3.717
 5409SOL    HW117126   6.741   4.396   3.729
 5409SOL    HW217127   6.660   4.255   3.745
 5410SOL     OW17128   5.812   0.888   0.375
 5410SOL    HW117129   5.824   0.971   0.430
 5410SOL    HW217130   5.830   0.808   0.432
 5411SOL     OW17131   2.522   6.306   2.160
 5411SOL    HW117132   2.601   6.274   2.212
 5411SOL    HW217133   2.450   6.237   2.164
 5412SOL     OW17134   2.885   2.270   5.887
 5412SOL    HW117135   2.836   2.273   5.800
 5412SOL    HW217136   2.920   2.362   5.908
 5413SOL     OW17137   0.088   4.918   5.801
 5413SOL    HW117138   0.137   4.963   5.727
 5413SOL    HW217139   0.079   4.981   5.878
 5414SOL     OW17140   5.757   5.515   5.829
 5414SOL    HW117141   5.849   5.492   5.860
 5414SOL    HW217142   5.742   5.614   5.840
 5415SOL     OW17143   2.652   6.777   0.090
 5415SOL    HW117144   2.578   6.720   0.055
 5415SOL    HW217145   2.626   6.873   0.084
 5416SOL     OW17146   4.235   4.586   5.597
 5416SOL    HW117147   4.152   4.556   5.644
 5416SOL    HW217148   4.299   4.510   5.590
 5417SOL     OW17149   4.935   0.495   1.913
 5417SOL    HW117150   4.872   0.497   1.991
 5417SOL    HW217151   4.917   0.413   1.859
 5418SOL     OW17152   7.026   3.442   6.142
 5418SOL    HW117153   6.971   3.524   6.157
 5418SOL    HW217154   0.093   3.461   6.165
 5419SOL     OW17155   4.151   2.867   5.954
 5419SOL    HW117156   4.222   2.902   6.016
 5419SOL    HW217157   4.111   2.943   5.903
 5420SOL     OW17158   0.886   1.873   0.651
 5420SOL    HW117159   0.970   1.822   0.632
 5420SOL    HW217160   0.824   1.866   0.572
 5421SOL     OW17161   3.895   5.308   0.676
 5421SOL    HW117162   3.803   5.337   0.700
 5421SOL    HW217163   3.947   5.287   0.759
 5422SOL     OW17164   2.455   0.252   3.859
 5422SOL    HW117165   2.516   0.312   3.807
 5422SOL    HW217166   2.484   0.250   3.955
 5423SOL     OW17167   4.254   5.353   3.049
 5423SOL    HW117168   4.316   5.429   3.067
 5423SOL    HW217169   4.275   5.313   2.960
 5424SOL     OW17170   4.018   3.108   5.822
 5424SOL    HW117171   4.100   3.160   5.847
 5424SOL    HW217172   4.005   3.111   5.723
 5425SOL     OW17173   2.250   5.947   4.522
 5425SOL    HW117174   2.274   5.850   4.514
 5425SOL    HW217175   2.247   5.973   4.618
 5426SOL     OW17176   1.211   3.145   0.124
 5426SOL    HW117177   1.182   3.221   0.183
 5426SOL    HW217178   1.272   3.179   0.053
 5427SOL     OW17179   4.287   1.830   0.234
 5427SOL    HW117180   4.212   1.893   0.257
 5427SOL    HW217181   4.293   1.758   0.303
 5428SOL     OW17182   4.978   6.119   2.084
 5428SOL    HW117183   5.026   6.174   2.015
 5428SOL    HW217184   4.885   6.100   2.052
 5429SOL     OW17185   2.942   6.319   2.825
 5429SOL    HW117186   2.934   6.222   2.849
 5429SOL    HW217187   2.986   6.328   2.736
 5430SOL     OW17188   0.555   3.486   5.529
 5430SOL    HW117189   0.485   3.441   5.474
 5430SOL    HW217190   0.523   3.577   5.557
 5431SOL     OW17191   5.367   3.989   1.236
 5431SOL    HW117192   5.385   4.070   1.291
 5431SOL    HW217193   5.334   4.017   1.146
 5432SOL     OW17194   1.423   5.265   5.464
 5432SOL    HW117195   1.439   5.173   5.500
 5432SOL    HW217196   1.353   5.310   5.519
 5433SOL     OW17197   3.544   6.534   2.083
 5433SOL    HW117198   3.504   6.453   2.127
 5433SOL    HW217199   3.487   6.561   2.005
 5434SOL     OW17200   4.514   6.614   4.241
 5434SOL    HW117201   4.565   6.614   4.155
 5434SOL    HW217202   4.578   6.615   4.318
 5435SOL     OW17203   0.768   3.038   0.174
 5435SOL    HW117204   0.723   3.109   0.120
 5435SOL    HW217205   0.827   3.082   0.243
 5436SOL     OW17206   1.803   4.168   0.688
 5436SOL    HW117207   1.808   4.267   0.707
 5436SOL    HW217208   1.716   4.132   0.722
 5437SOL     OW17209   3.315   0.356   5.962
 5437SOL    HW117210   3.341   0.439   6.011
 5437SOL    HW217211   3.232   0.373   5.908
 5438SOL     OW17212   4.237   6.642   3.526
 5438SOL    HW117213   4.185   6.582   3.465
 5438SOL    HW217214   4.262   6.591   3.609
 5439SOL     OW17215   1.831   3.844   2.415
 5439SOL    HW117216   1.872   3.933   2.393
 5439SOL    HW217217   1.739   3.858   2.452
 5440SOL     OW17218   4.878   5.943   2.857
 5440SOL    HW117219   4.910   5.978   2.944
 5440SOL    HW217220   4.872   5.843   2.861
 5441SOL     OW17221   5.853   6.943   4.666
 5441SOL    HW117222   5.780   6.986   4.719
 5441SOL    HW217223   5.826   6.939   4.569
 5442SOL     OW17224   2.697   5.998   0.209
 5442SOL    HW117225   2.626   6.004   0.280
 5442SOL    HW217226   2.756   5.920   0.227
 5443SOL     OW17227   5.237   1.772   3.117
 5443SOL    HW117228   5.257   1.815   3.206
 5443SOL    HW217229   5.277   1.681   3.115
 5444SOL     OW17230   2.510   1.737   6.212
 5444SOL    HW117231   2.453   1.690   6.279
 5444SOL    HW217232   2.580   1.674   6.177
 5445SOL     OW17233   0.546   6.231   5.939
 5445SOL    HW117234   0.448   6.235   5.959
 5445SOL    HW217235   0.564   6.154   5.879
 5446SOL     OW17236   2.604   4.124   0.299
 5446SOL    HW117237   2.584   4.033   0.263
 5446SOL    HW217238   2.553   4.193   0.247
 5447SOL     OW17239   5.196   2.506   1.879
 5447SOL    HW117240   5.190   2.548   1.788
 5447SOL    HW217241   5.277   2.541   1.926
 5448SOL     OW17242   6.115   5.662   1.388
 5448SOL    HW117243   6.215   5.668   1.393
 5448SOL    HW217244   6.088   5.620   1.302
 5449SOL     OW17245   2.543   0.510   2.188
 5449SOL    HW117246   2.536   0.586   2.123
 5449SOL    HW217247   2.534   0.545   2.281
 5450SOL     OW17248   4.491   4.552   2.134
 5450SOL    HW117249   4.548   4.567   2.215
 5450SOL    HW217250   4.518   4.466   2.090
 5451SOL     OW17251   0.362   5.308   3.405
 5451SOL    HW117252   0.427   5.347   3.340
 5451SOL    HW217253   0.396   5.220   3.437
 5452SOL     OW17254   2.283   4.339   3.144
 5452SOL    HW117255   2.185   4.350   3.127
 5452SOL    HW217256   2.319   4.424   3.183
 5453SOL     OW17257   5.760   4.877   4.271
 5453SOL    HW117258   5.672   4.857   4.314
 5453SOL    HW217259   5.824   4.802   4.291
 5454SOL     OW17260   6.841   3.596   2.779
 5454SOL    HW117261   6.778   3.582   2.855
 5454SOL    HW217262   6.796   3.646   2.706
 5455SOL     OW17263   1.810   1.780   2.988
 5455SOL    HW117264   1.803   1.773   2.889
 5455SOL    HW217265   1.719   1.779   3.029
 5456SOL     OW17266   5.991   2.819   6.914
 5456SOL    HW117267   6.018   2.747   6.850
 5456SOL    HW217268   5.959   2.778   7.000
 5457SOL     OW17269   5.666   0.561   0.685
 5457SOL    HW117270   5.699   0.595   0.772
 5457SOL    HW217271   5.587   0.615   0.655
 5458SOL     OW17272   5.981   4.489   6.618
 5458SOL    HW117273   5.961   4.571   6.564
 5458SOL    HW217274   6.080   4.471   6.616
 5459SOL     OW17275   2.089   3.393   4.621
 5459SOL    HW117276   2.097   3.302   4.580
 5459SOL    HW217277   2.040   3.453   4.559
 5460SOL     OW17278   6.480   1.623   1.052
 5460SOL    HW117279   6.488   1.622   1.151
 5460SOL    HW217280   6.422   1.700   1.024
 5461SOL     OW17281   5.867   0.388   5.766
 5461SOL    HW117282   5.797   0.446   5.725
 5461SOL    HW217283   5.878   0.305   5.712
 5462SOL     OW17284   5.597   4.803   0.707
 5462SOL    HW117285   5.651   4.843   0.633
 5462SOL    HW217286   5.599   4.864   0.786
 5463SOL     OW17287   2.842   4.731   6.844
 5463SOL    HW117288   2.851   4.830   6.832
 5463SOL    HW217289   2.909   4.699   6.912
 5464SOL     OW17290   2.956   5.821   4.272
 5464SOL    HW117291   3.029   5.867   4.323
 5464SOL    HW217292   2.987   5.730   4.245
 5465SOL     OW17293   0.278   1.495   5.148
 5465SOL    HW117294   0.205   1.512   5.083
 5465SOL    HW217295   0.365   1.523   5.109
 5466SOL     OW17296   5.835   2.431   4.921
 5466SOL    HW117297   5.799   2.395   5.007
 5466SOL    HW217298   5.767   2.489   4.878
 5467SOL     OW17299   4.407   4.594   3.035
 5467SOL    HW117300   4.470   4.664   3.070
 5467SOL    HW217301   4.328   4.585   3.095
 5468SOL     OW17302   0.328   2.034   1.420
 5468SOL    HW117303   0.418   2.061   1.385
 5468SOL    HW217304   0.269   2.114   1.427
 5469SOL     OW17305   4.237   0.653   2.782
 5469SOL    HW117306   4.326   0.677   2.820
 5469SOL    HW217307   4.228   0.553   2.779
 5470SOL     OW17308   2.892   4.771   2.973
 5470SOL    HW117309   2.882   4.679   3.011
 5470SOL    HW217310   2.809   4.823   2.991
 5471SOL     OW17311   5.493   1.547   3.841
 5471SOL    HW117312   5.469   1.644   3.842
 5471SOL    HW217313   5.450   1.501   3.918
 5472SOL     OW17314   2.739   4.948   0.824
 5472SOL    HW117315   2.833   4.953   0.858
 5472SOL    HW217316   2.724   5.020   0.757
 5473SOL     OW17317   2.963   4.816   1.903
 5473SOL    HW117318   2.921   4.729   1.927
 5473SOL    HW217319   3.018   4.849   1.980
 5474SOL     OW17320   1.222   5.086   1.117
 5474SOL    HW117321   1.271   5.084   1.204
 5474SOL    HW217322   1.227   5.178   1.078
 5475SOL     OW17323   6.825   1.412   5.157
 5475SOL    HW117324   6.766   1.385   5.081
 5475SOL    HW217325   6.919   1.418   5.125
 5476SOL     OW17326   3.319   1.438   4.311
 5476SOL    HW117327   3.345   1.356   4.362
 5476SOL    HW217328   3.219   1.441   4.302
 5477SOL     OW17329   2.210   4.154   2.650
 5477SOL    HW117330   2.126   4.202   2.629
 5477SOL    HW217331   2.255   4.197   2.728
 5478SOL     OW17332   6.423   3.140   5.367
 5478SOL    HW117333   6.467   3.165   5.281
 5478SOL    HW217334   6.348   3.077   5.348
 5479SOL     OW17335   5.491   4.253   4.768
 5479SOL    HW117336   5.437   4.229   4.849
 5479SOL    HW217337   5.545   4.174   4.739
 5480SOL     OW17338   2.832   2.512   6.509
 5480SOL    HW117339   2.863   2.566   6.430
 5480SOL    HW217340   2.861   2.556   6.593
 5481SOL     OW17341   3.168   0.062   1.177
 5481SOL    HW117342   3.261   0.086   1.204
 5481SOL    HW217343   3.154   0.085   1.081
 5482SOL     OW17344   5.556   4.649   2.518
 5482SOL    HW117345   5.637   4.659   2.575
 5482SOL    HW217346   5.474   4.652   2.576
 5483SOL     OW17347   5.796   1.537   0.981
 5483SOL    HW117348   5.748   1.612   0.935
 5483SOL    HW217349   5.803   1.459   0.918
 5484SOL     OW17350   5.997   6.852   5.459
 5484SOL    HW117351   6.058   6.915   5.507
 5484SOL    HW217352   5.937   6.904   5.398
 5485SOL     OW17353   2.169   1.777   4.037
 5485SOL    HW117354   2.175   1.753   3.940
 5485SOL    HW217355   2.241   1.844   4.058
 5486SOL     OW17356   5.884   1.590   3.794
 5486SOL    HW117357   5.832   1.512   3.827
 5486SOL    HW217358   5.917   1.644   3.872
 5487SOL     OW17359   4.337   6.072   1.139
 5487SOL    HW117360   4.399   5.993   1.130
 5487SOL    HW217361   4.281   6.079   1.057
 5488SOL     OW17362   4.888   6.994   6.747
 5488SOL    HW117363   4.922   6.983   6.653
 5488SOL    HW217364   4.831   6.915   6.771
 5489SOL     OW17365   6.975   3.099   2.452
 5489SOL    HW117366   6.955   3.014   2.403
 5489SOL    HW217367   6.892   3.152   2.462
 5490SOL     OW17368   2.890   1.319   6.693
 5490SOL    HW117369   2.921   1.308   6.598
 5490SOL    HW217370   2.968   1.307   6.754
 5491SOL     OW17371   5.999   6.648   1.349
 5491SOL    HW117372   6.062   6.571   1.340
 5491SOL    HW217373   5.944   6.656   1.266
 5492SOL     OW17374   1.377   1.139   5.979
 5492SOL    HW117375   1.336   1.209   6.038
 5492SOL    HW217376   1.451   1.093   6.027
 5493SOL     OW17377   4.160   0.930   6.276
 5493SOL    HW117378   4.132   0.996   6.346
 5493SOL    HW217379   4.132   0.838   6.304
 5494SOL     OW17380   5.567   3.028   2.002
 5494SOL    HW117381   5.522   3.017   1.913
 5494SOL    HW217382   5.504   3.071   2.066
 5495SOL     OW17383   3.451   3.062   5.128
 5495SOL    HW117384   3.369   3.005   5.135
 5495SOL    HW217385   3.527   3.006   5.095
 5496SOL     OW17386   4.594   5.102   1.953
 5496SOL    HW117387   4.692   5.087   1.949
 5496SOL    HW217388   4.567   5.165   1.881
 5497SOL     OW17389   5.581   6.404   0.321
 5497SOL    HW117390   5.641   6.348   0.264
 5497SOL    HW217391   5.543   6.347   0.395
 5498SOL     OW17392   4.257   0.807   3.253
 5498SOL    HW117393   4.245   0.828   3.350
 5498SOL    HW217394   4.283   0.890   3.204
 5499SOL     OW17395   0.703   0.629   4.797
 5499SOL    HW117396   0.669   0.720   4.822
 5499SOL    HW217397   0.773   0.600   4.863
 5500SOL     OW17398   1.492   6.432   0.488
 5500SOL    HW117399   1.535   6.347   0.519
 5500SOL    HW217400   1.507   6.442   0.390
 5501SOL     OW17401   2.274   1.306   2.162
 5501SOL    HW117402   2.335   1.385   2.164
 5501SOL    HW217403   2.183   1.333   2.194
 5502SOL     OW17404   5.349   4.736   0.627
 5502SOL    HW117405   5.442   4.747   0.662
 5502SOL    HW217406   5.324   4.639   0.628
 5503SOL     OW17407   6.660   0.918   3.839
 5503SOL    HW117408   6.753   0.899   3.870
 5503SOL    HW217409   6.631   1.008   3.873
 5504SOL     OW17410   2.343   2.237   5.002
 5504SOL    HW117411   2.272   2.171   4.976
 5504SOL    HW217412   2.369   2.222   5.097
 5505SOL     OW17413   3.477   5.550   0.789
 5505SOL    HW117414   3.504   5.471   0.733
 5505SOL    HW217415   3.432   5.517   0.872
 5506SOL     OW17416   1.329   6.537   5.167
 5506SOL    HW117417   1.280   6.531   5.080
 5506SOL    HW217418   1.355   6.632   5.183
 5507SOL     OW17419   2.228   5.388   5.036
 5507SOL    HW117420   2.280   5.460   5.083
 5507SOL    HW217421   2.259   5.299   5.068
 5508SOL     OW17422   2.507   1.866   5.195
 5508SOL    HW117423   2.560   1.937   5.241
 5508SOL    HW217424   2.530   1.866   5.098
 5509SOL     OW17425   0.209   6.964   5.658
 5509SOL    HW117426   0.186   7.004   5.747
 5509SOL    HW217427   0.299   6.996   5.630
 5510SOL     OW17428   6.914   0.110   5.700
 5510SOL    HW117429   6.843   0.088   5.767
 5510SOL    HW217430   6.876   0.172   5.631
 5511SOL     OW17431   0.460   2.395   0.874
 5511SOL    HW117432   0.378   2.435   0.915
 5511SOL    HW217433   0.435   2.346   0.790
 5512SOL     OW17434   6.781   6.588   6.870
 5512SOL    HW117435   6.721   6.526   6.920
 5512SOL    HW217436   6.845   6.535   6.815
 5513SOL     OW17437   2.584   6.700   5.105
 5513SOL    HW117438   2.519   6.700   5.029
 5513SOL    HW217439   2.598   6.794   5.137
 5514SOL     OW17440   5.915   5.666   3.676
 5514SOL    HW117441   5.896   5.668   3.578
 5514SOL    HW217442   5.982   5.594   3.696
 5515SOL     OW17443   1.856   3.862   3.826
 5515SOL    HW117444   1.863   3.898   3.919
 5515SOL    HW217445   1.948   3.849   3.789
 5516SOL     OW17446   2.143   2.620   0.059
 5516SOL    HW117447   2.062   2.648   0.112
 5516SOL    HW217448   2.223   2.669   0.092
 5517SOL     OW17449   3.211   0.350   2.207
 5517SOL    HW117450   3.235   0.257   2.233
 5517SOL    HW217451   3.146   0.388   2.274
 5518SOL     OW17452   4.608   3.734   6.280
 5518SOL    HW117453   4.660   3.681   6.347
 5518SOL    HW217454   4.539   3.790   6.328
 5519SOL     OW17455   5.449   3.748   2.040
 5519SOL    HW117456   5.535   3.698   2.040
 5519SOL    HW217457   5.375   3.686   2.067
 5520SOL     OW17458   1.252   2.799   1.227
 5520SOL    HW117459   1.325   2.735   1.207
 5520SOL    HW217460   1.292   2.887   1.256
 5521SOL     OW17461   5.422   4.020   6.568
 5521SOL    HW117462   5.352   3.960   6.609
 5521SOL    HW217463   5.405   4.028   6.470
 5522SOL     OW17464   2.076   2.686   1.708
 5522SOL    HW117465   1.993   2.734   1.679
 5522SOL    HW217466   2.142   2.683   1.633
 5523SOL     OW17467   2.282   6.348   1.366
 5523SOL    HW117468   2.216   6.420   1.386
 5523SOL    HW217469   2.374   6.387   1.365
 5524SOL     OW17470   6.577   6.403   5.568
 5524SOL    HW117471   6.645   6.457   5.618
 5524SOL    HW217472   6.591   6.306   5.585
 5525SOL     OW17473   6.769   6.989   2.905
 5525SOL    HW117474   6.852   6.955   2.860
 5525SOL    HW217475   6.751   6.933   2.986
 5526SOL     OW17476   5.149   3.886   4.699
 5526SOL    HW117477   5.214   3.844   4.763
 5526SOL    HW217478   5.082   3.939   4.751
 5527SOL     OW17479   3.312   2.657   0.166
 5527SOL    HW117480   3.267   2.600   0.098
 5527SOL    HW217481   3.269   2.747   0.168
 5528SOL     OW17482   5.880   2.821   2.218
 5528SOL    HW117483   5.860   2.815   2.120
 5528SOL    HW217484   5.979   2.825   2.231
 5529SOL     OW17485   1.226   1.208   4.702
 5529SOL    HW117486   1.208   1.254   4.615
 5529SOL    HW217487   1.308   1.246   4.744
 5530SOL     OW17488   0.197   2.944   6.705
 5530SOL    HW117489   0.266   2.889   6.752
 5530SOL    HW217490   0.240   3.026   6.667
 5531SOL     OW17491   2.920   2.645   0.686
 5531SOL    HW117492   2.981   2.624   0.763
 5531SOL    HW217493   2.944   2.588   0.608
 5532SOL     OW17494   2.266   2.894   1.931
 5532SOL    HW117495   2.173   2.869   1.957
 5532SOL    HW217496   2.266   2.927   1.837
 5533SOL     OW17497   3.083   0.088   0.906
 5533SOL    HW117498   3.138   0.058   0.828
 5533SOL    HW217499   3.007   0.026   0.919
 5534SOL     OW17500   0.470   3.754   5.569
 5534SOL    HW117501   0.463   3.800   5.658
 5534SOL    HW217502   0.518   3.813   5.505
 5535SOL     OW17503   5.031   5.667   3.269
 5535SOL    HW117504   5.108   5.692   3.210
 5535SOL    HW217505   4.965   5.743   3.271
 5536SOL     OW17506   2.307   1.161   4.492
 5536SOL    HW117507   2.351   1.144   4.404
 5536SOL    HW217508   2.257   1.248   4.488
 5537SOL     OW17509   3.770   1.658   3.571
 5537SOL    HW117510   3.831   1.642   3.648
 5537SOL    HW217511   3.729   1.572   3.542
 5538SOL     OW17512   4.465   2.415   3.062
 5538SOL    HW117513   4.376   2.406   3.017
 5538SOL    HW217514   4.510   2.325   3.065
 5539SOL     OW17515   1.088   0.347   6.052
 5539SOL    HW117516   1.111   0.443   6.035
 5539SOL    HW217517   1.086   0.331   6.151
 5540SOL     OW17518   4.506   6.795   4.885
 5540SOL    HW117519   4.582   6.795   4.820
 5540SOL    HW217520   4.434   6.734   4.853
 5541SOL     OW17521   4.709   2.761   5.177
 5541SOL    HW117522   4.741   2.856   5.184
 5541SOL    HW217523   4.613   2.757   5.202
 5542SOL     OW17524   4.924   4.547   7.001
 5542SOL    HW117525   4.961   4.480   6.937
 5542SOL    HW217526   4.998   4.608   0.004
 5543SOL     OW17527   0.492   0.674   5.786
 5543SOL    HW117528   0.458   0.584   5.811
 5543SOL    HW217529   0.505   0.679   5.687
 5544SOL     OW17530   3.978   5.217   6.745
 5544SOL    HW117531   4.075   5.208   6.767
 5544SOL    HW217532   3.956   5.313   6.729
 5545SOL     OW17533   4.939   2.782   3.293
 5545SOL    HW117534   4.902   2.864   3.250
 5545SOL    HW217535   5.004   2.739   3.230
 5546SOL     OW17536   1.046   6.188   3.967
 5546SOL    HW117537   0.946   6.193   3.968
 5546SOL    HW217538   1.083   6.279   3.987
 5547SOL     OW17539   5.070   1.793   4.165
 5547SOL    HW117540   5.063   1.890   4.190
 5547SOL    HW217541   5.156   1.756   4.200
 5548SOL     OW17542   1.437   3.776   4.571
 5548SOL    HW117543   1.394   3.764   4.661
 5548SOL    HW217544   1.371   3.755   4.499
 5549SOL     OW17545   4.146   3.575   0.461
 5549SOL    HW117546   4.128   3.600   0.366
 5549SOL    HW217547   4.064   3.534   0.501
 5550SOL     OW17548   3.134   4.372   1.275
 5550SOL    HW117549   3.085   4.330   1.199
 5550SOL    HW217550   3.197   4.306   1.315
 5551SOL     OW17551   1.039   4.002   2.176
 5551SOL    HW117552   1.099   4.043   2.107
 5551SOL    HW217553   1.009   4.073   2.240
 5552SOL     OW17554   0.242   0.988   0.960
 5552SOL    HW117555   0.154   1.036   0.971
 5552SOL    HW217556   0.307   1.049   0.913
 5553SOL     OW17557   6.054   6.420   1.698
 5553SOL    HW117558   6.122   6.478   1.653
 5553SOL    HW217559   5.973   6.411   1.639
 5554SOL     OW17560   0.203   2.469   1.628
 5554SOL    HW117561   0.155   2.382   1.633
 5554SOL    HW217562   0.144   2.538   1.586
 5555SOL     OW17563   0.670   4.802   2.469
 5555SOL    HW117564   0.581   4.828   2.431
 5555SOL    HW217565   0.739   4.868   2.440
 5556SOL     OW17566   6.588   1.809   5.208
 5556SOL    HW117567   6.614   1.734   5.146
 5556SOL    HW217568   6.600   1.779   5.302
 5557SOL     OW17569   2.927   6.945   3.164
 5557SOL    HW117570   2.984   7.024   3.189
 5557SOL    HW217571   2.985   6.872   3.129
 5558SOL     OW17572   4.177   4.113   6.433
 5558SOL    HW117573   4.258   4.129   6.378
 5558SOL    HW217574   4.157   4.014   6.436
 5559SOL     OW17575   3.450   0.343   3.337
 5559SOL    HW117576   3.407   0.414   3.392
 5559SOL    HW217577   3.380   0.281   3.300
 5560SOL     OW17578   0.216   5.022   3.353
 5560SOL    HW117579   0.162   5.028   3.436
 5560SOL    HW217580   0.157   5.039   3.274
 5561SOL     OW17581   2.880   0.872   3.738
 5561SOL    HW117582   2.829   0.954   3.766
 5561SOL    HW217583   2.938   0.842   3.814
 5562SOL     OW17584   5.235   2.802   0.951
 5562SOL    HW117585   5.305   2.858   0.905
 5562SOL    HW217586   5.199   2.853   1.029
 5563SOL     OW17587   1.139   4.264   2.514
 5563SOL    HW117588   1.150   4.339   2.578
 5563SOL    HW217589   1.217   4.261   2.451
 5564SOL     OW17590   4.286   0.147   6.781
 5564SOL    HW117591   4.236   0.078   6.833
 5564SOL    HW217592   4.322   0.217   6.843
 5565SOL     OW17593   2.904   2.148   6.371
 5565SOL    HW117594   2.866   2.235   6.340
 5565SOL    HW217595   2.832   2.093   6.413
 5566SOL     OW17596   1.376   5.266   4.917
 5566SOL    HW117597   1.307   5.219   4.863
 5566SOL    HW217598   1.345   5.275   5.012
 5567SOL     OW17599   1.486   5.247   6.576
 5567SOL    HW117600   1.485   5.205   6.485
 5567SOL    HW217601   1.569   5.303   6.585
 5568SOL     OW17602   5.206   5.394   2.342
 5568SOL    HW117603   5.284   5.452   2.318
 5568SOL    HW217604   5.237   5.301   2.361
 5569SOL     OW17605   1.639   2.239   3.074
 5569SOL    HW117606   1.699   2.317   3.057
 5569SOL    HW217607   1.633   2.183   2.992
 5570SOL     OW17608   6.868   3.520   1.042
 5570SOL    HW117609   6.860   3.420   1.039
 5570SOL    HW217610   6.941   3.546   1.106
 5571SOL     OW17611   6.784   4.436   6.819
 5571SOL    HW117612   6.758   4.529   6.845
 5571SOL    HW217613   6.820   4.437   6.726
 5572SOL     OW17614   0.985   4.651   5.743
 5572SOL    HW117615   0.917   4.717   5.712
 5572SOL    HW217616   0.939   4.575   5.789
 5573SOL     OW17617   3.036   4.853   3.278
 5573SOL    HW117618   3.091   4.888   3.354
 5573SOL    HW217619   3.093   4.799   3.216
 5574SOL     OW17620   1.258   1.369   6.080
 5574SOL    HW117621   1.201   1.326   6.151
 5574SOL    HW217622   1.320   1.435   6.123
 5575SOL     OW17623   0.625   6.959   2.179
 5575SOL    HW117624   0.588   6.967   2.087
 5575SOL    HW217625   0.647   0.021   2.214
 5576SOL     OW17626   1.793   5.434   3.258
 5576SOL    HW117627   1.848   5.353   3.235
 5576SOL    HW217628   1.844   5.517   3.234
 5577SOL     OW17629   3.611   1.832   6.237
 5577SOL    HW117630   3.572   1.777   6.310
 5577SOL    HW217631   3.540   1.851   6.169
 5578SOL     OW17632   4.071   3.723   3.370
 5578SOL    HW117633   4.069   3.804   3.429
 5578SOL    HW217634   4.091   3.642   3.426
 5579SOL     OW17635   6.250   3.084   2.088
 5579SOL    HW117636   6.341   3.043   2.088
 5579SOL    HW217637   6.197   3.047   2.012
 5580SOL     OW17638   6.072   2.407   5.982
 5580SOL    HW117639   5.991   2.407   6.040
 5580SOL    HW217640   6.075   2.493   5.931
 5581SOL     OW17641   1.179   0.782   5.483
 5581SOL    HW117642   1.188   0.801   5.581
 5581SOL    HW217643   1.083   0.788   5.457
 5582SOL     OW17644   2.634   2.724   6.262
 5582SOL    HW117645   2.725   2.706   6.225
 5582SOL    HW217646   2.636   2.808   6.316
 5583SOL     OW17647   5.465   0.059   1.372
 5583SOL    HW117648   5.538   0.100   1.317
 5583SOL    HW217649   5.430   0.127   1.437
 5584SOL     OW17650   0.509   3.992   5.110
 5584SOL    HW117651   0.560   4.060   5.058
 5584SOL    HW217652   0.551   3.902   5.097
 5585SOL     OW17653   5.947   4.919   1.671
 5585SOL    HW117654   5.917   5.012   1.694
 5585SOL    HW217655   6.014   4.923   1.597
 5586SOL     OW17656   1.591   6.543   1.993
 5586SOL    HW117657   1.645   6.607   2.048
 5586SOL    HW217658   1.562   6.466   2.051
 5587SOL     OW17659   5.699   1.442   4.491
 5587SOL    HW117660   5.731   1.489   4.408
 5587SOL    HW217661   5.747   1.355   4.500
 5588SOL     OW17662   3.447   6.299   1.026
 5588SOL    HW117663   3.419   6.249   1.108
 5588SOL    HW217664   3.449   6.397   1.044
 5589SOL     OW17665   0.267   5.234   5.681
 5589SOL    HW117666   0.362   5.234   5.713
 5589SOL    HW217667   0.218   5.311   5.721
 5590SOL     OW17668   5.328   5.871   3.460
 5590SOL    HW117669   5.341   5.958   3.413
 5590SOL    HW217670   5.308   5.800   3.392
 5591SOL     OW17671   4.769   1.136   2.583
 5591SOL    HW117672   4.748   1.200   2.509
 5591SOL    HW217673   4.695   1.071   2.593
 5592SOL     OW17674   6.755   5.417   4.728
 5592SOL    HW117675   6.837   5.410   4.784
 5592SOL    HW217676   6.706   5.330   4.730
 5593SOL     OW17677   2.251   4.470   1.445
 5593SOL    HW117678   2.177   4.536   1.458
 5593SOL    HW217679   2.217   4.377   1.460
 5594SOL     OW17680   6.380   6.749   5.468
 5594SOL    HW117681   6.315   6.815   5.429
 5594SOL    HW217682   6.331   6.688   5.530
 5595SOL     OW17683   6.909   1.313   1.229
 5595SOL    HW117684   6.865   1.276   1.310
 5595SOL    HW217685   6.973   1.385   1.255
 5596SOL     OW17686   4.415   6.785   3.061
 5596SOL    HW117687   4.442   6.730   2.982
 5596SOL    HW217688   4.316   6.775   3.075
 5597SOL     OW17689   4.989   3.165   2.063
 5597SOL    HW117690   4.889   3.163   2.052
 5597SOL    HW217691   5.028   3.080   2.028
 5598SOL     OW17692   2.985   0.840   3.996
 5598SOL    HW117693   2.903   0.865   4.048
 5598SOL    HW217694   3.066   0.856   4.051
 5599SOL     OW17695   1.161   1.571   3.765
 5599SOL    HW117696   1.148   1.496   3.830
 5599SOL    HW217697   1.150   1.658   3.812
 5600SOL     OW17698   2.744   2.410   5.417
 5600SOL    HW117699   2.697   2.488   5.377
 5600SOL    HW217700   2.825   2.387   5.362
 5601SOL     OW17701   1.500   0.318   0.273
 5601SOL    HW117702   1.548   0.398   0.311
 5601SOL    HW217703   1.539   0.295   0.184
 5602SOL     OW17704   1.741   1.120   0.287
 5602SOL    HW117705   1.811   1.174   0.332
 5602SOL    HW217706   1.704   1.053   0.351
 5603SOL     OW17707   6.664   3.342   4.983
 5603SOL    HW117708   6.736   3.345   4.914
 5603SOL    HW217709   6.618   3.431   4.988
 5604SOL     OW17710   5.291   1.120   6.408
 5604SOL    HW117711   5.328   1.031   6.433
 5604SOL    HW217712   5.306   1.136   6.310
 5605SOL     OW17713   1.419   1.498   6.478
 5605SOL    HW117714   1.370   1.414   6.501
 5605SOL    HW217715   1.459   1.538   6.560
 5606SOL     OW17716   6.079   6.170   3.455
 5606SOL    HW117717   6.044   6.263   3.445
 5606SOL    HW217718   6.131   6.163   3.540
 5607SOL     OW17719   5.313   6.571   0.491
 5607SOL    HW117720   5.278   6.648   0.545
 5607SOL    HW217721   5.408   6.589   0.466
 5608SOL     OW17722   3.777   6.659   5.351
 5608SOL    HW117723   3.758   6.592   5.423
 5608SOL    HW217724   3.871   6.650   5.320
 5609SOL     OW17725   1.712   6.055   5.027
 5609SOL    HW117726   1.772   6.089   5.099
 5609SOL    HW217727   1.721   5.956   5.021
 5610SOL     OW17728   5.194   6.981   6.400
 5610SOL    HW117729   5.219   0.036   6.351
 5610SOL    HW217730   5.242   6.903   6.360
 5611SOL     OW17731   1.983   4.656   4.140
 5611SOL    HW117732   2.000   4.755   4.147
 5611SOL    HW217733   1.891   4.636   4.172
 5612SOL     OW17734   4.110   6.393   4.318
 5612SOL    HW117735   4.050   6.463   4.280
 5612SOL    HW217736   4.112   6.314   4.257
 5613SOL     OW17737   2.449   5.273   2.657
 5613SOL    HW117738   2.424   5.320   2.573
 5613SOL    HW217739   2.370   5.222   2.691
 5614SOL     OW17740   5.377   2.513   4.550
 5614SOL    HW117741   5.312   2.436   4.545
 5614SOL    HW217742   5.470   2.477   4.562
 5615SOL     OW17743   0.854   1.271   1.864
 5615SOL    HW117744   0.763   1.233   1.850
 5615SOL    HW217745   0.895   1.292   1.775
 5616SOL     OW17746   3.052   6.766   4.783
 5616SOL    HW117747   3.107   6.771   4.867
 5616SOL    HW217748   3.061   6.675   4.743
 5617SOL     OW17749   0.147   1.065   6.192
 5617SOL    HW117750   0.192   1.101   6.111
 5617SOL    HW217751   0.201   0.989   6.229
 5618SOL     OW17752   6.429   4.996   3.857
 5618SOL    HW117753   6.364   4.925   3.830
 5618SOL    HW217754   6.436   5.063   3.784
 5619SOL     OW17755   2.163   3.109   3.824
 5619SOL    HW117756   2.208   3.037   3.772
 5619SOL    HW217757   2.161   3.193   3.769
 5620SOL     OW17758   5.365   2.161   6.104
 5620SOL    HW117759   5.425   2.220   6.159
 5620SOL    HW217760   5.322   2.094   6.164
 5621SOL     OW17761   2.655   1.636   5.124
 5621SOL    HW117762   2.716   1.669   5.053
 5621SOL    HW217763   2.569   1.687   5.120
 5622SOL     OW17764   6.160   1.990   4.902
 5622SOL    HW117765   6.065   2.020   4.915
 5622SOL    HW217766   6.184   1.925   4.974
 5623SOL     OW17767   0.518   5.969   6.238
 5623SOL    HW117768   0.473   5.894   6.189
 5623SOL    HW217769   0.458   6.001   6.311
 5624SOL     OW17770   1.319   3.750   2.776
 5624SOL    HW117771   1.340   3.848   2.776
 5624SOL    HW217772   1.229   3.736   2.733
 5625SOL     OW17773   6.347   1.916   5.935
 5625SOL    HW117774   6.440   1.885   5.955
 5625SOL    HW217775   6.322   1.889   5.843
 5626SOL     OW17776   5.832   6.106   5.815
 5626SOL    HW117777   5.840   6.168   5.737
 5626SOL    HW217778   5.860   6.014   5.787
 5627SOL     OW17779   1.215   0.804   1.466
 5627SOL    HW117780   1.226   0.750   1.549
 5627SOL    HW217781   1.303   0.845   1.441
 5628SOL     OW17782   0.939   1.695   4.333
 5628SOL    HW117783   0.872   1.621   4.332
 5628SOL    HW217784   1.004   1.682   4.258
 5629SOL     OW17785   3.542   3.694   3.861
 5629SOL    HW117786   3.465   3.689   3.925
 5629SOL    HW217787   3.611   3.757   3.895
 5630SOL     OW17788   6.198   4.248   1.091
 5630SOL    HW117789   6.231   4.165   1.046
 5630SOL    HW217790   6.181   4.319   1.022
 5631SOL     OW17791   6.328   0.972   6.196
 5631SOL    HW117792   6.252   0.956   6.259
 5631SOL    HW217793   6.412   0.937   6.237
 5632SOL     OW17794   3.275   2.055   1.023
 5632SOL    HW117795   3.279   2.077   1.120
 5632SOL    HW217796   3.182   2.027   0.999
 5633SOL     OW17797   0.096   3.230   5.947
 5633SOL    HW117798   0.152   3.290   6.004
 5633SOL    HW217799   0.012   3.277   5.922
 5634SOL     OW17800   4.582   5.851   5.632
 5634SOL    HW117801   4.643   5.847   5.712
 5634SOL    HW217802   4.633   5.885   5.553
 5635SOL     OW17803   2.816   1.538   0.163
 5635SOL    HW117804   2.913   1.563   0.170
 5635SOL    HW217805   2.761   1.621   0.152
 5636SOL     OW17806   4.616   1.018   4.375
 5636SOL    HW117807   4.565   1.093   4.418
 5636SOL    HW217808   4.710   1.047   4.357
 5637SOL     OW17809   5.909   0.109   2.785
 5637SOL    HW117810   5.858   0.125   2.870
 5637SOL    HW217811   5.876   0.171   2.714
 5638SOL     OW17812   6.957   3.535   0.701
 5638SOL    HW117813   6.979   3.474   0.777
 5638SOL    HW217814   6.924   3.481   0.624
 5639SOL     OW17815   4.219   0.180   6.490
 5639SOL    HW117816   4.259   0.188   6.582
 5639SOL    HW217817   4.156   0.256   6.475
 5640SOL     OW17818   1.135   6.783   3.200
 5640SOL    HW117819   1.182   6.854   3.252
 5640SOL    HW217820   1.084   6.724   3.262
 5641SOL     OW17821   6.647   6.130   4.484
 5641SOL    HW117822   6.692   6.056   4.434
 5641SOL    HW217823   6.557   6.146   4.444
 5642SOL     OW17824   1.360   0.637   0.623
 5642SOL    HW117825   1.322   0.675   0.539
 5642SOL    HW217826   1.318   0.682   0.702
 5643SOL     OW17827   4.972   2.414   0.586
 5643SOL    HW117828   5.055   2.466   0.566
 5643SOL    HW217829   4.940   2.371   0.502
 5644SOL     OW17830   2.706   0.235   5.724
 5644SOL    HW117831   2.628   0.274   5.676
 5644SOL    HW217832   2.790   0.251   5.672
 5645SOL     OW17833   4.996   3.834   4.032
 5645SOL    HW117834   5.096   3.839   4.034
 5645SOL    HW217835   4.967   3.741   4.051
 5646SOL     OW17836   1.166   4.826   2.755
 5646SOL    HW117837   1.118   4.785   2.677
 5646SOL    HW217838   1.265   4.817   2.742
 5647SOL     OW17839   4.130   5.246   2.384
 5647SOL    HW117840   4.156   5.169   2.441
 5647SOL    HW217841   4.209   5.276   2.330
 5648SOL     OW17842   5.705   6.872   3.631
 5648SOL    HW117843   5.746   6.796   3.681
 5648SOL    HW217844   5.776   6.920   3.578
 5649SOL     OW17845   0.713   0.566   4.541
 5649SOL    HW117846   0.690   0.585   4.636
 5649SOL    HW217847   0.736   0.652   4.494
 5650SOL     OW17848   0.826   3.673   6.409
 5650SOL    HW117849   0.793   3.724   6.330
 5650SOL    HW217850   0.924   3.655   6.398
 5651SOL     OW17851   3.196   0.914   1.098
 5651SOL    HW117852   3.127   0.986   1.090
 5651SOL    HW217853   3.224   0.905   1.193
 5652SOL     OW17854   0.378   6.036   2.190
 5652SOL    HW117855   0.305   6.101   2.210
 5652SOL    HW217856   0.343   5.966   2.128
 5653SOL     OW17857   0.112   0.386   2.759
 5653SOL    HW117858   0.037   0.320   2.762
 5653SOL    HW217859   0.196   0.343   2.791
 5654SOL     OW17860   3.248   6.024   5.994
 5654SOL    HW117861   3.306   6.005   6.074
 5654SOL    HW217862   3.229   6.122   5.989
 5655SOL     OW17863   6.345   3.310   4.151
 5655SOL    HW117864   6.387   3.398   4.129
 5655SOL    HW217865   6.395   3.267   4.226
 5656SOL     OW17866   0.256   5.062   1.947
 5656SOL    HW117867   0.225   4.976   1.987
 5656SOL    HW217868   0.273   5.128   2.020
 5657SOL     OW17869   6.246   5.981   5.614
 5657SOL    HW117870   6.166   6.020   5.567
 5657SOL    HW217871   6.282   6.049   5.678
 5658SOL     OW17872   3.003   2.318   5.343
 5658SOL    HW117873   3.069   2.365   5.284
 5658SOL    HW217874   3.052   2.258   5.407
 5659SOL     OW17875   2.425   3.762   5.541
 5659SOL    HW117876   2.366   3.834   5.578
 5659SOL    HW217877   2.491   3.735   5.610
 5660SOL     OW17878   4.148   0.955   4.073
 5660SOL    HW117879   4.071   0.934   4.013
 5660SOL    HW217880   4.232   0.964   4.020
 5661SOL     OW17881   0.643   6.015   5.773
 5661SOL    HW117882   0.741   5.995   5.777
 5661SOL    HW217883   0.621   6.057   5.684
 5662SOL     OW17884   2.688   5.728   0.550
 5662SOL    HW117885   2.636   5.684   0.623
 5662SOL    HW217886   2.629   5.743   0.470
 5663SOL     OW17887   3.607   1.377   6.250
 5663SOL    HW117888   3.683   1.369   6.314
 5663SOL    HW217889   3.600   1.294   6.196
 5664SOL     OW17890   4.763   6.204   5.129
 5664SOL    HW117891   4.854   6.232   5.098
 5664SOL    HW217892   4.740   6.114   5.091
 5665SOL     OW17893   2.313   1.162   0.842
 5665SOL    HW117894   2.287   1.089   0.779
 5665SOL    HW217895   2.379   1.128   0.909
 5666SOL     OW17896   6.099   3.662   4.749
 5666SOL    HW117897   6.082   3.565   4.732
 5666SOL    HW217898   6.087   3.682   4.846
 5667SOL     OW17899   2.823   4.772   4.180
 5667SOL    HW117900   2.773   4.695   4.221
 5667SOL    HW217901   2.780   4.798   4.094
 5668SOL     OW17902   4.674   4.434   4.318
 5668SOL    HW117903   4.682   4.337   4.342
 5668SOL    HW217904   4.674   4.489   4.401
 5669SOL     OW17905   5.603   3.233   5.928
 5669SOL    HW117906   5.626   3.155   5.987
 5669SOL    HW217907   5.528   3.207   5.867
 5670SOL     OW17908   0.914   3.303   4.146
 5670SOL    HW117909   0.872   3.387   4.180
 5670SOL    HW217910   0.985   3.274   4.209
 5671SOL     OW17911   5.974   5.985   2.707
 5671SOL    HW117912   5.888   5.992   2.658
 5671SOL    HW217913   6.027   6.069   2.694
 5672SOL     OW17914   5.850   3.478   4.663
 5672SOL    HW117915   5.895   3.471   4.753
 5672SOL    HW217916   5.918   3.465   4.591
 5673SOL     OW17917   0.911   2.437   0.662
 5673SOL    HW117918   0.980   2.458   0.731
 5673SOL    HW217919   0.833   2.391   0.706
 5674SOL     OW17920   3.091   5.083   5.378
 5674SOL    HW117921   3.111   5.046   5.287
 5674SOL    HW217922   3.122   5.018   5.447
 5675SOL     OW17923   3.589   2.145   0.797
 5675SOL    HW117924   3.604   2.054   0.759
 5675SOL    HW217925   3.620   2.148   0.892
 5676SOL     OW17926   3.735   1.739   1.858
 5676SOL    HW117927   3.759   1.815   1.798
 5676SOL    HW217928   3.763   1.760   1.952
 5677SOL     OW17929   1.097   0.930   6.140
 5677SOL    HW117930   1.057   1.001   6.082
 5677SOL    HW217931   1.173   0.886   6.092
 5678SOL     OW17932   3.832   2.079   2.125
 5678SOL    HW117933   3.912   2.038   2.081
 5678SOL    HW217934   3.773   2.120   2.056
 5679SOL     OW17935   1.309   3.693   5.824
 5679SOL    HW117936   1.386   3.732   5.874
 5679SOL    HW217937   1.249   3.646   5.888
 5680SOL     OW17938   1.012   5.864   3.935
 5680SOL    HW117939   0.980   5.797   4.001
 5680SOL    HW217940   1.015   5.954   3.978
 5681SOL     OW17941   1.643   3.513   3.006
 5681SOL    HW117942   1.585   3.514   2.925
 5681SOL    HW217943   1.616   3.436   3.065
 5682SOL     OW17944   1.939   4.564   0.301
 5682SOL    HW117945   2.001   4.500   0.257
 5682SOL    HW217946   1.917   4.532   0.393
 5683SOL     OW17947   7.026   5.880   6.430
 5683SOL    HW117948   6.941   5.885   6.377
 5683SOL    HW217949   0.067   5.832   6.377
 5684SOL     OW17950   2.062   3.458   4.040
 5684SOL    HW117951   2.124   3.526   4.079
 5684SOL    HW217952   2.111   3.373   4.025
 5685SOL     OW17953   1.851   2.026   1.515
 5685SOL    HW117954   1.763   2.072   1.518
 5685SOL    HW217955   1.877   1.999   1.608
 5686SOL     OW17956   5.517   5.182   5.467
 5686SOL    HW117957   5.491   5.091   5.433
 5686SOL    HW217958   5.463   5.252   5.421
 5687SOL     OW17959   1.232   0.028   0.011
 5687SOL    HW117960   1.220   0.125   7.015
 5687SOL    HW217961   1.319   7.023   7.003
 5688SOL     OW17962   1.507   2.902   2.441
 5688SOL    HW117963   1.584   2.858   2.487
 5688SOL    HW217964   1.422   2.858   2.468
 5689SOL     OW17965   0.021   1.989   0.624
 5689SOL    HW117966   7.006   1.967   0.712
 5689SOL    HW217967   0.119   2.004   0.638
 5690SOL     OW17968   3.183   5.262   6.684
 5690SOL    HW117969   3.233   5.199   6.625
 5690SOL    HW217970   3.190   5.231   6.779
 5691SOL     OW17971   5.231   3.092   3.244
 5691SOL    HW117972   5.221   3.171   3.184
 5691SOL    HW217973   5.203   3.118   3.337
 5692SOL     OW17974   6.522   4.784   2.467
 5692SOL    HW117975   6.573   4.769   2.382
 5692SOL    HW217976   6.427   4.807   2.445
 5693SOL     OW17977   2.877   0.864   1.886
 5693SOL    HW117978   2.818   0.847   1.965
 5693SOL    HW217979   2.945   0.791   1.879
 5694SOL     OW17980   6.874   6.577   0.749
 5694SOL    HW117981   6.922   6.522   0.681
 5694SOL    HW217982   6.785   6.604   0.714
 5695SOL     OW17983   1.629   0.887   2.177
 5695SOL    HW117984   1.583   0.945   2.245
 5695SOL    HW217985   1.654   0.942   2.098
 5696SOL     OW17986   6.651   1.165   3.403
 5696SOL    HW117987   6.614   1.140   3.313
 5696SOL    HW217988   6.618   1.101   3.472
 5697SOL     OW17989   5.975   1.925   0.175
 5697SOL    HW117990   5.915   1.992   0.219
 5697SOL    HW217991   5.928   1.882   0.099
 5698SOL     OW17992   2.978   2.038   3.133
 5698SOL    HW117993   2.996   1.991   3.047
 5698SOL    HW217994   3.046   2.012   3.201
 5699SOL     OW17995   2.503   2.460   2.747
 5699SOL    HW117996   2.511   2.507   2.835
 5699SOL    HW217997   2.419   2.407   2.745
 5700SOL     OW17998   5.600   0.857   2.033
 5700SOL    HW117999   5.510   0.880   1.996
 5700SOL    HW218000   5.601   0.761   2.060
 5701SOL     OW18001   2.087   1.448   0.394
 5701SOL    HW118002   2.108   1.501   0.476
 5701SOL    HW218003   2.156   1.466   0.324
 5702SOL     OW18004   1.613   6.495   5.020
 5702SOL    HW118005   1.542   6.489   5.090
 5702SOL    HW218006   1.618   6.409   4.969
 5703SOL     OW18007   0.938   3.422   5.832
 5703SOL    HW118008   0.918   3.414   5.930
 5703SOL    HW218009   1.037   3.420   5.818
 5704SOL     OW18010   4.797   6.062   4.420
 5704SOL    HW118011   4.771   5.965   4.417
 5704SOL    HW218012   4.893   6.069   4.447
 5705SOL     OW18013   6.131   1.780   4.704
 5705SOL    HW118014   6.149   1.856   4.767
 5705SOL    HW218015   6.171   1.696   4.741
 5706SOL     OW18016   5.387   0.663   1.222
 5706SOL    HW118017   5.348   0.731   1.159
 5706SOL    HW218018   5.360   0.685   1.316
 5707SOL     OW18019   5.868   6.232   1.391
 5707SOL    HW118020   5.873   6.262   1.296
 5707SOL    HW218021   5.773   6.233   1.422
 5708SOL     OW18022   4.742   6.828   1.644
 5708SOL    HW118023   4.692   6.744   1.623
 5708SOL    HW218024   4.815   6.841   1.577
 5709SOL     OW18025   6.568   2.789   2.367
 5709SOL    HW118026   6.585   2.692   2.387
 5709SOL    HW218027   6.565   2.840   2.453
 5710SOL     OW18028   4.928   1.210   0.494
 5710SOL    HW118029   4.829   1.217   0.506
 5710SOL    HW218030   4.973   1.280   0.549
 5711SOL     OW18031   4.438   1.326   2.641
 5711SOL    HW118032   4.428   1.348   2.544
 5711SOL    HW218033   4.517   1.375   2.679
 5712SOL     OW18034   6.587   5.739   7.007
 5712SOL    HW118035   6.626   5.830   6.995
 5712SOL    HW218036   6.558   5.727   0.074
 5713SOL     OW18037   1.402   0.780   6.645
 5713SOL    HW118038   1.377   0.774   6.549
 5713SOL    HW218039   1.499   0.758   6.656
 5714SOL     OW18040   4.796   0.231   0.958
 5714SOL    HW118041   4.781   0.176   0.876
 5714SOL    HW218042   4.874   0.194   1.009
 5715SOL     OW18043   0.512   5.946   0.895
 5715SOL    HW118044   0.422   5.982   0.869
 5715SOL    HW218045   0.503   5.894   0.980
 5716SOL     OW18046   6.685   4.690   5.623
 5716SOL    HW118047   6.682   4.627   5.700
 5716SOL    HW218048   6.622   4.660   5.552
 5717SOL     OW18049   0.055   6.097   2.126
 5717SOL    HW118050   7.026   6.039   2.184
 5717SOL    HW218051   0.117   6.150   2.184
 5718SOL     OW18052   1.811   4.586   5.935
 5718SOL    HW118053   1.778   4.547   5.849
 5718SOL    HW218054   1.736   4.631   5.982
 5719SOL     OW18055   3.845   3.915   2.046
 5719SOL    HW118056   3.759   3.925   1.994
 5719SOL    HW218057   3.825   3.919   2.144
 5720SOL     OW18058   2.278   3.621   6.589
 5720SOL    HW118059   2.210   3.612   6.662
 5720SOL    HW218060   2.323   3.710   6.597
 5721SOL     OW18061   0.834   2.858   0.634
 5721SOL    HW118062   0.874   2.843   0.725
 5721SOL    HW218063   0.895   2.915   0.580
 5722SOL     OW18064   1.509   0.693   6.025
 5722SOL    HW118065   1.499   0.600   6.061
 5722SOL    HW218066   1.604   0.710   6.001
 5723SOL     OW18067   4.345   3.756   7.007
 5723SOL    HW118068   4.314   3.847   6.980
 5723SOL    HW218069   4.415   3.764   0.050
 5724SOL     OW18070   6.802   2.208   6.046
 5724SOL    HW118071   6.793   2.224   6.145
 5724SOL    HW218072   6.770   2.116   6.024
 5725SOL     OW18073   6.810   4.259   5.183
 5725SOL    HW118074   6.740   4.193   5.155
 5725SOL    HW218075   6.890   4.251   5.123
 5726SOL     OW18076   4.125   4.931   1.806
 5726SOL    HW118077   4.085   5.017   1.774
 5726SOL    HW218078   4.225   4.935   1.798
 5727SOL     OW18079   0.961   3.132   6.167
 5727SOL    HW118080   0.904   3.214   6.160
 5727SOL    HW218081   0.962   3.100   6.262
 5728SOL     OW18082   2.129   5.750   4.106
 5728SOL    HW118083   2.221   5.713   4.120
 5728SOL    HW218084   2.095   5.790   4.192
 5729SOL     OW18085   2.475   1.954   4.322
 5729SOL    HW118086   2.509   1.866   4.355
 5729SOL    HW218087   2.377   1.960   4.338
 5730SOL     OW18088   6.507   4.567   4.175
 5730SOL    HW118089   6.413   4.566   4.208
 5730SOL    HW218090   6.508   4.589   4.077
 5731SOL     OW18091   6.521   0.069   2.622
 5731SOL    HW118092   6.557   0.075   2.715
 5731SOL    HW218093   6.588   0.024   2.563
 5732SOL     OW18094   5.253   0.295   3.371
 5732SOL    HW118095   5.308   0.322   3.292
 5732SOL    HW218096   5.186   0.226   3.343
 5733SOL     OW18097   3.162   0.796   5.399
 5733SOL    HW118098   3.095   0.861   5.364
 5733SOL    HW218099   3.250   0.810   5.352
 5734SOL     OW18100   2.705   5.982   3.978
 5734SOL    HW118101   2.699   6.058   3.913
 5734SOL    HW218102   2.638   5.912   3.953
 5735SOL     OW18103   2.617   1.088   1.271
 5735SOL    HW118104   2.542   1.076   1.206
 5735SOL    HW218105   2.583   1.079   1.364
 5736SOL     OW18106   1.871   4.422   1.542
 5736SOL    HW118107   1.779   4.389   1.561
 5736SOL    HW218108   1.931   4.344   1.523
 5737SOL     OW18109   5.879   3.722   0.032
 5737SOL    HW118110   5.797   3.779   0.032
 5737SOL    HW218111   5.949   3.764   0.089
 5738SOL     OW18112   0.936   6.108   4.576
 5738SOL    HW118113   0.906   6.064   4.492
 5738SOL    HW218114   0.961   6.203   4.557
 5739SOL     OW18115   0.663   2.324   1.479
 5739SOL    HW118116   0.720   2.394   1.437
 5739SOL    HW218117   0.604   2.366   1.548
 5740SOL     OW18118   4.369   5.301   0.044
 5740SOL    HW118119   4.374   5.368   0.118
 5740SOL    HW218120   4.429   5.224   0.064
 5741SOL     OW18121   7.028   2.215   1.675
 5741SOL    HW118122   6.929   2.202   1.678
 5741SOL    HW218123   0.042   2.161   1.748
 5742SOL     OW18124   0.095   5.018   3.598
 5742SOL    HW118125   0.050   4.930   3.612
 5742SOL    HW218126   0.186   5.017   3.640
 5743SOL     OW18127   0.557   0.384   4.827
 5743SOL    HW118128   0.533   0.363   4.922
 5743SOL    HW218129   0.595   0.476   4.822
 5744SOL     OW18130   6.139   0.795   2.379
 5744SOL    HW118131   6.194   0.867   2.336
 5744SOL    HW218132   6.045   0.800   2.343
 5745SOL     OW18133   6.873   3.361   2.669
 5745SOL    HW118134   6.823   3.283   2.707
 5745SOL    HW218135   6.838   3.445   2.709
 5746SOL     OW18136   0.693   3.284   6.223
 5746SOL    HW118137   0.632   3.362   6.210
 5746SOL    HW218138   0.652   3.220   6.289
 5747SOL     OW18139   6.849   6.782   3.475
 5747SOL    HW118140   6.841   6.852   3.403
 5747SOL    HW218141   6.918   6.715   3.448
 5748SOL     OW18142   1.155   1.165   3.915
 5748SOL    HW118143   1.129   1.106   3.991
 5748SOL    HW218144   1.100   1.248   3.917
 5749SOL     OW18145   0.529   1.377   3.231
 5749SOL    HW118146   0.483   1.300   3.187
 5749SOL    HW218147   0.472   1.411   3.306
 5750SOL     OW18148   4.302   5.733   2.530
 5750SOL    HW118149   4.242   5.802   2.491
 5750SOL    HW218150   4.389   5.775   2.557
 5751SOL     OW18151   1.381   1.683   6.705
 5751SOL    HW118152   1.414   1.696   6.799
 5751SOL    HW218153   1.281   1.695   6.704
 5752SOL     OW18154   2.333   0.651   6.823
 5752SOL    HW118155   2.416   0.643   6.767
 5752SOL    HW218156   2.328   0.574   6.886
 5753SOL     OW18157   3.875   1.305   6.119
 5753SOL    HW118158   3.814   1.227   6.124
 5753SOL    HW218159   3.917   1.309   6.028
 5754SOL     OW18160   5.840   6.010   0.983
 5754SOL    HW118161   5.888   6.095   0.963
 5754SOL    HW218162   5.786   6.022   1.067
 5755SOL     OW18163   3.006   3.923   2.423
 5755SOL    HW118164   2.941   3.997   2.411
 5755SOL    HW218165   2.966   3.837   2.390
 5756SOL     OW18166   6.243   0.438   3.579
 5756SOL    HW118167   6.335   0.447   3.617
 5756SOL    HW218168   6.230   0.507   3.508
 5757SOL     OW18169   6.994   6.930   1.877
 5757SOL    HW118170   0.051   6.882   1.899
 5757SOL    HW218171   6.944   6.951   1.961
 5758SOL     OW18172   2.727   1.215   5.741
 5758SOL    HW118173   2.700   1.256   5.653
 5758SOL    HW218174   2.803   1.266   5.780
 5759SOL     OW18175   0.392   1.375   5.703
 5759SOL    HW118176   0.368   1.367   5.606
 5759SOL    HW218177   0.464   1.443   5.714
 5760SOL     OW18178   6.613   5.974   1.463
 5760SOL    HW118179   6.658   5.934   1.542
 5760SOL    HW218180   6.636   6.071   1.457
 5761SOL     OW18181   3.602   0.476   4.247
 5761SOL    HW118182   3.655   0.409   4.299
 5761SOL    HW218183   3.659   0.556   4.227
 5762SOL     OW18184   4.695   0.338   1.492
 5762SOL    HW118185   4.609   0.306   1.452
 5762SOL    HW218186   4.715   0.284   1.574
 5763SOL     OW18187   3.792   1.017   0.748
 5763SOL    HW118188   3.820   0.985   0.657
 5763SOL    HW218189   3.824   0.953   0.817
 5764SOL     OW18190   3.306   2.849   6.638
 5764SOL    HW118191   3.312   2.755   6.603
 5764SOL    HW218192   3.341   2.912   6.569
 5765SOL     OW18193   6.997   5.250   6.167
 5765SOL    HW118194   6.965   5.345   6.161
 5765SOL    HW218195   0.026   5.239   6.248
 5766SOL     OW18196   2.407   1.805   3.206
 5766SOL    HW118197   2.408   1.876   3.276
 5766SOL    HW218198   2.495   1.806   3.157
 5767SOL     OW18199   4.412   6.291   0.231
 5767SOL    HW118200   4.492   6.240   0.199
 5767SOL    HW218201   4.420   6.386   0.202
 5768SOL     OW18202   5.165   0.388   2.533
 5768SOL    HW118203   5.087   0.372   2.594
 5768SOL    HW218204   5.240   0.327   2.558
 5769SOL     OW18205   6.957   4.761   3.403
 5769SOL    HW118206   6.933   4.818   3.324
 5769SOL    HW218207   6.910   4.673   3.396
 5770SOL     OW18208   4.664   2.732   0.586
 5770SOL    HW118209   4.632   2.679   0.507
 5770SOL    HW218210   4.653   2.830   0.567
 5771SOL     OW18211   0.664   0.321   1.731
 5771SOL    HW118212   0.725   0.273   1.793
 5771SOL    HW218213   0.656   0.270   1.645
 5772SOL     OW18214   6.093   4.883   5.575
 5772SOL    HW118215   6.138   4.892   5.486
 5772SOL    HW218216   5.996   4.861   5.560
 5773SOL     OW18217   4.979   6.641   5.644
 5773SOL    HW118218   4.965   6.689   5.731
 5773SOL    HW218219   4.893   6.598   5.615
 5774SOL     OW18220   1.506   4.158   1.819
 5774SOL    HW118221   1.502   4.098   1.898
 5774SOL    HW218222   1.527   4.251   1.849
 5775SOL     OW18223   1.406   0.919   7.010
 5775SOL    HW118224   1.454   1.006   7.019
 5775SOL    HW218225   1.339   0.925   6.936
 5776SOL     OW18226   4.983   0.247   5.538
 5776SOL    HW118227   4.901   0.283   5.494
 5776SOL    HW218228   5.056   0.314   5.532
 5777SOL     OW18229   4.630   6.529   4.962
 5777SOL    HW118230   4.614   6.615   4.915
 5777SOL    HW218231   4.566   6.460   4.928
 5778SOL     OW18232   2.524   6.669   3.481
 5778SOL    HW118233   2.490   6.759   3.506
 5778SOL    HW218234   2.606   6.679   3.424
 5779SOL     OW18235   3.257   6.428   2.157
 5779SOL    HW118236   3.327   6.371   2.202
 5779SOL    HW218237   3.234   6.505   2.216
 5780SOL     OW18238   0.139   4.343   0.232
 5780SOL    HW118239   0.134   4.334   0.133
 5780SOL    HW218240   0.193   4.425   0.255
 5781SOL     OW18241   4.727   4.749   5.911
 5781SOL    HW118242   4.683   4.801   5.838
 5781SOL    HW218243   4.748   4.657   5.878
 5782SOL     OW18244   4.482   1.656   2.669
 5782SOL    HW118245   4.547   1.588   2.701
 5782SOL    HW218246   4.520   1.748   2.685
 5783SOL     OW18247   2.794   5.980   3.437
 5783SOL    HW118248   2.725   5.910   3.420
 5783SOL    HW218249   2.752   6.060   3.480
 5784SOL     OW18250   0.200   0.020   2.160
 5784SOL    HW118251   0.180   6.961   2.204
 5784SOL    HW218252   0.116   0.074   2.153
 5785SOL     OW18253   2.535   0.915   5.640
 5785SOL    HW118254   2.462   0.936   5.574
 5785SOL    HW218255   2.622   0.949   5.606
 5786SOL     OW18256   2.266   1.166   5.939
 5786SOL    HW118257   2.251   1.162   6.038
 5786SOL    HW218258   2.312   1.251   5.916
 5787SOL     OW18259   0.574   2.505   6.174
 5787SOL    HW118260   0.670   2.511   6.146
 5787SOL    HW218261   0.520   2.571   6.121
 5788SOL     OW18262   0.402   2.193   1.846
 5788SOL    HW118263   0.348   2.112   1.822
 5788SOL    HW218264   0.353   2.247   1.914
 5789SOL     OW18265   3.302   1.697   6.650
 5789SOL    HW118266   3.225   1.676   6.588
 5789SOL    HW218267   3.300   1.634   6.727
 5790SOL     OW18268   6.219   6.222   2.775
 5790SOL    HW118269   6.166   6.206   2.859
 5790SOL    HW218270   6.315   6.203   2.793
 5791SOL     OW18271   3.916   0.738   1.871
 5791SOL    HW118272   3.830   0.779   1.901
 5791SOL    HW218273   3.981   0.811   1.847
 5792SOL     OW18274   4.824   1.675   2.531
 5792SOL    HW118275   4.866   1.636   2.612
 5792SOL    HW218276   4.728   1.697   2.549
 5793SOL     OW18277   4.113   1.459   0.958
 5793SOL    HW118278   4.052   1.474   0.880
 5793SOL    HW218279   4.206   1.441   0.925
 5794SOL     OW18280   3.708   6.370   0.082
 5794SOL    HW118281   3.684   6.397   7.017
 5794SOL    HW218282   3.750   6.279   0.080
 5795SOL     OW18283   0.898   6.530   2.133
 5795SOL    HW118284   0.891   6.431   2.146
 5795SOL    HW218285   0.838   6.577   2.199
 5796SOL     OW18286   4.918   0.918   5.810
 5796SOL    HW118287   4.903   1.010   5.773
 5796SOL    HW218288   5.005   0.916   5.859
 5797SOL     OW18289   5.941   1.337   6.269
 5797SOL    HW118290   5.961   1.310   6.364
 5797SOL    HW218291   5.971   1.431   6.255
 5798SOL     OW18292   2.095   2.748   4.351
 5798SOL    HW118293   2.080   2.839   4.314
 5798SOL    HW218294   2.059   2.744   4.445
 5799SOL     OW18295   2.709   1.081   3.745
 5799SOL    HW118296   2.651   1.091   3.826
 5799SOL    HW218297   2.667   1.128   3.668
 5800SOL     OW18298   1.422   5.623   1.413
 5800SOL    HW118299   1.438   5.721   1.409
 5800SOL    HW218300   1.377   5.600   1.499
 5801SOL     OW18301   2.087   1.966   3.355
 5801SOL    HW118302   2.022   2.037   3.381
 5801SOL    HW218303   2.037   1.883   3.329
 5802SOL     OW18304   0.046   6.763   2.263
 5802SOL    HW118305   0.052   6.767   2.363
 5802SOL    HW218306   7.009   6.692   2.236
 5803SOL     OW18307   0.084   0.022   4.573
 5803SOL    HW118308   0.018   0.064   4.511
 5803SOL    HW218309   0.036   7.012   4.652
 5804SOL     OW18310   6.558   3.125   3.373
 5804SOL    HW118311   6.580   3.220   3.353
 5804SOL    HW218312   6.601   3.066   3.305
 5805SOL     OW18313   0.529   1.569   1.792
 5805SOL    HW118314   0.442   1.611   1.817
 5805SOL    HW218315   0.522   1.528   1.702
 5806SOL     OW18316   6.913   4.086   2.084
 5806SOL    HW118317   6.876   3.993   2.088
 5806SOL    HW218318   6.847   4.150   2.124
 5807SOL     OW18319   0.858   1.217   2.706
 5807SOL    HW118320   0.788   1.288   2.711
 5807SOL    HW218321   0.907   1.225   2.619
 5808SOL     OW18322   6.036   5.482   6.204
 5808SOL    HW118323   6.080   5.458   6.290
 5808SOL    HW218324   6.023   5.581   6.199
 5809SOL     OW18325   6.606   4.070   5.150
 5809SOL    HW118326   6.507   4.056   5.154
 5809SOL    HW218327   6.652   3.987   5.183
 5810SOL     OW18328   0.881   6.584   4.665
 5810SOL    HW118329   0.841   6.672   4.639
 5810SOL    HW218330   0.844   6.555   4.754
 5811SOL     OW18331   3.105   5.522   0.142
 5811SOL    HW118332   3.138   5.605   0.187
 5811SOL    HW218333   3.015   5.538   0.104
 5812SOL     OW18334   6.069   2.582   5.731
 5812SOL    HW118335   6.132   2.659   5.744
 5812SOL    HW218336   5.975   2.616   5.724
 5813SOL     OW18337   6.754   5.075   1.087
 5813SOL    HW118338   6.724   4.981   1.069
 5813SOL    HW218339   6.834   5.097   1.032
 5814SOL     OW18340   5.084   1.719   2.416
 5814SOL    HW118341   5.068   1.791   2.484
 5814SOL    HW218342   5.058   1.630   2.454
 5815SOL     OW18343   0.694   4.781   4.563
 5815SOL    HW118344   0.728   4.875   4.557
 5815SOL    HW218345   0.750   4.730   4.628
 5816SOL     OW18346   6.625   3.752   1.376
 5816SOL    HW118347   6.551   3.806   1.335
 5816SOL    HW218348   6.586   3.682   1.436
 5817SOL     OW18349   6.978   2.009   3.760
 5817SOL    HW118350   6.895   1.990   3.707
 5817SOL    HW218351   7.012   1.925   3.802
 5818SOL     OW18352   2.700   2.035   3.418
 5818SOL    HW118353   2.610   2.026   3.459
 5818SOL    HW218354   2.698   2.002   3.323
 5819SOL     OW18355   4.218   4.456   1.630
 5819SOL    HW118356   4.253   4.373   1.674
 5819SOL    HW218357   4.175   4.432   1.544
 5820SOL     OW18358   1.163   6.285   2.172
 5820SOL    HW118359   1.165   6.279   2.072
 5820SOL    HW218360   1.091   6.226   2.208
 5821SOL     OW18361   5.396   5.923   1.543
 5821SOL    HW118362   5.359   6.015   1.527
 5821SOL    HW218363   5.493   5.930   1.568
 5822SOL     OW18364   1.076   3.905   3.143
 5822SOL    HW118365   1.168   3.867   3.149
 5822SOL    HW218366   1.067   3.957   3.058
 5823SOL     OW18367   2.164   6.828   4.810
 5823SOL    HW118368   2.182   6.922   4.839
 5823SOL    HW218369   2.084   6.793   4.858
 5824SOL     OW18370   1.317   5.721   2.376
 5824SOL    HW118371   1.374   5.762   2.305
 5824SOL    HW218372   1.367   5.646   2.420
 5825SOL     OW18373   2.846   2.118   4.958
 5825SOL    HW118374   2.819   2.193   4.898
 5825SOL    HW218375   2.934   2.081   4.928
 5826SOL     OW18376   1.311   5.774   5.812
 5826SOL    HW118377   1.359   5.834   5.876
 5826SOL    HW218378   1.231   5.821   5.776
 5827SOL     OW18379   1.187   4.859   3.922
 5827SOL    HW118380   1.114   4.902   3.869
 5827SOL    HW218381   1.260   4.925   3.938
 5828SOL     OW18382   5.370   0.210   4.815
 5828SOL    HW118383   5.354   0.151   4.895
 5828SOL    HW218384   5.294   0.201   4.751
 5829SOL     OW18385   1.805   1.199   2.532
 5829SOL    HW118386   1.862   1.193   2.451
 5829SOL    HW218387   1.843   1.141   2.604
 5830SOL     OW18388   4.759   4.743   3.955
 5830SOL    HW118389   4.727   4.657   3.994
 5830SOL    HW218390   4.838   4.776   4.006
 5831SOL     OW18391   2.164   1.630   4.266
 5831SOL    HW118392   2.255   1.589   4.262
 5831SOL    HW218393   2.154   1.697   4.193
 5832SOL     OW18394   2.931   5.337   3.778
 5832SOL    HW118395   2.979   5.253   3.753
 5832SOL    HW218396   2.962   5.412   3.720
 5833SOL     OW18397   2.648   4.528   1.284
 5833SOL    HW118398   2.614   4.547   1.376
 5833SOL    HW218399   2.725   4.464   1.289
 5834SOL     OW18400   6.893   0.597   6.462
 5834SOL    HW118401   6.989   0.616   6.440
 5834SOL    HW218402   6.856   0.534   6.393
 5835SOL     OW18403   3.316   1.068   3.402
 5835SOL    HW118404   3.220   1.057   3.376
 5835SOL    HW218405   3.340   0.998   3.470
 5836SOL     OW18406   5.838   4.974   1.342
 5836SOL    HW118407   5.925   4.936   1.375
 5836SOL    HW218408   5.857   5.042   1.271
 5837SOL     OW18409   2.295   4.186   7.005
 5837SOL    HW118410   2.333   4.212   0.066
 5837SOL    HW218411   2.202   4.153   7.016
 5838SOL     OW18412   3.309   3.649   0.539
 5838SOL    HW118413   3.253   3.731   0.539
 5838SOL    HW218414   3.405   3.674   0.521
 5839SOL     OW18415   2.404   1.883   0.919
 5839SOL    HW118416   2.375   1.886   1.015
 5839SOL    HW218417   2.373   1.966   0.872
 5840SOL     OW18418   6.436   3.476   2.530
 5840SOL    HW118419   6.502   3.455   2.458
 5840SOL    HW218420   6.363   3.533   2.493
 5841SOL     OW18421   4.549   1.472   0.215
 5841SOL    HW118422   4.564   1.375   0.231
 5841SOL    HW218423   4.501   1.484   0.128
 5842SOL     OW18424   3.118   1.840   2.186
 5842SOL    HW118425   3.149   1.852   2.281
 5842SOL    HW218426   3.078   1.925   2.153
 5843SOL     OW18427   2.503   2.681   1.338
 5843SOL    HW118428   2.588   2.632   1.317
 5843SOL    HW218429   2.521   2.779   1.336
 5844SOL     OW18430   6.340   5.520   4.824
 5844SOL    HW118431   6.439   5.526   4.835
 5844SOL    HW218432   6.300   5.479   4.907
 5845SOL     OW18433   2.217   5.917   3.443
 5845SOL    HW118434   2.168   5.960   3.367
 5845SOL    HW218435   2.281   5.850   3.408
 5846SOL     OW18436   0.481   4.409   5.464
 5846SOL    HW118437   0.436   4.324   5.490
 5846SOL    HW218438   0.578   4.392   5.447
 5847SOL     OW18439   2.088   3.587   5.867
 5847SOL    HW118440   2.095   3.640   5.783
 5847SOL    HW218441   1.991   3.574   5.890
 5848SOL     OW18442   2.814   6.550   2.418
 5848SOL    HW118443   2.835   6.647   2.406
 5848SOL    HW218444   2.733   6.541   2.477
 5849SOL     OW18445   3.106   6.625   6.130
 5849SOL    HW118446   3.182   6.689   6.115
 5849SOL    HW218447   3.128   6.537   6.089
 5850SOL     OW18448   5.903   2.667   1.284
 5850SOL    HW118449   5.918   2.679   1.186
 5850SOL    HW218450   5.855   2.746   1.321
 5851SOL     OW18451   1.246   2.895   6.311
 5851SOL    HW118452   1.173   2.847   6.360
 5851SOL    HW218453   1.248   2.990   6.340
 5852SOL     OW18454   4.224   4.705   3.390
 5852SOL    HW118455   4.313   4.677   3.426
 5852SOL    HW218456   4.230   4.798   3.354
 5853SOL     OW18457   4.525   5.086   0.074
 5853SOL    HW118458   4.618   5.103   0.107
 5853SOL    HW218459   4.522   4.998   0.027
 5854SOL     OW18460   2.466   4.225   5.308
 5854SOL    HW118461   2.412   4.163   5.251
 5854SOL    HW218462   2.408   4.301   5.339
 5855SOL     OW18463   0.982   2.030   4.513
 5855SOL    HW118464   0.991   2.087   4.594
 5855SOL    HW218465   0.998   1.934   4.538
 5856SOL     OW18466   6.969   0.854   2.610
 5856SOL    HW118467   0.011   0.858   2.682
 5856SOL    HW218468   6.930   0.945   2.597
 5857SOL     OW18469   6.272   5.719   0.116
 5857SOL    HW118470   6.181   5.679   0.112
 5857SOL    HW218471   6.296   5.756   0.026
 5858SOL     OW18472   3.062   1.785   0.605
 5858SOL    HW118473   2.980   1.765   0.552
 5858SOL    HW218474   3.039   1.787   0.703
 5859SOL     OW18475   6.362   4.681   1.772
 5859SOL    HW118476   6.268   4.698   1.800
 5859SOL    HW218477   6.362   4.644   1.679
 5860SOL     OW18478   1.797   3.343   1.824
 5860SOL    HW118479   1.752   3.261   1.862
 5860SOL    HW218480   1.760   3.363   1.734
 5861SOL     OW18481   5.019   6.261   5.069
 5861SOL    HW118482   5.000   6.351   5.109
 5861SOL    HW218483   5.038   6.272   4.972
 5862SOL     OW18484   0.422   5.219   1.565
 5862SOL    HW118485   0.387   5.275   1.490
 5862SOL    HW218486   0.490   5.271   1.617
 5863SOL     OW18487   3.663   0.070   5.667
 5863SOL    HW118488   3.613   0.123   5.598
 5863SOL    HW218489   3.704   7.017   5.624
 5864SOL     OW18490   4.091   3.736   3.079
 5864SOL    HW118491   4.180   3.767   3.046
 5864SOL    HW218492   4.093   3.730   3.179
 5865SOL     OW18493   6.731   6.237   0.930
 5865SOL    HW118494   6.792   6.316   0.941
 5865SOL    HW218495   6.751   6.170   1.001
 5866SOL     OW18496   3.440   4.102   4.081
 5866SOL    HW118497   3.512   4.032   4.087
 5866SOL    HW218498   3.436   4.137   3.988
 5867SOL     OW18499   5.224   0.403   0.009
 5867SOL    HW118500   5.129   0.433   0.018
 5867SOL    HW218501   5.284   0.483   7.027
 5868SOL     OW18502   1.514   1.087   0.647
 5868SOL    HW118503   1.494   1.183   0.668
 5868SOL    HW218504   1.437   1.030   0.675
 5869SOL     OW18505   2.076   5.393   3.566
 5869SOL    HW118506   2.161   5.408   3.515
 5869SOL    HW218507   2.015   5.471   3.551
 5870SOL     OW18508   3.933   6.416   3.625
 5870SOL    HW118509   4.026   6.379   3.632
 5870SOL    HW218510   3.905   6.417   3.529
 5871SOL     OW18511   4.115   3.329   3.274
 5871SOL    HW118512   4.172   3.247   3.274
 5871SOL    HW218513   4.153   3.396   3.338
 5872SOL     OW18514   3.670   5.192   1.786
 5872SOL    HW118515   3.597   5.126   1.770
 5872SOL    HW218516   3.641   5.282   1.752
 5873SOL     OW18517   3.793   6.806   1.847
 5873SOL    HW118518   3.810   6.904   1.842
 5873SOL    HW218519   3.875   6.759   1.880
 5874SOL     OW18520   0.665   2.840   4.312
 5874SOL    HW118521   0.706   2.768   4.368
 5874SOL    HW218522   0.731   2.914   4.298
 5875SOL     OW18523   3.917   2.467   1.109
 5875SOL    HW118524   3.900   2.496   1.203
 5875SOL    HW218525   3.928   2.548   1.051
 5876SOL     OW18526   4.058   3.571   2.540
 5876SOL    HW118527   4.073   3.605   2.632
 5876SOL    HW218528   4.097   3.636   2.474
 5877SOL     OW18529   4.382   5.001   1.744
 5877SOL    HW118530   4.424   5.016   1.654
 5877SOL    HW218531   4.445   5.033   1.816
 5878SOL     OW18532   0.580   3.636   2.074
 5878SOL    HW118533   0.630   3.675   1.997
 5878SOL    HW218534   0.633   3.649   2.158
 5879SOL     OW18535   2.006   3.902   5.002
 5879SOL    HW118536   2.000   3.963   4.924
 5879SOL    HW218537   2.068   3.941   5.070
 5880SOL     OW18538   2.368   5.793   0.098
 5880SOL    HW118539   2.312   5.721   0.055
 5880SOL    HW218540   2.308   5.853   0.151
 5881SOL     OW18541   1.596   6.269   4.879
 5881SOL    HW118542   1.530   6.241   4.810
 5881SOL    HW218543   1.648   6.189   4.910
 5882SOL     OW18544   5.223   0.804   2.697
 5882SOL    HW118545   5.274   0.825   2.613
 5882SOL    HW218546   5.128   0.784   2.674
 5883SOL     OW18547   0.654   3.207   5.525
 5883SOL    HW118548   0.728   3.198   5.457
 5883SOL    HW218549   0.626   3.303   5.531
 5884SOL     OW18550   0.001   1.406   3.531
 5884SOL    HW118551   7.007   1.486   3.474
 5884SOL    HW218552   0.097   1.382   3.518
 5885SOL     OW18553   6.414   5.105   0.435
 5885SOL    HW118554   6.401   5.110   0.534
 5885SOL    HW218555   6.385   5.190   0.392
 5886SOL     OW18556   6.210   2.301   6.191
 5886SOL    HW118557   6.154   2.355   6.127
 5886SOL    HW218558   6.195   2.334   6.284
 5887SOL     OW18559   3.933   6.630   2.267
 5887SOL    HW118560   3.897   6.642   2.359
 5887SOL    HW218561   4.027   6.596   2.273
 5888SOL     OW18562   0.025   5.742   2.518
 5888SOL    HW118563   0.036   5.658   2.465
 5888SOL    HW218564   6.956   5.757   2.535
 5889SOL     OW18565   3.230   6.622   0.679
 5889SOL    HW118566   3.319   6.595   0.718
 5889SOL    HW218567   3.222   6.722   0.681
 5890SOL     OW18568   4.283   5.185   6.289
 5890SOL    HW118569   4.236   5.262   6.332
 5890SOL    HW218570   4.234   5.158   6.206
 5891SOL     OW18571   2.556   3.164   6.735
 5891SOL    HW118572   2.524   3.248   6.691
 5891SOL    HW218573   2.640   3.133   6.690
 5892SOL     OW18574   3.366   5.106   1.154
 5892SOL    HW118575   3.318   5.074   1.235
 5892SOL    HW218576   3.387   5.028   1.095
 5893SOL     OW18577   0.351   3.062   1.811
 5893SOL    HW118578   0.383   3.007   1.888
 5893SOL    HW218579   0.304   3.003   1.745
 5894SOL     OW18580   2.231   4.656   3.687
 5894SOL    HW118581   2.247   4.728   3.620
 5894SOL    HW218582   2.267   4.570   3.653
 5895SOL     OW18583   4.684   4.858   3.517
 5895SOL    HW118584   4.636   4.916   3.450
 5895SOL    HW218585   4.778   4.843   3.486
 5896SOL     OW18586   5.516   2.425   5.516
 5896SOL    HW118587   5.517   2.325   5.517
 5896SOL    HW218588   5.449   2.457   5.449
 5897SOL     OW18589   4.510   4.597   0.217
 5897SOL    HW118590   4.551   4.686   0.234
 5897SOL    HW218591   4.581   4.529   0.199
 5898SOL     OW18592   1.653   5.696   2.466
 5898SOL    HW118593   1.584   5.623   2.466
 5898SOL    HW218594   1.744   5.655   2.461
 5899SOL     OW18595   4.820   0.623   3.591
 5899SOL    HW118596   4.809   0.524   3.597
 5899SOL    HW218597   4.895   0.645   3.529
 5900SOL     OW18598   3.794   5.134   2.115
 5900SOL    HW118599   3.871   5.186   2.078
 5900SOL    HW218600   3.710   5.160   2.067
 5901SOL     OW18601   2.960   6.361   3.397
 5901SOL    HW118602   2.961   6.265   3.368
 5901SOL    HW218603   3.054   6.395   3.403
 5902SOL     OW18604   6.879   1.759   0.212
 5902SOL    HW118605   6.843   1.683   0.266
 5902SOL    HW218606   6.905   1.726   0.121
 5903SOL     OW18607   0.917   2.165   6.134
 5903SOL    HW118608   0.875   2.220   6.206
 5903SOL    HW218609   0.901   2.068   6.152
 5904SOL     OW18610   6.888   3.137   2.064
 5904SOL    HW118611   6.953   3.192   2.117
 5904SOL    HW218612   6.796   3.149   2.101
 5905SOL     OW18613   6.921   3.409   2.397
 5905SOL    HW118614   6.917   3.382   2.494
 5905SOL    HW218615   6.959   3.501   2.389
 5906SOL     OW18616   5.859   1.909   3.192
 5906SOL    HW118617   5.901   1.926   3.103
 5906SOL    HW218618   5.782   1.846   3.181
 5907SOL     OW18619   1.494   0.664   2.085
 5907SOL    HW118620   1.561   0.737   2.091
 5907SOL    HW218621   1.405   0.698   2.114
 5908SOL     OW18622   0.557   2.918   4.906
 5908SOL    HW118623   0.581   2.821   4.902
 5908SOL    HW218624   0.469   2.928   4.953
 5909SOL     OW18625   6.860   4.379   6.185
 5909SOL    HW118626   6.948   4.393   6.229
 5909SOL    HW218627   6.869   4.396   6.086
 5910SOL     OW18628   1.024   1.610   3.349
 5910SOL    HW118629   0.941   1.647   3.391
 5910SOL    HW218630   1.001   1.563   3.264
 5911SOL     OW18631   5.493   4.753   6.675
 5911SOL    HW118632   5.550   4.762   6.593
 5911SOL    HW218633   5.537   4.690   6.740
 5912SOL     OW18634   0.375   1.262   1.962
 5912SOL    HW118635   0.425   1.288   2.045
 5912SOL    HW218636   0.298   1.325   1.948
 5913SOL     OW18637   0.170   3.534   1.156
 5913SOL    HW118638   0.140   3.494   1.070
 5913SOL    HW218639   0.185   3.462   1.224
 5914SOL     OW18640   1.503   6.264   0.871
 5914SOL    HW118641   1.579   6.324   0.849
 5914SOL    HW218642   1.443   6.255   0.791
 5915SOL     OW18643   5.414   0.669   5.338
 5915SOL    HW118644   5.417   0.621   5.426
 5915SOL    HW218645   5.319   0.686   5.312
 5916SOL     OW18646   0.966   0.559   3.013
 5916SOL    HW118647   1.001   0.590   3.102
 5916SOL    HW218648   0.877   0.601   2.995
 5917SOL     OW18649   4.032   3.308   1.313
 5917SOL    HW118650   3.952   3.318   1.372
 5917SOL    HW218651   4.019   3.231   1.252
 5918SOL     OW18652   3.543   6.631   5.688
 5918SOL    HW118653   3.584   6.694   5.754
 5918SOL    HW218654   3.497   6.684   5.616
 5919SOL     OW18655   2.886   3.587   4.696
 5919SOL    HW118656   2.812   3.650   4.720
 5919SOL    HW218657   2.922   3.545   4.780
 5920SOL     OW18658   1.887   0.398   5.050
 5920SOL    HW118659   1.886   0.312   5.000
 5920SOL    HW218660   1.829   0.464   5.003
 5921SOL     OW18661   3.582   5.035   1.572
 5921SOL    HW118662   3.609   4.975   1.497
 5921SOL    HW218663   3.541   4.981   1.645
 5922SOL     OW18664   5.283   2.322   2.591
 5922SOL    HW118665   5.287   2.404   2.534
 5922SOL    HW218666   5.374   2.282   2.599
 5923SOL     OW18667   5.646   1.231   2.344
 5923SOL    HW118668   5.682   1.141   2.365
 5923SOL    HW218669   5.718   1.288   2.304
 5924SOL     OW18670   0.462   5.962   3.296
 5924SOL    HW118671   0.549   5.960   3.247
 5924SOL    HW218672   0.404   6.034   3.257
 5925SOL     OW18673   3.898   0.716   0.713
 5925SOL    HW118674   3.895   0.770   0.798
 5925SOL    HW218675   3.876   0.621   0.734
 5926SOL     OW18676   5.054   3.282   3.041
 5926SOL    HW118677   5.060   3.335   2.957
 5926SOL    HW218678   5.023   3.341   3.116
 5927SOL     OW18679   1.025   0.515   1.404
 5927SOL    HW118680   0.942   0.491   1.454
 5927SOL    HW218681   1.098   0.536   1.469
 5928SOL     OW18682   3.093   7.013   6.100
 5928SOL    HW118683   3.091   0.003   6.002
 5928SOL    HW218684   3.188   7.006   6.131
 5929SOL     OW18685   1.934   0.694   0.754
 5929SOL    HW118686   1.893   0.697   0.663
 5929SOL    HW218687   1.868   0.723   0.823
 5930SOL     OW18688   6.848   4.872   2.127
 5930SOL    HW118689   6.874   4.876   2.223
 5930SOL    HW218690   6.855   4.963   2.086
 5931SOL     OW18691   5.233   0.680   5.099
 5931SOL    HW118692   5.135   0.698   5.103
 5931SOL    HW218693   5.250   0.584   5.122
 5932SOL     OW18694   2.665   5.425   1.127
 5932SOL    HW118695   2.764   5.423   1.116
 5932SOL    HW218696   2.630   5.517   1.111
 5933SOL     OW18697   6.068   5.461   4.532
 5933SOL    HW118698   6.094   5.531   4.465
 5933SOL    HW218699   6.137   5.388   4.532
 5934SOL     OW18700   2.579   4.502   0.338
 5934SOL    HW118701   2.587   4.601   0.353
 5934SOL    HW218702   2.573   4.455   0.426
 5935SOL     OW18703   1.813   7.000   4.912
 5935SOL    HW118704   1.714   7.013   4.912
 5935SOL    HW218705   1.843   6.975   5.004
 5936SOL     OW18706   3.110   2.854   1.884
 5936SOL    HW118707   3.026   2.801   1.871
 5936SOL    HW218708   3.094   2.948   1.854
 5937SOL     OW18709   0.861   3.284   0.896
 5937SOL    HW118710   0.785   3.343   0.922
 5937SOL    HW218711   0.861   3.271   0.797
 5938SOL     OW18712   1.116   3.165   4.297
 5938SOL    HW118713   1.170   3.097   4.347
 5938SOL    HW218714   1.177   3.227   4.250
 5939SOL     OW18715   5.197   2.363   5.995
 5939SOL    HW118716   5.124   2.365   6.063
 5939SOL    HW218717   5.268   2.299   6.025
 5940SOL     OW18718   4.452   4.837   1.094
 5940SOL    HW118719   4.528   4.859   1.032
 5940SOL    HW218720   4.439   4.912   1.158
 5941SOL     OW18721   1.803   1.887   3.666
 5941SOL    HW118722   1.763   1.796   3.667
 5941SOL    HW218723   1.864   1.899   3.744
 5942SOL     OW18724   4.598   2.237   5.878
 5942SOL    HW118725   4.556   2.296   5.809
 5942SOL    HW218726   4.636   2.293   5.952
 5943SOL     OW18727   2.273   5.057   2.420
 5943SOL    HW118728   2.266   4.967   2.377
 5943SOL    HW218729   2.369   5.077   2.439
 5944SOL     OW18730   0.237   3.666   6.112
 5944SOL    HW118731   0.277   3.576   6.131
 5944SOL    HW218732   0.166   3.656   6.043
 5945SOL     OW18733   0.524   6.531   3.779
 5945SOL    HW118734   0.541   6.461   3.848
 5945SOL    HW218735   0.489   6.614   3.823
 5946SOL     OW18736   2.960   2.649   0.013
 5946SOL    HW118737   3.038   2.588   0.002
 5946SOL    HW218738   2.889   2.625   6.975
 5947SOL     OW18739   3.205   3.921   5.965
 5947SOL    HW118740   3.170   3.982   6.036
 5947SOL    HW218741   3.272   3.858   6.005
 5948SOL     OW18742   5.601   2.832   1.177
 5948SOL    HW118743   5.569   2.742   1.207
 5948SOL    HW218744   5.684   2.855   1.227
 5949SOL     OW18745   1.162   4.804   4.203
 5949SOL    HW118746   1.191   4.794   4.108
 5949SOL    HW218747   1.210   4.882   4.244
 5950SOL     OW18748   2.129   6.115   4.785
 5950SOL    HW118749   2.224   6.139   4.806
 5950SOL    HW218750   2.106   6.148   4.694
 5951SOL     OW18751   6.758   3.670   6.588
 5951SOL    HW118752   6.805   3.753   6.619
 5951SOL    HW218753   6.659   3.683   6.594
 5952SOL     OW18754   3.648   3.627   2.152
 5952SOL    HW118755   3.578   3.652   2.086
 5952SOL    HW218756   3.680   3.534   2.133
 5953SOL     OW18757   0.298   3.184   6.613
 5953SOL    HW118758   0.394   3.154   6.613
 5953SOL    HW218759   0.268   3.202   6.519
 5954SOL     OW18760   2.697   5.644   3.622
 5954SOL    HW118761   2.769   5.586   3.585
 5954SOL    HW218762   2.698   5.641   3.722
 5955SOL     OW18763   4.293   2.594   6.702
 5955SOL    HW118764   4.347   2.522   6.745
 5955SOL    HW218765   4.281   2.669   6.766
 5956SOL     OW18766   3.676   1.962   6.640
 5956SOL    HW118767   3.594   1.972   6.583
 5956SOL    HW218768   3.706   2.053   6.670
 5957SOL     OW18769   0.052   3.243   3.840
 5957SOL    HW118770   7.003   3.277   3.786
 5957SOL    HW218771   0.109   3.319   3.870
 5958SOL     OW18772   1.903   6.145   2.345
 5958SOL    HW118773   1.918   6.094   2.261
 5958SOL    HW218774   1.811   6.186   2.344
 5959SOL     OW18775   4.825   4.040   3.250
 5959SOL    HW118776   4.801   4.136   3.268
 5959SOL    HW218777   4.832   3.990   3.336
 5960SOL     OW18778   6.934   6.390   6.570
 5960SOL    HW118779   6.869   6.378   6.645
 5960SOL    HW218780   6.935   6.486   6.542
 5961SOL     OW18781   1.638   2.085   3.675
 5961SOL    HW118782   1.704   2.010   3.676
 5961SOL    HW218783   1.655   2.146   3.752
 5962SOL     OW18784   5.526   5.469   1.003
 5962SOL    HW118785   5.471   5.398   0.960
 5962SOL    HW218786   5.480   5.501   1.086
 5963SOL     OW18787   2.106   3.715   1.387
 5963SOL    HW118788   2.099   3.784   1.458
 5963SOL    HW218789   2.157   3.636   1.421
 5964SOL     OW18790   1.481   6.434   4.335
 5964SOL    HW118791   1.444   6.354   4.287
 5964SOL    HW218792   1.549   6.479   4.278
 5965SOL     OW18793   2.068   0.572   1.524
 5965SOL    HW118794   2.105   0.560   1.432
 5965SOL    HW218795   2.098   0.660   1.561
 5966SOL     OW18796   2.734   1.549   5.409
 5966SOL    HW118797   2.710   1.603   5.490
 5966SOL    HW218798   2.682   1.583   5.330
 5967SOL     OW18799   5.068   2.351   5.765
 5967SOL    HW118800   4.974   2.358   5.796
 5967SOL    HW218801   5.130   2.358   5.843
 5968SOL     OW18802   6.065   1.567   3.163
 5968SOL    HW118803   6.164   1.562   3.147
 5968SOL    HW218804   6.030   1.477   3.187
 5969SOL     OW18805   5.571   6.468   1.364
 5969SOL    HW118806   5.478   6.480   1.328
 5969SOL    HW218807   5.610   6.558   1.385
 5970SOL     OW18808   6.809   1.240   0.132
 5970SOL    HW118809   6.822   1.146   0.101
 5970SOL    HW218810   6.736   1.283   0.078
 5971SOL     OW18811   6.762   5.343   3.916
 5971SOL    HW118812   6.743   5.340   4.014
 5971SOL    HW218813   6.840   5.285   3.895
 5972SOL     OW18814   6.923   5.367   6.886
 5972SOL    HW118815   6.895   5.462   6.901
 5972SOL    HW218816   7.004   5.347   6.941
 5973SOL     OW18817   3.794   0.349   1.573
 5973SOL    HW118818   3.884   0.371   1.610
 5973SOL    HW218819   3.804   0.314   1.480
 5974SOL     OW18820   5.957   0.795   4.623
 5974SOL    HW118821   5.908   0.728   4.678
 5974SOL    HW218822   5.891   0.855   4.578
 5975SOL     OW18823   3.592   4.295   0.446
 5975SOL    HW118824   3.662   4.366   0.451
 5975SOL    HW218825   3.509   4.326   0.494
 5976SOL     OW18826   0.517   2.129   6.101
 5976SOL    HW118827   0.588   2.105   6.035
 5976SOL    HW218828   0.464   2.207   6.066
 5977SOL     OW18829   0.432   6.024   1.635
 5977SOL    HW118830   0.347   6.066   1.666
 5977SOL    HW218831   0.420   5.986   1.543
 5978SOL     OW18832   3.111   3.664   6.486
 5978SOL    HW118833   3.140   3.749   6.441
 5978SOL    HW218834   3.079   3.685   6.578
 5979SOL     OW18835   6.048   0.782   1.406
 5979SOL    HW118836   5.950   0.766   1.393
 5979SOL    HW218837   6.097   0.755   1.324
 5980SOL     OW18838   3.658   2.922   0.508
 5980SOL    HW118839   3.656   2.845   0.444
 5980SOL    HW218840   3.606   2.998   0.470
 5981SOL     OW18841   4.297   2.139   0.570
 5981SOL    HW118842   4.346   2.159   0.654
 5981SOL    HW218843   4.211   2.190   0.568
 5982SOL     OW18844   5.843   2.446   1.438
 5982SOL    HW118845   5.786   2.492   1.506
 5982SOL    HW218846   5.847   2.502   1.355
 5983SOL     OW18847   0.757   1.022   4.114
 5983SOL    HW118848   0.685   1.076   4.158
 5983SOL    HW218849   0.737   0.925   4.126
 5984SOL     OW18850   6.329   6.374   2.062
 5984SOL    HW118851   6.329   6.373   2.162
 5984SOL    HW218852   6.347   6.468   2.030
 5985SOL     OW18853   0.141   4.247   2.513
 5985SOL    HW118854   0.119   4.223   2.418
 5985SOL    HW218855   0.239   4.265   2.520
 5986SOL     OW18856   3.782   3.520   3.846
 5986SOL    HW118857   3.685   3.544   3.836
 5986SOL    HW218858   3.838   3.600   3.824
 5987SOL     OW18859   0.371   6.083   3.616
 5987SOL    HW118860   0.333   5.997   3.581
 5987SOL    HW218861   0.316   6.116   3.692
 5988SOL     OW18862   1.809   2.166   0.160
 5988SOL    HW118863   1.807   2.212   0.072
 5988SOL    HW218864   1.844   2.073   0.149
 5989SOL     OW18865   2.832   6.713   5.859
 5989SOL    HW118866   2.834   6.613   5.865
 5989SOL    HW218867   2.737   6.743   5.851
 5990SOL     OW18868   2.089   4.142   1.700
 5990SOL    HW118869   2.176   4.166   1.743
 5990SOL    HW218870   2.094   4.163   1.602
 5991SOL     OW18871   4.743   1.283   6.779
 5991SOL    HW118872   4.734   1.194   6.734
 5991SOL    HW218873   4.798   1.343   6.721
 5992SOL     OW18874   2.486   4.488   2.414
 5992SOL    HW118875   2.452   4.514   2.504
 5992SOL    HW218876   2.541   4.563   2.376
 5993SOL     OW18877   5.840   0.798   0.096
 5993SOL    HW118878   5.851   0.831   0.190
 5993SOL    HW218879   5.748   0.820   0.064
 5994SOL     OW18880   0.518   5.244   1.159
 5994SOL    HW118881   0.571   5.289   1.231
 5994SOL    HW218882   0.470   5.165   1.198
 5995SOL     OW18883   5.708   4.649   1.386
 5995SOL    HW118884   5.676   4.733   1.429
 5995SOL    HW218885   5.725   4.666   1.289
 5996SOL     OW18886   2.893   1.086   1.358
 5996SOL    HW118887   2.827   1.161   1.356
 5996SOL    HW218888   2.936   1.077   1.268
 5997SOL     OW18889   6.566   0.951   4.603
 5997SOL    HW118890   6.486   0.898   4.629
 5997SOL    HW218891   6.560   0.976   4.506
 5998SOL     OW18892   5.522   6.036   7.024
 5998SOL    HW118893   5.565   5.953   0.032
 5998SOL    HW218894   5.593   6.101   6.996
 5999SOL     OW18895   5.959   2.656   1.036
 5999SOL    HW118896   6.046   2.626   0.998
 5999SOL    HW218897   5.922   2.730   0.979
 6000SOL     OW18898   0.276   5.798   2.088
 6000SOL    HW118899   0.335   5.719   2.105
 6000SOL    HW218900   0.181   5.767   2.080
 6001SOL     OW18901   0.105   6.733   6.227
 6001SOL    HW118902   0.158   6.758   6.308
 6001SOL    HW218903   0.115   6.804   6.157
 6002SOL     OW18904   5.365   4.507   4.087
 6002SOL    HW118905   5.414   4.594   4.087
 6002SOL    HW218906   5.334   4.486   4.180
 6003SOL     OW18907   2.121   0.443   4.895
 6003SOL    HW118908   2.041   0.408   4.945
 6003SOL    HW218909   2.129   0.396   4.807
 6004SOL     OW18910   5.637   3.373   5.006
 6004SOL    HW118911   5.674   3.337   5.091
 6004SOL    HW218912   5.699   3.443   4.970
 6005SOL     OW18913   3.695   4.051   0.546
 6005SOL    HW118914   3.664   4.137   0.504
 6005SOL    HW218915   3.665   3.974   0.490
 6006SOL     OW18916   3.212   6.818   5.812
 6006SOL    HW118917   3.266   6.868   5.880
 6006SOL    HW218918   3.148   6.882   5.768
 6007SOL     OW18919   2.705   0.066   4.101
 6007SOL    HW118920   2.658   7.006   4.093
 6007SOL    HW218921   2.641   0.135   4.135
 6008SOL     OW18922   2.433   3.396   6.611
 6008SOL    HW118923   2.415   3.491   6.588
 6008SOL    HW218924   2.357   3.358   6.663
 6009SOL     OW18925   2.333   5.557   2.082
 6009SOL    HW118926   2.254   5.596   2.035
 6009SOL    HW218927   2.342   5.460   2.059
 6010SOL     OW18928   0.515   5.464   6.430
 6010SOL    HW118929   0.587   5.499   6.370
 6010SOL    HW218930   0.427   5.505   6.404
 6011SOL     OW18931   5.052   2.104   3.399
 6011SOL    HW118932   5.137   2.072   3.356
 6011SOL    HW218933   4.994   2.147   3.331
 6012SOL     OW18934   6.196   1.335   5.482
 6012SOL    HW118935   6.177   1.237   5.486
 6012SOL    HW218936   6.187   1.367   5.387
 6013SOL     OW18937   6.012   2.354   3.574
 6013SOL    HW118938   5.941   2.323   3.511
 6013SOL    HW218939   6.099   2.313   3.549
 6014SOL     OW18940   4.149   3.333   3.998
 6014SOL    HW118941   4.148   3.272   4.078
 6014SOL    HW218942   4.062   3.325   3.950
 6015SOL     OW18943   6.638   0.241   3.252
 6015SOL    HW118944   6.628   0.142   3.259
 6015SOL    HW218945   6.568   0.278   3.191
 6016SOL     OW18946   4.462   2.068   4.353
 6016SOL    HW118947   4.547   2.017   4.336
 6016SOL    HW218948   4.425   2.043   4.442
 6017SOL     OW18949   1.194   2.718   5.057
 6017SOL    HW118950   1.292   2.708   5.037
 6017SOL    HW218951   1.142   2.660   4.994
 6018SOL     OW18952   2.215   1.292   3.966
 6018SOL    HW118953   2.123   1.326   3.979
 6018SOL    HW218954   2.217   1.228   3.890
 6019SOL     OW18955   6.770   3.315   6.063
 6019SOL    HW118956   6.714   3.378   6.118
 6019SOL    HW218957   6.863   3.314   6.100
 6020SOL     OW18958   0.484   5.560   4.998
 6020SOL    HW118959   0.540   5.511   4.932
 6020SOL    HW218960   0.497   5.659   4.985
 6021SOL     OW18961   5.697   0.385   4.190
 6021SOL    HW118962   5.774   0.326   4.168
 6021SOL    HW218963   5.614   0.330   4.198
 6022SOL     OW18964   6.377   3.479   1.547
 6022SOL    HW118965   6.351   3.425   1.627
 6022SOL    HW218966   6.475   3.498   1.550
 6023SOL     OW18967   3.959   0.058   2.998
 6023SOL    HW118968   4.054   0.087   2.987
 6023SOL    HW218969   3.903   0.138   3.020
 6024SOL     OW18970   0.284   6.489   0.216
 6024SOL    HW118971   0.317   6.581   0.194
 6024SOL    HW218972   0.271   6.481   0.314
 6025SOL     OW18973   3.788   0.796   5.548
 6025SOL    HW118974   3.796   0.712   5.602
 6025SOL    HW218975   3.879   0.824   5.518
 6026SOL     OW18976   5.267   6.548   3.491
 6026SOL    HW118977   5.170   6.523   3.486
 6026SOL    HW218978   5.288   6.616   3.421
 6027SOL     OW18979   5.556   4.303   6.115
 6027SOL    HW118980   5.516   4.363   6.045
 6027SOL    HW218981   5.567   4.355   6.201
 6028SOL     OW18982   6.701   5.593   6.547
 6028SOL    HW118983   6.636   5.602   6.623
 6028SOL    HW218984   6.761   5.514   6.564
 6029SOL     OW18985   2.810   1.294   2.084
 6029SOL    HW118986   2.797   1.386   2.119
 6029SOL    HW218987   2.800   1.228   2.159
 6030SOL     OW18988   6.722   2.984   5.142
 6030SOL    HW118989   6.781   3.038   5.202
 6030SOL    HW218990   6.636   3.034   5.126
 6031SOL     OW18991   0.188   0.337   3.890
 6031SOL    HW118992   0.090   0.350   3.896
 6031SOL    HW218993   0.208   0.253   3.839
 6032SOL     OW18994   3.015   0.168   3.271
 6032SOL    HW118995   2.964   0.160   3.357
 6032SOL    HW218996   2.966   0.230   3.209
 6033SOL     OW18997   0.636   1.723   2.724
 6033SOL    HW118998   0.729   1.759   2.724
 6033SOL    HW218999   0.585   1.761   2.802
 6034SOL     OW19000   0.750   0.688   1.316
 6034SOL    HW119001   0.842   0.723   1.300
 6034SOL    HW219002   0.735   0.607   1.261
 6035SOL     OW19003   2.266   1.471   2.682
 6035SOL    HW119004   2.324   1.515   2.750
 6035SOL    HW219005   2.185   1.432   2.726
 6036SOL     OW19006   6.795   3.463   6.814
 6036SOL    HW119007   6.805   3.526   6.736
 6036SOL    HW219008   6.718   3.402   6.798
 6037SOL     OW19009   4.444   0.838   0.197
 6037SOL    HW119010   4.506   0.841   0.119
 6037SOL    HW219011   4.407   0.745   0.207
 6038SOL     OW19012   2.344   2.175   0.225
 6038SOL    HW119013   2.245   2.170   0.228
 6038SOL    HW219014   2.381   2.098   0.173
 6039SOL     OW19015   3.017   3.854   3.566
 6039SOL    HW119016   3.019   3.782   3.636
 6039SOL    HW219017   3.003   3.812   3.477
 6040SOL     OW19018   6.750   0.485   0.739
 6040SOL    HW119019   6.692   0.409   0.769
 6040SOL    HW219020   6.831   0.490   0.799
 6041SOL     OW19021   0.849   3.271   4.486
 6041SOL    HW119022   0.752   3.282   4.509
 6041SOL    HW219023   0.887   3.194   4.537
 6042SOL     OW19024   2.921   6.088   2.440
 6042SOL    HW119025   2.941   6.083   2.538
 6042SOL    HW219026   2.982   6.154   2.396
 6043SOL     OW19027   2.111   4.660   1.003
 6043SOL    HW119028   2.076   4.749   1.033
 6043SOL    HW219029   2.061   4.587   1.049
 6044SOL     OW19030   6.453   3.550   6.835
 6044SOL    HW119031   6.488   3.467   6.792
 6044SOL    HW219032   6.484   3.630   6.783
 6045SOL     OW19033   4.421   1.494   4.060
 6045SOL    HW119034   4.420   1.396   4.041
 6045SOL    HW219035   4.376   1.542   3.985
 6046SOL     OW19036   3.521   3.830   3.255
 6046SOL    HW119037   3.454   3.782   3.311
 6046SOL    HW219038   3.474   3.880   3.182
 6047SOL     OW19039   6.864   0.980   0.328
 6047SOL    HW119040   6.942   0.986   0.265
 6047SOL    HW219041   6.889   0.920   0.405
 6048SOL     OW19042   6.326   5.911   3.588
 6048SOL    HW119043   6.347   5.838   3.522
 6048SOL    HW219044   6.343   6.000   3.546
 6049SOL     OW19045   6.066   5.149   0.510
 6049SOL    HW119046   6.113   5.071   0.469
 6049SOL    HW219047   6.031   5.123   0.600
 6050SOL     OW19048   2.319   5.693   3.284
 6050SOL    HW119049   2.398   5.731   3.236
 6050SOL    HW219050   2.344   5.607   3.328
 6051SOL     OW19051   0.219   2.202   2.977
 6051SOL    HW119052   0.136   2.240   2.935
 6051SOL    HW219053   0.235   2.110   2.942
 6052SOL     OW19054   5.321   5.414   0.042
 6052SOL    HW119055   5.374   5.371   6.997
 6052SOL    HW219056   5.375   5.487   0.084
 6053SOL     OW19057   3.831   1.960   6.159
 6053SOL    HW119058   3.812   1.953   6.061
 6053SOL    HW219059   3.758   1.913   6.209
 6054SOL     OW19060   4.313   3.597   6.295
 6054SOL    HW119061   4.336   3.617   6.200
 6054SOL    HW219062   4.316   3.498   6.309
 6055SOL     OW19063   3.346   4.819   2.058
 6055SOL    HW119064   3.432   4.793   2.015
 6055SOL    HW219065   3.278   4.748   2.043
 6056SOL     OW19066   5.357   6.724   3.057
 6056SOL    HW119067   5.303   6.640   3.068
 6056SOL    HW219068   5.443   6.702   3.012
 6057SOL     OW19069   5.367   1.405   4.376
 6057SOL    HW119070   5.270   1.385   4.357
 6057SOL    HW219071   5.387   1.384   4.471
 6058SOL     OW19072   6.880   3.945   6.630
 6058SOL    HW119073   6.788   3.980   6.610
 6058SOL    HW219074   6.906   3.972   6.723
 6059SOL     OW19075   4.315   1.916   6.448
 6059SOL    HW119076   4.400   1.912   6.500
 6059SOL    HW219077   4.268   1.828   6.454
 6060SOL     OW19078   2.368   2.031   1.431
 6060SOL    HW119079   2.271   2.055   1.438
 6060SOL    HW219080   2.418   2.106   1.388
 6061SOL     OW19081   2.206   4.729   6.393
 6061SOL    HW119082   2.279   4.775   6.342
 6061SOL    HW219083   2.122   4.783   6.387
 6062SOL     OW19084   1.800   1.730   4.767
 6062SOL    HW119085   1.764   1.671   4.840
 6062SOL    HW219086   1.887   1.769   4.796
 6063SOL     OW19087   4.173   3.822   5.625
 6063SOL    HW119088   4.183   3.901   5.686
 6063SOL    HW219089   4.244   3.755   5.646
 6064SOL     OW19090   5.747   5.484   0.422
 6064SOL    HW119091   5.677   5.556   0.417
 6064SOL    HW219092   5.760   5.444   0.332
 6065SOL     OW19093   1.636   5.463   1.309
 6065SOL    HW119094   1.539   5.472   1.332
 6065SOL    HW219095   1.676   5.388   1.362
 6066SOL     OW19096   4.897   5.670   2.828
 6066SOL    HW119097   4.818   5.608   2.829
 6066SOL    HW219098   4.946   5.661   2.741
 6067SOL     OW19099   6.214   5.267   5.358
 6067SOL    HW119100   6.197   5.338   5.290
 6067SOL    HW219101   6.134   5.208   5.365
 6068SOL     OW19102   5.010   2.374   3.941
 6068SOL    HW119103   4.922   2.405   3.977
 6068SOL    HW219104   4.999   2.287   3.893
 6069SOL     OW19105   0.857   5.319   5.421
 6069SOL    HW119106   0.924   5.252   5.389
 6069SOL    HW219107   0.819   5.368   5.343
 6070SOL     OW19108   2.430   0.389   1.593
 6070SOL    HW119109   2.501   0.324   1.565
 6070SOL    HW219110   2.340   0.350   1.574
 6071SOL     OW19111   6.597   6.604   6.624
 6071SOL    HW119112   6.696   6.596   6.638
 6071SOL    HW219113   6.555   6.514   6.633
 6072SOL     OW19114   0.287   2.333   6.507
 6072SOL    HW119115   0.235   2.331   6.422
 6072SOL    HW219116   0.331   2.244   6.521
 6073SOL     OW19117   4.473   4.671   6.813
 6073SOL    HW119118   4.454   4.575   6.834
 6073SOL    HW219119   4.561   4.679   6.768
 6074SOL     OW19120   1.309   5.876   2.635
 6074SOL    HW119121   1.303   5.973   2.655
 6074SOL    HW219122   1.284   5.860   2.539
 6075SOL     OW19123   6.809   6.174   0.378
 6075SOL    HW119124   6.882   6.114   0.345
 6075SOL    HW219125   6.801   6.165   0.477
 6076SOL     OW19126   0.014   6.131   3.271
 6076SOL    HW119127   0.104   6.100   3.243
 6076SOL    HW219128   7.009   6.201   3.208
 6077SOL     OW19129   4.650   5.728   3.034
 6077SOL    HW119130   4.604   5.807   2.994
 6077SOL    HW219131   4.663   5.658   2.963
 6078SOL     OW19132   5.643   3.904   0.317
 6078SOL    HW119133   5.631   3.970   0.244
 6078SOL    HW219134   5.564   3.907   0.379
 6079SOL     OW19135   3.337   1.963   0.120
 6079SOL    HW119136   3.307   1.884   0.174
 6079SOL    HW219137   3.395   1.931   0.045
 6080SOL     OW19138   5.782   3.544   5.453
 6080SOL    HW119139   5.700   3.549   5.511
 6080SOL    HW219140   5.812   3.449   5.446
 6081SOL     OW19141   2.163   5.000   3.822
 6081SOL    HW119142   2.105   4.920   3.842
 6081SOL    HW219143   2.259   4.973   3.826
 6082SOL     OW19144   4.161   1.244   1.533
 6082SOL    HW119145   4.138   1.265   1.628
 6082SOL    HW219146   4.109   1.164   1.503
 6083SOL     OW19147   5.553   0.889   5.671
 6083SOL    HW119148   5.651   0.899   5.690
 6083SOL    HW219149   5.519   0.972   5.628
 6084SOL     OW19150   6.122   5.189   3.714
 6084SOL    HW119151   6.102   5.287   3.715
 6084SOL    HW219152   6.056   5.141   3.772
 6085SOL     OW19153   0.716   6.411   1.014
 6085SOL    HW119154   0.794   6.379   0.960
 6085SOL    HW219155   0.636   6.356   0.991
 6086SOL     OW19156   4.773   2.953   0.462
 6086SOL    HW119157   4.757   2.943   0.364
 6086SOL    HW219158   4.817   3.042   0.479
 6087SOL     OW19159   3.929   0.934   6.105
 6087SOL    HW119160   4.014   0.930   6.156
 6087SOL    HW219161   3.949   0.931   6.007
 6088SOL     OW19162   3.728   6.029   2.817
 6088SOL    HW119163   3.813   6.081   2.810
 6088SOL    HW219164   3.653   6.091   2.839
 6089SOL     OW19165   6.547   5.408   2.742
 6089SOL    HW119166   6.479   5.337   2.723
 6089SOL    HW219167   6.556   5.467   2.662
 6090SOL     OW19168   3.961   6.124   4.621
 6090SOL    HW119169   4.037   6.096   4.680
 6090SOL    HW219170   3.956   6.063   4.541
 6091SOL     OW19171   0.048   2.949   1.931
 6091SOL    HW119172   0.121   2.997   1.980
 6091SOL    HW219173   6.988   2.988   1.958
 6092SOL     OW19174   1.622   7.014   0.994
 6092SOL    HW119175   1.650   6.921   0.971
 6092SOL    HW219176   1.524   7.014   1.017
 6093SOL     OW19177   3.651   3.197   2.590
 6093SOL    HW119178   3.655   3.281   2.537
 6093SOL    HW219179   3.735   3.144   2.576
 6094SOL     OW19180   0.251   6.664   5.214
 6094SOL    HW119181   0.285   6.668   5.308
 6094SOL    HW219182   0.244   6.756   5.177
 6095SOL     OW19183   5.371   5.160   2.448
 6095SOL    HW119184   5.373   5.064   2.419
 6095SOL    HW219185   5.377   5.164   2.548
 6096SOL     OW19186   4.700   6.353   2.635
 6096SOL    HW119187   4.748   6.440   2.649
 6096SOL    HW219188   4.761   6.277   2.655
 6097SOL     OW19189   2.258   4.955   1.347
 6097SOL    HW119190   2.299   4.919   1.263
 6097SOL    HW219191   2.201   5.034   1.324
 6098SOL     OW19192   6.273   1.743   5.398
 6098SOL    HW119193   6.179   1.737   5.431
 6098SOL    HW219194   6.275   1.786   5.308
 6099SOL     OW19195   3.406   7.019   5.672
 6099SOL    HW119196   3.393   6.940   5.614
 6099SOL    HW219197   3.501   0.022   5.667
 6100SOL     OW19198   6.445   5.342   6.319
 6100SOL    HW119199   6.536   5.332   6.360
 6100SOL    HW219200   6.442   5.293   6.232
 6101SOL     OW19201   0.966   2.839   0.879
 6101SOL    HW119202   0.922   2.754   0.907
 6101SOL    HW219203   0.949   2.910   0.947
 6102SOL     OW19204   2.324   0.429   2.486
 6102SOL    HW119205   2.349   0.517   2.446
 6102SOL    HW219206   2.353   0.425   2.581
 6103SOL     OW19207   5.615   0.329   2.883
 6103SOL    HW119208   5.612   0.230   2.894
 6103SOL    HW219209   5.707   0.357   2.855
 6104SOL     OW19210   7.013   0.272   5.064
 6104SOL    HW119211   6.948   0.299   5.135
 6104SOL    HW219212   0.047   0.349   5.046
 6105SOL     OW19213   3.412   5.406   6.477
 6105SOL    HW119214   3.332   5.400   6.417
 6105SOL    HW219215   3.410   5.330   6.543
 6106SOL     OW19216   6.130   3.862   5.898
 6106SOL    HW119217   6.054   3.926   5.889
 6106SOL    HW219218   6.188   3.867   5.816
 6107SOL     OW19219   6.718   4.989   4.992
 6107SOL    HW119220   6.622   4.975   4.972
 6107SOL    HW219221   6.772   4.971   4.910
 6108SOL     OW19222   3.123   0.767   6.024
 6108SOL    HW119223   3.054   0.747   5.954
 6108SOL    HW219224   3.103   0.715   6.107
 6109SOL     OW19225   6.852   6.264   3.902
 6109SOL    HW119226   6.923   6.231   3.841
 6109SOL    HW219227   6.811   6.347   3.865
 6110SOL     OW19228   1.031   1.761   4.586
 6110SOL    HW119229   0.941   1.760   4.629
 6110SOL    HW219230   1.022   1.739   4.489
 6111SOL     OW19231   3.108   3.328   1.802
 6111SOL    HW119232   3.021   3.294   1.767
 6111SOL    HW219233   3.147   3.262   1.866
 6112SOL     OW19234   4.536   6.411   3.674
 6112SOL    HW119235   4.465   6.462   3.722
 6112SOL    HW219236   4.589   6.358   3.740
 6113SOL     OW19237   3.696   5.544   1.320
 6113SOL    HW119238   3.689   5.452   1.359
 6113SOL    HW219239   3.718   5.609   1.392
 6114SOL     OW19240   5.493   3.744   1.192
 6114SOL    HW119241   5.443   3.658   1.196
 6114SOL    HW219242   5.433   3.819   1.220
 6115SOL     OW19243   5.715   1.137   4.209
 6115SOL    HW119244   5.756   1.138   4.300
 6115SOL    HW219245   5.616   1.128   4.217
 6116SOL     OW19246   6.424   2.377   0.179
 6116SOL    HW119247   6.521   2.400   0.168
 6116SOL    HW219248   6.379   2.448   0.232
 6117SOL     OW19249   3.014   2.066   0.935
 6117SOL    HW119250   3.027   2.142   0.871
 6117SOL    HW219251   2.998   1.982   0.883
 6118SOL     OW19252   6.266   0.337   1.719
 6118SOL    HW119253   6.225   0.389   1.644
 6118SOL    HW219254   6.195   0.310   1.784
 6119SOL     OW19255   0.138   1.377   6.209
 6119SOL    HW119256   0.159   1.338   6.298
 6119SOL    HW219257   0.223   1.398   6.161
 6120SOL     OW19258   3.402   1.328   3.348
 6120SOL    HW119259   3.494   1.320   3.386
 6120SOL    HW219260   3.362   1.237   3.339
 6121SOL     OW19261   4.162   1.239   6.124
 6121SOL    HW119262   4.213   1.319   6.092
 6121SOL    HW219263   4.064   1.259   6.123
 6122SOL     OW19264   4.895   4.362   5.000
 6122SOL    HW119265   4.952   4.401   5.072
 6122SOL    HW219266   4.952   4.333   4.923
 6123SOL     OW19267   5.976   1.766   5.115
 6123SOL    HW119268   5.912   1.690   5.130
 6123SOL    HW219269   5.955   1.839   5.180
 6124SOL     OW19270   1.782   6.038   4.050
 6124SOL    HW119271   1.792   5.964   3.984
 6124SOL    HW219272   1.864   6.095   4.049
 6125SOL     OW19273   2.905   0.999   5.806
 6125SOL    HW119274   2.964   1.015   5.884
 6125SOL    HW219275   2.852   1.081   5.786
 6126SOL     OW19276   6.222   3.250   6.445
 6126SOL    HW119277   6.168   3.166   6.440
 6126SOL    HW219278   6.225   3.283   6.539
 6127SOL     OW19279   4.914   2.601   3.482
 6127SOL    HW119280   4.856   2.521   3.465
 6127SOL    HW219281   4.904   2.665   3.407
 6128SOL     OW19282   6.508   4.848   4.268
 6128SOL    HW119283   6.534   4.915   4.198
 6128SOL    HW219284   6.552   4.761   4.249
 6129SOL     OW19285   2.060   6.185   3.036
 6129SOL    HW119286   2.038   6.219   2.945
 6129SOL    HW219287   2.004   6.233   3.104
 6130SOL     OW19288   6.933   2.164   6.556
 6130SOL    HW119289   6.850   2.179   6.609
 6130SOL    HW219290   7.009   2.142   6.618
 6131SOL     OW19291   6.290   2.958   2.478
 6131SOL    HW119292   6.206   2.972   2.531
 6131SOL    HW219293   6.269   2.909   2.394
 6132SOL     OW19294   4.517   5.942   6.498
 6132SOL    HW119295   4.517   5.861   6.440
 6132SOL    HW219296   4.440   5.938   6.562
 6133SOL     OW19297   6.786   2.193   3.501
 6133SOL    HW119298   6.737   2.257   3.442
 6133SOL    HW219299   6.720   2.128   3.540
 6134SOL     OW19300   0.881   0.134   5.086
 6134SOL    HW119301   0.792   0.166   5.118
 6134SOL    HW219302   0.897   0.167   4.993
 6135SOL     OW19303   6.006   6.303   6.996
 6135SOL    HW119304   5.955   6.389   7.004
 6135SOL    HW219305   6.005   6.273   6.900
 6136SOL     OW19306   0.914   2.239   2.546
 6136SOL    HW119307   1.007   2.208   2.568
 6136SOL    HW219308   0.848   2.175   2.583
 6137SOL     OW19309   6.914   4.705   1.561
 6137SOL    HW119310   6.933   4.615   1.602
 6137SOL    HW219311   6.820   4.706   1.528
 6138SOL     OW19312   4.948   0.728   2.665
 6138SOL    HW119313   4.928   0.693   2.573
 6138SOL    HW219314   4.900   0.672   2.733
 6139SOL     OW19315   1.514   1.726   5.806
 6139SOL    HW119316   1.597   1.763   5.846
 6139SOL    HW219317   1.533   1.636   5.767
 6140SOL     OW19318   2.609   0.760   4.270
 6140SOL    HW119319   2.591   0.778   4.367
 6140SOL    HW219320   2.523   0.747   4.221
 6141SOL     OW19321   0.397   0.600   1.170
 6141SOL    HW119322   0.360   0.513   1.138
 6141SOL    HW219323   0.327   0.671   1.161
 6142SOL     OW19324   0.513   6.956   1.909
 6142SOL    HW119325   0.445   6.902   1.860
 6142SOL    HW219326   0.577   6.997   1.843
 6143SOL     OW19327   2.179   3.157   5.671
 6143SOL    HW119328   2.198   3.098   5.592
 6143SOL    HW219329   2.206   3.110   5.755
 6144SOL     OW19330   3.060   6.084   2.665
 6144SOL    HW119331   3.055   6.007   2.728
 6144SOL    HW219332   3.123   6.153   2.701
 6145SOL     OW19333   5.598   3.554   4.626
 6145SOL    HW119334   5.693   3.533   4.648
 6145SOL    HW219335   5.550   3.470   4.601
 6146SOL     OW19336   6.247   1.824   5.712
 6146SOL    HW119337   6.212   1.732   5.692
 6146SOL    HW219338   6.267   1.872   5.627
 6147SOL     OW19339   1.558   1.871   5.278
 6147SOL    HW119340   1.545   1.859   5.179
 6147SOL    HW219341   1.469   1.878   5.322
 6148SOL     OW19342   3.834   5.667   6.427
 6148SOL    HW119343   3.756   5.609   6.402
 6148SOL    HW219344   3.914   5.639   6.374
 6149SOL     OW19345   4.063   1.884   2.073
 6149SOL    HW119346   3.985   1.835   2.113
 6149SOL    HW219347   4.108   1.825   2.006
 6150SOL     OW19348   0.244   5.290   3.849
 6150SOL    HW119349   0.264   5.314   3.944
 6150SOL    HW219350   0.268   5.194   3.834
 6151SOL     OW19351   3.641   5.587   2.395
 6151SOL    HW119352   3.712   5.593   2.466
 6151SOL    HW219353   3.551   5.583   2.438
 6152SOL     OW19354   0.812   4.169   2.914
 6152SOL    HW119355   0.852   4.162   3.005
 6152SOL    HW219356   0.717   4.139   2.916
 6153SOL     OW19357   5.847   6.497   1.555
 6153SOL    HW119358   5.892   6.526   1.470
 6153SOL    HW219359   5.777   6.429   1.534
 6154SOL     OW19360   3.772   5.415   3.075
 6154SOL    HW119361   3.682   5.415   3.118
 6154SOL    HW219362   3.812   5.324   3.081
 6155SOL     OW19363   1.584   1.072   4.494
 6155SOL    HW119364   1.632   1.159   4.481
 6155SOL    HW219365   1.508   1.066   4.429
 6156SOL     OW19366   4.666   4.204   2.809
 6156SOL    HW119367   4.667   4.295   2.766
 6156SOL    HW219368   4.686   4.135   2.740
 6157SOL     OW19369   0.475   2.454   1.657
 6157SOL    HW119370   0.478   2.385   1.730
 6157SOL    HW219371   0.380   2.470   1.630
 6158SOL     OW19372   2.986   0.802   6.667
 6158SOL    HW119373   3.023   0.711   6.647
 6158SOL    HW219374   3.060   0.869   6.664
 6159SOL     OW19375   6.232   1.266   0.545
 6159SOL    HW119376   6.265   1.266   0.451
 6159SOL    HW219377   6.255   1.180   0.589
 6160SOL     OW19378   1.453   0.079   0.717
 6160SOL    HW119379   1.546   0.043   0.729
 6160SOL    HW219380   1.451   0.141   0.639
 6161SOL     OW19381   6.162   4.132   0.237
 6161SOL    HW119382   6.183   4.180   0.151
 6161SOL    HW219383   6.239   4.141   0.300
 6162SOL     OW19384   6.057   5.857   1.006
 6162SOL    HW119385   6.065   5.823   0.912
 6162SOL    HW219386   5.977   5.916   1.013
 6163SOL     OW19387   5.035   5.439   2.693
 6163SOL    HW119388   5.129   5.469   2.711
 6163SOL    HW219389   5.018   5.353   2.742
 6164SOL     OW19390   3.758   3.589   4.758
 6164SOL    HW119391   3.766   3.647   4.678
 6164SOL    HW219392   3.755   3.645   4.841
 6165SOL     OW19393   3.663   0.729   6.611
 6165SOL    HW119394   3.665   0.784   6.695
 6165SOL    HW219395   3.569   0.701   6.592
 6166SOL     OW19396   3.051   1.043   6.024
 6166SOL    HW119397   3.121   1.113   6.042
 6166SOL    HW219398   3.088   0.953   6.046
 6167SOL     OW19399   1.586   3.508   2.471
 6167SOL    HW119400   1.502   3.557   2.493
 6167SOL    HW219401   1.582   3.477   2.376
 6168SOL     OW19402   1.060   3.818   3.551
 6168SOL    HW119403   1.059   3.723   3.579
 6168SOL    HW219404   1.148   3.840   3.509
 6169SOL     OW19405   2.917   0.664   0.931
 6169SOL    HW119406   2.921   0.722   1.012
 6169SOL    HW219407   2.897   0.720   0.851
 6170SOL     OW19408   2.608   4.839   1.076
 6170SOL    HW119409   2.670   4.857   1.153
 6170SOL    HW219410   2.630   4.900   1.000
 6171SOL     OW19411   2.201   3.959   2.442
 6171SOL    HW119412   2.214   4.010   2.527
 6171SOL    HW219413   2.159   3.871   2.462
 6172SOL     OW19414   2.400   4.934   1.952
 6172SOL    HW119415   2.469   4.900   2.016
 6172SOL    HW219416   2.309   4.921   1.992
 6173SOL     OW19417   0.863   5.721   3.085
 6173SOL    HW119418   0.867   5.753   2.990
 6173SOL    HW219419   0.795   5.775   3.135
 6174SOL     OW19420   5.918   4.495   1.561
 6174SOL    HW119421   5.887   4.579   1.515
 6174SOL    HW219422   5.869   4.416   1.523
 6175SOL     OW19423   5.462   0.515   4.030
 6175SOL    HW119424   5.510   0.429   4.045
 6175SOL    HW219425   5.378   0.517   4.086
 6176SOL     OW19426   6.635   3.367   0.243
 6176SOL    HW119427   6.599   3.457   0.265
 6176SOL    HW219428   6.567   3.315   0.192
 6177SOL     OW19429   5.898   2.911   2.903
 6177SOL    HW119430   5.906   3.010   2.916
 6177SOL    HW219431   5.807   2.882   2.933
 6178SOL     OW19432   0.046   4.223   1.328
 6178SOL    HW119433   6.986   4.177   1.328
 6178SOL    HW219434   0.092   4.208   1.416
 6179SOL     OW19435   0.140   1.474   5.755
 6179SOL    HW119436   0.090   1.396   5.715
 6179SOL    HW219437   0.238   1.456   5.750
 6180SOL     OW19438   2.803   0.915   0.048
 6180SOL    HW119439   2.784   0.985   0.116
 6180SOL    HW219440   2.841   0.958   6.994
 6181SOL     OW19441   4.511   6.807   6.172
 6181SOL    HW119442   4.484   6.902   6.161
 6181SOL    HW219443   4.453   6.749   6.114
 6182SOL     OW19444   4.750   6.928   5.249
 6182SOL    HW119445   4.703   6.992   5.187
 6182SOL    HW219446   4.709   6.837   5.240
 6183SOL     OW19447   2.310   6.758   2.492
 6183SOL    HW119448   2.316   6.659   2.490
 6183SOL    HW219449   2.375   6.797   2.427
 6184SOL     OW19450   6.527   6.999   5.383
 6184SOL    HW119451   6.438   7.012   5.339
 6184SOL    HW219452   6.522   6.921   5.445
 6185SOL     OW19453   2.630   2.583   0.366
 6185SOL    HW119454   2.606   2.488   0.386
 6185SOL    HW219455   2.566   2.619   0.298
 6186SOL     OW19456   3.879   1.428   3.980
 6186SOL    HW119457   3.837   1.484   4.051
 6186SOL    HW219458   3.964   1.389   4.015
 6187SOL     OW19459   3.307   5.040   4.568
 6187SOL    HW119460   3.300   5.035   4.667
 6187SOL    HW219461   3.285   5.133   4.537
 6188SOL     OW19462   2.419   0.205   2.336
 6188SOL    HW119463   2.377   0.278   2.390
 6188SOL    HW219464   2.479   0.150   2.394
 6189SOL     OW19465   5.597   5.049   3.325
 6189SOL    HW119466   5.573   4.951   3.325
 6189SOL    HW219467   5.517   5.102   3.300
 6190SOL     OW19468   5.033   3.370   5.944
 6190SOL    HW119469   4.968   3.422   5.889
 6190SOL    HW219470   5.009   3.378   6.040
 6191SOL     OW19471   6.959   1.197   6.531
 6191SOL    HW119472   0.015   1.244   6.502
 6191SOL    HW219473   6.889   1.264   6.554
 6192SOL     OW19474   3.404   1.556   0.135
 6192SOL    HW119475   3.446   1.614   0.205
 6192SOL    HW219476   3.308   1.580   0.123
 6193SOL     OW19477   6.994   6.605   1.531
 6193SOL    HW119478   6.999   6.510   1.562
 6193SOL    HW219479   6.925   6.654   1.584
 6194SOL     OW19480   2.819   0.380   1.462
 6194SOL    HW119481   2.906   0.417   1.493
 6194SOL    HW219482   2.809   0.397   1.364
 6195SOL     OW19483   2.515   0.440   5.644
 6195SOL    HW119484   2.521   0.446   5.544
 6195SOL    HW219485   2.533   0.530   5.684
 6196SOL     OW19486   1.445   1.930   5.624
 6196SOL    HW119487   1.507   1.990   5.572
 6196SOL    HW219488   1.498   1.856   5.665
 6197SOL     OW19489   2.460   2.515   2.121
 6197SOL    HW119490   2.404   2.558   2.050
 6197SOL    HW219491   2.472   2.580   2.197
 6198SOL     OW19492   2.970   5.505   1.952
 6198SOL    HW119493   3.048   5.567   1.953
 6198SOL    HW219494   3.001   5.411   1.962
 6199SOL     OW19495   0.253   0.291   6.734
 6199SOL    HW119496   0.178   0.350   6.764
 6199SOL    HW219497   0.335   0.347   6.719
 6200SOL     OW19498   4.318   0.565   5.759
 6200SOL    HW119499   4.243   0.548   5.696
 6200SOL    HW219500   4.379   0.486   5.762
 6201SOL     OW19501   2.623   5.494   4.832
 6201SOL    HW119502   2.571   5.508   4.747
 6201SOL    HW219503   2.618   5.397   4.858
 6202SOL     OW19504   1.775   2.432   1.521
 6202SOL    HW119505   1.710   2.502   1.489
 6202SOL    HW219506   1.803   2.375   1.445
 6203SOL     OW19507   6.003   2.760   4.449
 6203SOL    HW119508   5.937   2.718   4.386
 6203SOL    HW219509   6.050   2.688   4.500
 6204SOL     OW19510   1.085   6.878   5.397
 6204SOL    HW119511   1.184   6.870   5.385
 6204SOL    HW219512   1.042   6.899   5.309
 6205SOL     OW19513   4.583   7.004   6.504
 6205SOL    HW119514   4.597   0.022   6.415
 6205SOL    HW219515   4.566   0.045   6.574
 6206SOL     OW19516   4.567   0.025   4.012
 6206SOL    HW119517   4.592   0.115   4.048
 6206SOL    HW219518   4.481   0.032   3.963
 6207SOL     OW19519   2.396   4.698   4.365
 6207SOL    HW119520   2.451   4.769   4.322
 6207SOL    HW219521   2.359   4.733   4.451
 6208SOL     OW19522   5.851   4.274   5.305
 6208SOL    HW119523   5.874   4.206   5.375
 6208SOL    HW219524   5.883   4.241   5.215
 6209SOL     OW19525   1.132   5.785   0.641
 6209SOL    HW119526   1.062   5.824   0.581
 6209SOL    HW219527   1.093   5.769   0.731
 6210SOL     OW19528   0.494   4.247   3.356
 6210SOL    HW119529   0.490   4.148   3.340
 6210SOL    HW219530   0.565   4.267   3.424
 6211SOL     OW19531   2.524   0.295   4.929
 6211SOL    HW119532   2.568   0.205   4.922
 6211SOL    HW219533   2.545   0.336   5.017
 6212SOL     OW19534   6.679   0.959   4.305
 6212SOL    HW119535   6.601   0.928   4.251
 6212SOL    HW219536   6.717   1.042   4.264
 6213SOL     OW19537   6.351   6.983   0.604
 6213SOL    HW119538   6.321   7.027   0.519
 6213SOL    HW219539   6.271   6.947   0.652
 6214SOL     OW19540   4.946   4.196   2.095
 6214SOL    HW119541   4.880   4.250   2.043
 6214SOL    HW219542   4.915   4.101   2.099
 6215SOL     OW19543   3.609   4.261   1.431
 6215SOL    HW119544   3.574   4.170   1.412
 6215SOL    HW219545   3.562   4.300   1.510
 6216SOL     OW19546   5.972   1.762   2.349
 6216SOL    HW119547   5.965   1.854   2.311
 6216SOL    HW219548   5.932   1.697   2.285
 6217SOL     OW19549   4.266   1.398   1.323
 6217SOL    HW119550   4.212   1.343   1.387
 6217SOL    HW219551   4.292   1.342   1.245
 6218SOL     OW19552   4.413   6.166   4.711
 6218SOL    HW119553   4.379   6.215   4.631
 6218SOL    HW219554   4.461   6.083   4.682
 6219SOL     OW19555   0.260   0.630   4.556
 6219SOL    HW119556   0.210   0.644   4.642
 6219SOL    HW219557   0.337   0.568   4.572
 6220SOL     OW19558   1.350   3.682   4.844
 6220SOL    HW119559   1.318   3.588   4.830
 6220SOL    HW219560   1.294   3.726   4.915
 6221SOL     OW19561   4.677   4.786   4.323
 6221SOL    HW119562   4.586   4.744   4.321
 6221SOL    HW219563   4.699   4.813   4.417
 6222SOL     OW19564   0.014   1.884   1.362
 6222SOL    HW119565   7.023   1.970   1.314
 6222SOL    HW219566   6.996   1.809   1.314
 6223SOL     OW19567   5.295   4.919   3.370
 6223SOL    HW119568   5.256   4.993   3.424
 6223SOL    HW219569   5.222   4.871   3.321
 6224SOL     OW19570   2.997   0.375   4.673
 6224SOL    HW119571   2.976   0.299   4.734
 6224SOL    HW219572   3.028   0.339   4.585
 6225SOL     OW19573   4.030   1.749   6.526
 6225SOL    HW119574   4.056   1.681   6.458
 6225SOL    HW219575   3.933   1.773   6.515
 6226SOL     OW19576   0.191   6.247   4.343
 6226SOL    HW119577   0.238   6.238   4.255
 6226SOL    HW219578   0.102   6.202   4.338
 6227SOL     OW19579   2.877   4.270   0.118
 6227SOL    HW119580   2.899   4.242   0.212
 6227SOL    HW219581   2.880   4.190   0.058
 6228SOL     OW19582   6.739   2.371   3.082
 6228SOL    HW119583   6.664   2.402   3.140
 6228SOL    HW219584   6.825   2.411   3.114
 6229SOL     OW19585   1.289   2.511   2.462
 6229SOL    HW119586   1.365   2.505   2.526
 6229SOL    HW219587   1.258   2.606   2.456
 6230SOL     OW19588   1.867   2.543   3.981
 6230SOL    HW119589   1.897   2.526   4.075
 6230SOL    HW219590   1.943   2.578   3.927
 6231SOL     OW19591   6.475   4.310   2.615
 6231SOL    HW119592   6.471   4.253   2.697
 6231SOL    HW219593   6.548   4.378   2.626
 6232SOL     OW19594   0.683   0.908   6.702
 6232SOL    HW119595   0.750   0.980   6.723
 6232SOL    HW219596   0.689   0.883   6.605
 6233SOL     OW19597   4.368   0.844   6.084
 6233SOL    HW119598   4.303   0.872   6.155
 6233SOL    HW219599   4.455   0.891   6.097
 6234SOL     OW19600   2.336   2.018   4.050
 6234SOL    HW119601   2.357   2.064   3.964
 6234SOL    HW219602   2.417   2.016   4.108
 6235SOL     OW19603   1.588   5.028   1.415
 6235SOL    HW119604   1.646   4.948   1.402
 6235SOL    HW219605   1.643   5.103   1.452
 6236SOL     OW19606   0.069   4.058   0.256
 6236SOL    HW119607   0.043   4.049   0.352
 6236SOL    HW219608   0.080   4.155   0.233
 6237SOL     OW19609   3.306   6.292   6.001
 6237SOL    HW119610   3.346   6.334   6.082
 6237SOL    HW219611   3.379   6.257   5.942
 6238SOL     OW19612   5.443   3.080   1.189
 6238SOL    HW119613   5.495   2.995   1.182
 6238SOL    HW219614   5.410   3.093   1.282
 6239SOL     OW19615   3.396   6.254   4.527
 6239SOL    HW119616   3.300   6.228   4.541
 6239SOL    HW219617   3.402   6.320   4.452
 6240SOL     OW19618   2.496   3.928   0.089
 6240SOL    HW119619   2.541   3.850   0.134
 6240SOL    HW219620   2.414   3.897   0.042
 6241SOL     OW19621   3.958   6.533   2.845
 6241SOL    HW119622   3.920   6.529   2.937
 6241SOL    HW219623   3.962   6.628   2.814
 6242SOL     OW19624   3.386   1.836   2.670
 6242SOL    HW119625   3.383   1.760   2.734
 6242SOL    HW219626   3.411   1.920   2.718
 6243SOL     OW19627   6.289   5.987   2.931
 6243SOL    HW119628   6.195   6.007   2.905
 6243SOL    HW219629   6.289   5.931   3.014
 6244SOL     OW19630   1.353   1.879   1.401
 6244SOL    HW119631   1.369   1.826   1.318
 6244SOL    HW219632   1.310   1.966   1.378
 6245SOL     OW19633   2.374   3.283   0.270
 6245SOL    HW119634   2.304   3.213   0.281
 6245SOL    HW219635   2.464   3.239   0.268
 6246SOL     OW19636   4.001   6.873   0.279
 6246SOL    HW119637   3.960   6.963   0.288
 6246SOL    HW219638   4.099   6.879   0.296
 6247SOL     OW19639   6.155   0.119   2.885
 6247SOL    HW119640   6.063   0.125   2.847
 6247SOL    HW219641   6.173   0.026   2.915
 6248SOL     OW19642   1.280   5.323   1.009
 6248SOL    HW119643   1.320   5.397   1.063
 6248SOL    HW219644   1.323   5.320   0.919
 6249SOL     OW19645   6.414   3.237   5.924
 6249SOL    HW119646   6.366   3.204   6.006
 6249SOL    HW219647   6.450   3.329   5.941
 6250SOL     OW19648   6.755   4.198   6.337
 6250SOL    HW119649   6.814   4.211   6.417
 6250SOL    HW219650   6.787   4.258   6.263
 6251SOL     OW19651   5.026   1.056   6.909
 6251SOL    HW119652   4.946   1.098   6.952
 6251SOL    HW219653   5.030   1.082   6.812
 6252SOL     OW19654   2.300   6.659   5.416
 6252SOL    HW119655   2.248   6.683   5.498
 6252SOL    HW219656   2.398   6.659   5.437
 6253SOL     OW19657   2.537   3.337   0.719
 6253SOL    HW119658   2.472   3.275   0.674
 6253SOL    HW219659   2.486   3.409   0.767
 6254SOL     OW19660   5.599   0.269   7.014
 6254SOL    HW119661   5.696   0.253   6.995
 6254SOL    HW219662   5.588   0.354   0.036
 6255SOL     OW19663   1.064   3.203   3.005
 6255SOL    HW119664   1.125   3.262   2.953
 6255SOL    HW219665   0.970   3.219   2.976
 6256SOL     OW19666   4.612   5.400   4.319
 6256SOL    HW119667   4.513   5.397   4.311
 6256SOL    HW219668   4.648   5.476   4.265
 6257SOL     OW19669   3.851   2.718   6.785
 6257SOL    HW119670   3.883   2.805   6.824
 6257SOL    HW219671   3.755   2.726   6.759
 6258SOL     OW19672   4.573   2.176   3.316
 6258SOL    HW119673   4.612   2.170   3.224
 6258SOL    HW219674   4.523   2.091   3.336
 6259SOL     OW19675   3.315   2.576   1.583
 6259SOL    HW119676   3.259   2.572   1.499
 6259SOL    HW219677   3.378   2.499   1.584
 6260SOL     OW19678   3.966   3.934   1.805
 6260SOL    HW119679   3.910   3.934   1.888
 6260SOL    HW219680   3.920   3.987   1.734
 6261SOL     OW19681   4.768   6.857   6.329
 6261SOL    HW119682   4.707   6.829   6.255
 6261SOL    HW219683   4.713   6.880   6.410
 6262SOL     OW19684   0.368   5.898   5.255
 6262SOL    HW119685   0.394   5.963   5.184
 6262SOL    HW219686   0.324   5.947   5.331
 6263SOL     OW19687   6.807   0.323   1.396
 6263SOL    HW119688   6.856   0.383   1.459
 6263SOL    HW219689   6.845   0.333   1.304
 6264SOL     OW19690   2.831   0.961   0.428
 6264SOL    HW119691   2.731   0.969   0.436
 6264SOL    HW219692   2.857   0.865   0.422
 6265SOL     OW19693   6.640   3.774   0.474
 6265SOL    HW119694   6.606   3.680   0.477
 6265SOL    HW219695   6.659   3.800   0.379
 6266SOL     OW19696   2.335   0.007   2.835
 6266SOL    HW119697   2.389   6.996   2.760
 6266SOL    HW219698   2.393   0.065   2.892
 6267SOL     OW19699   3.057   6.447   6.441
 6267SOL    HW119700   3.119   6.517   6.406
 6267SOL    HW219701   3.055   6.451   6.541
 6268SOL     OW19702   2.187   6.265   2.458
 6268SOL    HW119703   2.097   6.244   2.422
 6268SOL    HW219704   2.178   6.310   2.547
 6269SOL     OW19705   7.002   4.772   6.162
 6269SOL    HW119706   0.073   4.771   6.170
 6269SOL    HW219707   6.976   4.751   6.067
 6270SOL     OW19708   1.006   1.399   3.972
 6270SOL    HW119709   1.045   1.393   4.064
 6270SOL    HW219710   0.918   1.350   3.970
 6271SOL     OW19711   5.262   2.260   0.873
 6271SOL    HW119712   5.231   2.349   0.841
 6271SOL    HW219713   5.288   2.266   0.969
 6272SOL     OW19714   2.929   2.294   3.607
 6272SOL    HW119715   2.848   2.290   3.666
 6272SOL    HW219716   3.008   2.257   3.656
 6273SOL     OW19717   3.768   1.318   2.685
 6273SOL    HW119718   3.783   1.313   2.587
 6273SOL    HW219719   3.697   1.253   2.712
 6274SOL     OW19720   2.817   5.648   6.778
 6274SOL    HW119721   2.863   5.649   6.689
 6274SOL    HW219722   2.794   5.742   6.804
 6275SOL     OW19723   3.252   0.890   4.100
 6275SOL    HW119724   3.246   0.986   4.125
 6275SOL    HW219725   3.323   0.878   4.030
 6276SOL     OW19726   0.620   5.737   3.773
 6276SOL    HW119727   0.588   5.765   3.682
 6276SOL    HW219728   0.718   5.718   3.769
 6277SOL     OW19729   6.008   3.455   4.453
 6277SOL    HW119730   5.988   3.548   4.423
 6277SOL    HW219731   6.018   3.395   4.374
 6278SOL     OW19732   4.642   1.152   3.370
 6278SOL    HW119733   4.736   1.137   3.340
 6278SOL    HW219734   4.584   1.078   3.334
 6279SOL     OW19735   3.792   2.297   5.628
 6279SOL    HW119736   3.808   2.364   5.700
 6279SOL    HW219737   3.751   2.341   5.549
 6280SOL     OW19738   1.955   5.358   4.966
 6280SOL    HW119739   1.955   5.279   4.904
 6280SOL    HW219740   2.038   5.358   5.021
 6281SOL     OW19741   3.475   6.319   5.025
 6281SOL    HW119742   3.397   6.381   5.028
 6281SOL    HW219743   3.459   6.242   5.087
 6282SOL     OW19744   0.751   6.513   4.169
 6282SOL    HW119745   0.845   6.499   4.201
 6282SOL    HW219746   0.744   6.604   4.127
 6283SOL     OW19747   1.406   3.308   4.946
 6283SOL    HW119748   1.343   3.367   4.997
 6283SOL    HW219749   1.418   3.222   4.996
 6284SOL     OW19750   2.880   4.567   0.533
 6284SOL    HW119751   2.882   4.552   0.434
 6284SOL    HW219752   2.786   4.587   0.561
 6285SOL     OW19753   2.021   3.590   2.766
 6285SOL    HW119754   1.972   3.578   2.853
 6285SOL    HW219755   2.073   3.507   2.746
 6286SOL     OW19756   0.114   6.428   3.610
 6286SOL    HW119757   0.140   6.339   3.648
 6286SOL    HW219758   0.129   6.500   3.677
 6287SOL     OW19759   3.496   4.927   3.163
 6287SOL    HW119760   3.431   4.943   3.238
 6287SOL    HW219761   3.589   4.919   3.201
 6288SOL     OW19762   6.869   3.892   1.424
 6288SOL    HW119763   6.809   3.836   1.366
 6288SOL    HW219764   6.849   3.989   1.409
 6289SOL     OW19765   0.292   6.936   2.740
 6289SOL    HW119766   0.290   6.844   2.780
 6289SOL    HW219767   0.235   6.938   2.658
 6290SOL     OW19768   5.635   3.106   3.973
 6290SOL    HW119769   5.589   3.178   4.024
 6290SOL    HW219770   5.732   3.103   4.000
 6291SOL     OW19771   3.649   3.955   4.101
 6291SOL    HW119772   3.732   4.006   4.124
 6291SOL    HW219773   3.643   3.874   4.159
 6292SOL     OW19774   6.169   1.429   1.127
 6292SOL    HW119775   6.085   1.395   1.171
 6292SOL    HW219776   6.245   1.369   1.151
 6293SOL     OW19777   5.841   4.064   5.613
 6293SOL    HW119778   5.833   3.965   5.628
 6293SOL    HW219779   5.927   4.084   5.566
 6294SOL     OW19780   3.054   6.112   0.688
 6294SOL    HW119781   3.094   6.033   0.642
 6294SOL    HW219782   3.123   6.154   0.748
 6295SOL     OW19783   6.248   5.715   6.609
 6295SOL    HW119784   6.307   5.661   6.668
 6295SOL    HW219785   6.155   5.718   6.647
 6296SOL     OW19786   5.979   2.208   3.802
 6296SOL    HW119787   5.977   2.281   3.733
 6296SOL    HW219788   5.957   2.120   3.758
 6297SOL     OW19789   5.595   2.818   6.334
 6297SOL    HW119790   5.666   2.757   6.298
 6297SOL    HW219791   5.583   2.801   6.432
 6298SOL     OW19792   6.262   2.978   4.757
 6298SOL    HW119793   6.348   2.938   4.727
 6298SOL    HW219794   6.235   3.050   4.694
 6299SOL     OW19795   0.166   1.855   6.523
 6299SOL    HW119796   0.207   1.779   6.573
 6299SOL    HW219797   0.117   1.820   6.443
 6300SOL     OW19798   5.209   1.637   3.381
 6300SOL    HW119799   5.293   1.599   3.342
 6300SOL    HW219800   5.136   1.570   3.375
 6301SOL     OW19801   2.902   6.876   0.839
 6301SOL    HW119802   2.814   6.901   0.797
 6301SOL    HW219803   2.891   6.791   0.890
 6302SOL     OW19804   6.377   0.849   3.020
 6302SOL    HW119805   6.397   0.751   3.016
 6302SOL    HW219806   6.369   0.885   2.927
 6303SOL     OW19807   2.158   5.492   4.775
 6303SOL    HW119808   2.191   5.440   4.854
 6303SOL    HW219809   2.086   5.555   4.806
 6304SOL     OW19810   4.380   0.888   4.885
 6304SOL    HW119811   4.409   0.956   4.818
 6304SOL    HW219812   4.410   0.797   4.855
 6305SOL     OW19813   4.951   6.780   2.926
 6305SOL    HW119814   4.916   6.693   2.960
 6305SOL    HW219815   4.989   6.766   2.834
 6306SOL     OW19816   6.166   2.592   4.623
 6306SOL    HW119817   6.126   2.583   4.714
 6306SOL    HW219818   6.161   2.504   4.575
 6307SOL     OW19819   2.290   4.142   0.945
 6307SOL    HW119820   2.385   4.154   0.915
 6307SOL    HW219821   2.250   4.231   0.967
 6308SOL     OW19822   3.960   2.496   6.324
 6308SOL    HW119823   3.943   2.410   6.372
 6308SOL    HW219824   3.948   2.573   6.387
 6309SOL     OW19825   6.491   2.263   5.307
 6309SOL    HW119826   6.402   2.309   5.303
 6309SOL    HW219827   6.486   2.176   5.258
 6310SOL     OW19828   0.314   5.631   5.274
 6310SOL    HW119829   0.311   5.582   5.187
 6310SOL    HW219830   0.338   5.726   5.257
 6311SOL     OW19831   6.422   6.914   4.872
 6311SOL    HW119832   6.358   6.858   4.819
 6311SOL    HW219833   6.457   6.861   4.949
 6312SOL     OW19834   5.570   3.922   5.414
 6312SOL    HW119835   5.501   3.897   5.482
 6312SOL    HW219836   5.661   3.908   5.452
 6313SOL     OW19837   2.785   5.717   3.930
 6313SOL    HW119838   2.777   5.808   3.972
 6313SOL    HW219839   2.881   5.689   3.929
 6314SOL     OW19840   0.958   7.001   3.136
 6314SOL    HW119841   0.983   0.068   3.120
 6314SOL    HW219842   1.029   6.941   3.099
 6315SOL     OW19843   1.408   3.920   0.712
 6315SOL    HW119844   1.343   3.862   0.761
 6315SOL    HW219845   1.360   3.998   0.673
 6316SOL     OW19846   4.234   1.228   4.579
 6316SOL    HW119847   4.166   1.296   4.606
 6316SOL    HW219848   4.232   1.151   4.642
 6317SOL     OW19849   6.806   5.989   4.106
 6317SOL    HW119850   6.783   5.902   4.062
 6317SOL    HW219851   6.840   6.053   4.036
 6318SOL     OW19852   1.335   2.883   3.824
 6318SOL    HW119853   1.392   2.947   3.772
 6318SOL    HW219854   1.239   2.902   3.808
 6319SOL     OW19855   1.293   2.101   2.996
 6319SOL    HW119856   1.202   2.073   2.966
 6319SOL    HW219857   1.362   2.048   2.946
 6320SOL     OW19858   0.124   2.131   1.911
 6320SOL    HW119859   0.066   2.053   1.937
 6320SOL    HW219860   0.102   2.209   1.969
 6321SOL     OW19861   2.516   4.163   5.573
 6321SOL    HW119862   2.610   4.193   5.589
 6321SOL    HW219863   2.495   4.170   5.476
 6322SOL     OW19864   2.207   6.609   0.668
 6322SOL    HW119865   2.254   6.612   0.756
 6322SOL    HW219866   2.239   6.684   0.611
 6323SOL     OW19867   4.388   1.911   1.930
 6323SOL    HW119868   4.328   1.832   1.940
 6323SOL    HW219869   4.467   1.901   1.991
 6324SOL     OW19870   3.219   1.587   1.852
 6324SOL    HW119871   3.298   1.646   1.870
 6324SOL    HW219872   3.244   1.518   1.784
 6325SOL     OW19873   2.081   2.859   3.086
 6325SOL    HW119874   2.008   2.796   3.059
 6325SOL    HW219875   2.042   2.947   3.112
 6326SOL     OW19876   4.417   6.113   2.017
 6326SOL    HW119877   4.434   6.209   2.038
 6326SOL    HW219878   4.355   6.107   1.938
 6327SOL     OW19879   4.579   5.166   5.237
 6327SOL    HW119880   4.554   5.170   5.140
 6327SOL    HW219881   4.499   5.188   5.293
 6328SOL     OW19882   2.864   4.472   0.989
 6328SOL    HW119883   2.770   4.506   0.992
 6328SOL    HW219884   2.921   4.527   1.051
 6329SOL     OW19885   0.725   2.236   3.068
 6329SOL    HW119886   0.825   2.240   3.066
 6329SOL    HW219887   0.689   2.249   2.976
 6330SOL     OW19888   3.330   0.462   6.652
 6330SOL    HW119889   3.355   0.365   6.658
 6330SOL    HW219890   3.370   0.512   6.729
 6331SOL     OW19891   5.615   2.239   1.382
 6331SOL    HW119892   5.692   2.300   1.397
 6331SOL    HW219893   5.587   2.199   1.470
 6332SOL     OW19894   3.485   6.288   2.212
 6332SOL    HW119895   3.498   6.206   2.157
 6332SOL    HW219896   3.553   6.291   2.285
 6333SOL     OW19897   2.130   5.599   2.623
 6333SOL    HW119898   2.224   5.623   2.598
 6333SOL    HW219899   2.115   5.622   2.719
 6334SOL     OW19900   2.315   0.017   1.787
 6334SOL    HW119901   2.353   6.983   1.718
 6334SOL    HW219902   2.388   0.077   1.820
 6335SOL     OW19903   6.399   0.422   0.010
 6335SOL    HW119904   6.367   0.486   6.968
 6335SOL    HW219905   6.324   0.398   0.071
 6336SOL     OW19906   1.776   2.690   5.052
 6336SOL    HW119907   1.677   2.698   5.036
 6336SOL    HW219908   1.817   2.781   5.050
 6337SOL     OW19909   0.949   4.223   5.316
 6337SOL    HW119910   0.924   4.126   5.304
 6337SOL    HW219911   0.968   4.264   5.227
 6338SOL     OW19912   3.898   1.103   3.676
 6338SOL    HW119913   3.814   1.082   3.624
 6338SOL    HW219914   3.942   1.183   3.636
 6339SOL     OW19915   0.048   3.316   4.611
 6339SOL    HW119916   0.066   3.226   4.652
 6339SOL    HW219917   0.018   3.304   4.517
 6340SOL     OW19918   3.020   5.068   3.691
 6340SOL    HW119919   3.038   5.096   3.597
 6340SOL    HW219920   3.093   5.008   3.723
 6341SOL     OW19921   5.736   4.863   1.851
 6341SOL    HW119922   5.806   4.864   1.780
 6341SOL    HW219923   5.739   4.948   1.903
 6342SOL     OW19924   0.717   3.614   0.572
 6342SOL    HW119925   0.747   3.687   0.633
 6342SOL    HW219926   0.640   3.644   0.517
 6343SOL     OW19927   3.554   1.317   7.027
 6343SOL    HW119928   3.644   1.357   7.009
 6343SOL    HW219929   3.486   1.391   0.008
 6344SOL     OW19930   5.846   5.108   4.358
 6344SOL    HW119931   5.942   5.114   4.386
 6344SOL    HW219932   5.828   5.018   4.319
 6345SOL     OW19933   1.829   2.333   1.268
 6345SOL    HW119934   1.911   2.378   1.235
 6345SOL    HW219935   1.806   2.256   1.207
 6346SOL     OW19936   1.130   4.783   4.486
 6346SOL    HW119937   1.189   4.720   4.537
 6346SOL    HW219938   1.145   4.771   4.388
 6347SOL     OW19939   2.983   0.048   0.263
 6347SOL    HW119940   2.970   0.090   0.352
 6347SOL    HW219941   2.945   6.983   0.263
 6348SOL     OW19942   0.068   2.180   4.646
 6348SOL    HW119943   7.001   2.164   4.619
 6348SOL    HW219944   0.070   2.214   4.740
 6349SOL     OW19945   0.246   0.674   0.045
 6349SOL    HW119946   0.282   0.592   0.002
 6349SOL    HW219947   0.321   0.733   0.073
 6350SOL     OW19948   6.937   5.181   3.460
 6350SOL    HW119949   6.975   5.105   3.512
 6350SOL    HW219950   7.010   5.246   3.437
 6351SOL     OW19951   7.011   2.227   2.508
 6351SOL    HW119952   6.971   2.156   2.566
 6351SOL    HW219953   7.020   2.311   2.560
 6352SOL     OW19954   6.030   4.556   2.564
 6352SOL    HW119955   6.019   4.608   2.649
 6352SOL    HW219956   6.124   4.525   2.556
 6353SOL     OW19957   6.097   0.133   2.436
 6353SOL    HW119958   6.102   0.195   2.357
 6353SOL    HW219959   6.061   0.182   2.515
 6354SOL     OW19960   6.510   6.557   5.287
 6354SOL    HW119961   6.464   6.588   5.370
 6354SOL    HW219962   6.592   6.506   5.311
 6355SOL     OW19963   0.774   1.681   0.831
 6355SOL    HW119964   0.686   1.696   0.877
 6355SOL    HW219965   0.789   1.754   0.764
 6356SOL     OW19966   3.400   3.697   1.316
 6356SOL    HW119967   3.454   3.674   1.236
 6356SOL    HW219968   3.304   3.707   1.290
 6357SOL     OW19969   4.501   1.720   1.254
 6357SOL    HW119970   4.534   1.729   1.160
 6357SOL    HW219971   4.506   1.810   1.299
 6358SOL     OW19972   1.242   2.869   5.426
 6358SOL    HW119973   1.218   2.939   5.359
 6358SOL    HW219974   1.262   2.912   5.514
 6359SOL     OW19975   0.465   6.757   6.257
 6359SOL    HW119976   0.416   6.790   6.177
 6359SOL    HW219977   0.535   6.691   6.229
 6360SOL     OW19978   2.150   4.902   4.191
 6360SOL    HW119979   2.146   4.996   4.155
 6360SOL    HW219980   2.194   4.903   4.280
 6361SOL     OW19981   2.759   5.716   5.280
 6361SOL    HW119982   2.785   5.714   5.183
 6361SOL    HW219983   2.697   5.793   5.296
 6362SOL     OW19984   6.629   4.654   6.100
 6362SOL    HW119985   6.564   4.719   6.140
 6362SOL    HW219986   6.689   4.618   6.171
 6363SOL     OW19987   0.509   5.586   3.259
 6363SOL    HW119988   0.482   5.630   3.344
 6363SOL    HW219989   0.474   5.639   3.182
 6364SOL     OW19990   2.498   1.484   6.902
 6364SOL    HW119991   2.566   1.426   6.856
 6364SOL    HW219992   2.534   1.577   6.911
 6365SOL     OW19993   3.881   6.144   2.271
 6365SOL    HW119994   3.921   6.166   2.183
 6365SOL    HW219995   3.902   6.050   2.296
 6366SOL     OW19996   0.881   3.962   5.339
 6366SOL    HW119997   0.863   3.943   5.243
 6366SOL    HW219998   0.969   3.922   5.366
 6367SOL     OW19999   5.330   5.067   2.151
 6367SOL    HW120000   5.411   5.016   2.126
 6367SOL    HW220001   5.355   5.139   2.216
 6368SOL     OW20002   2.594   1.592   1.928
 6368SOL    HW120003   2.670   1.604   1.992
 6368SOL    HW220004   2.599   1.662   1.858
 6369SOL     OW20005   2.551   5.903   5.140
 6369SOL    HW120006   2.530   5.955   5.223
 6369SOL    HW220007   2.470   5.853   5.111
 6370SOL     OW20008   4.924   2.364   2.403
 6370SOL    HW120009   4.968   2.274   2.407
 6370SOL    HW220010   4.979   2.426   2.347
 6371SOL     OW20011   4.179   1.983   3.493
 6371SOL    HW120012   4.203   1.971   3.589
 6371SOL    HW220013   4.087   1.947   3.476
 6372SOL     OW20014   2.699   0.413   2.433
 6372SOL    HW120015   2.776   0.348   2.432
 6372SOL    HW220016   2.671   0.432   2.339
 6373SOL     OW20017   3.552   4.795   0.064
 6373SOL    HW120018   3.594   4.885   0.060
 6373SOL    HW220019   3.489   4.789   0.141
 6374SOL     OW20020   2.961   3.542   4.959
 6374SOL    HW120021   3.026   3.482   5.005
 6374SOL    HW220022   2.938   3.618   5.020
 6375SOL     OW20023   2.193   5.866   1.703
 6375SOL    HW120024   2.253   5.928   1.753
 6375SOL    HW220025   2.149   5.915   1.628
 6376SOL     OW20026   1.481   0.705   5.475
 6376SOL    HW120027   1.503   0.661   5.388
 6376SOL    HW220028   1.383   0.722   5.480
 6377SOL     OW20029   0.488   2.339   3.604
 6377SOL    HW120030   0.447   2.417   3.651
 6377SOL    HW220031   0.505   2.364   3.508
 6378SOL     OW20032   4.195   5.608   3.670
 6378SOL    HW120033   4.173   5.696   3.628
 6378SOL    HW220034   4.263   5.621   3.742
 6379SOL     OW20035   1.895   4.077   1.896
 6379SOL    HW120036   1.962   4.101   1.826
 6379SOL    HW220037   1.935   4.009   1.958
 6380SOL     OW20038   0.415   0.358   6.350
 6380SOL    HW120039   0.426   0.260   6.368
 6380SOL    HW220040   0.347   0.371   6.278
 6381SOL     OW20041   3.871   3.329   3.487
 6381SOL    HW120042   3.847   3.245   3.535
 6381SOL    HW220043   3.835   3.408   3.536
 6382SOL     OW20044   1.303   4.385   5.173
 6382SOL    HW120045   1.329   4.388   5.269
 6382SOL    HW220046   1.356   4.315   5.125
 6383SOL     OW20047   3.941   1.839   4.159
 6383SOL    HW120048   4.018   1.776   4.147
 6383SOL    HW220049   3.960   1.900   4.236
 6384SOL     OW20050   6.646   4.708   2.226
 6384SOL    HW120051   6.686   4.776   2.164
 6384SOL    HW220052   6.585   4.648   2.175
 6385SOL     OW20053   1.030   5.331   5.168
 6385SOL    HW120054   1.035   5.420   5.212
 6385SOL    HW220055   1.044   5.342   5.069
 6386SOL     OW20056   2.388   5.696   2.629
 6386SOL    HW120057   2.488   5.686   2.625
 6386SOL    HW220058   2.365   5.793   2.635
 6387SOL     OW20059   5.677   1.794   5.281
 6387SOL    HW120060   5.681   1.834   5.372
 6387SOL    HW220061   5.752   1.830   5.225
 6388SOL     OW20062   2.356   5.387   1.677
 6388SOL    HW120063   2.455   5.388   1.684
 6388SOL    HW220064   2.319   5.477   1.701
 6389SOL     OW20065   1.774   3.816   0.749
 6389SOL    HW120066   1.722   3.876   0.810
 6389SOL    HW220067   1.868   3.851   0.740
 6390SOL     OW20068   0.639   3.799   4.881
 6390SOL    HW120069   0.648   3.699   4.886
 6390SOL    HW220070   0.729   3.841   4.894
 6391SOL     OW20071   4.197   0.484   0.345
 6391SOL    HW120072   4.259   0.536   0.287
 6391SOL    HW220073   4.116   0.457   0.292
 6392SOL     OW20074   1.258   6.184   4.520
 6392SOL    HW120075   1.305   6.123   4.584
 6392SOL    HW220076   1.159   6.175   4.532
 6393SOL     OW20077   5.081   1.752   6.405
 6393SOL    HW120078   5.028   1.747   6.320
 6393SOL    HW220079   5.025   1.719   6.481
 6394SOL     OW20080   3.414   5.569   2.619
 6394SOL    HW120081   3.474   5.489   2.620
 6394SOL    HW220082   3.393   5.596   2.713
 6395SOL     OW20083   5.736   1.655   0.228
 6395SOL    HW120084   5.768   1.727   0.166
 6395SOL    HW220085   5.685   1.587   0.176
 6396SOL     OW20086   6.630   2.225   6.350
 6396SOL    HW120087   6.723   2.205   6.380
 6396SOL    HW220088   6.597   2.308   6.395
 6397SOL     OW20089   0.270   0.020   0.196
 6397SOL    HW120090   0.210   0.095   0.167
 6397SOL    HW220091   0.352   0.018   0.139
 6398SOL     OW20092   4.631   0.990   1.771
 6398SOL    HW120093   4.558   0.922   1.780
 6398SOL    HW220094   4.607   1.071   1.824
 6399SOL     OW20095   0.537   6.793   6.543
 6399SOL    HW120096   0.520   6.719   6.609
 6399SOL    HW220097   0.512   6.762   6.452
 6400SOL     OW20098   3.181   5.282   4.502
 6400SOL    HW120099   3.097   5.278   4.556
 6400SOL    HW220100   3.198   5.376   4.473
 6401SOL     OW20101   6.544   4.983   5.700
 6401SOL    HW120102   6.566   4.921   5.775
 6401SOL    HW220103   6.600   4.961   5.620
 6402SOL     OW20104   2.085   3.901   2.747
 6402SOL    HW120105   2.113   3.836   2.677
 6402SOL    HW220106   2.150   3.977   2.750
 6403SOL     OW20107   0.380   6.352   1.964
 6403SOL    HW120108   0.453   6.409   1.927
 6403SOL    HW220109   0.312   6.334   1.893
 6404SOL     OW20110   5.125   0.701   1.922
 6404SOL    HW120111   5.070   0.620   1.904
 6404SOL    HW220112   5.084   0.754   1.997
 6405SOL     OW20113   3.824   5.956   1.937
 6405SOL    HW120114   3.821   5.863   1.898
 6405SOL    HW220115   3.746   5.969   1.998
 6406SOL     OW20116   2.400   2.602   3.276
 6406SOL    HW120117   2.390   2.683   3.219
 6406SOL    HW220118   2.497   2.583   3.291
 6407SOL     OW20119   5.276   6.138   0.403
 6407SOL    HW120120   5.356   6.146   0.462
 6407SOL    HW220121   5.305   6.140   0.307
 6408SOL     OW20122   6.826   1.815   1.058
 6408SOL    HW120123   6.869   1.755   1.127
 6408SOL    HW220124   6.733   1.836   1.087
 6409SOL     OW20125   0.699   4.943   1.617
 6409SOL    HW120126   0.733   4.857   1.656
 6409SOL    HW220127   0.624   4.978   1.673
 6410SOL     OW20128   6.599   6.613   0.708
 6410SOL    HW120129   6.499   6.618   0.698
 6410SOL    HW220130   6.638   6.704   0.694
 6411SOL     OW20131   1.430   1.386   3.147
 6411SOL    HW120132   1.475   1.296   3.147
 6411SOL    HW220133   1.343   1.380   3.099
 6412SOL     OW20134   6.137   2.667   5.140
 6412SOL    HW120135   6.185   2.742   5.185
 6412SOL    HW220136   6.042   2.664   5.172
 6413SOL     OW20137   0.047   5.561   1.055
 6413SOL    HW120138   0.066   5.600   0.964
 6413SOL    HW220139   7.013   5.622   1.104
 6414SOL     OW20140   6.631   0.475   3.389
 6414SOL    HW120141   6.577   0.458   3.471
 6414SOL    HW220142   6.649   0.388   3.342
 6415SOL     OW20143   1.216   1.647   2.333
 6415SOL    HW120144   1.132   1.696   2.308
 6415SOL    HW220145   1.294   1.687   2.285
 6416SOL     OW20146   2.753   6.151   6.384
 6416SOL    HW120147   2.709   6.075   6.335
 6416SOL    HW220148   2.734   6.145   6.481
 6417SOL     OW20149   6.920   6.763   4.194
 6417SOL    HW120150   7.005   6.734   4.149
 6417SOL    HW220151   6.844   6.754   4.130
 6418SOL     OW20152   6.364   5.447   2.085
 6418SOL    HW120153   6.358   5.391   2.002
 6418SOL    HW220154   6.386   5.541   2.060
 6419SOL     OW20155   3.265   2.435   1.123
 6419SOL    HW120156   3.299   2.423   1.029
 6419SOL    HW220157   3.238   2.346   1.159
 6420SOL     OW20158   0.569   1.691   0.061
 6420SOL    HW120159   0.535   1.784   0.073
 6420SOL    HW220160   0.653   1.679   0.115
 6421SOL     OW20161   5.857   1.991   0.687
 6421SOL    HW120162   5.847   2.049   0.606
 6421SOL    HW220163   5.858   1.895   0.660
 6422SOL     OW20164   5.685   2.741   3.065
 6422SOL    HW120165   5.704   2.683   2.986
 6422SOL    HW220166   5.762   2.739   3.128
 6423SOL     OW20167   5.732   3.581   0.580
 6423SOL    HW120168   5.655   3.632   0.620
 6423SOL    HW220169   5.739   3.603   0.483
 6424SOL     OW20170   6.523   3.593   4.983
 6424SOL    HW120171   6.481   3.591   5.073
 6424SOL    HW220172   6.577   3.677   4.973
 6425SOL     OW20173   0.806   5.558   1.176
 6425SOL    HW120174   0.865   5.523   1.104
 6425SOL    HW220175   0.776   5.651   1.153
 6426SOL     OW20176   6.855   4.325   3.479
 6426SOL    HW120177   6.941   4.286   3.445
 6426SOL    HW220178   6.791   4.251   3.500
 6427SOL     OW20179   1.124   3.459   5.392
 6427SOL    HW120180   1.186   3.495   5.462
 6427SOL    HW220181   1.036   3.506   5.399
 6428SOL     OW20182   6.700   3.950   5.604
 6428SOL    HW120183   6.675   3.947   5.508
 6428SOL    HW220184   6.627   3.996   5.656
 6429SOL     OW20185   2.172   6.625   4.585
 6429SOL    HW120186   2.169   6.673   4.672
 6429SOL    HW220187   2.080   6.592   4.562
 6430SOL     OW20188   6.303   3.633   6.542
 6430SOL    HW120189   6.379   3.692   6.571
 6430SOL    HW220190   6.284   3.648   6.445
 6431SOL     OW20191   5.072   1.824   2.166
 6431SOL    HW120192   5.083   1.739   2.113
 6431SOL    HW220193   5.086   1.805   2.263
 6432SOL     OW20194   6.389   3.704   0.837
 6432SOL    HW120195   6.436   3.787   0.808
 6432SOL    HW220196   6.363   3.650   0.757
 6433SOL     OW20197   2.136   3.307   1.744
 6433SOL    HW120198   2.195   3.237   1.706
 6433SOL    HW220199   2.192   3.374   1.793
 6434SOL     OW20200   1.687   6.260   0.585
 6434SOL    HW120201   1.687   6.327   0.659
 6434SOL    HW220202   1.773   6.266   0.535
 6435SOL     OW20203   5.996   3.628   0.642
 6435SOL    HW120204   6.032   3.707   0.592
 6435SOL    HW220205   5.898   3.621   0.625
 6436SOL     OW20206   2.846   2.173   0.482
 6436SOL    HW120207   2.842   2.116   0.564
 6436SOL    HW220208   2.885   2.262   0.505
 6437SOL     OW20209   6.638   0.813   2.165
 6437SOL    HW120210   6.558   0.855   2.124
 6437SOL    HW220211   6.709   0.802   2.095
 6438SOL     OW20212   1.055   4.167   4.383
 6438SOL    HW120213   0.969   4.160   4.334
 6438SOL    HW220214   1.084   4.263   4.386
 6439SOL     OW20215   0.512   5.614   2.455
 6439SOL    HW120216   0.432   5.556   2.439
 6439SOL    HW220217   0.487   5.690   2.515
 6440SOL     OW20218   0.403   0.446   2.194
 6440SOL    HW120219   0.450   0.388   2.128
 6440SOL    HW220220   0.323   0.489   2.151
 6441SOL     OW20221   5.553   2.552   3.244
 6441SOL    HW120222   5.486   2.576   3.173
 6441SOL    HW220223   5.507   2.548   3.332
 6442SOL     OW20224   1.405   1.939   3.694
 6442SOL    HW120225   1.346   1.916   3.616
 6442SOL    HW220226   1.497   1.957   3.661
 6443SOL     OW20227   2.588   1.031   0.649
 6443SOL    HW120228   2.623   0.985   0.731
 6443SOL    HW220229   2.523   0.971   0.602
 6444SOL     OW20230   0.528   1.831   2.954
 6444SOL    HW120231   0.456   1.900   2.949
 6444SOL    HW220232   0.491   1.748   2.996
 6445SOL     OW20233   3.838   4.145   6.456
 6445SOL    HW120234   3.913   4.165   6.393
 6445SOL    HW220235   3.835   4.214   6.528
 6446SOL     OW20236   0.198   0.935   1.226
 6446SOL    HW120237   0.154   0.846   1.240
 6446SOL    HW220238   0.238   0.938   1.134
 6447SOL     OW20239   1.949   1.531   3.616
 6447SOL    HW120240   2.041   1.567   3.630
 6447SOL    HW220241   1.930   1.460   3.683
 6448SOL     OW20242   5.984   2.090   1.708
 6448SOL    HW120243   5.968   2.065   1.803
 6448SOL    HW220244   6.015   2.185   1.703
 6449SOL     OW20245   4.278   2.203   0.193
 6449SOL    HW120246   4.306   2.110   0.169
 6449SOL    HW220247   4.212   2.199   0.267
 6450SOL     OW20248   6.655   1.724   0.632
 6450SOL    HW120249   6.646   1.819   0.662
 6450SOL    HW220250   6.595   1.666   0.687
 6451SOL     OW20251   3.465   6.594   4.851
 6451SOL    HW120252   3.537   6.525   4.861
 6451SOL    HW220253   3.456   6.617   4.754
 6452SOL     OW20254   3.738   5.958   4.977
 6452SOL    HW120255   3.770   6.049   4.949
 6452SOL    HW220256   3.739   5.951   5.077
 6453SOL     OW20257   2.872   4.997   0.067
 6453SOL    HW120258   2.912   4.909   0.095
 6453SOL    HW220259   2.817   5.033   0.142
 6454SOL     OW20260   4.222   0.961   5.238
 6454SOL    HW120261   4.319   0.936   5.229
 6454SOL    HW220262   4.214   1.044   5.293
 6455SOL     OW20263   5.806   3.220   0.086
 6455SOL    HW120264   5.879   3.184   0.028
 6455SOL    HW220265   5.779   3.310   0.053
 6456SOL     OW20266   6.571   1.923   4.309
 6456SOL    HW120267   6.542   1.878   4.393
 6456SOL    HW220268   6.512   2.001   4.289
 6457SOL     OW20269   5.817   3.146   1.144
 6457SOL    HW120270   5.756   3.222   1.164
 6457SOL    HW220271   5.810   3.123   1.047
 6458SOL     OW20272   1.017   5.706   4.159
 6458SOL    HW120273   1.092   5.654   4.118
 6458SOL    HW220274   0.944   5.644   4.187
 6459SOL     OW20275   6.055   3.890   0.188
 6459SOL    HW120276   6.116   3.969   0.178
 6459SOL    HW220277   6.021   3.886   0.282
 6460SOL     OW20278   3.853   5.486   1.850
 6460SOL    HW120279   3.852   5.579   1.812
 6460SOL    HW220280   3.765   5.442   1.833
 6461SOL     OW20281   3.442   5.707   4.244
 6461SOL    HW120282   3.412   5.700   4.149
 6461SOL    HW220283   3.538   5.734   4.246
 6462SOL     OW20284   2.244   4.624   3.054
 6462SOL    HW120285   2.329   4.620   3.001
 6462SOL    HW220286   2.174   4.570   3.007
 6463SOL     OW20287   2.634   3.311   5.594
 6463SOL    HW120288   2.605   3.227   5.639
 6463SOL    HW220289   2.562   3.342   5.532
 6464SOL     OW20290   1.024   5.796   1.882
 6464SOL    HW120291   0.989   5.704   1.905
 6464SOL    HW220292   1.059   5.796   1.788
 6465SOL     OW20293   6.142   6.890   3.027
 6465SOL    HW120294   6.196   6.951   3.084
 6465SOL    HW220295   6.201   6.820   2.986
 6466SOL     OW20296   6.716   2.877   4.465
 6466SOL    HW120297   6.744   2.782   4.449
 6466SOL    HW220298   6.699   2.922   4.377
 6467SOL     OW20299   3.865   0.576   5.706
 6467SOL    HW120300   3.848   0.628   5.790
 6467SOL    HW220301   3.857   0.478   5.725
 6468SOL     OW20302   6.158   5.042   2.638
 6468SOL    HW120303   6.246   5.060   2.680
 6468SOL    HW220304   6.172   5.004   2.546
 6469SOL     OW20305   6.982   2.972   5.913
 6469SOL    HW120306   6.992   2.965   5.814
 6469SOL    HW220307   6.934   3.056   5.936
 6470SOL     OW20308   6.517   6.618   4.814
 6470SOL    HW120309   6.538   6.662   4.902
 6470SOL    HW220310   6.447   6.672   4.766
 6471SOL     OW20311   6.632   6.084   5.145
 6471SOL    HW120312   6.555   6.133   5.186
 6471SOL    HW220313   6.712   6.093   5.204
 6472SOL     OW20314   1.651   0.149   1.863
 6472SOL    HW120315   1.556   0.128   1.884
 6472SOL    HW220316   1.656   0.207   1.782
 6473SOL     OW20317   2.126   1.643   5.792
 6473SOL    HW120318   2.183   1.575   5.838
 6473SOL    HW220319   2.077   1.600   5.716
 6474SOL     OW20320   1.405   2.538   0.003
 6474SOL    HW120321   1.456   2.619   0.033
 6474SOL    HW220322   1.390   2.477   0.081
 6475SOL     OW20323   4.409   4.898   3.853
 6475SOL    HW120324   4.339   4.889   3.782
 6475SOL    HW220325   4.418   4.811   3.902
 6476SOL     OW20326   4.933   6.440   2.869
 6476SOL    HW120327   4.883   6.413   2.951
 6476SOL    HW220328   4.872   6.490   2.808
 6477SOL     OW20329   6.733   5.774   0.407
 6477SOL    HW120330   6.773   5.768   0.316
 6477SOL    HW220331   6.642   5.816   0.401
 6478SOL     OW20332   4.467   6.013   0.621
 6478SOL    HW120333   4.437   6.107   0.603
 6478SOL    HW220334   4.482   6.001   0.719
 6479SOL     OW20335   2.761   6.289   2.309
 6479SOL    HW120336   2.791   6.377   2.346
 6479SOL    HW220337   2.788   6.216   2.373
 6480SOL     OW20338   2.781   1.598   0.601
 6480SOL    HW120339   2.813   1.563   0.689
 6480SOL    HW220340   2.797   1.530   0.529
 6481SOL     OW20341   4.178   0.554   0.732
 6481SOL    HW120342   4.172   0.591   0.639
 6481SOL    HW220343   4.271   0.566   0.766
 6482SOL     OW20344   6.921   6.931   5.496
 6482SOL    HW120345   6.982   6.852   5.501
 6482SOL    HW220346   6.961   7.007   5.547
 6483SOL     OW20347   1.699   5.461   1.030
 6483SOL    HW120348   1.741   5.531   0.972
 6483SOL    HW220349   1.672   5.502   1.117
 6484SOL     OW20350   3.959   0.210   2.327
 6484SOL    HW120351   3.992   0.181   2.417
 6484SOL    HW220352   3.910   0.297   2.337
 6485SOL     OW20353   6.855   2.494   2.249
 6485SOL    HW120354   6.873   2.396   2.237
 6485SOL    HW220355   6.850   2.538   2.159
 6486SOL     OW20356   1.658   2.740   2.910
 6486SOL    HW120357   1.733   2.757   2.974
 6486SOL    HW220358   1.585   2.806   2.927
 6487SOL     OW20359   6.799   5.371   2.573
 6487SOL    HW120360   6.709   5.408   2.550
 6487SOL    HW220361   6.788   5.293   2.636
 6488SOL     OW20362   3.635   5.351   4.048
 6488SOL    HW120363   3.541   5.331   4.022
 6488SOL    HW220364   3.689   5.267   4.049
 6489SOL     OW20365   2.717   1.090   6.787
 6489SOL    HW120366   2.701   1.131   6.877
 6489SOL    HW220367   2.797   1.132   6.746
 6490SOL     OW20368   3.991   0.800   6.851
 6490SOL    HW120369   3.979   0.881   6.908
 6490SOL    HW220370   4.008   0.721   6.909
 6491SOL     OW20371   4.814   0.672   5.793
 6491SOL    HW120372   4.717   0.680   5.767
 6491SOL    HW220373   4.853   0.764   5.803
 6492SOL     OW20374   5.628   4.830   6.434
 6492SOL    HW120375   5.599   4.921   6.403
 6492SOL    HW220376   5.713   4.804   6.388
 6493SOL     OW20377   6.956   6.061   4.998
 6493SOL    HW120378   6.961   6.012   5.085
 6493SOL    HW220379   6.867   6.105   4.990
 6494SOL     OW20380   0.114   2.804   3.306
 6494SOL    HW120381   0.093   2.896   3.338
 6494SOL    HW220382   0.172   2.758   3.372
 6495SOL     OW20383   5.284   4.697   1.876
 6495SOL    HW120384   5.243   4.608   1.855
 6495SOL    HW220385   5.380   4.696   1.849
 6496SOL     OW20386   6.907   6.967   3.681
 6496SOL    HW120387   6.896   6.889   3.619
 6496SOL    HW220388   6.864   0.020   3.641
 6497SOL     OW20389   0.957   1.042   1.031
 6497SOL    HW120390   1.050   1.007   1.041
 6497SOL    HW220391   0.940   1.111   1.102
 6498SOL     OW20392   1.278   3.333   4.520
 6498SOL    HW120393   1.274   3.238   4.488
 6498SOL    HW220394   1.346   3.383   4.466
 6499SOL     OW20395   5.950   1.947   2.956
 6499SOL    HW120396   5.968   1.855   2.922
 6499SOL    HW220397   5.892   1.996   2.890
 6500SOL     OW20398   5.354   5.126   1.852
 6500SOL    HW120399   5.425   5.103   1.919
 6500SOL    HW220400   5.266   5.134   1.898
 6501SOL     OW20401   6.603   4.182   0.620
 6501SOL    HW120402   6.569   4.094   0.651
 6501SOL    HW220403   6.661   4.170   0.540
 6502SOL     OW20404   0.475   4.857   2.278
 6502SOL    HW120405   0.461   4.827   2.183
 6502SOL    HW220406   0.422   4.800   2.339
 6503SOL     OW20407   4.328   0.607   3.963
 6503SOL    HW120408   4.335   0.706   3.961
 6503SOL    HW220409   4.280   0.574   3.881
 6504SOL     OW20410   2.381   2.372   0.440
 6504SOL    HW120411   2.437   2.446   0.403
 6504SOL    HW220412   2.356   2.309   0.367
 6505SOL     OW20413   5.536   5.150   1.136
 6505SOL    HW120414   5.622   5.199   1.138
 6505SOL    HW220415   5.490   5.159   1.225
 6506SOL     OW20416   2.184   1.639   1.766
 6506SOL    HW120417   2.278   1.626   1.735
 6506SOL    HW220418   2.136   1.698   1.701
 6507SOL     OW20419   2.758   0.643   1.735
 6507SOL    HW120420   2.692   0.718   1.734
 6507SOL    HW220421   2.806   0.640   1.648
 6508SOL     OW20422   1.242   3.120   1.815
 6508SOL    HW120423   1.160   3.085   1.768
 6508SOL    HW220424   1.215   3.159   1.903
 6509SOL     OW20425   0.925   2.946   4.040
 6509SOL    HW120426   0.895   2.907   4.127
 6509SOL    HW220427   0.992   3.018   4.056
 6510SOL     OW20428   6.488   3.814   0.073
 6510SOL    HW120429   6.400   3.807   0.026
 6510SOL    HW220430   6.512   3.725   0.112
 6511SOL     OW20431   6.920   6.545   6.026
 6511SOL    HW120432   7.005   6.493   6.035
 6511SOL    HW220433   6.927   6.608   5.948
 6512SOL     OW20434   5.116   6.789   4.286
 6512SOL    HW120435   5.102   6.756   4.380
 6512SOL    HW220436   5.207   6.828   4.277
 6513SOL     OW20437   1.398   0.051   3.518
 6513SOL    HW120438   1.384   0.031   3.421
 6513SOL    HW220439   1.442   0.140   3.528
 6514SOL     OW20440   2.752   0.923   4.107
 6514SOL    HW120441   2.697   0.860   4.160
 6514SOL    HW220442   2.693   0.981   4.051
 6515SOL     OW20443   1.512   1.511   3.508
 6515SOL    HW120444   1.418   1.544   3.494
 6515SOL    HW220445   1.560   1.511   3.421
 6516SOL     OW20446   2.434   1.696   5.816
 6516SOL    HW120447   2.421   1.598   5.825
 6516SOL    HW220448   2.388   1.728   5.733
 6517SOL     OW20449   3.291   2.180   1.283
 6517SOL    HW120450   3.363   2.143   1.342
 6517SOL    HW220451   3.211   2.204   1.338
 6518SOL     OW20452   4.947   6.236   1.682
 6518SOL    HW120453   5.016   6.247   1.754
 6518SOL    HW220454   4.922   6.326   1.646
 6519SOL     OW20455   0.296   1.770   4.019
 6519SOL    HW120456   0.272   1.714   3.939
 6519SOL    HW220457   0.213   1.794   4.068
 6520SOL     OW20458   6.106   4.943   1.450
 6520SOL    HW120459   6.102   5.040   1.425
 6520SOL    HW220460   6.189   4.902   1.413
 6521SOL     OW20461   1.191   2.137   6.043
 6521SOL    HW120462   1.195   2.149   5.944
 6521SOL    HW220463   1.096   2.129   6.072
 6522SOL     OW20464   2.566   4.912   4.243
 6522SOL    HW120465   2.642   4.902   4.178
 6522SOL    HW220466   2.601   4.951   4.328
 6523SOL     OW20467   2.476   2.265   1.294
 6523SOL    HW120468   2.414   2.288   1.219
 6523SOL    HW220469   2.561   2.228   1.256
 6524SOL     OW20470   4.271   2.164   5.342
 6524SOL    HW120471   4.210   2.146   5.419
 6524SOL    HW220472   4.308   2.078   5.308
 6525SOL     OW20473   0.588   2.074   4.710
 6525SOL    HW120474   0.606   2.113   4.620
 6525SOL    HW220475   0.666   2.093   4.770
 6526SOL     OW20476   1.813   6.577   3.040
 6526SOL    HW120477   1.727   6.554   3.087
 6526SOL    HW220478   1.817   6.676   3.025
 6527SOL     OW20479   2.003   1.076   4.729
 6527SOL    HW120480   2.072   1.144   4.753
 6527SOL    HW220481   1.991   1.075   4.629
 6528SOL     OW20482   6.750   0.437   2.792
 6528SOL    HW120483   6.724   0.461   2.698
 6528SOL    HW220484   6.754   0.520   2.848
 6529SOL     OW20485   6.248   3.330   2.219
 6529SOL    HW120486   6.261   3.256   2.153
 6529SOL    HW220487   6.164   3.314   2.271
 6530SOL     OW20488   0.207   1.041   0.564
 6530SOL    HW120489   0.261   0.962   0.590
 6530SOL    HW220490   0.214   1.056   0.465
 6531SOL     OW20491   5.175   2.015   5.914
 6531SOL    HW120492   5.100   1.996   5.851
 6531SOL    HW220493   5.224   2.097   5.883
 6532SOL     OW20494   2.169   1.231   6.812
 6532SOL    HW120495   2.074   1.259   6.806
 6532SOL    HW220496   2.208   1.263   6.899
 6533SOL     OW20497   5.389   0.635   0.020
 6533SOL    HW120498   5.414   0.721   0.065
 6533SOL    HW220499   5.456   0.564   0.044
 6534SOL     OW20500   4.009   2.125   6.853
 6534SOL    HW120501   3.988   2.030   6.834
 6534SOL    HW220502   4.102   2.146   6.819
 6535SOL     OW20503   1.793   1.890   4.345
 6535SOL    HW120504   1.760   1.880   4.251
 6535SOL    HW220505   1.838   1.805   4.373
 6536SOL     OW20506   0.516   1.746   0.920
 6536SOL    HW120507   0.436   1.787   0.963
 6536SOL    HW220508   0.517   1.648   0.937
 6537SOL     OW20509   6.806   0.747   5.724
 6537SOL    HW120510   6.874   0.679   5.696
 6537SOL    HW220511   6.715   0.716   5.697
 6538SOL     OW20512   3.246   2.372   5.850
 6538SOL    HW120513   3.265   2.363   5.753
 6538SOL    HW220514   3.169   2.433   5.864
 6539SOL     OW20515   3.247   1.218   6.754
 6539SOL    HW120516   3.159   1.223   6.802
 6539SOL    HW220517   3.320   1.204   6.820
 6540SOL     OW20518   3.872   2.150   3.488
 6540SOL    HW120519   3.894   2.060   3.450
 6540SOL    HW220520   3.925   2.220   3.439
 6541SOL     OW20521   3.361   1.854   5.277
 6541SOL    HW120522   3.434   1.868   5.344
 6541SOL    HW220523   3.309   1.939   5.267
 6542SOL     OW20524   4.223   4.997   2.487
 6542SOL    HW120525   4.278   4.931   2.539
 6542SOL    HW220526   4.168   4.948   2.419
 6543SOL     OW20527   1.357   6.218   5.916
 6543SOL    HW120528   1.445   6.230   5.870
 6543SOL    HW220529   1.284   6.250   5.855
 6544SOL     OW20530   0.853   5.120   2.793
 6544SOL    HW120531   0.796   5.190   2.836
 6544SOL    HW220532   0.869   5.046   2.858
 6545SOL     OW20533   6.369   2.558   6.775
 6545SOL    HW120534   6.417   2.483   6.820
 6545SOL    HW220535   6.435   2.615   6.727
 6546SOL     OW20536   3.243   4.662   6.587
 6546SOL    HW120537   3.317   4.692   6.526
 6546SOL    HW220538   3.279   4.648   6.679
 6547SOL     OW20539   4.409   1.193   6.252
 6547SOL    HW120540   4.309   1.189   6.251
 6547SOL    HW220541   4.440   1.279   6.211
 6548SOL     OW20542   4.272   3.549   5.566
 6548SOL    HW120543   4.181   3.508   5.557
 6548SOL    HW220544   4.322   3.539   5.480
 6549SOL     OW20545   2.461   1.820   2.231
 6549SOL    HW120546   2.411   1.890   2.282
 6549SOL    HW220547   2.488   1.856   2.142
 6550SOL     OW20548   0.801   6.254   2.129
 6550SOL    HW120549   0.703   6.263   2.141
 6550SOL    HW220550   0.820   6.191   2.053
 6551SOL     OW20551   3.517   5.146   2.065
 6551SOL    HW120552   3.525   5.132   2.163
 6551SOL    HW220553   3.503   5.243   2.046
 6552SOL     OW20554   4.976   5.111   6.179
 6552SOL    HW120555   4.932   5.101   6.268
 6552SOL    HW220556   5.051   5.045   6.171
 6553SOL     OW20557   6.401   3.545   2.809
 6553SOL    HW120558   6.411   3.525   2.711
 6553SOL    HW220559   6.373   3.641   2.820
 6554SOL     OW20560   6.539   3.309   4.370
 6554SOL    HW120561   6.602   3.329   4.295
 6554SOL    HW220562   6.567   3.360   4.452
 6555SOL     OW20563   0.573   1.026   1.103
 6555SOL    HW120564   0.543   1.102   1.160
 6555SOL    HW220565   0.635   0.967   1.156
 6556SOL     OW20566   2.508   0.172   2.956
 6556SOL    HW120567   2.558   0.103   3.007
 6556SOL    HW220568   2.440   0.215   3.016
 6557SOL     OW20569   4.728   6.274   0.350
 6557SOL    HW120570   4.648   6.214   0.342
 6557SOL    HW220571   4.811   6.219   0.354
 6558SOL     OW20572   5.732   6.540   6.143
 6558SOL    HW120573   5.815   6.517   6.093
 6558SOL    HW220574   5.691   6.622   6.105
 6559SOL     OW20575   3.167   3.957   1.154
 6559SOL    HW120576   3.265   3.956   1.135
 6559SOL    HW220577   3.136   3.864   1.175
 6560SOL     OW20578   4.611   1.972   1.041
 6560SOL    HW120579   4.588   2.058   1.086
 6560SOL    HW220580   4.709   1.954   1.053
 6561SOL     OW20581   2.953   3.389   4.514
 6561SOL    HW120582   2.933   3.461   4.579
 6561SOL    HW220583   2.960   3.301   4.562
 6562SOL     OW20584   7.026   4.555   4.681
 6562SOL    HW120585   0.080   4.598   4.644
 6562SOL    HW220586   6.985   4.496   4.611
 6563SOL     OW20587   0.951   6.181   2.346
 6563SOL    HW120588   0.888   6.213   2.276
 6563SOL    HW220589   0.921   6.091   2.380
 6564SOL     OW20590   1.927   5.069   3.041
 6564SOL    HW120591   1.992   4.993   3.038
 6564SOL    HW220592   1.938   5.118   3.128
 6565SOL     OW20593   0.122   3.919   5.737
 6565SOL    HW120594   0.186   3.901   5.812
 6565SOL    HW220595   0.132   3.850   5.666
 6566SOL     OW20596   4.266   1.101   0.551
 6566SOL    HW120597   4.309   1.190   0.568
 6566SOL    HW220598   4.252   1.090   0.453
 6567SOL     OW20599   6.814   2.162   0.576
 6567SOL    HW120600   6.756   2.116   0.509
 6567SOL    HW220601   6.900   2.112   0.586
 6568SOL     OW20602   5.461   3.141   1.474
 6568SOL    HW120603   5.450   3.170   1.569
 6568SOL    HW220604   5.521   3.205   1.426
 6569SOL     OW20605   1.010   4.988   5.850
 6569SOL    HW120606   1.079   4.916   5.857
 6569SOL    HW220607   1.054   5.073   5.822
 6570SOL     OW20608   0.775   3.694   1.888
 6570SOL    HW120609   0.803   3.738   1.803
 6570SOL    HW220610   0.841   3.715   1.960
 6571SOL     OW20611   2.483   5.556   4.614
 6571SOL    HW120612   2.554   5.602   4.561
 6571SOL    HW220613   2.406   5.618   4.627
 6572SOL     OW20614   1.398   3.292   5.644
 6572SOL    HW120615   1.458   3.362   5.606
 6572SOL    HW220616   1.392   3.215   5.581
 6573SOL     OW20617   1.158   2.166   1.310
 6573SOL    HW120618   1.196   2.138   1.222
 6573SOL    HW220619   1.117   2.087   1.355
 6574SOL     OW20620   1.940   4.882   4.547
 6574SOL    HW120621   2.006   4.859   4.619
 6574SOL    HW220622   1.989   4.903   4.462
 6575SOL     OW20623   1.087   1.401   2.263
 6575SOL    HW120624   1.117   1.495   2.280
 6575SOL    HW220625   1.139   1.338   2.320
 6576SOL     OW20626   0.267   5.529   4.588
 6576SOL    HW120627   0.220   5.492   4.668
 6576SOL    HW220628   0.359   5.559   4.614
 6577SOL     OW20629   1.092   4.324   5.873
 6577SOL    HW120630   1.184   4.299   5.843
 6577SOL    HW220631   1.096   4.360   5.967
 6578SOL     OW20632   5.288   5.970   4.730
 6578SOL    HW120633   5.359   5.974   4.659
 6578SOL    HW220634   5.281   5.876   4.764
 6579SOL     OW20635   1.046   4.086   3.958
 6579SOL    HW120636   1.074   4.134   3.875
 6579SOL    HW220637   1.124   4.075   4.018
 6580SOL     OW20638   4.924   2.704   0.991
 6580SOL    HW120639   4.929   2.611   0.954
 6580SOL    HW220640   4.963   2.768   0.925
 6581SOL     OW20641   2.736   2.234   5.661
 6581SOL    HW120642   2.775   2.143   5.648
 6581SOL    HW220643   2.762   2.292   5.584
 6582SOL     OW20644   6.073   0.737   2.644
 6582SOL    HW120645   6.094   0.723   2.548
 6582SOL    HW220646   6.141   0.690   2.701
 6583SOL     OW20647   6.032   0.744   6.103
 6583SOL    HW120648   5.975   0.826   6.113
 6583SOL    HW220649   6.125   0.765   6.136
 6584SOL     OW20650   6.102   2.084   0.403
 6584SOL    HW120651   6.024   2.111   0.347
 6584SOL    HW220652   6.111   1.985   0.404
 6585SOL     OW20653   1.909   0.904   2.365
 6585SOL    HW120654   1.921   1.001   2.345
 6585SOL    HW220655   1.811   0.883   2.371
 6586SOL     OW20656   6.056   0.647   6.456
 6586SOL    HW120657   6.101   0.575   6.404
 6586SOL    HW220658   5.978   0.609   6.505
 6587SOL     OW20659   1.595   6.108   2.379
 6587SOL    HW120660   1.501   6.129   2.353
 6587SOL    HW220661   1.597   6.067   2.470
 6588SOL     OW20662   3.638   3.730   0.449
 6588SOL    HW120663   3.733   3.763   0.453
 6588SOL    HW220664   3.627   3.669   0.370
 6589SOL     OW20665   4.635   2.096   6.253
 6589SOL    HW120666   4.649   2.092   6.352
 6589SOL    HW220667   4.552   2.046   6.229
 6590SOL     OW20668   6.433   2.407   5.596
 6590SOL    HW120669   6.445   2.373   5.690
 6590SOL    HW220670   6.490   2.353   5.534
 6591SOL     OW20671   4.811   0.089   2.499
 6591SOL    HW120672   4.864   0.117   2.580
 6591SOL    HW220673   4.847   0.135   2.418
 6592SOL     OW20674   6.387   5.061   5.353
 6592SOL    HW120675   6.481   5.092   5.371
 6592SOL    HW220676   6.326   5.140   5.352
 6593SOL     OW20677   5.465   1.812   2.508
 6593SOL    HW120678   5.540   1.782   2.567
 6593SOL    HW220679   5.409   1.878   2.557
 6594SOL     OW20680   5.736   0.256   6.685
 6594SOL    HW120681   5.688   0.172   6.662
 6594SOL    HW220682   5.764   0.254   6.781
 6595SOL     OW20683   3.734   2.883   6.385
 6595SOL    HW120684   3.746   2.907   6.289
 6595SOL    HW220685   3.731   2.966   6.440
 6596SOL     OW20686   1.833   5.656   4.791
 6596SOL    HW120687   1.802   5.566   4.819
 6596SOL    HW220688   1.758   5.707   4.749
 6597SOL     OW20689   0.927   4.233   0.745
 6597SOL    HW120690   0.878   4.314   0.775
 6597SOL    HW220691   1.017   4.229   0.789
 6598SOL     OW20692   3.257   6.398   4.295
 6598SOL    HW120693   3.249   6.384   4.197
 6598SOL    HW220694   3.166   6.408   4.335
 6599SOL     OW20695   3.912   3.806   5.864
 6599SOL    HW120696   3.984   3.833   5.799
 6599SOL    HW220697   3.913   3.867   5.943
 6600SOL     OW20698   4.301   4.759   5.129
 6600SOL    HW120699   4.349   4.682   5.086
 6600SOL    HW220700   4.243   4.724   5.203
 6601SOL     OW20701   0.905   0.952   2.151
 6601SOL    HW120702   0.991   1.001   2.135
 6601SOL    HW220703   0.923   0.854   2.156
 6602SOL     OW20704   5.094   1.418   0.585
 6602SOL    HW120705   5.125   1.492   0.526
 6602SOL    HW220706   5.068   1.454   0.675
 6603SOL     OW20707   3.416   2.122   1.900
 6603SOL    HW120708   3.408   2.028   1.932
 6603SOL    HW220709   3.500   2.162   1.936
 6604SOL     OW20710   4.312   4.912   4.576
 6604SOL    HW120711   4.252   4.914   4.496
 6604SOL    HW220712   4.300   4.825   4.624
 6605SOL     OW20713   4.655   5.435   0.921
 6605SOL    HW120714   4.629   5.479   1.006
 6605SOL    HW220715   4.745   5.392   0.931
 6606SOL     OW20716   0.486   2.679   2.885
 6606SOL    HW120717   0.526   2.766   2.859
 6606SOL    HW220718   0.405   2.694   2.942
 6607SOL     OW20719   1.936   4.227   2.603
 6607SOL    HW120720   1.924   4.324   2.625
 6607SOL    HW220721   1.876   4.172   2.661
 6608SOL     OW20722   4.994   4.086   4.832
 6608SOL    HW120723   4.972   4.057   4.925
 6608SOL    HW220724   5.035   4.177   4.834
 6609SOL     OW20725   5.868   2.771   5.971
 6609SOL    HW120726   5.870   2.671   5.982
 6609SOL    HW220727   5.935   2.812   6.033
 6610SOL     OW20728   4.016   0.991   0.254
 6610SOL    HW120729   3.999   1.037   0.341
 6610SOL    HW220730   4.050   0.899   0.271
 6611SOL     OW20731   5.491   3.276   1.707
 6611SOL    HW120732   5.497   3.284   1.807
 6611SOL    HW220733   5.480   3.367   1.667
 6612SOL     OW20734   0.381   5.061   6.612
 6612SOL    HW120735   0.293   5.076   6.566
 6612SOL    HW220736   0.436   5.144   6.608
 6613SOL     OW20737   6.406   4.779   1.128
 6613SOL    HW120738   6.389   4.687   1.165
 6613SOL    HW220739   6.498   4.783   1.090
 6614SOL     OW20740   5.876   4.588   5.837
 6614SOL    HW120741   5.777   4.600   5.832
 6614SOL    HW220742   5.917   4.612   5.749
 6615SOL     OW20743   1.061   4.025   4.651
 6615SOL    HW120744   1.118   4.069   4.720
 6615SOL    HW220745   1.055   4.084   4.570
 6616SOL     OW20746   4.839   1.562   3.634
 6616SOL    HW120747   4.856   1.468   3.664
 6616SOL    HW220748   4.874   1.574   3.541
 6617SOL     OW20749   3.678   0.724   4.770
 6617SOL    HW120750   3.628   0.688   4.691
 6617SOL    HW220751   3.615   0.737   4.846
 6618SOL     OW20752   6.662   4.401   1.778
 6618SOL    HW120753   6.748   4.378   1.823
 6618SOL    HW220754   6.666   4.494   1.742
 6619SOL     OW20755   6.221   6.126   2.523
 6619SOL    HW120756   6.246   6.166   2.612
 6619SOL    HW220757   6.303   6.093   2.477
 6620SOL     OW20758   5.264   3.456   5.522
 6620SOL    HW120759   5.215   3.526   5.470
 6620SOL    HW220760   5.357   3.488   5.541
 6621SOL     OW20761   4.558   3.426   1.301
 6621SOL    HW120762   4.572   3.451   1.205
 6621SOL    HW220763   4.482   3.477   1.339
 6622SOL     OW20764   5.902   5.464   0.644
 6622SOL    HW120765   5.838   5.472   0.567
 6622SOL    HW220766   5.992   5.495   0.615
 6623SOL     OW20767   2.888   3.574   3.111
 6623SOL    HW120768   2.939   3.492   3.139
 6623SOL    HW220769   2.888   3.581   3.012
 6624SOL     OW20770   4.798   4.961   4.572
 6624SOL    HW120771   4.781   5.056   4.546
 6624SOL    HW220772   4.773   4.948   4.668
 6625SOL     OW20773   5.563   5.848   1.020
 6625SOL    HW120774   5.468   5.820   1.005
 6625SOL    HW220775   5.565   5.941   1.056
 6626SOL     OW20776   2.870   5.395   4.324
 6626SOL    HW120777   2.874   5.384   4.424
 6626SOL    HW220778   2.835   5.311   4.283
 6627SOL     OW20779   0.181   0.509   0.932
 6627SOL    HW120780   0.216   0.597   0.897
 6627SOL    HW220781   0.257   0.456   0.969
 6628SOL     OW20782   3.762   6.406   4.306
 6628SOL    HW120783   3.764   6.309   4.279
 6628SOL    HW220784   3.753   6.413   4.405
 6629SOL     OW20785   2.791   4.291   0.794
 6629SOL    HW120786   2.805   4.354   0.871
 6629SOL    HW220787   2.817   4.199   0.821
 6630SOL     OW20788   3.160   1.198   5.784
 6630SOL    HW120789   3.249   1.232   5.756
 6630SOL    HW220790   3.161   1.098   5.787
 6631SOL     OW20791   3.272   6.491   1.627
 6631SOL    HW120792   3.246   6.441   1.709
 6631SOL    HW220793   3.331   6.568   1.651
 6632SOL     OW20794   6.498   3.476   2.095
 6632SOL    HW120795   6.541   3.564   2.074
 6632SOL    HW220796   6.436   3.487   2.173
 6633SOL     OW20797   1.000   6.168   3.182
 6633SOL    HW120798   1.035   6.083   3.220
 6633SOL    HW220799   1.077   6.225   3.152
 6634SOL     OW20800   6.752   2.178   5.061
 6634SOL    HW120801   6.679   2.121   5.024
 6634SOL    HW220802   6.773   2.251   4.996
 6635SOL     OW20803   4.435   5.083   4.406
 6635SOL    HW120804   4.425   5.013   4.476
 6635SOL    HW220805   4.506   5.056   4.341
 6636SOL     OW20806   2.182   3.338   2.752
 6636SOL    HW120807   2.241   3.260   2.774
 6636SOL    HW220808   2.155   3.333   2.656
 6637SOL     OW20809   0.115   2.088   6.747
 6637SOL    HW120810   0.095   1.995   6.717
 6637SOL    HW220811   0.148   2.086   6.841
 6638SOL     OW20812   1.320   0.406   6.789
 6638SOL    HW120813   1.266   0.423   6.707
 6638SOL    HW220814   1.390   0.477   6.799
 6639SOL     OW20815   4.210   6.047   6.523
 6639SOL    HW120816   4.210   6.016   6.428
 6639SOL    HW220817   4.215   5.969   6.584
 6640SOL     OW20818   5.296   4.191   3.252
 6640SOL    HW120819   5.265   4.272   3.201
 6640SOL    HW220820   5.266   4.109   3.204
 6641SOL     OW20821   2.629   5.551   6.294
 6641SOL    HW120822   2.557   5.494   6.255
 6641SOL    HW220823   2.598   5.587   6.382
 6642SOL     OW20824   6.209   5.794   6.081
 6642SOL    HW120825   6.117   5.777   6.117
 6642SOL    HW220826   6.210   5.775   5.983
 6643SOL     OW20827   4.332   5.074   1.176
 6643SOL    HW120828   4.281   5.109   1.098
 6643SOL    HW220829   4.270   5.060   1.253
 6644SOL     OW20830   0.821   2.908   1.901
 6644SOL    HW120831   0.838   2.924   1.998
 6644SOL    HW220832   0.770   2.822   1.890
 6645SOL     OW20833   0.431   5.312   5.384
 6645SOL    HW120834   0.410   5.239   5.319
 6645SOL    HW220835   0.347   5.347   5.424
 6646SOL     OW20836   1.812   5.523   3.854
 6646SOL    HW120837   1.722   5.481   3.841
 6646SOL    HW220838   1.882   5.452   3.857
 6647SOL     OW20839   4.321   1.571   1.721
 6647SOL    HW120840   4.421   1.577   1.732
 6647SOL    HW220841   4.301   1.513   1.642
 6648SOL     OW20842   3.374   5.296   2.416
 6648SOL    HW120843   3.359   5.365   2.345
 6648SOL    HW220844   3.446   5.233   2.386
 6649SOL     OW20845   4.164   2.016   5.636
 6649SOL    HW120846   4.226   2.017   5.715
 6649SOL    HW220847   4.133   2.109   5.617
 6650SOL     OW20848   3.260   1.528   3.472
 6650SOL    HW120849   3.296   1.450   3.422
 6650SOL    HW220850   3.289   1.522   3.568
 6651SOL     OW20851   0.592   1.676   1.340
 6651SOL    HW120852   0.531   1.667   1.261
 6651SOL    HW220853   0.538   1.702   1.421
 6652SOL     OW20854   0.456   5.424   3.659
 6652SOL    HW120855   0.401   5.408   3.741
 6652SOL    HW220856   0.400   5.407   3.577
 6653SOL     OW20857   3.614   4.004   4.638
 6653SOL    HW120858   3.667   4.007   4.723
 6653SOL    HW220859   3.535   4.065   4.645
 6654SOL     OW20860   1.431   3.844   1.649
 6654SOL    HW120861   1.515   3.897   1.643
 6654SOL    HW220862   1.453   3.746   1.650
 6655SOL     OW20863   1.407   0.467   6.417
 6655SOL    HW120864   1.331   0.409   6.388
 6655SOL    HW220865   1.479   0.411   6.458
 6656SOL     OW20866   6.275   1.688   1.288
 6656SOL    HW120867   6.219   1.606   1.293
 6656SOL    HW220868   6.240   1.749   1.217
 6657SOL     OW20869   3.188   4.943   5.597
 6657SOL    HW120870   3.142   4.854   5.602
 6657SOL    HW220871   3.226   4.966   5.687
 6658SOL     OW20872   5.868   0.029   5.301
 6658SOL    HW120873   5.925   7.014   5.230
 6658SOL    HW220874   5.772   0.014   5.280
 6659SOL     OW20875   2.717   2.815   0.685
 6659SOL    HW120876   2.719   2.865   0.772
 6659SOL    HW220877   2.799   2.759   0.677
 6660SOL     OW20878   0.183   6.510   2.921
 6660SOL    HW120879   0.088   6.516   2.892
 6660SOL    HW220880   0.224   6.601   2.922
 6661SOL     OW20881   6.719   0.375   3.727
 6661SOL    HW120882   6.782   0.357   3.803
 6661SOL    HW220883   6.761   0.441   3.665
 6662SOL     OW20884   1.923   3.871   6.180
 6662SOL    HW120885   1.967   3.888   6.091
 6662SOL    HW220886   1.983   3.815   6.237
 6663SOL     OW20887   1.334   5.595   2.004
 6663SOL    HW120888   1.308   5.640   1.919
 6663SOL    HW220889   1.252   5.559   2.050
 6664SOL     OW20890   6.803   2.100   1.471
 6664SOL    HW120891   6.882   2.127   1.415
 6664SOL    HW220892   6.755   2.025   1.426
 6665SOL     OW20893   1.679   6.911   3.449
 6665SOL    HW120894   1.748   6.971   3.410
 6665SOL    HW220895   1.662   6.937   3.544
 6666SOL     OW20896   6.037   0.015   0.685
 6666SOL    HW120897   5.988   0.082   0.740
 6666SOL    HW220898   5.983   6.959   0.680
 6667SOL     OW20899   5.531   4.635   5.424
 6667SOL    HW120900   5.531   4.692   5.506
 6667SOL    HW220901   5.438   4.602   5.406
 6668SOL     OW20902   6.320   6.309   0.785
 6668SOL    HW120903   6.327   6.263   0.874
 6668SOL    HW220904   6.408   6.303   0.738
 6669SOL     OW20905   0.691   4.671   3.604
 6669SOL    HW120906   0.691   4.571   3.600
 6669SOL    HW220907   0.682   4.701   3.699
 6670SOL     OW20908   5.334   4.832   0.353
 6670SOL    HW120909   5.431   4.837   0.330
 6670SOL    HW220910   5.322   4.795   0.445
 6671SOL     OW20911   1.164   2.360   5.489
 6671SOL    HW120912   1.161   2.446   5.438
 6671SOL    HW220913   1.097   2.364   5.564
 6672SOL     OW20914   6.571   1.466   5.270
 6672SOL    HW120915   6.664   1.452   5.235
 6672SOL    HW220916   6.576   1.497   5.365
 6673SOL     OW20917   3.685   5.870   1.581
 6673SOL    HW120918   3.765   5.824   1.619
 6673SOL    HW220919   3.675   5.960   1.624
 6674SOL     OW20920   1.235   5.999   4.729
 6674SOL    HW120921   1.226   5.915   4.674
 6674SOL    HW220922   1.144   6.037   4.746
 6675SOL     OW20923   6.448   6.436   6.150
 6675SOL    HW120924   6.543   6.441   6.121
 6675SOL    HW220925   6.417   6.525   6.183
 6676SOL     OW20926   0.349   1.563   0.706
 6676SOL    HW120927   0.341   1.510   0.790
 6676SOL    HW220928   0.258   1.578   0.668
 6677SOL     OW20929   0.967   4.048   0.543
 6677SOL    HW120930   0.939   4.106   0.619
 6677SOL    HW220931   0.952   4.096   0.457
 6678SOL     OW20932   0.874   3.722   4.187
 6678SOL    HW120933   0.956   3.727   4.245
 6678SOL    HW220934   0.811   3.654   4.225
 6679SOL     OW20935   2.554   1.709   4.451
 6679SOL    HW120936   2.545   1.696   4.549
 6679SOL    HW220937   2.565   1.620   4.406
 6680SOL     OW20938   2.765   1.306   7.008
 6680SOL    HW120939   2.729   1.237   0.042
 6680SOL    HW220940   2.779   1.392   0.029
 6681SOL     OW20941   6.348   5.192   6.886
 6681SOL    HW120942   6.255   5.173   6.919
 6681SOL    HW220943   6.406   5.113   6.900
 6682SOL     OW20944   6.006   4.747   2.774
 6682SOL    HW120945   6.084   4.774   2.831
 6682SOL    HW220946   6.012   4.792   2.685
 6683SOL     OW20947   5.686   3.250   3.698
 6683SOL    HW120948   5.652   3.232   3.791
 6683SOL    HW220949   5.775   3.295   3.703
 6684SOL     OW20950   1.958   1.077   1.834
 6684SOL    HW120951   2.039   1.128   1.862
 6684SOL    HW220952   1.885   1.142   1.811
 6685SOL     OW20953   6.410   2.308   6.916
 6685SOL    HW120954   6.493   2.342   6.961
 6685SOL    HW220955   6.349   2.270   6.985
 6686SOL     OW20956   5.013   4.311   3.756
 6686SOL    HW120957   5.010   4.392   3.697
 6686SOL    HW220958   5.063   4.333   3.840
 6687SOL     OW20959   0.063   6.831   0.069
 6687SOL    HW120960   0.119   6.790   0.141
 6687SOL    HW220961   0.122   6.881   0.005
 6688SOL     OW20962   0.495   4.696   3.205
 6688SOL    HW120963   0.477   4.662   3.113
 6688SOL    HW220964   0.587   4.669   3.233
 6689SOL     OW20965   5.499   3.560   0.147
 6689SOL    HW120966   5.563   3.575   0.222
 6689SOL    HW220967   5.549   3.532   0.065
 6690SOL     OW20968   0.485   1.210   0.592
 6690SOL    HW120969   0.486   1.149   0.672
 6690SOL    HW220970   0.540   1.291   0.612
 6691SOL     OW20971   0.956   4.923   1.760
 6691SOL    HW120972   0.951   4.895   1.856
 6691SOL    HW220973   0.903   5.007   1.747
 6692SOL     OW20974   5.255   3.269   6.647
 6692SOL    HW120975   5.318   3.302   6.717
 6692SOL    HW220976   5.165   3.253   6.689
 6693SOL     OW20977   3.660   3.387   5.753
 6693SOL    HW120978   3.570   3.416   5.784
 6693SOL    HW220979   3.654   3.354   5.659
 6694SOL     OW20980   2.487   5.736   0.356
 6694SOL    HW120981   2.422   5.664   0.381
 6694SOL    HW220982   2.457   5.780   0.271
 6695SOL     OW20983   1.371   1.450   0.035
 6695SOL    HW120984   1.406   1.396   0.111
 6695SOL    HW220985   1.274   1.469   0.049
 6696SOL     OW20986   1.465   2.135   1.117
 6696SOL    HW120987   1.371   2.105   1.104
 6696SOL    HW220988   1.489   2.204   1.048
 6697SOL     OW20989   5.177   3.474   4.536
 6697SOL    HW120990   5.148   3.473   4.441
 6697SOL    HW220991   5.143   3.558   4.580
 6698SOL     OW20992   2.393   4.530   5.667
 6698SOL    HW120993   2.312   4.585   5.686
 6698SOL    HW220994   2.384   4.441   5.711
 6699SOL     OW20995   1.478   3.230   6.443
 6699SOL    HW120996   1.379   3.241   6.442
 6699SOL    HW220997   1.509   3.196   6.355
 6700SOL     OW20998   0.183   6.289   6.574
 6700SOL    HW120999   0.086   6.293   6.596
 6700SOL    HW221000   0.233   6.250   6.651
 6701SOL     OW21001   1.661   2.404   6.508
 6701SOL    HW121002   1.671   2.325   6.447
 6701SOL    HW221003   1.592   2.384   6.577
 6702SOL     OW21004   3.617   3.557   0.707
 6702SOL    HW121005   3.524   3.567   0.743
 6702SOL    HW221006   3.619   3.480   0.644
 6703SOL     OW21007   0.235   1.667   0.003
 6703SOL    HW121008   0.279   1.724   0.073
 6703SOL    HW221009   0.293   1.589   7.011
 6704SOL     OW21010   5.424   3.324   2.552
 6704SOL    HW121011   5.386   3.256   2.490
 6704SOL    HW221012   5.447   3.281   2.639
 6705SOL     OW21013   4.903   3.016   0.960
 6705SOL    HW121014   4.917   2.962   0.876
 6705SOL    HW221015   4.873   2.955   1.033
 6706SOL     OW21016   1.515   6.926   6.630
 6706SOL    HW121017   1.521   6.833   6.665
 6706SOL    HW221018   1.428   6.967   6.657
 6707SOL     OW21019   1.353   5.002   3.625
 6707SOL    HW121020   1.414   5.081   3.636
 6707SOL    HW221021   1.371   4.957   3.538
 6708SOL     OW21022   2.584   5.615   0.784
 6708SOL    HW121023   2.576   5.697   0.841
 6708SOL    HW221024   2.493   5.587   0.754
 6709SOL     OW21025   4.690   1.878   4.244
 6709SOL    HW121026   4.715   1.975   4.237
 6709SOL    HW221027   4.697   1.836   4.154
 6710SOL     OW21028   2.707   2.013   0.707
 6710SOL    HW121029   2.641   2.087   0.719
 6710SOL    HW221030   2.711   1.958   0.791
 6711SOL     OW21031   5.411   3.610   6.243
 6711SOL    HW121032   5.490   3.606   6.304
 6711SOL    HW221033   5.390   3.518   6.210
 6712SOL     OW21034   3.441   6.194   0.031
 6712SOL    HW121035   3.495   6.198   6.975
 6712SOL    HW221036   3.497   6.226   0.108
 6713SOL     OW21037   0.352   2.482   3.295
 6713SOL    HW121038   0.338   2.389   3.262
 6713SOL    HW221039   0.311   2.547   3.231
 6714SOL     OW21040   6.453   1.310   5.590
 6714SOL    HW121041   6.529   1.375   5.592
 6714SOL    HW221042   6.375   1.351   5.542
 6715SOL     OW21043   4.631   3.141   1.209
 6715SOL    HW121044   4.570   3.208   1.167
 6715SOL    HW221045   4.578   3.063   1.241
 6716SOL     OW21046   3.333   5.883   1.599
 6716SOL    HW121047   3.241   5.917   1.581
 6716SOL    HW221048   3.394   5.912   1.524
 6717SOL     OW21049   3.461   0.585   6.866
 6717SOL    HW121050   3.557   0.583   6.894
 6717SOL    HW221051   3.406   0.622   6.941
 6718SOL     OW21052   4.665   0.445   6.460
 6718SOL    HW121053   4.595   0.437   6.389
 6718SOL    HW221054   4.740   0.502   6.427
 6719SOL     OW21055   1.384   2.697   4.834
 6719SOL    HW121056   1.435   2.659   4.911
 6719SOL    HW221057   1.367   2.626   4.766
 6720SOL     OW21058   1.909   4.420   0.562
 6720SOL    HW121059   1.863   4.491   0.615
 6720SOL    HW221060   2.005   4.417   0.587
 6721SOL     OW21061   6.072   6.202   2.994
 6721SOL    HW121062   6.090   6.293   3.031
 6721SOL    HW221063   6.040   6.141   3.067
 6722SOL     OW21064   3.685   4.505   6.435
 6722SOL    HW121065   3.705   4.524   6.531
 6722SOL    HW221066   3.653   4.411   6.426
 6723SOL     OW21067   3.389   1.631   2.885
 6723SOL    HW121068   3.399   1.612   2.982
 6723SOL    HW221069   3.418   1.551   2.832
 6724SOL     OW21070   3.718   4.862   6.083
 6724SOL    HW121071   3.659   4.929   6.127
 6724SOL    HW221072   3.757   4.801   6.153
 6725SOL     OW21073   0.356   6.322   1.527
 6725SOL    HW121074   0.336   6.401   1.469
 6725SOL    HW221075   0.435   6.273   1.491
 6726SOL     OW21076   2.209   2.393   1.765
 6726SOL    HW121077   2.235   2.472   1.820
 6726SOL    HW221078   2.279   2.322   1.774
 6727SOL     OW21079   2.891   3.279   1.529
 6727SOL    HW121080   2.851   3.300   1.618
 6727SOL    HW221081   2.889   3.180   1.514
 6728SOL     OW21082   4.290   1.956   3.739
 6728SOL    HW121083   4.377   1.933   3.694
 6728SOL    HW221084   4.303   2.033   3.800
 6729SOL     OW21085   4.162   5.397   3.313
 6729SOL    HW121086   4.203   5.395   3.222
 6729SOL    HW221087   4.078   5.451   3.311
 6730SOL     OW21088   1.279   6.999   2.595
 6730SOL    HW121089   1.253   6.921   2.537
 6730SOL    HW221090   1.198   0.025   2.616
 6731SOL     OW21091   2.024   4.205   1.441
 6731SOL    HW121092   1.937   4.159   1.459
 6731SOL    HW221093   2.076   4.151   1.375
 6732SOL     OW21094   3.501   5.671   0.021
 6732SOL    HW121095   3.452   5.757   0.036
 6732SOL    HW221096   3.479   5.635   6.958
 6733SOL     OW21097   6.252   5.864   4.591
 6733SOL    HW121098   6.200   5.798   4.646
 6733SOL    HW221099   6.301   5.926   4.652
 6734SOL     OW21100   2.912   4.042   6.995
 6734SOL    HW121101   2.927   3.946   7.019
 6734SOL    HW221102   2.839   4.050   6.927
 6735SOL     OW21103   0.694   6.543   6.230
 6735SOL    HW121104   0.717   6.501   6.142
 6735SOL    HW221105   0.669   6.472   6.296
 6736SOL     OW21106   2.204   4.018   2.156
 6736SOL    HW121107   2.251   4.103   2.132
 6736SOL    HW221108   2.232   3.990   2.248
 6737SOL     OW21109   1.809   0.500   1.546
 6737SOL    HW121110   1.749   0.556   1.490
 6737SOL    HW221111   1.905   0.524   1.528
 6738SOL     OW21112   5.440   1.931   0.654
 6738SOL    HW121113   5.423   1.909   0.750
 6738SOL    HW221114   5.409   2.025   0.635
 6739SOL     OW21115   4.122   5.671   6.307
 6739SOL    HW121116   4.158   5.762   6.287
 6739SOL    HW221117   4.117   5.618   6.223
 6740SOL     OW21118   5.590   2.590   4.826
 6740SOL    HW121119   5.495   2.601   4.857
 6740SOL    HW221120   5.593   2.589   4.726
 6741SOL     OW21121   6.914   0.783   5.230
 6741SOL    HW121122   6.931   0.858   5.294
 6741SOL    HW221123   6.834   0.731   5.259
 6742SOL     OW21124   6.174   6.429   5.267
 6742SOL    HW121125   6.208   6.510   5.220
 6742SOL    HW221126   6.230   6.412   5.348
 6743SOL     OW21127   5.671   2.083   0.865
 6743SOL    HW121128   5.591   2.130   0.826
 6743SOL    HW221129   5.734   2.058   0.791
 6744SOL     OW21130   4.329   0.921   3.869
 6744SOL    HW121131   4.281   0.957   3.789
 6744SOL    HW221132   4.411   0.975   3.886
 6745SOL     OW21133   0.669   3.629   3.171
 6745SOL    HW121134   0.607   3.552   3.189
 6745SOL    HW221135   0.734   3.637   3.247
 6746SOL     OW21136   6.466   6.728   0.270
 6746SOL    HW121137   6.425   6.723   0.361
 6746SOL    HW221138   6.393   6.736   0.202
 6747SOL     OW21139   5.309   5.028   5.832
 6747SOL    HW121140   5.271   4.955   5.776
 6747SOL    HW221141   5.289   5.009   5.929
 6748SOL     OW21142   5.974   0.069   2.117
 6748SOL    HW121143   6.039   0.133   2.156
 6748SOL    HW221144   5.881   0.095   2.143
 6749SOL     OW21145   3.231   4.964   0.550
 6749SOL    HW121146   3.273   4.914   0.626
 6749SOL    HW221147   3.259   5.060   0.554
 6750SOL     OW21148   2.215   3.005   4.821
 6750SOL    HW121149   2.287   3.004   4.890
 6750SOL    HW221150   2.257   3.012   4.730
 6751SOL     OW21151   5.013   3.225   5.706
 6751SOL    HW121152   5.093   3.257   5.657
 6751SOL    HW221153   5.027   3.237   5.804
 6752SOL     OW21154   5.481   1.174   0.310
 6752SOL    HW121155   5.382   1.180   0.317
 6752SOL    HW221156   5.521   1.169   0.401
 6753SOL     OW21157   5.926   0.164   6.340
 6753SOL    HW121158   6.013   0.209   6.317
 6753SOL    HW221159   5.912   0.087   6.277
 6754SOL     OW21160   4.154   1.158   6.544
 6754SOL    HW121161   4.142   1.106   6.629
 6754SOL    HW221162   4.065   1.176   6.503
 6755SOL     OW21163   4.855   1.902   2.890
 6755SOL    HW121164   4.854   1.805   2.869
 6755SOL    HW221165   4.909   1.951   2.821
 6756SOL     OW21166   4.132   5.093   3.064
 6756SOL    HW121167   4.171   5.035   3.136
 6756SOL    HW221168   4.170   5.185   3.071
 6757SOL     OW21169   6.568   3.723   2.060
 6757SOL    HW121170   6.518   3.783   2.124
 6757SOL    HW221171   6.574   3.768   1.971
 6758SOL     OW21172   0.089   2.377   2.051
 6758SOL    HW121173   0.129   2.464   2.079
 6758SOL    HW221174   0.032   2.391   1.970
 6759SOL     OW21175   6.673   5.563   4.278
 6759SOL    HW121176   6.699   5.474   4.242
 6759SOL    HW221177   6.691   5.633   4.209
 6760SOL     OW21178   1.112   3.835   5.031
 6760SOL    HW121179   1.074   3.779   5.104
 6760SOL    HW221180   1.199   3.875   5.061
 6761SOL     OW21181   6.691   3.101   6.641
 6761SOL    HW121182   6.646   3.091   6.730
 6761SOL    HW221183   6.752   3.024   6.625
 6762SOL     OW21184   6.532   1.750   4.571
 6762SOL    HW121185   6.520   1.781   4.666
 6762SOL    HW221186   6.443   1.733   4.530
 6763SOL     OW21187   5.228   6.536   5.167
 6763SOL    HW121188   5.291   6.477   5.116
 6763SOL    HW221189   5.244   6.526   5.265
 6764SOL     OW21190   1.812   3.647   7.010
 6764SOL    HW121191   1.818   3.648   0.081
 6764SOL    HW221192   1.871   3.718   6.972
 6765SOL     OW21193   5.380   5.573   2.264
 6765SOL    HW121194   5.317   5.648   2.288
 6765SOL    HW221195   5.474   5.602   2.281
 6766SOL     OW21196   2.249   2.055   5.252
 6766SOL    HW121197   2.220   2.072   5.346
 6766SOL    HW221198   2.340   2.012   5.252
 6767SOL     OW21199   0.810   2.580   6.071
 6767SOL    HW121200   0.756   2.643   6.016
 6767SOL    HW221201   0.861   2.518   6.012
 6768SOL     OW21202   6.562   0.251   5.410
 6768SOL    HW121203   6.601   0.267   5.500
 6768SOL    HW221204   6.531   0.156   5.403
 6769SOL     OW21205   0.981   2.804   6.396
 6769SOL    HW121206   1.017   2.730   6.339
 6769SOL    HW221207   0.894   2.777   6.436
 6770SOL     OW21208   0.245   2.409   3.971
 6770SOL    HW121209   0.154   2.448   3.979
 6770SOL    HW221210   0.238   2.310   3.959
 6771SOL     OW21211   5.852   1.916   1.480
 6771SOL    HW121212   5.863   2.002   1.430
 6771SOL    HW221213   5.867   1.932   1.577
 6772SOL     OW21214   1.820   6.623   1.812
 6772SOL    HW121215   1.783   6.670   1.732
 6772SOL    HW221216   1.747   6.572   1.857
 6773SOL     OW21217   1.508   1.581   2.909
 6773SOL    HW121218   1.470   1.672   2.898
 6773SOL    HW221219   1.484   1.545   2.999
 6774SOL     OW21220   4.044   0.877   5.556
 6774SOL    HW121221   4.052   0.966   5.512
 6774SOL    HW221222   4.114   0.816   5.520
 6775SOL     OW21223   1.994   3.404   5.283
 6775SOL    HW121224   2.024   3.384   5.376
 6775SOL    HW221225   1.949   3.493   5.281
 6776SOL     OW21226   3.025   3.134   3.863
 6776SOL    HW121227   3.084   3.111   3.940
 6776SOL    HW221228   2.982   3.222   3.879
 6777SOL     OW21229   6.672   0.478   5.015
 6777SOL    HW121230   6.689   0.419   4.936
 6777SOL    HW221231   6.732   0.452   5.090
 6778SOL     OW21232   6.305   6.226   1.475
 6778SOL    HW121233   6.343   6.150   1.423
 6778SOL    HW221234   6.379   6.285   1.507
 6779SOL     OW21235   5.530   3.139   5.503
 6779SOL    HW121236   5.438   3.137   5.464
 6779SOL    HW221237   5.526   3.110   5.599
 6780SOL     OW21238   4.883   1.023   2.347
 6780SOL    HW121239   4.813   1.013   2.276
 6780SOL    HW221240   4.842   1.061   2.429
 6781SOL     OW21241   5.535   3.695   3.188
 6781SOL    HW121242   5.634   3.679   3.189
 6781SOL    HW221243   5.487   3.609   3.203
 6782SOL     OW21244   6.223   1.982   3.002
 6782SOL    HW121245   6.253   1.979   2.907
 6782SOL    HW221246   6.123   1.969   3.006
 6783SOL     OW21247   0.476   6.774   6.965
 6783SOL    HW121248   0.400   6.814   6.914
 6783SOL    HW221249   0.531   6.718   6.904
 6784SOL     OW21250   1.451   4.638   6.592
 6784SOL    HW121251   1.482   4.702   6.663
 6784SOL    HW221252   1.353   4.647   6.578
 6785SOL     OW21253   5.524   4.316   1.173
 6785SOL    HW121254   5.466   4.291   1.250
 6785SOL    HW221255   5.542   4.235   1.117
 6786SOL     OW21256   6.369   1.563   6.259
 6786SOL    HW121257   6.302   1.491   6.277
 6786SOL    HW221258   6.420   1.542   6.175
 6787SOL     OW21259   3.880   2.318   1.672
 6787SOL    HW121260   3.790   2.340   1.712
 6787SOL    HW221261   3.940   2.397   1.681
 6788SOL     OW21262   1.379   4.739   1.234
 6788SOL    HW121263   1.417   4.809   1.174
 6788SOL    HW221264   1.454   4.688   1.277
 6789SOL     OW21265   6.099   2.715   2.599
 6789SOL    HW121266   6.128   2.682   2.689
 6789SOL    HW221267   6.067   2.809   2.607
 6790SOL     OW21268   1.269   5.641   0.018
 6790SOL    HW121269   1.282   5.689   0.105
 6790SOL    HW221270   1.324   5.558   0.016
 6791SOL     OW21271   2.302   6.597   3.879
 6791SOL    HW121272   2.251   6.683   3.884
 6791SOL    HW221273   2.392   6.609   3.920
 6792SOL     OW21274   2.885   6.241   6.883
 6792SOL    HW121275   2.841   6.310   6.941
 6792SOL    HW221276   2.910   6.162   6.939
 6793SOL     OW21277   2.048   3.253   6.045
 6793SOL    HW121278   2.145   3.275   6.060
 6793SOL    HW221279   2.021   3.283   5.954
 6794SOL     OW21280   4.069   2.231   4.087
 6794SOL    HW121281   4.125   2.150   4.104
 6794SOL    HW221282   4.085   2.264   3.994
 6795SOL     OW21283   0.827   0.224   2.631
 6795SOL    HW121284   0.750   0.161   2.636
 6795SOL    HW221285   0.825   0.274   2.544
 6796SOL     OW21286   5.657   2.748   2.391
 6796SOL    HW121287   5.694   2.744   2.484
 6796SOL    HW221288   5.727   2.778   2.328
 6797SOL     OW21289   2.394   4.277   0.518
 6797SOL    HW121290   2.421   4.185   0.488
 6797SOL    HW221291   2.473   4.323   0.558
 6798SOL     OW21292   5.347   2.342   1.396
 6798SOL    HW121293   5.440   2.305   1.398
 6798SOL    HW221294   5.312   2.349   1.490
 6799SOL     OW21295   3.894   6.916   2.752
 6799SOL    HW121296   3.975   6.858   2.747
 6799SOL    HW221297   3.907   6.986   2.823
 6800SOL     OW21298   0.030   2.335   3.384
 6800SOL    HW121299   0.002   2.431   3.388
 6800SOL    HW221300   6.994   2.279   3.437
 6801SOL     OW21301   1.807   5.320   4.608
 6801SOL    HW121302   1.848   5.403   4.571
 6801SOL    HW221303   1.845   5.303   4.700
 6802SOL     OW21304   2.669   4.595   2.688
 6802SOL    HW121305   2.738   4.667   2.695
 6802SOL    HW221306   2.713   4.510   2.657
 6803SOL     OW21307   5.911   4.988   6.008
 6803SOL    HW121308   5.993   5.032   6.043
 6803SOL    HW221309   5.861   5.051   5.949
 6804SOL     OW21310   2.984   6.090   1.615
 6804SOL    HW121311   2.985   6.007   1.671
 6804SOL    HW221312   3.051   6.081   1.541
 6805SOL     OW21313   0.764   4.200   3.909
 6805SOL    HW121314   0.749   4.256   3.828
 6805SOL    HW221315   0.853   4.155   3.903
 6806SOL     OW21316   5.926   3.357   2.147
 6806SOL    HW121317   5.832   3.361   2.182
 6806SOL    HW221318   5.928   3.297   2.067
 6807SOL     OW21319   4.067   3.296   2.581
 6807SOL    HW121320   4.039   3.392   2.576
 6807SOL    HW221321   4.060   3.264   2.676
 6808SOL     OW21322   2.867   6.138   4.693
 6808SOL    HW121323   2.792   6.071   4.683
 6808SOL    HW221324   2.835   6.215   4.747
 6809SOL     OW21325   6.255   1.892   0.120
 6809SOL    HW121326   6.161   1.923   0.137
 6809SOL    HW221327   6.253   1.809   0.064
 6810SOL     OW21328   3.610   0.422   5.164
 6810SOL    HW121329   3.543   0.497   5.163
 6810SOL    HW221330   3.694   0.452   5.119
 6811SOL     OW21331   6.612   2.084   1.136
 6811SOL    HW121332   6.605   2.148   1.060
 6811SOL    HW221333   6.705   2.086   1.173
 6812SOL     OW21334   4.019   4.704   6.146
 6812SOL    HW121335   3.988   4.614   6.112
 6812SOL    HW221336   3.970   4.725   6.231
 6813SOL     OW21337   1.152   3.540   1.572
 6813SOL    HW121338   1.234   3.501   1.616
 6813SOL    HW221339   1.153   3.518   1.475
 6814SOL     OW21340   5.087   2.627   1.654
 6814SOL    HW121341   5.098   2.598   1.559
 6814SOL    HW221342   4.994   2.661   1.667
 6815SOL     OW21343   1.523   5.937   1.624
 6815SOL    HW121344   1.541   6.029   1.658
 6815SOL    HW221345   1.606   5.881   1.633
 6816SOL     OW21346   5.193   0.571   3.208
 6816SOL    HW121347   5.267   0.582   3.274
 6816SOL    HW221348   5.209   0.490   3.153
 6817SOL     OW21349   6.094   0.751   0.637
 6817SOL    HW121350   6.031   0.686   0.595
 6817SOL    HW221351   6.159   0.701   0.695
 6818SOL     OW21352   0.379   6.237   5.556
 6818SOL    HW121353   0.355   6.300   5.482
 6818SOL    HW221354   0.325   6.153   5.548
 6819SOL     OW21355   6.017   4.093   0.631
 6819SOL    HW121356   6.115   4.075   0.642
 6819SOL    HW221357   5.968   4.064   0.713
 6820SOL     OW21358   2.868   4.429   1.395
 6820SOL    HW121359   2.963   4.430   1.365
 6820SOL    HW221360   2.861   4.380   1.482
 6821SOL     OW21361   2.575   3.662   6.117
 6821SOL    HW121362   2.482   3.652   6.083
 6821SOL    HW221363   2.637   3.607   6.060
 6822SOL     OW21364   1.048   4.351   5.094
 6822SOL    HW121365   1.141   4.373   5.124
 6822SOL    HW221366   0.992   4.434   5.096
 6823SOL     OW21367   6.761   3.578   5.504
 6823SOL    HW121368   6.669   3.555   5.535
 6823SOL    HW221369   6.795   3.504   5.445
 6824SOL     OW21370   1.414   0.861   3.492
 6824SOL    HW121371   1.337   0.842   3.431
 6824SOL    HW221372   1.381   0.867   3.586
 6825SOL     OW21373   5.222   5.761   1.713
 6825SOL    HW121374   5.275   5.690   1.760
 6825SOL    HW221375   5.284   5.817   1.657
 6826SOL     OW21376   5.502   0.780   4.370
 6826SOL    HW121377   5.476   0.728   4.452
 6826SOL    HW221378   5.523   0.874   4.396
 6827SOL     OW21379   6.131   5.407   4.955
 6827SOL    HW121380   6.083   5.402   5.043
 6827SOL    HW221381   6.064   5.406   4.881
 6828SOL     OW21382   2.477   1.205   2.582
 6828SOL    HW121383   2.559   1.213   2.640
 6828SOL    HW221384   2.460   1.292   2.537
 6829SOL     OW21385   5.758   6.554   5.237
 6829SOL    HW121386   5.799   6.480   5.184
 6829SOL    HW221387   5.817   6.577   5.314
 6830SOL     OW21388   3.490   6.020   3.679
 6830SOL    HW121389   3.393   6.012   3.659
 6830SOL    HW221390   3.525   5.932   3.711
 6831SOL     OW21391   2.054   0.197   6.798
 6831SOL    HW121392   1.967   0.164   6.835
 6831SOL    HW221393   2.055   0.297   6.801
 6832SOL     OW21394   3.930   3.770   0.590
 6832SOL    HW121395   4.009   3.708   0.586
 6832SOL    HW221396   3.863   3.734   0.654
 6833SOL     OW21397   3.700   5.456   0.432
 6833SOL    HW121398   3.679   5.522   0.361
 6833SOL    HW221399   3.709   5.503   0.520
 6834SOL     OW21400   6.641   6.000   4.725
 6834SOL    HW121401   6.615   6.063   4.651
 6834SOL    HW221402   6.622   5.906   4.697
 6835SOL     OW21403   3.272   0.165   3.203
 6835SOL    HW121404   3.315   0.083   3.165
 6835SOL    HW221405   3.173   0.160   3.187
 6836SOL     OW21406   1.333   4.704   6.913
 6836SOL    HW121407   1.341   4.779   6.979
 6836SOL    HW221408   1.378   4.623   6.949
 6837SOL     OW21409   5.963   2.721   1.606
 6837SOL    HW121410   5.894   2.793   1.602
 6837SOL    HW221411   5.967   2.683   1.699
 6838SOL     OW21412   2.458   4.705   0.088
 6838SOL    HW121413   2.529   4.636   0.070
 6838SOL    HW221414   2.370   4.659   0.097
 6839SOL     OW21415   0.171   3.069   5.131
 6839SOL    HW121416   0.270   3.070   5.147
 6839SOL    HW221417   0.137   3.163   5.129
 6840SOL     OW21418   3.345   6.975   4.313
 6840SOL    HW121419   3.374   6.941   4.403
 6840SOL    HW221420   3.413   6.949   4.245
 6841SOL     OW21421   5.078   6.036   1.264
 6841SOL    HW121422   5.075   5.936   1.275
 6841SOL    HW221423   4.985   6.071   1.255
 6842SOL     OW21424   6.509   3.956   3.183
 6842SOL    HW121425   6.554   3.867   3.194
 6842SOL    HW221426   6.428   3.959   3.242
 6843SOL     OW21427   4.421   3.268   1.753
 6843SOL    HW121428   4.474   3.208   1.813
 6843SOL    HW221429   4.473   3.285   1.669
 6844SOL     OW21430   3.094   6.608   4.065
 6844SOL    HW121431   3.147   6.546   4.008
 6844SOL    HW221432   3.151   6.686   4.092
 6845SOL     OW21433   3.759   4.254   0.184
 6845SOL    HW121434   3.678   4.311   0.168
 6845SOL    HW221435   3.730   4.163   0.215
 6846SOL     OW21436   3.236   3.107   3.673
 6846SOL    HW121437   3.157   3.122   3.733
 6846SOL    HW221438   3.311   3.167   3.701
 6847SOL     OW21439   5.170   3.678   0.442
 6847SOL    HW121440   5.079   3.672   0.401
 6847SOL    HW221441   5.164   3.658   0.540
 6848SOL     OW21442   0.992   6.373   4.532
 6848SOL    HW121443   0.943   6.449   4.575
 6848SOL    HW221444   1.074   6.408   4.488
 6849SOL     OW21445   2.480   0.927   4.700
 6849SOL    HW121446   2.441   0.996   4.639
 6849SOL    HW221447   2.477   0.959   4.794
 6850SOL     OW21448   0.389   1.798   1.552
 6850SOL    HW121449   0.307   1.749   1.582
 6850SOL    HW221450   0.362   1.882   1.506
 6851SOL     OW21451   1.882   5.718   1.017
 6851SOL    HW121452   1.846   5.707   1.109
 6851SOL    HW221453   1.933   5.804   1.011
 6852SOL     OW21454   4.728   4.653   2.849
 6852SOL    HW121455   4.681   4.568   2.824
 6852SOL    HW221456   4.827   4.639   2.844
 6853SOL     OW21457   6.230   4.235   4.637
 6853SOL    HW121458   6.207   4.289   4.718
 6853SOL    HW221459   6.155   4.241   4.571
 6854SOL     OW21460   6.170   0.897   6.443
 6854SOL    HW121461   6.143   0.801   6.457
 6854SOL    HW221462   6.102   0.957   6.483
 6855SOL     OW21463   2.474   0.218   3.357
 6855SOL    HW121464   2.502   0.271   3.277
 6855SOL    HW221465   2.515   0.127   3.354
 6856SOL     OW21466   0.882   4.808   5.188
 6856SOL    HW121467   0.973   4.799   5.227
 6856SOL    HW221468   0.866   4.903   5.161
 6857SOL     OW21469   5.054   0.781   6.086
 6857SOL    HW121470   5.129   0.735   6.038
 6857SOL    HW221471   4.969   0.730   6.071
 6858SOL     OW21472   3.416   3.651   6.422
 6858SOL    HW121473   3.414   3.643   6.521
 6858SOL    HW221474   3.322   3.658   6.387
 6859SOL     OW21475   4.408   7.022   1.507
 6859SOL    HW121476   4.371   0.024   1.419
 6859SOL    HW221477   4.485   6.960   1.492
 6860SOL     OW21478   4.559   3.314   0.303
 6860SOL    HW121479   4.602   3.245   0.245
 6860SOL    HW221480   4.460   3.312   0.289
 6861SOL     OW21481   6.408   3.243   0.076
 6861SOL    HW121482   6.364   3.246   0.165
 6861SOL    HW221483   6.339   3.255   0.004
 6862SOL     OW21484   2.947   4.987   4.435
 6862SOL    HW121485   3.038   5.008   4.400
 6862SOL    HW221486   2.955   4.929   4.516
 6863SOL     OW21487   1.029   3.417   3.354
 6863SOL    HW121488   0.940   3.461   3.342
 6863SOL    HW221489   1.100   3.475   3.313
 6864SOL     OW21490   2.929   6.046   5.480
 6864SOL    HW121491   2.860   5.974   5.469
 6864SOL    HW221492   3.000   6.014   5.542
 6865SOL     OW21493   0.942   2.626   5.205
 6865SOL    HW121494   0.866   2.584   5.254
 6865SOL    HW221495   1.027   2.615   5.257
 6866SOL     OW21496   0.425   4.102   2.718
 6866SOL    HW121497   0.500   4.080   2.781
 6866SOL    HW221498   0.343   4.123   2.772
 6867SOL     OW21499   2.979   5.796   3.482
 6867SOL    HW121500   3.012   5.754   3.398
 6867SOL    HW221501   2.910   5.865   3.460
 6868SOL     OW21502   2.079   6.084   5.901
 6868SOL    HW121503   2.085   6.180   5.873
 6868SOL    HW221504   2.027   6.077   5.986
 6869SOL     OW21505   6.946   2.558   3.439
 6869SOL    HW121506   6.872   2.576   3.374
 6869SOL    HW221507   6.962   2.640   3.494
 6870SOL     OW21508   4.860   4.114   3.001
 6870SOL    HW121509   4.772   4.126   2.955
 6870SOL    HW221510   4.845   4.072   3.090
 6871SOL     OW21511   3.965   5.475   2.397
 6871SOL    HW121512   3.943   5.500   2.492
 6871SOL    HW221513   4.020   5.392   2.396
 6872SOL     OW21514   3.462   4.428   1.232
 6872SOL    HW121515   3.512   4.367   1.293
 6872SOL    HW221516   3.458   4.520   1.273
 6873SOL     OW21517   4.585   4.961   5.766
 6873SOL    HW121518   4.503   4.924   5.721
 6873SOL    HW221519   4.559   4.999   5.855
 6874SOL     OW21520   1.183   1.783   6.282
 6874SOL    HW121521   1.229   1.777   6.194
 6874SOL    HW221522   1.251   1.778   6.355
 6875SOL     OW21523   3.694   6.527   4.570
 6875SOL    HW121524   3.788   6.493   4.570
 6875SOL    HW221525   3.631   6.450   4.578
 6876SOL     OW21526   3.175   0.009   5.139
 6876SOL    HW121527   3.111   6.989   5.200
 6876SOL    HW221528   3.150   0.105   5.133
 6877SOL     OW21529   1.731   4.214   0.336
 6877SOL    HW121530   1.687   4.265   0.409
 6877SOL    HW221531   1.662   4.175   0.275
 6878SOL     OW21532   2.523   2.039   5.739
 6878SOL    HW121533   2.598   2.104   5.725
 6878SOL    HW221534   2.554   1.964   5.797
 6879SOL     OW21535   6.395   0.984   5.931
 6879SOL    HW121536   6.360   0.964   6.023
 6879SOL    HW221537   6.318   0.991   5.867
 6880SOL     OW21538   1.486   5.350   4.223
 6880SOL    HW121539   1.444   5.319   4.138
 6880SOL    HW221540   1.566   5.293   4.244
 6881SOL     OW21541   5.231   0.040   1.133
 6881SOL    HW121542   5.144   0.066   1.174
 6881SOL    HW221543   5.304   0.048   1.201
 6882SOL     OW21544   2.299   5.917   5.547
 6882SOL    HW121545   2.347   5.934   5.632
 6882SOL    HW221546   2.220   5.857   5.564
 6883SOL     OW21547   2.280   6.888   1.990
 6883SOL    HW121548   2.190   6.890   2.034
 6883SOL    HW221549   2.287   6.964   1.926
 6884SOL     OW21550   1.623   5.390   3.451
 6884SOL    HW121551   1.695   5.374   3.384
 6884SOL    HW221552   1.619   5.487   3.473
 6885SOL     OW21553   4.572   4.531   4.807
 6885SOL    HW121554   4.579   4.444   4.758
 6885SOL    HW221555   4.507   4.520   4.883
 6886SOL     OW21556   5.648   6.380   0.918
 6886SOL    HW121557   5.575   6.324   0.955
 6886SOL    HW221558   5.613   6.435   0.842
 6887SOL     OW21559   6.872   0.644   4.866
 6887SOL    HW121560   6.837   0.607   4.952
 6887SOL    HW221561   6.796   0.659   4.802
 6888SOL     OW21562   6.790   7.010   3.928
 6888SOL    HW121563   6.838   6.959   3.857
 6888SOL    HW221564   6.842   0.064   3.951
 6889SOL     OW21565   2.187   4.047   6.433
 6889SOL    HW121566   2.135   4.116   6.383
 6889SOL    HW221567   2.275   4.085   6.462
 6890SOL     OW21568   1.569   0.405   1.263
 6890SOL    HW121569   1.647   0.345   1.247
 6890SOL    HW221570   1.509   0.404   1.183
 6891SOL     OW21571   5.629   5.647   5.351
 6891SOL    HW121572   5.660   5.575   5.413
 6891SOL    HW221573   5.529   5.647   5.348
 6892SOL     OW21574   2.572   2.110   4.540
 6892SOL    HW121575   2.539   2.041   4.475
 6892SOL    HW221576   2.544   2.201   4.509
 6893SOL     OW21577   5.062   7.008   0.466
 6893SOL    HW121578   4.999   0.057   0.469
 6893SOL    HW221579   5.139   0.002   0.405
 6894SOL     OW21580   6.201   4.367   4.864
 6894SOL    HW121581   6.260   4.445   4.843
 6894SOL    HW221582   6.106   4.397   4.871
 6895SOL     OW21583   5.033   4.470   3.999
 6895SOL    HW121584   5.121   4.463   4.047
 6895SOL    HW221585   4.969   4.521   4.056
 6896SOL     OW21586   5.418   2.158   2.222
 6896SOL    HW121587   5.507   2.174   2.263
 6896SOL    HW221588   5.409   2.060   2.200
 6897SOL     OW21589   4.238   1.653   1.352
 6897SOL    HW121590   4.330   1.690   1.341
 6897SOL    HW221591   4.237   1.556   1.326
 6898SOL     OW21592   4.474   0.998   1.437
 6898SOL    HW121593   4.517   1.085   1.463
 6898SOL    HW221594   4.463   0.995   1.338
 6899SOL     OW21595   5.267   4.307   5.501
 6899SOL    HW121596   5.224   4.223   5.469
 6899SOL    HW221597   5.337   4.285   5.570
 6900SOL     OW21598   4.480   0.362   5.631
 6900SOL    HW121599   4.561   0.392   5.580
 6900SOL    HW221600   4.436   0.286   5.584
 6901SOL     OW21601   1.468   0.709   0.131
 6901SOL    HW121602   1.432   0.783   0.075
 6901SOL    HW221603   1.450   0.621   0.087
 6902SOL     OW21604   6.588   5.117   2.194
 6902SOL    HW121605   6.616   5.094   2.287
 6902SOL    HW221606   6.502   5.071   2.172
 6903SOL     OW21607   6.225   4.516   6.984
 6903SOL    HW121608   6.188   4.427   6.957
 6903SOL    HW221609   6.303   4.503   0.017
 6904SOL     OW21610   0.140   1.187   2.522
 6904SOL    HW121611   0.151   1.210   2.619
 6904SOL    HW221612   0.228   1.155   2.486
 6905SOL     OW21613   3.615   5.016   0.773
 6905SOL    HW121614   3.640   5.009   0.677
 6905SOL    HW221615   3.526   4.974   0.788
 6906SOL     OW21616   5.748   6.575   2.048
 6906SOL    HW121617   5.727   6.485   2.087
 6906SOL    HW221618   5.766   6.566   1.950
 6907SOL     OW21619   3.625   1.282   1.939
 6907SOL    HW121620   3.528   1.306   1.932
 6907SOL    HW221621   3.674   1.316   1.859
 6908SOL     OW21622   5.598   6.647   6.689
 6908SOL    HW121623   5.564   6.659   6.596
 6908SOL    HW221624   5.696   6.628   6.686
 6909SOL     OW21625   2.742   2.487   6.970
 6909SOL    HW121626   2.685   2.429   0.001
 6909SOL    HW221627   2.786   2.430   6.900
 6910SOL     OW21628   3.924   1.483   0.770
 6910SOL    HW121629   3.886   1.574   0.784
 6910SOL    HW221630   3.850   1.421   0.743
 6911SOL     OW21631   3.949   5.875   5.307
 6911SOL    HW121632   3.876   5.931   5.267
 6911SOL    HW221633   3.941   5.781   5.273
 6912SOL     OW21634   3.384   5.492   1.760
 6912SOL    HW121635   3.400   5.468   1.856
 6912SOL    HW221636   3.355   5.410   1.711
 6913SOL     OW21637   3.970   6.123   5.708
 6913SOL    HW121638   3.935   6.031   5.686
 6913SOL    HW221639   4.070   6.121   5.709
 6914SOL     OW21640   0.391   4.878   0.220
 6914SOL    HW121641   0.397   4.950   0.150
 6914SOL    HW221642   0.301   4.882   0.263
 6915SOL     OW21643   0.941   0.064   6.938
 6915SOL    HW121644   1.028   0.078   6.984
 6915SOL    HW221645   0.898   7.008   6.971
 6916SOL     OW21646   6.172   0.476   6.291
 6916SOL    HW121647   6.229   0.520   6.221
 6916SOL    HW221648   6.222   0.399   6.331
 6917SOL     OW21649   4.102   6.222   6.213
 6917SOL    HW121650   4.048   6.204   6.131
 6917SOL    HW221651   4.061   6.297   6.265
 6918SOL     OW21652   1.440   2.629   3.765
 6918SOL    HW121653   1.387   2.713   3.778
 6918SOL    HW221654   1.395   2.554   3.813
 6919SOL     OW21655   1.786   6.169   3.761
 6919SOL    HW121656   1.727   6.089   3.770
 6919SOL    HW221657   1.867   6.159   3.819
 6920SOL     OW21658   5.820   6.364   3.808
 6920SOL    HW121659   5.752   6.437   3.820
 6920SOL    HW221660   5.778   6.287   3.761
 6921SOL     OW21661   1.798   4.696   2.444
 6921SOL    HW121662   1.832   4.777   2.492
 6921SOL    HW221663   1.799   4.712   2.346
 6922SOL     OW21664   1.604   6.438   1.726
 6922SOL    HW121665   1.558   6.466   1.641
 6922SOL    HW221666   1.545   6.458   1.804
 6923SOL     OW21667   4.972   5.952   4.988
 6923SOL    HW121668   5.013   6.041   4.966
 6923SOL    HW221669   4.888   5.941   4.935
 6924SOL     OW21670   5.312   5.943   2.546
 6924SOL    HW121671   5.341   6.036   2.521
 6924SOL    HW221672   5.299   5.890   2.463
 6925SOL     OW21673   4.000   5.705   1.461
 6925SOL    HW121674   4.068   5.779   1.454
 6925SOL    HW221675   4.041   5.620   1.427
 6926SOL     OW21676   2.673   4.437   5.368
 6926SOL    HW121677   2.749   4.456   5.306
 6926SOL    HW221678   2.614   4.366   5.329
 6927SOL     OW21679   4.570   3.541   0.466
 6927SOL    HW121680   4.546   3.458   0.416
 6927SOL    HW221681   4.507   3.615   0.441
 6928SOL     OW21682   6.555   7.021   6.470
 6928SOL    HW121683   6.573   6.928   6.438
 6928SOL    HW221684   6.459   7.028   6.499
 6929SOL     OW21685   4.246   6.398   0.886
 6929SOL    HW121686   4.238   6.473   0.951
 6929SOL    HW221687   4.322   6.415   0.824
 6930SOL     OW21688   6.982   0.975   3.261
 6930SOL    HW121689   0.016   0.897   3.273
 6930SOL    HW221690   6.968   1.021   3.348
 6931SOL     OW21691   2.657   0.082   1.075
 6931SOL    HW121692   2.755   0.070   1.090
 6931SOL    HW221693   2.614   7.021   1.063
 6932SOL     OW21694   3.400   2.777   0.567
 6932SOL    HW121695   3.395   2.822   0.657
 6932SOL    HW221696   3.493   2.745   0.551
 6933SOL     OW21697   3.092   6.120   5.291
 6933SOL    HW121698   3.164   6.051   5.290
 6933SOL    HW221699   3.021   6.095   5.357
 6934SOL     OW21700   5.327   5.035   0.069
 6934SOL    HW121701   5.363   5.085   7.018
 6934SOL    HW221702   5.335   4.937   0.052
 6935SOL     OW21703   4.570   5.382   3.228
 6935SOL    HW121704   4.567   5.377   3.328
 6935SOL    HW221705   4.526   5.467   3.198
 6936SOL     OW21706   1.124   4.783   0.304
 6936SOL    HW121707   1.218   4.754   0.289
 6936SOL    HW221708   1.107   4.868   0.255
 6937SOL     OW21709   5.010   6.339   6.954
 6937SOL    HW121710   4.969   6.356   6.864
 6937SOL    HW221711   4.954   6.272   7.003
 6938SOL     OW21712   6.697   2.533   5.416
 6938SOL    HW121713   6.687   2.532   5.515
 6938SOL    HW221714   6.734   2.622   5.387
 6939SOL     OW21715   6.021   4.511   2.219
 6939SOL    HW121716   6.036   4.583   2.151
 6939SOL    HW221717   6.036   4.549   2.311
 6940SOL     OW21718   4.349   1.247   3.980
 6940SOL    HW121719   4.349   1.278   3.885
 6940SOL    HW221720   4.402   1.163   3.988
 6941SOL     OW21721   3.570   2.771   5.214
 6941SOL    HW121722   3.479   2.733   5.229
 6941SOL    HW221723   3.581   2.793   5.117
 6942SOL     OW21724   6.349   0.856   6.856
 6942SOL    HW121725   6.383   0.868   6.762
 6942SOL    HW221726   6.260   0.809   6.853
 6943SOL     OW21727   5.649   4.290   0.518
 6943SOL    HW121728   5.550   4.291   0.532
 6943SOL    HW221729   5.683   4.196   0.530
 6944SOL     OW21730   2.437   0.229   0.180
 6944SOL    HW121731   2.349   0.218   0.133
 6944SOL    HW221732   2.441   0.319   0.224
 6945SOL     OW21733   2.899   1.255   6.092
 6945SOL    HW121734   2.823   1.251   6.157
 6945SOL    HW221735   2.935   1.162   6.077
 6946SOL     OW21736   6.187   4.395   2.920
 6946SOL    HW121737   6.120   4.372   2.991
 6946SOL    HW221738   6.220   4.311   2.878
 6947SOL     OW21739   3.942   6.704   0.810
 6947SOL    HW121740   3.867   6.726   0.873
 6947SOL    HW221741   3.957   6.605   0.810
 6948SOL     OW21742   3.343   1.410   6.273
 6948SOL    HW121743   3.307   1.492   6.229
 6948SOL    HW221744   3.439   1.399   6.251
 6949SOL     OW21745   5.190   7.002   2.607
 6949SOL    HW121746   5.112   0.013   2.656
 6949SOL    HW221747   5.232   6.931   2.663
 6950SOL     OW21748   3.387   2.069   3.708
 6950SOL    HW121749   3.475   2.102   3.673
 6950SOL    HW221750   3.354   1.994   3.650
 6951SOL     OW21751   3.798   4.154   5.701
 6951SOL    HW121752   3.849   4.112   5.627
 6951SOL    HW221753   3.706   4.178   5.669
 6952SOL     OW21754   0.652   3.643   6.923
 6952SOL    HW121755   0.674   3.662   6.828
 6952SOL    HW221756   0.640   3.729   6.973
 6953SOL     OW21757   5.845   2.189   4.796
 6953SOL    HW121758   5.851   2.261   4.865
 6953SOL    HW221759   5.924   2.194   4.736
 6954SOL     OW21760   0.505   4.634   2.096
 6954SOL    HW121761   0.531   4.540   2.116
 6954SOL    HW221762   0.492   4.644   1.997
 6955SOL     OW21763   6.761   1.714   3.782
 6955SOL    HW121764   6.837   1.734   3.845
 6955SOL    HW221765   6.679   1.763   3.812
 6956SOL     OW21766   3.510   3.991   1.353
 6956SOL    HW121767   3.444   3.999   1.278
 6956SOL    HW221768   3.597   3.957   1.317
 6957SOL     OW21769   1.352   4.449   0.018
 6957SOL    HW121770   1.428   4.449   0.083
 6957SOL    HW221771   1.367   4.378   6.977
 6958SOL     OW21772   2.287   3.201   6.146
 6958SOL    HW121773   2.299   3.102   6.149
 6958SOL    HW221774   2.233   3.231   6.225
 6959SOL     OW21775   4.196   1.264   5.644
 6959SOL    HW121776   4.227   1.191   5.704
 6959SOL    HW221777   4.182   1.347   5.698
 6960SOL     OW21778   1.172   5.953   6.920
 6960SOL    HW121779   1.164   5.855   6.935
 6960SOL    HW221780   1.268   5.980   6.926
 6961SOL     OW21781   6.218   0.599   3.371
 6961SOL    HW121782   6.209   0.531   3.298
 6961SOL    HW221783   6.212   0.691   3.332
 6962SOL     OW21784   3.267   3.122   0.669
 6962SOL    HW121785   3.270   3.171   0.582
 6962SOL    HW221786   3.237   3.028   0.653
 6963SOL     OW21787   6.899   6.036   1.547
 6963SOL    HW121788   6.817   6.093   1.554
 6963SOL    HW221789   6.960   6.076   1.479
 6964SOL     OW21790   4.087   5.202   5.447
 6964SOL    HW121791   4.117   5.296   5.437
 6964SOL    HW221792   3.988   5.197   5.432
 6965SOL     OW21793   5.834   0.620   6.247
 6965SOL    HW121794   5.827   0.520   6.236
 6965SOL    HW221795   5.915   0.653   6.200
 6966SOL     OW21796   3.915   2.096   3.747
 6966SOL    HW121797   3.977   2.169   3.774
 6966SOL    HW221798   3.896   2.103   3.649
 6967SOL     OW21799   2.614   2.908   0.041
 6967SOL    HW121800   2.530   2.963   0.045
 6967SOL    HW221801   2.665   2.919   0.127
 6968SOL     OW21802   2.983   0.480   3.524
 6968SOL    HW121803   2.899   0.442   3.485
 6968SOL    HW221804   2.969   0.577   3.544
 6969SOL     OW21805   3.577   3.240   1.793
 6969SOL    HW121806   3.494   3.231   1.848
 6969SOL    HW221807   3.558   3.295   1.712
 6970SOL     OW21808   4.716   3.789   6.999
 6970SOL    HW121809   4.805   3.828   6.973
 6970SOL    HW221810   4.724   3.689   7.003
 6971SOL     OW21811   5.931   2.230   1.996
 6971SOL    HW121812   6.011   2.290   1.995
 6971SOL    HW221813   5.865   2.260   1.927
 6972SOL     OW21814   4.972   6.315   4.139
 6972SOL    HW121815   5.001   6.408   4.118
 6972SOL    HW221816   4.911   6.316   4.218
 6973SOL     OW21817   1.591   4.662   2.959
 6973SOL    HW121818   1.591   4.659   3.059
 6973SOL    HW221819   1.589   4.758   2.929
 6974SOL     OW21820   2.664   3.390   5.292
 6974SOL    HW121821   2.575   3.367   5.332
 6974SOL    HW221822   2.668   3.489   5.276
 6975SOL     OW21823   1.825   6.907   5.913
 6975SOL    HW121824   1.801   6.810   5.927
 6975SOL    HW221825   1.772   6.963   5.976
 6976SOL     OW21826   1.225   5.970   1.643
 6976SOL    HW121827   1.175   5.884   1.635
 6976SOL    HW221828   1.313   5.962   1.596
 6977SOL     OW21829   5.800   2.336   0.900
 6977SOL    HW121830   5.828   2.366   0.809
 6977SOL    HW221831   5.742   2.255   0.892
 6978SOL     OW21832   4.925   3.342   3.878
 6978SOL    HW121833   4.945   3.344   3.780
 6978SOL    HW221834   4.927   3.247   3.911
 6979SOL     OW21835   0.369   3.743   4.153
 6979SOL    HW121836   0.343   3.711   4.244
 6979SOL    HW221837   0.386   3.664   4.093
 6980SOL     OW21838   5.040   2.045   5.346
 6980SOL    HW121839   5.002   2.119   5.401
 6980SOL    HW221840   4.973   1.971   5.339
 6981SOL     OW21841   3.190   3.515   6.262
 6981SOL    HW121842   3.130   3.582   6.305
 6981SOL    HW221843   3.159   3.496   6.169
 6982SOL     OW21844   1.469   0.054   4.588
 6982SOL    HW121845   1.449   0.133   4.529
 6982SOL    HW221846   1.568   0.041   4.593
 6983SOL     OW21847   5.707   1.131   3.020
 6983SOL    HW121848   5.665   1.117   3.109
 6983SOL    HW221849   5.696   1.048   2.964
 6984SOL     OW21850   2.355   1.421   6.630
 6984SOL    HW121851   2.324   1.364   6.706
 6984SOL    HW221852   2.451   1.401   6.611
 6985SOL     OW21853   4.220   0.095   3.960
 6985SOL    HW121854   4.142   0.112   3.899
 6985SOL    HW221855   4.193   0.033   4.033
 6986SOL     OW21856   2.396   6.209   5.784
 6986SOL    HW121857   2.491   6.229   5.807
 6986SOL    HW221858   2.367   6.125   5.831
 6987SOL     OW21859   6.394   3.882   6.459
 6987SOL    HW121860   6.431   3.963   6.416
 6987SOL    HW221861   6.365   3.817   6.389
 6988SOL     OW21862   5.214   1.998   6.496
 6988SOL    HW121863   5.188   2.022   6.402
 6988SOL    HW221864   5.262   1.910   6.496
 6989SOL     OW21865   2.199   3.967   4.070
 6989SOL    HW121866   2.130   3.955   4.142
 6989SOL    HW221867   2.221   4.064   4.060
 6990SOL     OW21868   4.167   3.874   1.648
 6990SOL    HW121869   4.106   3.895   1.725
 6990SOL    HW221870   4.115   3.830   1.575
 6991SOL     OW21871   4.532   4.539   5.636
 6991SOL    HW121872   4.480   4.534   5.721
 6991SOL    HW221873   4.627   4.562   5.657
 6992SOL     OW21874   6.769   6.228   4.877
 6992SOL    HW121875   6.729   6.139   4.856
 6992SOL    HW221876   6.848   6.244   4.817
 6993SOL     OW21877   0.204   0.900   2.746
 6993SOL    HW121878   0.202   1.000   2.745
 6993SOL    HW221879   0.207   0.868   2.841
 6994SOL     OW21880   1.838   2.483   0.578
 6994SOL    HW121881   1.922   2.485   0.633
 6994SOL    HW221882   1.862   2.468   0.482
 6995SOL     OW21883   0.864   5.644   3.798
 6995SOL    HW121884   0.884   5.572   3.732
 6995SOL    HW221885   0.948   5.690   3.824
 6996SOL     OW21886   1.496   6.779   5.127
 6996SOL    HW121887   1.585   6.735   5.134
 6996SOL    HW221888   1.491   6.830   5.042
 6997SOL     OW21889   5.056   4.610   4.707
 6997SOL    HW121890   5.075   4.675   4.633
 6997SOL    HW221891   4.970   4.634   4.751
 6998SOL     OW21892   2.233   2.018   2.026
 6998SOL    HW121893   2.327   1.997   1.999
 6998SOL    HW221894   2.206   2.107   1.990
 6999SOL     OW21895   5.749   2.651   6.919
 6999SOL    HW121896   5.801   2.704   6.851
 6999SOL    HW221897   5.707   2.714   6.984
 7000SOL     OW21898   0.008   0.222   2.170
 7000SOL    HW121899   6.962   0.290   2.173
 7000SOL    HW221900   0.082   0.256   2.113
 7001SOL     OW21901   3.280   1.516   6.837
 7001SOL    HW121902   3.193   1.555   6.867
 7001SOL    HW221903   3.264   1.428   6.792
 7002SOL     OW21904   3.058   5.638   1.312
 7002SOL    HW121905   3.070   5.647   1.411
 7002SOL    HW221906   2.967   5.671   1.287
 7003SOL     OW21907   1.280   6.713   6.141
 7003SOL    HW121908   1.260   6.798   6.091
 7003SOL    HW221909   1.269   6.635   6.079
 7004SOL     OW21910   2.524   3.871   6.481
 7004SOL    HW121911   2.619   3.867   6.450
 7004SOL    HW221912   2.502   3.964   6.509
 7005SOL     OW21913   6.621   0.169   5.701
 7005SOL    HW121914   6.534   0.120   5.705
 7005SOL    HW221915   6.604   0.267   5.687
 7006SOL     OW21916   5.267   5.322   4.476
 7006SOL    HW121917   5.170   5.300   4.467
 7006SOL    HW221918   5.304   5.346   4.386
 7007SOL     OW21919   5.330   4.796   1.400
 7007SOL    HW121920   5.308   4.750   1.313
 7007SOL    HW221921   5.413   4.850   1.389
 7008SOL     OW21922   0.521   6.857   4.505
 7008SOL    HW121923   0.548   6.912   4.426
 7008SOL    HW221924   0.479   6.772   4.473
 7009SOL     OW21925   6.634   3.875   1.831
 7009SOL    HW121926   6.595   3.967   1.826
 7009SOL    HW221927   6.722   3.874   1.784
 7010SOL     OW21928   5.039   4.536   5.669
 7010SOL    HW121929   5.080   4.626   5.657
 7010SOL    HW221930   5.003   4.504   5.581
 7011SOL     OW21931   1.834   0.327   6.200
 7011SOL    HW121932   1.797   0.346   6.109
 7011SOL    HW221933   1.857   0.414   6.245
 7012SOL     OW21934   0.077   0.716   1.776
 7012SOL    HW121935   0.011   0.648   1.809
 7012SOL    HW221936   0.094   0.783   1.848
 7013SOL     OW21937   6.307   1.834   0.941
 7013SOL    HW121938   6.226   1.829   1.001
 7013SOL    HW221939   6.282   1.880   0.856
 7014SOL     OW21940   2.731   5.284   1.355
 7014SOL    HW121941   2.712   5.347   1.281
 7014SOL    HW221942   2.645   5.252   1.396
 7015SOL     OW21943   4.571   1.920   2.670
 7015SOL    HW121944   4.571   1.945   2.573
 7015SOL    HW221945   4.627   1.985   2.721
 7016SOL     OW21946   5.559   4.610   0.115
 7016SOL    HW121947   5.649   4.616   0.158
 7016SOL    HW221948   5.528   4.515   0.113
 7017SOL     OW21949   5.096   2.539   5.529
 7017SOL    HW121950   5.036   2.519   5.451
 7017SOL    HW221951   5.106   2.457   5.585
 7018SOL     OW21952   0.415   4.717   3.753
 7018SOL    HW121953   0.354   4.765   3.815
 7018SOL    HW221954   0.495   4.685   3.804
 7019SOL     OW21955   6.468   6.368   2.541
 7019SOL    HW121956   6.536   6.429   2.501
 7019SOL    HW221957   6.383   6.417   2.556
 7020SOL     OW21958   6.912   5.701   0.192
 7020SOL    HW121959   7.011   5.711   0.178
 7020SOL    HW221960   6.884   5.609   0.163
 7021SOL     OW21961   3.161   6.721   5.482
 7021SOL    HW121962   3.090   6.779   5.522
 7021SOL    HW221963   3.120   6.662   5.413
 7022SOL     OW21964   3.626   4.846   5.651
 7022SOL    HW121965   3.701   4.781   5.638
 7022SOL    HW221966   3.589   4.836   5.743
 7023SOL     OW21967   4.910   4.967   2.231
 7023SOL    HW121968   4.934   4.973   2.328
 7023SOL    HW221969   4.983   4.921   2.181
 7024SOL     OW21970   6.596   0.031   2.085
 7024SOL    HW121971   6.692   0.005   2.076
 7024SOL    HW221972   6.538   6.978   2.082
 7025SOL     OW21973   3.085   0.267   1.754
 7025SOL    HW121974   3.125   0.187   1.709
 7025SOL    HW221975   3.019   0.238   1.823
 7026SOL     OW21976   4.394   2.683   0.347
 7026SOL    HW121977   4.490   2.654   0.347
 7026SOL    HW221978   4.362   2.691   0.441
 7027SOL     OW21979   5.689   6.045   5.006
 7027SOL    HW121980   5.659   6.138   4.988
 7027SOL    HW221981   5.644   5.981   4.943
 7028SOL     OW21982   3.534   0.661   5.053
 7028SOL    HW121983   3.465   0.718   5.098
 7028SOL    HW221984   3.491   0.609   4.979
 7029SOL     OW21985   3.560   6.990   4.107
 7029SOL    HW121986   3.566   6.896   4.074
 7029SOL    HW221987   3.565   0.025   4.029
 7030SOL     OW21988   0.937   3.983   3.387
 7030SOL    HW121989   0.976   3.939   3.468
 7030SOL    HW221990   0.989   3.956   3.306
 7031SOL     OW21991   2.435   0.715   3.830
 7031SOL    HW121992   2.388   0.644   3.778
 7031SOL    HW221993   2.439   0.799   3.775
 7032SOL     OW21994   6.227   2.643   3.583
 7032SOL    HW121995   6.251   2.588   3.502
 7032SOL    HW221996   6.310   2.683   3.621
 7033SOL     OW21997   0.069   0.805   5.033
 7033SOL    HW121998   7.025   0.808   5.102
 7033SOL    HW221999   0.052   0.729   4.970
 7034SOL     OW22000   6.788   4.912   4.080
 7034SOL    HW122001   6.806   4.869   4.169
 7034SOL    HW222002   6.711   4.975   4.088
 7035SOL     OW22003   0.040   4.484   1.143
 7035SOL    HW122004   0.018   4.573   1.183
 7035SOL    HW222005   0.038   4.414   1.214
 7036SOL     OW22006   6.372   5.557   0.962
 7036SOL    HW122007   6.353   5.520   1.053
 7036SOL    HW222008   6.294   5.612   0.933
 7037SOL     OW22009   1.620   0.186   0.034
 7037SOL    HW122010   1.641   0.236   6.978
 7037SOL    HW222011   1.583   0.097   0.012
 7038SOL     OW22012   2.590   2.472   3.526
 7038SOL    HW122013   2.613   2.457   3.430
 7038SOL    HW222014   2.654   2.420   3.584
 7039SOL     OW22015   4.398   1.661   6.185
 7039SOL    HW122016   4.306   1.663   6.224
 7039SOL    HW222017   4.405   1.731   6.114
 7040SOL     OW22018   6.295   2.182   6.687
 7040SOL    HW122019   6.377   2.134   6.657
 7040SOL    HW222020   6.319   2.252   6.754
 7041SOL     OW22021   2.127   1.108   3.199
 7041SOL    HW122022   2.036   1.132   3.233
 7041SOL    HW222023   2.119   1.036   3.129
 7042SOL     OW22024   2.264   0.954   7.025
 7042SOL    HW122025   2.284   0.951   6.927
 7042SOL    HW222026   2.322   0.889   0.045
 7043SOL     OW22027   1.962   2.930   1.293
 7043SOL    HW122028   1.874   2.968   1.264
 7043SOL    HW222029   2.026   2.932   1.216
 7044SOL     OW22030   6.995   5.755   0.598
 7044SOL    HW122031   0.011   5.666   0.585
 7044SOL    HW222032   6.911   5.759   0.544
 7045SOL     OW22033   1.148   4.345   0.162
 7045SOL    HW122034   1.161   4.249   0.184
 7045SOL    HW222035   1.231   4.380   0.118
 7046SOL     OW22036   2.341   2.005   3.399
 7046SOL    HW122037   2.248   1.992   3.365
 7046SOL    HW222038   2.347   1.974   3.494
 7047SOL     OW22039   1.227   6.425   3.207
 7047SOL    HW122040   1.269   6.492   3.145
 7047SOL    HW222041   1.290   6.406   3.282
 7048SOL     OW22042   0.731   5.254   6.791
 7048SOL    HW122043   0.673   5.289   6.864
 7048SOL    HW222044   0.827   5.264   6.817
 7049SOL     OW22045   2.553   1.248   6.359
 7049SOL    HW122046   2.571   1.180   6.288
 7049SOL    HW222047   2.532   1.203   6.445
 7050SOL     OW22048   3.474   3.499   6.132
 7050SOL    HW122049   3.559   3.503   6.183
 7050SOL    HW222050   3.399   3.476   6.194
 7051SOL     OW22051   5.496   5.991   1.905
 7051SOL    HW122052   5.485   5.976   1.807
 7051SOL    HW222053   5.545   6.077   1.920
 7052SOL     OW22054   6.217   0.915   4.626
 7052SOL    HW122055   6.219   0.988   4.557
 7052SOL    HW222056   6.131   0.865   4.618
 7053SOL     OW22057   6.618   3.461   6.230
 7053SOL    HW122058   6.576   3.399   6.295
 7053SOL    HW222059   6.568   3.548   6.229
 7054SOL     OW22060   5.563   2.505   2.202
 7054SOL    HW122061   5.595   2.579   2.261
 7054SOL    HW222062   5.556   2.420   2.255
 7055SOL     OW22063   4.234   1.458   3.308
 7055SOL    HW122064   4.145   1.479   3.350
 7055SOL    HW222065   4.235   1.362   3.279
 7056SOL     OW22066   4.727   6.305   4.312
 7056SOL    HW122067   4.751   6.218   4.353
 7056SOL    HW222068   4.635   6.299   4.273
 7057SOL     OW22069   5.196   6.029   2.935
 7057SOL    HW122070   5.180   6.032   3.034
 7057SOL    HW222071   5.167   6.116   2.895
 7058SOL     OW22072   0.754   4.111   4.639
 7058SOL    HW122073   0.808   4.047   4.694
 7058SOL    HW222074   0.702   4.060   4.570
 7059SOL     OW22075   1.682   0.474   2.160
 7059SOL    HW122076   1.597   0.512   2.124
 7059SOL    HW222077   1.661   0.389   2.209
 7060SOL     OW22078   3.839   0.242   1.319
 7060SOL    HW122079   3.779   0.288   1.255
 7060SOL    HW222080   3.875   0.158   1.278
 7061SOL     OW22081   0.688   1.454   2.769
 7061SOL    HW122082   0.711   1.543   2.728
 7061SOL    HW222083   0.687   1.463   2.868
 7062SOL     OW22084   6.367   0.831   5.310
 7062SOL    HW122085   6.319   0.826   5.222
 7062SOL    HW222086   6.362   0.924   5.345
 7063SOL     OW22087   1.785   6.940   1.894
 7063SOL    HW122088   1.738   7.027   1.903
 7063SOL    HW222089   1.854   6.932   1.966
 7064SOL     OW22090   3.288   3.118   0.972
 7064SOL    HW122091   3.279   3.018   0.972
 7064SOL    HW222092   3.222   3.157   0.908
 7065SOL     OW22093   3.138   3.658   2.824
 7065SOL    HW122094   3.157   3.681   2.919
 7065SOL    HW222095   3.094   3.735   2.779
 7066SOL     OW22096   2.550   4.642   1.518
 7066SOL    HW122097   2.460   4.685   1.513
 7066SOL    HW222098   2.594   4.668   1.604
 7067SOL     OW22099   1.821   3.824   4.439
 7067SOL    HW122100   1.766   3.881   4.500
 7067SOL    HW222101   1.765   3.795   4.361
 7068SOL     OW22102   0.359   0.719   3.230
 7068SOL    HW122103   0.360   0.774   3.147
 7068SOL    HW222104   0.453   0.696   3.256
 7069SOL     OW22105   1.401   3.711   5.584
 7069SOL    HW122106   1.371   3.691   5.678
 7069SOL    HW222107   1.453   3.633   5.549
 7070SOL     OW22108   5.576   5.808   2.947
 7070SOL    HW122109   5.503   5.831   2.882
 7070SOL    HW222110   5.651   5.874   2.938
 7071SOL     OW22111   1.693   6.922   5.659
 7071SOL    HW122112   1.722   6.930   5.755
 7071SOL    HW222113   1.727   7.000   5.607
 7072SOL     OW22114   6.993   6.832   6.656
 7072SOL    HW122115   6.956   6.835   6.749
 7072SOL    HW222116   6.986   6.922   6.614
 7073SOL     OW22117   1.968   2.199   0.581
 7073SOL    HW122118   1.981   2.233   0.489
 7073SOL    HW222119   2.055   2.167   0.618
 7074SOL     OW22120   4.137   1.651   6.272
 7074SOL    HW122121   4.120   1.742   6.233
 7074SOL    HW222122   4.054   1.596   6.265
 7075SOL     OW22123   0.441   6.361   3.230
 7075SOL    HW122124   0.416   6.427   3.300
 7075SOL    HW222125   0.510   6.298   3.267
 7076SOL     OW22126   2.964   1.364   5.722
 7076SOL    HW122127   3.002   1.457   5.717
 7076SOL    HW222128   3.039   1.299   5.735
 7077SOL     OW22129   1.137   5.741   6.374
 7077SOL    HW122130   1.119   5.772   6.280
 7077SOL    HW222131   1.097   5.805   6.439
 7078SOL     OW22132   0.325   0.339   1.518
 7078SOL    HW122133   0.355   0.271   1.452
 7078SOL    HW222134   0.387   0.418   1.515
 7079SOL     OW22135   4.792   6.701   4.111
 7079SOL    HW122136   4.877   6.652   4.132
 7079SOL    HW222137   4.804   6.799   4.129
 7080SOL     OW22138   6.131   0.871   3.610
 7080SOL    HW122139   6.164   0.922   3.690
 7080SOL    HW222140   6.134   0.929   3.529
 7081SOL     OW22141   4.420   0.932   4.558
 7081SOL    HW122142   4.404   1.012   4.616
 7081SOL    HW222143   4.486   0.956   4.487
 7082SOL     OW22144   5.992   1.680   0.302
 7082SOL    HW122145   5.919   1.616   0.278
 7082SOL    HW222146   6.000   1.749   0.230
 7083SOL     OW22147   4.675   0.528   4.779
 7083SOL    HW122148   4.622   0.507   4.862
 7083SOL    HW222149   4.713   0.620   4.787
 7084SOL     OW22150   6.573   5.391   0.155
 7084SOL    HW122151   6.479   5.379   0.184
 7084SOL    HW222152   6.611   5.304   0.126
 7085SOL     OW22153   5.276   1.635   0.970
 7085SOL    HW122154   5.305   1.730   0.984
 7085SOL    HW222155   5.355   1.575   0.981
 7086SOL     OW22156   1.292   0.840   6.000
 7086SOL    HW122157   1.359   0.766   6.007
 7086SOL    HW222158   1.340   0.927   5.989
 7087SOL     OW22159   2.481   2.535   4.486
 7087SOL    HW122160   2.572   2.500   4.465
 7087SOL    HW222161   2.446   2.588   4.408
 7088SOL     OW22162   6.918   1.162   4.842
 7088SOL    HW122163   6.857   1.085   4.861
 7088SOL    HW222164   6.969   1.144   4.757
 7089SOL     OW22165   2.643   2.131   2.160
 7089SOL    HW122166   2.711   2.188   2.115
 7089SOL    HW222167   2.611   2.177   2.243
 7090SOL     OW22168   3.749   0.776   5.164
 7090SOL    HW122169   3.674   0.740   5.109
 7090SOL    HW222170   3.724   0.866   5.200
 7091SOL     OW22171   6.879   5.010   6.898
 7091SOL    HW122172   6.887   4.975   6.991
 7091SOL    HW222173   6.949   4.967   6.840
 7092SOL     OW22174   3.333   2.214   0.792
 7092SOL    HW122175   3.428   2.193   0.771
 7092SOL    HW222176   3.308   2.173   0.880
 7093SOL     OW22177   4.006   3.968   6.167
 7093SOL    HW122178   3.949   3.898   6.208
 7093SOL    HW222179   3.948   4.035   6.121
 7094SOL     OW22180   6.241   1.316   6.226
 7094SOL    HW122181   6.298   1.236   6.206
 7094SOL    HW222182   6.175   1.330   6.152
 7095SOL     OW22183   1.184   4.495   1.523
 7095SOL    HW122184   1.111   4.563   1.529
 7095SOL    HW222185   1.182   4.452   1.432
 7096SOL     OW22186   3.282   0.115   3.502
 7096SOL    HW122187   3.265   0.130   3.404
 7096SOL    HW222188   3.344   0.185   3.536
 7097SOL     OW22189   1.874   1.542   1.476
 7097SOL    HW122190   1.957   1.594   1.498
 7097SOL    HW222191   1.858   1.474   1.547
 7098SOL     OW22192   1.142   0.563   0.011
 7098SOL    HW122193   1.131   0.622   0.091
 7098SOL    HW222194   1.173   0.619   6.961
 7099SOL     OW22195   0.480   1.508   4.089
 7099SOL    HW122196   0.441   1.579   4.148
 7099SOL    HW222197   0.412   1.438   4.072
 7100SOL     OW22198   5.420   2.541   0.664
 7100SOL    HW122199   5.423   2.549   0.763
 7100SOL    HW222200   5.513   2.548   0.627
 7101SOL     OW22201   1.417   0.447   4.981
 7101SOL    HW122202   1.405   0.546   4.973
 7101SOL    HW222203   1.331   0.406   5.012
 7102SOL     OW22204   4.509   2.727   0.099
 7102SOL    HW122205   4.446   2.705   0.026
 7102SOL    HW222206   4.466   2.707   0.188
 7103SOL     OW22207   2.400   6.648   6.729
 7103SOL    HW122208   2.397   6.747   6.743
 7103SOL    HW222209   2.495   6.618   6.726
 7104SOL     OW22210   6.891   3.409   1.514
 7104SOL    HW122211   6.895   3.310   1.531
 7104SOL    HW222212   6.970   3.437   1.460
 7105SOL     OW22213   2.111   2.464   4.592
 7105SOL    HW122214   2.144   2.559   4.585
 7105SOL    HW222215   2.177   2.403   4.547
 7106SOL     OW22216   3.065   2.769   5.465
 7106SOL    HW122217   3.111   2.803   5.547
 7106SOL    HW222218   2.980   2.819   5.452
 7107SOL     OW22219   1.853   1.866   0.140
 7107SOL    HW122220   1.834   1.858   0.042
 7107SOL    HW222221   1.852   1.775   0.181
 7108SOL     OW22222   3.804   6.545   2.046
 7108SOL    HW122223   3.860   6.588   2.116
 7108SOL    HW222224   3.708   6.543   2.076
 7109SOL     OW22225   4.877   6.150   0.073
 7109SOL    HW122226   4.910   6.139   0.167
 7109SOL    HW222227   4.883   6.062   0.025
 7110SOL     OW22228   4.223   5.168   4.253
 7110SOL    HW122229   4.151   5.156   4.322
 7110SOL    HW222230   4.312   5.151   4.295
 7111SOL     OW22231   1.537   3.049   3.155
 7111SOL    HW122232   1.622   3.041   3.207
 7111SOL    HW222233   1.462   3.073   3.216
 7112SOL     OW22234   2.061   5.966   3.196
 7112SOL    HW122235   2.039   6.051   3.148
 7112SOL    HW222236   1.981   5.906   3.195
 7113SOL     OW22237   3.422   4.104   6.255
 7113SOL    HW122238   3.450   4.069   6.166
 7113SOL    HW222239   3.329   4.140   6.249
 7114SOL     OW22240   3.676   6.557   0.377
 7114SOL    HW122241   3.605   6.605   0.325
 7114SOL    HW222242   3.721   6.621   0.439
 7115SOL     OW22243   3.617   2.412   1.022
 7115SOL    HW122244   3.614   2.321   1.065
 7115SOL    HW222245   3.712   2.443   1.016
 7116SOL     OW22246   6.367   4.313   4.053
 7116SOL    HW122247   6.315   4.381   4.105
 7116SOL    HW222248   6.418   4.358   3.979
 7117SOL     OW22249   5.423   0.504   2.738
 7117SOL    HW122250   5.456   0.426   2.790
 7117SOL    HW222251   5.350   0.475   2.676
 7118SOL     OW22252   6.691   3.774   3.913
 7118SOL    HW122253   6.721   3.869   3.917
 7118SOL    HW222254   6.669   3.741   4.005
 7119SOL     OW22255   0.176   1.929   2.291
 7119SOL    HW122256   0.240   1.859   2.258
 7119SOL    HW222257   0.214   2.019   2.273
 7120SOL     OW22258   4.724   6.748   4.493
 7120SOL    HW122259   4.755   6.815   4.426
 7120SOL    HW222260   4.709   6.793   4.581
 7121SOL     OW22261   1.712   6.458   0.792
 7121SOL    HW122262   1.685   6.480   0.886
 7121SOL    HW222263   1.810   6.476   0.780
 7122SOL     OW22264   0.038   6.036   0.579
 7122SOL    HW122265   6.981   6.080   0.607
 7122SOL    HW222266   0.027   5.937   0.581
 7123SOL     OW22267   3.406   4.837   0.760
 7123SOL    HW122268   3.366   4.803   0.845
 7123SOL    HW222269   3.402   4.766   0.690
 7124SOL     OW22270   0.697   4.927   0.013
 7124SOL    HW122271   0.675   4.913   6.945
 7124SOL    HW222272   0.628   4.986   0.055
 7125SOL     OW22273   1.647   5.657   3.538
 7125SOL    HW122274   1.603   5.722   3.477
 7125SOL    HW222275   1.635   5.686   3.633
 7126SOL     OW22276   1.685   4.492   0.961
 7126SOL    HW122277   1.661   4.573   0.907
 7126SOL    HW222278   1.747   4.434   0.910
 7127SOL     OW22279   2.604   0.391   5.164
 7127SOL    HW122280   2.680   0.374   5.227
 7127SOL    HW222281   2.548   0.466   5.199
 7128SOL     OW22282   3.218   4.096   2.468
 7128SOL    HW122283   3.147   4.029   2.449
 7128SOL    HW222284   3.281   4.101   2.390
 7129SOL     OW22285   3.577   1.997   0.362
 7129SOL    HW122286   3.545   2.076   0.310
 7129SOL    HW222287   3.657   2.022   0.416
 7130SOL     OW22288   1.153   0.572   2.813
 7130SOL    HW122289   1.229   0.623   2.855
 7130SOL    HW222290   1.074   0.574   2.874
 7131SOL     OW22291   2.813   0.966   2.907
 7131SOL    HW122292   2.859   1.018   2.836
 7131SOL    HW222293   2.818   1.015   2.994
 7132SOL     OW22294   3.371   4.115   2.206
 7132SOL    HW122295   3.405   4.024   2.230
 7132SOL    HW222296   3.315   4.109   2.123
 7133SOL     OW22297   6.259   4.081   2.021
 7133SOL    HW122298   6.191   4.138   2.069
 7133SOL    HW222299   6.248   4.092   1.922
 7134SOL     OW22300   4.465   4.485   2.811
 7134SOL    HW122301   4.427   4.527   2.728
 7134SOL    HW222302   4.425   4.529   2.891
 7135SOL     OW22303   6.860   1.883   5.909
 7135SOL    HW122304   6.903   1.794   5.923
 7135SOL    HW222305   6.760   1.873   5.912
 7136SOL     OW22306   2.156   2.301   6.693
 7136SOL    HW122307   2.114   2.391   6.701
 7136SOL    HW222308   2.159   2.274   6.596
 7137SOL     OW22309   5.299   2.174   5.325
 7137SOL    HW122310   5.206   2.139   5.333
 7137SOL    HW222311   5.326   2.176   5.229
 7138SOL     OW22312   2.161   2.256   6.412
 7138SOL    HW122313   2.174   2.352   6.388
 7138SOL    HW222314   2.073   2.225   6.375
 7139SOL     OW22315   1.863   1.289   0.114
 7139SOL    HW122316   1.953   1.289   0.157
 7139SOL    HW222317   1.805   1.222   0.160
 7140SOL     OW22318   6.686   4.600   4.397
 7140SOL    HW122319   6.590   4.578   4.418
 7140SOL    HW222320   6.720   4.537   4.327
 7141SOL     OW22321   0.912   0.896   1.879
 7141SOL    HW122322   0.934   0.920   1.974
 7141SOL    HW222323   0.906   0.797   1.871
 7142SOL     OW22324   3.570   6.564   4.156
 7142SOL    HW122325   3.630   6.510   4.214
 7142SOL    HW222326   3.498   6.606   4.211
 7143SOL     OW22327   1.780   2.919   4.028
 7143SOL    HW122328   1.701   2.859   4.037
 7143SOL    HW222329   1.836   2.890   3.950
 7144SOL     OW22330   1.658   3.439   3.480
 7144SOL    HW122331   1.672   3.420   3.382
 7144SOL    HW222332   1.742   3.478   3.519
 7145SOL     OW22333   3.175   5.729   6.767
 7145SOL    HW122334   3.167   5.665   6.691
 7145SOL    HW222335   3.269   5.730   6.801
 7146SOL     OW22336   3.883   5.249   1.229
 7146SOL    HW122337   3.950   5.209   1.291
 7146SOL    HW222338   3.867   5.187   1.152
 7147SOL     OW22339   0.660   0.818   3.806
 7147SOL    HW122340   0.747   0.857   3.774
 7147SOL    HW222341   0.665   0.805   3.905
 7148SOL     OW22342   6.565   1.990   0.645
 7148SOL    HW122343   6.646   1.985   0.586
 7148SOL    HW222344   6.499   2.053   0.604
 7149SOL     OW22345   1.342   0.902   4.623
 7149SOL    HW122346   1.331   0.929   4.719
 7149SOL    HW222347   1.417   0.954   4.582
 7150SOL     OW22348   7.006   3.646   5.926
 7150SOL    HW122349   6.941   3.689   5.988
 7150SOL    HW222350   6.998   3.686   5.835
 7151SOL     OW22351   1.220   6.965   0.653
 7151SOL    HW122352   1.215   6.887   0.716
 7151SOL    HW222353   1.302   7.018   0.672
 7152SOL     OW22354   0.514   2.238   4.425
 7152SOL    HW122355   0.450   2.185   4.480
 7152SOL    HW222356   0.577   2.176   4.377
 7153SOL     OW22357   4.429   1.931   3.360
 7153SOL    HW122358   4.423   1.856   3.295
 7153SOL    HW222359   4.340   1.946   3.403
 7154SOL     OW22360   3.920   0.394   4.355
 7154SOL    HW122361   3.983   0.379   4.278
 7154SOL    HW222362   3.916   0.492   4.375
 7155SOL     OW22363   1.942   1.664   4.458
 7155SOL    HW122364   2.024   1.650   4.402
 7155SOL    HW222365   1.947   1.607   4.540
 7156SOL     OW22366   2.025   5.569   5.372
 7156SOL    HW122367   2.102   5.505   5.375
 7156SOL    HW222368   2.040   5.635   5.298
 7157SOL     OW22369   5.721   4.369   0.868
 7157SOL    HW122370   5.763   4.297   0.923
 7157SOL    HW222371   5.662   4.426   0.926
 7158SOL     OW22372   3.798   0.253   3.094
 7158SOL    HW122373   3.755   0.260   3.184
 7158SOL    HW222374   3.853   0.335   3.078
 7159SOL     OW22375   1.430   6.020   6.920
 7159SOL    HW122376   1.522   5.996   6.887
 7159SOL    HW222377   1.429   6.115   6.950
 7160SOL     OW22378   0.703   0.195   2.320
 7160SOL    HW122379   0.607   0.182   2.345
 7160SOL    HW222380   0.727   0.291   2.330
 7161SOL     OW22381   3.143   3.704   5.154
 7161SOL    HW122382   3.232   3.749   5.142
 7161SOL    HW222383   3.147   3.641   5.231
 7162SOL     OW22384   3.731   4.882   4.125
 7162SOL    HW122385   3.636   4.862   4.148
 7162SOL    HW222386   3.740   4.979   4.104
 7163SOL     OW22387   1.188   6.426   3.989
 7163SOL    HW122388   1.266   6.407   3.928
 7163SOL    HW222389   1.196   6.518   4.026
 7164SOL     OW22390   3.540   1.134   4.151
 7164SOL    HW122391   3.447   1.139   4.187
 7164SOL    HW222392   3.605   1.158   4.224
 7165SOL     OW22393   4.349   5.049   2.145
 7165SOL    HW122394   4.277   5.107   2.106
 7165SOL    HW222395   4.432   5.058   2.091
 7166SOL     OW22396   3.141   6.801   2.949
 7166SOL    HW122397   3.058   6.777   2.899
 7166SOL    HW222398   3.218   6.751   2.910
 7167SOL     OW22399   5.589   2.498   0.456
 7167SOL    HW122400   5.619   2.403   0.456
 7167SOL    HW222401   5.489   2.502   0.459
 7168SOL     OW22402   0.047   1.531   4.012
 7168SOL    HW122403   0.042   1.476   3.929
 7168SOL    HW222404   0.104   1.484   4.080
 7169SOL     OW22405   1.898   2.375   0.324
 7169SOL    HW122406   1.939   2.436   0.255
 7169SOL    HW222407   1.848   2.302   0.277
 7170SOL     OW22408   4.802   4.037   4.624
 7170SOL    HW122409   4.894   4.032   4.663
 7170SOL    HW222410   4.791   3.966   4.555
 7171SOL     OW22411   3.677   3.604   5.502
 7171SOL    HW122412   3.592   3.639   5.539
 7171SOL    HW222413   3.754   3.660   5.535
 7172SOL     OW22414   5.209   5.487   1.567
 7172SOL    HW122415   5.228   5.561   1.632
 7172SOL    HW222416   5.210   5.399   1.615
 7173SOL     OW22417   6.303   6.744   4.176
 7173SOL    HW122418   6.376   6.806   4.207
 7173SOL    HW222419   6.336   6.689   4.100
 7174SOL     OW22420   1.181   6.308   5.734
 7174SOL    HW122421   1.175   6.266   5.643
 7174SOL    HW222422   1.089   6.326   5.769
 7175SOL     OW22423   5.807   3.796   5.556
 7175SOL    HW122424   5.889   3.796   5.499
 7175SOL    HW222425   5.770   3.703   5.562
 7176SOL     OW22426   1.653   3.517   1.317
 7176SOL    HW122427   1.671   3.507   1.415
 7176SOL    HW222428   1.739   3.512   1.266
 7177SOL     OW22429   0.011   5.011   1.502
 7177SOL    HW122430   0.031   5.080   1.572
 7177SOL    HW222431   6.997   4.931   1.545
 7178SOL     OW22432   6.803   0.382   6.853
 7178SOL    HW122433   6.803   0.319   6.775
 7178SOL    HW222434   6.892   0.427   6.860
 7179SOL     OW22435   0.994   3.774   6.001
 7179SOL    HW122436   1.067   3.826   6.046
 7179SOL    HW222437   0.986   3.803   5.905
 7180SOL     OW22438   0.180   0.377   2.002
 7180SOL    HW122439   0.248   0.303   1.999
 7180SOL    HW222440   0.185   0.431   1.918
 7181SOL     OW22441   5.380   6.654   2.431
 7181SOL    HW122442   5.355   6.620   2.521
 7181SOL    HW222443   5.477   6.634   2.414
 7182SOL     OW22444   3.383   3.730   6.043
 7182SOL    HW122445   3.462   3.738   5.982
 7182SOL    HW222446   3.384   3.641   6.088
 7183SOL     OW22447   2.407   2.677   2.624
 7183SOL    HW122448   2.460   2.592   2.636
 7183SOL    HW222449   2.396   2.696   2.526
 7184SOL     OW22450   2.521   5.172   3.091
 7184SOL    HW122451   2.558   5.201   3.179
 7184SOL    HW222452   2.594   5.131   3.036
 7185SOL     OW22453   5.517   2.323   6.236
 7185SOL    HW122454   5.614   2.301   6.251
 7185SOL    HW222455   5.481   2.372   6.315
 7186SOL     OW22456   1.459   6.821   4.407
 7186SOL    HW122457   1.469   6.883   4.485
 7186SOL    HW222458   1.550   6.800   4.371
 7187SOL     OW22459   1.749   4.939   0.958
 7187SOL    HW122460   1.819   4.912   1.024
 7187SOL    HW222461   1.768   5.032   0.925
 7188SOL     OW22462   4.255   0.139   1.972
 7188SOL    HW122463   4.196   0.147   1.892
 7188SOL    HW222464   4.225   0.206   2.041
 7189SOL     OW22465   6.392   0.648   5.775
 7189SOL    HW122466   6.314   0.636   5.836
 7189SOL    HW222467   6.370   0.715   5.705
 7190SOL     OW22468   4.714   4.759   2.242
 7190SOL    HW122469   4.795   4.782   2.188
 7190SOL    HW222470   4.669   4.843   2.271
 7191SOL     OW22471   0.409   3.671   1.453
 7191SOL    HW122472   0.430   3.769   1.448
 7191SOL    HW222473   0.362   3.642   1.370
 7192SOL     OW22474   3.442   4.405   5.939
 7192SOL    HW122475   3.494   4.325   5.967
 7192SOL    HW222476   3.393   4.385   5.854
 7193SOL     OW22477   6.319   2.374   4.973
 7193SOL    HW122478   6.247   2.422   4.922
 7193SOL    HW222479   6.293   2.367   5.069
 7194SOL     OW22480   3.417   0.941   1.866
 7194SOL    HW122481   3.396   0.949   1.964
 7194SOL    HW222482   3.390   1.025   1.819
 7195SOL     OW22483   0.948   0.304   3.644
 7195SOL    HW122484   0.990   0.226   3.598
 7195SOL    HW222485   0.849   0.303   3.628
 7196SOL     OW22486   3.935   4.258   1.687
 7196SOL    HW122487   4.025   4.263   1.731
 7196SOL    HW222488   3.924   4.169   1.643
 7197SOL     OW22489   2.106   0.755   3.635
 7197SOL    HW122490   2.009   0.763   3.613
 7197SOL    HW222491   2.151   0.843   3.620
 7198SOL     OW22492   0.131   6.747   5.535
 7198SOL    HW122493   0.209   6.706   5.489
 7198SOL    HW222494   0.157   6.836   5.572
 7199SOL     OW22495   6.481   6.091   1.793
 7199SOL    HW122496   6.454   5.995   1.803
 7199SOL    HW222497   6.399   6.147   1.781
 7200SOL     OW22498   1.059   1.951   2.408
 7200SOL    HW122499   1.032   1.885   2.338
 7200SOL    HW222500   1.025   2.042   2.383
 7201SOL     OW22501   1.532   4.941   3.122
 7201SOL    HW122502   1.607   4.899   3.174
 7201SOL    HW222503   1.562   4.958   3.029
 7202SOL     OW22504   1.948   6.996   5.164
 7202SOL    HW122505   2.022   6.941   5.204
 7202SOL    HW222506   1.927   0.045   5.224
 7203SOL     OW22507   5.573   0.494   6.665
 7203SOL    HW122508   5.649   0.429   6.666
 7203SOL    HW222509   5.607   0.586   6.686
 7204SOL     OW22510   0.855   3.199   2.220
 7204SOL    HW122511   0.931   3.249   2.262
 7204SOL    HW222512   0.795   3.264   2.173
 7205SOL     OW22513   1.393   4.312   1.366
 7205SOL    HW122514   1.329   4.380   1.329
 7205SOL    HW222515   1.345   4.225   1.380
 7206SOL     OW22516   6.923   0.557   1.960
 7206SOL    HW122517   6.992   0.516   2.019
 7206SOL    HW222518   6.878   0.485   1.906
 7207SOL     OW22519   4.224   0.086   1.319
 7207SOL    HW122520   4.202   0.151   1.247
 7207SOL    HW222521   4.165   0.103   1.398
 7208SOL     OW22522   2.968   6.799   5.112
 7208SOL    HW122523   2.924   6.836   5.194
 7208SOL    HW222524   2.899   6.770   5.047
 7209SOL     OW22525   2.268   3.587   5.399
 7209SOL    HW122526   2.289   3.655   5.469
 7209SOL    HW222527   2.239   3.633   5.315
 7210SOL     OW22528   4.279   1.014   4.297
 7210SOL    HW122529   4.288   1.114   4.295
 7210SOL    HW222530   4.249   0.981   4.207
 7211SOL     OW22531   0.220   5.434   2.991
 7211SOL    HW122532   0.245   5.470   2.901
 7211SOL    HW222533   0.153   5.495   3.034
 7212SOL     OW22534   5.293   6.481   2.633
 7212SOL    HW122535   5.389   6.454   2.630
 7212SOL    HW222536   5.241   6.429   2.566
 7213SOL     OW22537   5.801   6.087   5.356
 7213SOL    HW122538   5.853   6.155   5.304
 7213SOL    HW222539   5.803   6.000   5.307
 7214SOL     OW22540   1.699   5.083   6.024
 7214SOL    HW122541   1.664   5.176   6.018
 7214SOL    HW222542   1.632   5.020   5.985
 7215SOL     OW22543   1.237   2.874   1.583
 7215SOL    HW122544   1.319   2.906   1.631
 7215SOL    HW222545   1.176   2.829   1.647
 7216SOL     OW22546   2.446   1.789   2.803
 7216SOL    HW122547   2.366   1.728   2.798
 7216SOL    HW222548   2.499   1.780   2.718
 7217SOL     OW22549   1.275   3.814   2.015
 7217SOL    HW122550   1.370   3.804   2.044
 7217SOL    HW222551   1.252   3.911   2.009
 7218SOL     OW22552   6.718   3.094   3.742
 7218SOL    HW122553   6.770   3.029   3.685
 7218SOL    HW222554   6.762   3.184   3.738
 7219SOL     OW22555   2.031   1.416   1.803
 7219SOL    HW122556   2.095   1.345   1.830
 7219SOL    HW222557   2.081   1.501   1.784
 7220SOL     OW22558   6.801   1.824   3.521
 7220SOL    HW122559   6.803   1.787   3.613
 7220SOL    HW222560   6.713   1.869   3.505
 7221SOL     OW22561   6.814   3.912   4.651
 7221SOL    HW122562   6.890   3.965   4.614
 7221SOL    HW222563   6.767   3.966   4.721
 7222SOL     OW22564   6.191   0.365   2.749
 7222SOL    HW122565   6.207   0.437   2.816
 7222SOL    HW222566   6.209   0.276   2.790
 7223SOL     OW22567   5.225   0.974   4.696
 7223SOL    HW122568   5.279   1.030   4.635
 7223SOL    HW222569   5.172   0.908   4.643
 7224SOL     OW22570   4.983   0.873   3.428
 7224SOL    HW122571   5.074   0.832   3.423
 7224SOL    HW222572   4.983   0.943   3.500
 7225SOL     OW22573   2.697   0.272   1.740
 7225SOL    HW122574   2.777   0.233   1.787
 7225SOL    HW222575   2.727   0.341   1.675
 7226SOL     OW22576   5.582   6.593   4.937
 7226SOL    HW122577   5.485   6.610   4.917
 7226SOL    HW222578   5.591   6.508   4.988
 7227SOL     OW22579   0.530   2.699   5.250
 7227SOL    HW122580   0.594   2.658   5.315
 7227SOL    HW222581   0.511   2.635   5.177
 7228SOL     OW22582   2.008   0.069   3.147
 7228SOL    HW122583   2.006   0.095   3.050
 7228SOL    HW222584   2.103   0.051   3.174
 7229SOL     OW22585   6.178   0.221   3.400
 7229SOL    HW122586   6.161   0.281   3.478
 7229SOL    HW222587   6.196   0.276   3.319
 7230SOL     OW22588   6.255   5.423   1.636
 7230SOL    HW122589   6.285   5.336   1.675
 7230SOL    HW222590   6.155   5.424   1.628
 7231SOL     OW22591   6.080   1.076   0.101
 7231SOL    HW122592   6.127   1.139   0.163
 7231SOL    HW222593   6.097   0.982   0.130
 7232SOL     OW22594   3.382   3.574   0.830
 7232SOL    HW122595   3.341   3.648   0.777
 7232SOL    HW222596   3.315   3.500   0.840
 7233SOL     OW22597   1.281   2.084   6.598
 7233SOL    HW122598   1.334   2.000   6.585
 7233SOL    HW222599   1.291   2.143   6.519
 7234SOL     OW22600   5.443   2.700   3.672
 7234SOL    HW122601   5.430   2.707   3.771
 7234SOL    HW222602   5.385   2.767   3.626
 7235SOL     OW22603   5.709   2.914   4.606
 7235SOL    HW122604   5.804   2.907   4.638
 7235SOL    HW222605   5.669   2.823   4.602
 7236SOL     OW22606   0.525   1.720   3.609
 7236SOL    HW122607   0.469   1.793   3.651
 7236SOL    HW222608   0.492   1.702   3.517
 7237SOL     OW22609   6.268   5.039   5.729
 7237SOL    HW122610   6.358   5.002   5.706
 7237SOL    HW222611   6.198   4.994   5.674
 7238SOL     OW22612   1.390   0.213   2.474
 7238SOL    HW122613   1.348   0.123   2.491
 7238SOL    HW222614   1.369   0.274   2.551
 7239SOL     OW22615   4.653   1.574   2.103
 7239SOL    HW122616   4.665   1.634   2.025
 7239SOL    HW222617   4.724   1.593   2.171
 7240SOL     OW22618   3.002   3.320   3.351
 7240SOL    HW122619   2.910   3.316   3.389
 7240SOL    HW222620   3.049   3.233   3.367
 7241SOL     OW22621   5.077   0.361   4.924
 7241SOL    HW122622   5.030   0.448   4.933
 7241SOL    HW222623   5.171   0.370   4.957
 7242SOL     OW22624   6.139   5.720   0.762
 7242SOL    HW122625   6.126   5.659   0.684
 7242SOL    HW222626   6.178   5.807   0.731
 7243SOL     OW22627   0.299   6.067   1.270
 7243SOL    HW122628   0.377   6.124   1.243
 7243SOL    HW222629   0.329   5.998   1.335
 7244SOL     OW22630   4.560   1.926   1.660
 7244SOL    HW122631   4.621   1.941   1.738
 7244SOL    HW222632   4.465   1.931   1.691
 7245SOL     OW22633   5.664   2.188   3.601
 7245SOL    HW122634   5.691   2.275   3.560
 7245SOL    HW222635   5.644   2.121   3.529
 7246SOL     OW22636   0.924   5.721   5.634
 7246SOL    HW122637   0.995   5.789   5.652
 7246SOL    HW222638   0.898   5.723   5.538
 7247SOL     OW22639   4.601   5.300   3.540
 7247SOL    HW122640   4.508   5.299   3.576
 7247SOL    HW222641   4.652   5.377   3.578
 7248SOL     OW22642   3.389   0.776   5.254
 7248SOL    HW122643   3.452   0.808   5.325
 7248SOL    HW222644   3.347   0.855   5.209
 7249SOL     OW22645   5.406   2.443   6.510
 7249SOL    HW122646   5.383   2.538   6.532
 7249SOL    HW222647   5.335   2.382   6.545
 7250SOL     OW22648   3.499   3.350   0.325
 7250SOL    HW122649   3.430   3.367   0.395
 7250SOL    HW222650   3.490   3.256   0.292
 7251SOL     OW22651   6.181   1.555   5.687
 7251SOL    HW122652   6.199   1.513   5.598
 7251SOL    HW222653   6.083   1.550   5.707
 7252SOL     OW22654   4.626   3.392   5.460
 7252SOL    HW122655   4.702   3.449   5.427
 7252SOL    HW222656   4.544   3.411   5.406
 7253SOL     OW22657   5.123   5.018   0.414
 7253SOL    HW122658   5.047   4.969   0.371
 7253SOL    HW222659   5.206   4.963   0.407
 7254SOL     OW22660   4.934   6.020   5.422
 7254SOL    HW122661   4.995   6.080   5.370
 7254SOL    HW222662   4.989   5.956   5.477
 7255SOL     OW22663   3.360   3.645   4.062
 7255SOL    HW122664   3.409   3.586   4.126
 7255SOL    HW222665   3.283   3.595   4.023
 7256SOL     OW22666   3.746   5.954   3.921
 7256SOL    HW122667   3.685   5.878   3.896
 7256SOL    HW222668   3.696   6.040   3.911
 7257SOL     OW22669   6.284   5.347   2.324
 7257SOL    HW122670   6.330   5.380   2.242
 7257SOL    HW222671   6.249   5.425   2.377
 7258SOL     OW22672   2.619   0.667   5.714
 7258SOL    HW122673   2.564   0.749   5.725
 7258SOL    HW222674   2.669   0.671   5.628
 7259SOL     OW22675   3.847   4.083   6.014
 7259SOL    HW122676   3.817   4.109   5.922
 7259SOL    HW222677   3.772   4.039   6.063
 7260SOL     OW22678   4.466   2.132   2.882
 7260SOL    HW122679   4.546   2.165   2.832
 7260SOL    HW222680   4.401   2.206   2.894
 7261SOL     OW22681   2.683   4.968   1.323
 7261SOL    HW122682   2.724   5.056   1.299
 7261SOL    HW222683   2.608   4.984   1.388
 7262SOL     OW22684   6.051   0.656   4.336
 7262SOL    HW122685   6.056   0.564   4.297
 7262SOL    HW222686   6.124   0.668   4.403
 7263SOL     OW22687   4.895   4.499   1.054
 7263SOL    HW122688   4.880   4.528   1.148
 7263SOL    HW222689   4.819   4.531   0.997
 7264SOL     OW22690   6.538   6.734   5.056
 7264SOL    HW122691   6.634   6.742   5.031
 7264SOL    HW222692   6.531   6.698   5.149
 7265SOL     OW22693   4.680   3.033   6.438
 7265SOL    HW122694   4.659   3.016   6.534
 7265SOL    HW222695   4.753   2.973   6.408
 7266SOL     OW22696   4.136   1.376   2.670
 7266SOL    HW122697   4.059   1.319   2.695
 7266SOL    HW222698   4.215   1.318   2.646
 7267SOL     OW22699   4.535   2.491   4.208
 7267SOL    HW122700   4.487   2.460   4.291
 7267SOL    HW222701   4.563   2.586   4.219
 7268SOL     OW22702   4.014   6.422   6.350
 7268SOL    HW122703   4.001   6.348   6.416
 7268SOL    HW222704   4.078   6.489   6.387
 7269SOL     OW22705   1.357   0.173   3.956
 7269SOL    HW122706   1.411   0.110   3.902
 7269SOL    HW222707   1.302   0.122   4.022
 7270SOL     OW22708   3.880   2.709   1.691
 7270SOL    HW122709   3.788   2.691   1.723
 7270SOL    HW222710   3.919   2.785   1.743
 7271SOL     OW22711   4.472   6.178   3.481
 7271SOL    HW122712   4.469   6.252   3.548
 7271SOL    HW222713   4.461   6.090   3.529
 7272SOL     OW22714   5.342   1.145   1.723
 7272SOL    HW122715   5.290   1.224   1.757
 7272SOL    HW222716   5.341   1.146   1.623
 7273SOL     OW22717   6.033   4.554   4.258
 7273SOL    HW122718   5.995   4.598   4.177
 7273SOL    HW222719   6.005   4.606   4.339
 7274SOL     OW22720   5.644   4.835   3.701
 7274SOL    HW122721   5.678   4.867   3.612
 7274SOL    HW222722   5.596   4.748   3.689
 7275SOL     OW22723   6.132   0.281   2.199
 7275SOL    HW122724   6.196   0.287   2.122
 7275SOL    HW222725   6.047   0.329   2.175
 7276SOL     OW22726   4.156   1.469   2.968
 7276SOL    HW122727   4.074   1.464   3.026
 7276SOL    HW222728   4.157   1.392   2.904
 7277SOL     OW22729   6.808   2.564   3.861
 7277SOL    HW122730   6.781   2.478   3.818
 7277SOL    HW222731   6.874   2.546   3.934
 7278SOL     OW22732   3.855   1.386   2.978
 7278SOL    HW122733   3.757   1.394   2.995
 7278SOL    HW222734   3.873   1.405   2.881
 7279SOL     OW22735   3.346   3.569   2.253
 7279SOL    HW122736   3.298   3.542   2.170
 7279SOL    HW222737   3.399   3.492   2.288
 7280SOL     OW22738   6.313   1.386   5.844
 7280SOL    HW122739   6.369   1.346   5.772
 7280SOL    HW222740   6.251   1.454   5.804
 7281SOL     OW22741   3.288   6.970   3.932
 7281SOL    HW122742   3.324   6.974   3.839
 7281SOL    HW222743   3.296   6.877   3.968
 7282SOL     OW22744   1.058   4.015   1.278
 7282SOL    HW122745   1.025   4.109   1.275
 7282SOL    HW222746   0.984   3.955   1.308
 7283SOL     OW22747   2.671   5.793   2.888
 7283SOL    HW122748   2.736   5.740   2.834
 7283SOL    HW222749   2.600   5.830   2.828
 7284SOL     OW22750   0.304   1.034   4.106
 7284SOL    HW122751   0.335   1.031   4.011
 7284SOL    HW222752   0.204   1.044   4.108
 7285SOL     OW22753   4.740   2.141   2.489
 7285SOL    HW122754   4.663   2.126   2.428
 7285SOL    HW222755   4.801   2.210   2.450
 7286SOL     OW22756   6.364   1.530   5.098
 7286SOL    HW122757   6.394   1.473   5.022
 7286SOL    HW222758   6.439   1.540   5.163
 7287SOL     OW22759   3.563   1.329   4.606
 7287SOL    HW122760   3.649   1.381   4.605
 7287SOL    HW222761   3.486   1.391   4.621
 7288SOL     OW22762   3.040   2.272   0.756
 7288SOL    HW122763   3.129   2.304   0.788
 7288SOL    HW222764   3.014   2.324   0.674
 7289SOL     OW22765   0.169   2.342   0.417
 7289SOL    HW122766   0.220   2.420   0.381
 7289SOL    HW222767   0.109   2.306   0.345
 7290SOL     OW22768   3.144   2.198   4.796
 7290SOL    HW122769   3.228   2.148   4.814
 7290SOL    HW222770   3.137   2.276   4.859
 7291SOL     OW22771   0.880   0.875   7.020
 7291SOL    HW122772   0.884   0.858   0.091
 7291SOL    HW222773   0.873   0.788   6.972
 7292SOL     OW22774   3.053   1.047   2.049
 7292SOL    HW122775   2.983   1.027   1.981
 7292SOL    HW222776   3.011   1.049   2.140
 7293SOL     OW22777   5.703   1.485   3.998
 7293SOL    HW122778   5.635   1.488   3.925
 7293SOL    HW222779   5.657   1.481   4.087
 7294SOL     OW22780   1.907   1.144   2.264
 7294SOL    HW122781   1.989   1.122   2.210
 7294SOL    HW222782   1.860   1.221   2.223
 7295SOL     OW22783   5.478   4.495   1.499
 7295SOL    HW122784   5.404   4.555   1.529
 7295SOL    HW222785   5.561   4.550   1.485
 7296SOL     OW22786   3.373   6.965   3.083
 7296SOL    HW122787   3.305   6.939   3.015
 7296SOL    HW222788   3.355   6.916   3.169
 7297SOL     OW22789   4.982   0.292   6.464
 7297SOL    HW122790   4.912   0.326   6.526
 7297SOL    HW222791   4.983   0.192   6.467
 7298SOL     OW22792   3.942   4.071   0.400
 7298SOL    HW122793   3.956   4.165   0.369
 7298SOL    HW222794   3.867   4.068   0.466
 7299SOL     OW22795   0.038   3.025   0.316
 7299SOL    HW122796   6.999   2.990   0.382
 7299SOL    HW222797   0.071   2.950   0.259
 7300SOL     OW22798   0.764   3.728   2.637
 7300SOL    HW122799   0.755   3.762   2.731
 7300SOL    HW222800   0.684   3.672   2.614
 7301SOL     OW22801   4.101   1.968   0.764
 7301SOL    HW122802   4.086   1.999   0.858
 7301SOL    HW222803   4.017   1.977   0.711
 7302SOL     OW22804   5.540   1.787   6.757
 7302SOL    HW122805   5.631   1.809   6.791
 7302SOL    HW222806   5.547   1.732   6.674
 7303SOL     OW22807   3.616   2.357   0.613
 7303SOL    HW122808   3.602   2.302   0.695
 7303SOL    HW222809   3.548   2.431   0.609
 7304SOL     OW22810   2.940   6.789   0.363
 7304SOL    HW122811   2.985   6.824   0.445
 7304SOL    HW222812   2.844   6.769   0.384
 7305SOL     OW22813   6.830   6.716   6.235
 7305SOL    HW122814   6.895   6.791   6.244
 7305SOL    HW222815   6.865   6.649   6.170
 7306SOL     OW22816   2.145   3.327   0.514
 7306SOL    HW122817   2.074   3.321   0.584
 7306SOL    HW222818   2.105   3.360   0.429
 7307SOL     OW22819   4.475   6.853   0.733
 7307SOL    HW122820   4.571   6.839   0.712
 7307SOL    HW222821   4.458   6.831   0.829
 7308SOL     OW22822   3.809   1.756   2.907
 7308SOL    HW122823   3.766   1.713   2.828
 7308SOL    HW222824   3.906   1.767   2.891
 7309SOL     OW22825   2.105   5.421   2.964
 7309SOL    HW122826   2.094   5.450   3.059
 7309SOL    HW222827   2.190   5.461   2.927
 7310SOL     OW22828   4.871   3.303   0.111
 7310SOL    HW122829   4.777   3.333   0.092
 7310SOL    HW222830   4.936   3.367   0.071
 7311SOL     OW22831   1.299   6.639   5.722
 7311SOL    HW122832   1.349   6.719   5.688
 7311SOL    HW222833   1.346   6.556   5.693
 7312SOL     OW22834   5.114   1.936   4.781
 7312SOL    HW122835   5.173   1.893   4.713
 7312SOL    HW222836   5.143   1.909   4.873
 7313SOL     OW22837   3.595   1.122   2.769
 7313SOL    HW122838   3.659   1.067   2.825
 7313SOL    HW222839   3.583   1.078   2.680
 7314SOL     OW22840   3.026   5.412   4.791
 7314SOL    HW122841   2.955   5.368   4.736
 7314SOL    HW222842   3.097   5.346   4.815
 7315SOL     OW22843   2.572   4.738   2.332
 7315SOL    HW122844   2.585   4.804   2.259
 7315SOL    HW222845   2.633   4.760   2.409
 7316SOL     OW22846   2.964   1.041   2.305
 7316SOL    HW122847   3.050   1.070   2.348
 7316SOL    HW222848   2.887   1.078   2.357
 7317SOL     OW22849   5.049   1.544   0.820
 7317SOL    HW122850   4.994   1.620   0.785
 7317SOL    HW222851   5.122   1.579   0.878
 7318SOL     OW22852   4.729   6.640   1.152
 7318SOL    HW122853   4.633   6.627   1.174
 7318SOL    HW222854   4.756   6.574   1.081
 7319SOL     OW22855   4.241   4.976   6.055
 7319SOL    HW122856   4.261   4.903   5.990
 7319SOL    HW222857   4.184   5.046   6.011
 7320SOL     OW22858   1.737   3.085   0.519
 7320SOL    HW122859   1.665   3.016   0.515
 7320SOL    HW222860   1.715   3.153   0.588
 7321SOL     OW22861   2.271   2.420   5.319
 7321SOL    HW122862   2.277   2.493   5.251
 7321SOL    HW222863   2.211   2.348   5.285
 7322SOL     OW22864   2.879   1.774   3.979
 7322SOL    HW122865   2.972   1.778   4.016
 7322SOL    HW222866   2.850   1.866   3.953
 7323SOL     OW22867   2.110   2.052   0.160
 7323SOL    HW122868   2.050   1.976   0.135
 7323SOL    HW222869   2.079   2.135   0.114
 7324SOL     OW22870   6.057   3.835   5.434
 7324SOL    HW122871   6.116   3.769   5.386
 7324SOL    HW222872   6.113   3.888   5.498
 7325SOL     OW22873   3.326   0.851   0.105
 7325SOL    HW122874   3.306   0.797   0.187
 7325SOL    HW222875   3.287   0.805   0.025
 7326SOL     OW22876   3.784   6.719   0.561
 7326SOL    HW122877   3.800   6.721   0.660
 7326SOL    HW222878   3.811   6.807   0.522
 7327SOL     OW22879   1.765   4.958   3.609
 7327SOL    HW122880   1.689   5.013   3.577
 7327SOL    HW222881   1.847   5.015   3.615
 7328SOL     OW22882   4.171   6.041   0.080
 7328SOL    HW122883   4.111   6.120   0.090
 7328SOL    HW222884   4.260   6.071   0.045
 7329SOL     OW22885   2.702   4.035   6.772
 7329SOL    HW122886   2.751   3.951   6.749
 7329SOL    HW222887   2.610   4.012   6.805
 7330SOL     OW22888   2.835   3.380   1.777
 7330SOL    HW122889   2.738   3.386   1.800
 7330SOL    HW222890   2.868   3.470   1.747
 7331SOL     OW22891   5.288   1.917   2.685
 7331SOL    HW122892   5.324   2.009   2.701
 7331SOL    HW222893   5.193   1.923   2.657
 7332SOL     OW22894   1.552   0.102   4.879
 7332SOL    HW122895   1.514   0.125   4.968
 7332SOL    HW222896   1.580   0.186   4.832
 7333SOL     OW22897   6.339   1.409   1.545
 7333SOL    HW122898   6.427   1.454   1.531
 7333SOL    HW222899   6.278   1.471   1.596
 7334SOL     OW22900   0.599   4.764   5.143
 7334SOL    HW122901   0.694   4.748   5.166
 7334SOL    HW222902   0.593   4.806   5.052
 7335SOL     OW22903   6.806   2.741   0.808
 7335SOL    HW122904   6.902   2.716   0.796
 7335SOL    HW222905   6.756   2.664   0.847
 7336SOL     OW22906   2.229   0.125   1.145
 7336SOL    HW122907   2.213   0.164   1.054
 7336SOL    HW222908   2.170   0.045   1.158
 7337SOL     OW22909   2.842   1.908   1.914
 7337SOL    HW122910   2.832   2.004   1.889
 7337SOL    HW222911   2.809   1.894   2.008
 7338SOL     OW22912   5.192   2.175   6.936
 7338SOL    HW122913   5.245   2.259   6.929
 7338SOL    HW222914   5.133   2.179   7.017
 7339SOL     OW22915   6.769   6.598   3.665
 7339SOL    HW122916   6.790   6.646   3.580
 7339SOL    HW222917   6.813   6.508   3.664
 7340SOL     OW22918   2.676   0.002   0.388
 7340SOL    HW122919   2.661   6.936   0.420
 7340SOL    HW222920   2.626   0.016   0.303
 7341SOL     OW22921   5.552   5.573   3.098
 7341SOL    HW122922   5.548   5.646   3.029
 7341SOL    HW222923   5.609   5.604   3.174
 7342SOL     OW22924   6.755   4.708   6.873
 7342SOL    HW122925   6.702   4.726   6.956
 7342SOL    HW222926   6.714   4.759   6.797
 7343SOL     OW22927   0.249   1.691   3.488
 7343SOL    HW122928   0.310   1.733   3.421
 7343SOL    HW222929   0.181   1.758   3.518
 7344SOL     OW22930   1.506   1.465   5.725
 7344SOL    HW122931   1.422   1.480   5.671
 7344SOL    HW222932   1.543   1.375   5.703
 7345SOL     OW22933   1.818   6.799   6.903
 7345SOL    HW122934   1.840   6.809   6.806
 7345SOL    HW222935   1.731   6.752   6.913
 7346SOL     OW22936   3.143   5.458   3.346
 7346SOL    HW122937   3.226   5.447   3.399
 7346SOL    HW222938   3.132   5.555   3.322
 7347SOL     OW22939   6.155   2.973   3.505
 7347SOL    HW122940   6.127   3.001   3.597
 7347SOL    HW222941   6.080   2.992   3.441
 7348SOL     OW22942   5.486   0.016   6.302
 7348SOL    HW122943   5.498   0.085   6.372
 7348SOL    HW222944   5.461   0.060   6.215
 7349SOL     OW22945   3.486   1.895   0.979
 7349SOL    HW122946   3.402   1.950   0.984
 7349SOL    HW222947   3.565   1.954   0.996
 7350SOL     OW22948   1.477   1.379   2.229
 7350SOL    HW122949   1.500   1.372   2.327
 7350SOL    HW222950   1.402   1.444   2.217
 7351SOL     OW22951   6.233   4.916   0.367
 7351SOL    HW122952   6.296   4.993   0.374
 7351SOL    HW222953   6.282   4.836   0.333
 7352SOL     OW22954   6.281   1.837   2.761
 7352SOL    HW122955   6.277   1.742   2.733
 7352SOL    HW222956   6.365   1.853   2.814
 7353SOL     OW22957   5.353   1.721   4.228
 7353SOL    HW122958   5.386   1.781   4.155
 7353SOL    HW222959   5.420   1.720   4.303
 7354SOL     OW22960   6.001   4.496   5.296
 7354SOL    HW122961   5.943   4.415   5.293
 7354SOL    HW222962   5.944   4.578   5.295
 7355SOL     OW22963   0.062   5.500   0.553
 7355SOL    HW122964   0.089   5.429   0.618
 7355SOL    HW222965   0.141   5.527   0.498
 7356SOL     OW22966   6.972   2.226   6.311
 7356SOL    HW122967   6.951   2.183   6.398
 7356SOL    HW222968   0.041   2.250   6.308
 7357SOL     OW22969   1.366   1.117   1.289
 7357SOL    HW122970   1.288   1.151   1.341
 7357SOL    HW222971   1.436   1.083   1.352
 7358SOL     OW22972   3.655   1.302   3.871
 7358SOL    HW122973   3.742   1.345   3.896
 7358SOL    HW222974   3.627   1.240   3.944
 7359SOL     OW22975   3.146   4.112   4.516
 7359SOL    HW122976   3.166   4.112   4.418
 7359SOL    HW222977   3.126   4.018   4.546
 7360SOL     OW22978   1.979   5.135   6.021
 7360SOL    HW122979   1.880   5.144   6.008
 7360SOL    HW222980   1.998   5.119   6.118
 7361SOL     OW22981   4.786   6.896   1.215
 7361SOL    HW122982   4.761   6.804   1.184
 7361SOL    HW222983   4.800   6.894   1.314
 7362SOL     OW22984   1.791   4.728   0.776
 7362SOL    HW122985   1.781   4.808   0.836
 7362SOL    HW222986   1.887   4.714   0.755
 7363SOL     OW22987   5.041   2.428   6.208
 7363SOL    HW122988   4.994   2.368   6.273
 7363SOL    HW222989   4.974   2.483   6.158
 7364SOL     OW22990   4.608   6.086   0.168
 7364SOL    HW122991   4.619   5.987   0.155
 7364SOL    HW222992   4.694   6.131   0.146
 7365SOL     OW22993   5.519   0.063   1.942
 7365SOL    HW122994   5.472   0.124   1.878
 7365SOL    HW222995   5.456   7.020   1.972
 7366SOL     OW22996   3.220   6.625   0.386
 7366SOL    HW122997   3.137   6.677   0.365
 7366SOL    HW222998   3.216   6.594   0.481
 7367SOL     OW22999   4.820   3.512   6.461
 7367SOL    HW123000   4.757   3.448   6.419
 7367SOL    HW223001   4.908   3.466   6.478
 7368SOL     OW23002   3.483   3.083   5.416
 7368SOL    HW123003   3.431   3.035   5.487
 7368SOL    HW223004   3.463   3.043   5.327
 7369SOL     OW23005   0.356   6.496   6.417
 7369SOL    HW123006   0.308   6.422   6.464
 7369SOL    HW223007   0.307   6.582   6.432
 7370SOL     OW23008   0.011   5.777   1.319
 7370SOL    HW123009   0.073   5.855   1.307
 7370SOL    HW223010   6.944   5.808   1.311
 7371SOL     OW23011   1.948   5.196   3.310
 7371SOL    HW123012   2.028   5.255   3.313
 7371SOL    HW223013   1.958   5.123   3.378
 7372SOL     OW23014   1.956   6.711   4.963
 7372SOL    HW123015   1.950   6.706   5.063
 7372SOL    HW223016   1.936   6.621   4.924
 7373SOL     OW23017   4.360   1.352   0.651
 7373SOL    HW123018   4.427   1.296   0.701
 7373SOL    HW223019   4.394   1.445   0.642
 7374SOL     OW23020   2.505   3.845   0.799
 7374SOL    HW123021   2.420   3.793   0.813
 7374SOL    HW223022   2.574   3.785   0.758
 7375SOL     OW23023   2.357   5.272   2.013
 7375SOL    HW123024   2.330   5.222   1.930
 7375SOL    HW223025   2.443   5.235   2.047
 7376SOL     OW23026   3.065   4.881   0.362
 7376SOL    HW123027   3.107   4.884   0.452
 7376SOL    HW223028   3.115   4.941   0.300
 7377SOL     OW23029   4.877   6.208   1.347
 7377SOL    HW123030   4.938   6.223   1.425
 7377SOL    HW223031   4.783   6.197   1.379
 7378SOL     OW23032   0.787   1.178   6.262
 7378SOL    HW123033   0.743   1.204   6.349
 7378SOL    HW223034   0.729   1.112   6.214
 7379SOL     OW23035   4.623   0.890   7.014
 7379SOL    HW123036   4.681   0.817   6.979
 7379SOL    HW223037   4.535   0.889   6.968
 7380SOL     OW23038   0.571   3.420   6.553
 7380SOL    HW123039   0.597   3.328   6.526
 7380SOL    HW223040   0.556   3.424   6.652
 7381SOL     OW23041   5.815   2.676   0.507
 7381SOL    HW123042   5.721   2.654   0.484
 7381SOL    HW223043   5.871   2.678   0.424
 7382SOL     OW23044   0.684   5.776   4.057
 7382SOL    HW123045   0.661   5.762   3.961
 7382SOL    HW223046   0.745   5.703   4.087
 7383SOL     OW23047   1.560   4.929   1.717
 7383SOL    HW123048   1.565   4.972   1.627
 7383SOL    HW223049   1.541   4.831   1.706
 7384SOL     OW23050   5.897   0.678   1.821
 7384SOL    HW123051   5.987   0.665   1.780
 7384SOL    HW223052   5.879   0.776   1.833
 7385SOL     OW23053   5.135   0.030   1.888
 7385SOL    HW123054   5.142   0.128   1.906
 7385SOL    HW223055   5.213   7.011   1.929
 7386SOL     OW23056   5.808   1.539   5.123
 7386SOL    HW123057   5.838   1.450   5.087
 7386SOL    HW223058   5.751   1.524   5.204
 7387SOL     OW23059   5.200   5.779   4.475
 7387SOL    HW123060   5.236   5.703   4.529
 7387SOL    HW223061   5.163   5.744   4.389
 7388SOL     OW23062   4.823   3.888   3.843
 7388SOL    HW123063   4.833   3.814   3.777
 7388SOL    HW223064   4.892   3.878   3.915
 7389SOL     OW23065   2.311   3.647   6.057
 7389SOL    HW123066   2.263   3.606   5.979
 7389SOL    HW223067   2.249   3.651   6.136
 7390SOL     OW23068   3.953   5.932   0.806
 7390SOL    HW123069   4.026   5.980   0.759
 7390SOL    HW223070   3.882   5.905   0.740
 7391SOL     OW23071   0.078   4.767   1.028
 7391SOL    HW123072   0.068   4.756   1.126
 7391SOL    HW223073   0.100   4.863   1.007
 7392SOL     OW23074   1.585   4.664   1.644
 7392SOL    HW123075   1.621   4.654   1.551
 7392SOL    HW223076   1.517   4.592   1.661
 7393SOL     OW23077   1.748   3.397   0.427
 7393SOL    HW123078   1.710   3.457   0.497
 7393SOL    HW223079   1.809   3.330   0.468
 7394SOL     OW23080   3.084   4.453   6.988
 7394SOL    HW123081   3.025   4.380   7.022
 7394SOL    HW223082   3.144   4.417   6.917
 7395SOL     OW23083   2.585   6.777   1.004
 7395SOL    HW123084   2.656   6.770   1.074
 7395SOL    HW223085   2.495   6.782   1.048
 7396SOL     OW23086   6.380   0.182   2.416
 7396SOL    HW123087   6.289   0.204   2.454
 7396SOL    HW223088   6.436   0.141   2.488
 7397SOL     OW23089   6.064   4.129   3.771
 7397SOL    HW123090   6.010   4.211   3.752
 7397SOL    HW223091   6.004   4.049   3.774
 7398SOL     OW23092   4.239   4.962   3.293
 7398SOL    HW123093   4.230   5.016   3.377
 7398SOL    HW223094   4.336   4.950   3.271
 7399SOL     OW23095   4.594   6.677   3.929
 7399SOL    HW123096   4.667   6.670   3.997
 7399SOL    HW223097   4.630   6.718   3.845
 7400SOL     OW23098   2.101   4.842   6.679
 7400SOL    HW123099   2.188   4.886   6.660
 7400SOL    HW223100   2.066   4.799   6.595
 7401SOL     OW23101   6.732   3.107   4.024
 7401SOL    HW123102   6.688   3.193   4.049
 7401SOL    HW223103   6.727   3.094   3.925
 7402SOL     OW23104   1.896   6.093   5.215
 7402SOL    HW123105   1.925   6.029   5.286
 7402SOL    HW223106   1.973   6.114   5.155
 7403SOL     OW23107   1.997   3.062   1.791
 7403SOL    HW123108   2.028   3.153   1.764
 7403SOL    HW223109   2.061   2.993   1.756
 7404SOL     OW23110   1.192   2.487   2.813
 7404SOL    HW123111   1.284   2.453   2.831
 7404SOL    HW223112   1.197   2.583   2.783
 7405SOL     OW23113   3.646   5.662   5.618
 7405SOL    HW123114   3.583   5.686   5.693
 7405SOL    HW223115   3.593   5.632   5.539
 7406SOL     OW23116   5.832   5.686   2.834
 7406SOL    HW123117   5.737   5.683   2.804
 7406SOL    HW223118   5.855   5.602   2.883
 7407SOL     OW23119   4.430   1.499   5.758
 7407SOL    HW123120   4.492   1.577   5.758
 7407SOL    HW223121   4.481   1.415   5.740
 7408SOL     OW23122   0.783   3.421   5.100
 7408SOL    HW123123   0.690   3.407   5.067
 7408SOL    HW223124   0.824   3.498   5.050
 7409SOL     OW23125   2.032   0.053   4.300
 7409SOL    HW123126   1.948   0.084   4.256
 7409SOL    HW223127   2.068   7.003   4.250
 7410SOL     OW23128   3.943   5.130   5.781
 7410SOL    HW123129   3.931   5.053   5.844
 7410SOL    HW223130   4.040   5.151   5.772
 7411SOL     OW23131   5.923   3.320   5.435
 7411SOL    HW123132   5.958   3.237   5.477
 7411SOL    HW223133   5.949   3.323   5.338
 7412SOL     OW23134   0.829   0.927   0.813
 7412SOL    HW123135   0.843   0.997   0.882
 7412SOL    HW223136   0.885   0.847   0.834
 7413SOL     OW23137   6.667   3.750   3.532
 7413SOL    HW123138   6.586   3.741   3.591
 7413SOL    HW223139   6.716   3.833   3.557
 7414SOL     OW23140   0.508   5.138   2.350
 7414SOL    HW123141   0.497   5.045   2.315
 7414SOL    HW223142   0.589   5.142   2.408
 7415SOL     OW23143   2.884   1.486   3.407
 7415SOL    HW123144   2.785   1.495   3.419
 7415SOL    HW223145   2.930   1.565   3.449
 7416SOL     OW23146   6.610   0.585   1.761
 7416SOL    HW123147   6.670   0.509   1.789
 7416SOL    HW223148   6.518   0.550   1.745
 7417SOL     OW23149   0.633   5.390   1.608
 7417SOL    HW123150   0.666   5.474   1.651
 7417SOL    HW223151   0.648   5.396   1.509
 7418SOL     OW23152   2.006   2.939   0.638
 7418SOL    HW123153   1.962   2.998   0.705
 7418SOL    HW223154   1.958   2.947   0.550
 7419SOL     OW23155   6.071   2.194   5.838
 7419SOL    HW123156   6.096   2.233   5.750
 7419SOL    HW223157   6.062   2.267   5.906
 7420SOL     OW23158   1.171   6.608   2.087
 7420SOL    HW123159   1.096   6.554   2.125
 7420SOL    HW223160   1.219   6.656   2.160
 7421SOL     OW23161   4.830   1.920   1.367
 7421SOL    HW123162   4.824   1.823   1.388
 7421SOL    HW223163   4.739   1.956   1.348
 7422SOL     OW23164   0.926   2.141   0.461
 7422SOL    HW123165   0.889   2.079   0.530
 7422SOL    HW223166   1.025   2.129   0.456
 7423SOL     OW23167   2.918   4.062   0.901
 7423SOL    HW123168   2.992   3.998   0.921
 7423SOL    HW223169   2.832   4.025   0.935
 7424SOL     OW23170   5.409   6.618   3.716
 7424SOL    HW123171   5.381   6.623   3.620
 7424SOL    HW223172   5.508   6.604   3.720
 7425SOL     OW23173   4.496   0.012   4.698
 7425SOL    HW123174   4.530   0.104   4.715
 7425SOL    HW223175   4.413   7.024   4.752
 7426SOL     OW23176   6.977   6.996   6.299
 7426SOL    HW123177   0.043   0.002   6.296
 7426SOL    HW223178   6.924   0.024   6.363
 7427SOL     OW23179   5.298   4.670   6.059
 7427SOL    HW123180   5.362   4.596   6.038
 7427SOL    HW223181   5.204   4.637   6.048
 7428SOL     OW23182   5.500   1.943   4.936
 7428SOL    HW123183   5.485   1.863   4.993
 7428SOL    HW223184   5.465   2.024   4.983
 7429SOL     OW23185   5.642   6.426   3.031
 7429SOL    HW123186   5.688   6.368   3.098
 7429SOL    HW223187   5.546   6.398   3.023
 7430SOL     OW23188   0.710   4.470   4.442
 7430SOL    HW123189   0.734   4.473   4.538
 7430SOL    HW223190   0.791   4.492   4.386
 7431SOL     OW23191   0.181   3.967   3.445
 7431SOL    HW123192   0.124   3.885   3.441
 7431SOL    HW223193   0.264   3.954   3.391
 7432SOL     OW23194   2.064   6.380   5.902
 7432SOL    HW123195   1.984   6.416   5.949
 7432SOL    HW223196   2.062   6.407   5.806
 7433SOL     OW23197   1.133   6.608   1.289
 7433SOL    HW123198   1.056   6.670   1.269
 7433SOL    HW223199   1.207   6.626   1.225
 7434SOL     OW23200   4.765   7.016   0.142
 7434SOL    HW123201   4.856   0.028   0.157
 7434SOL    HW223202   4.773   6.916   0.140
 7435SOL     OW23203   0.970   3.999   6.981
 7435SOL    HW123204   0.906   4.061   7.028
 7435SOL    HW223205   0.951   4.001   6.883
 7436SOL     OW23206   5.022   3.324   6.477
 7436SOL    HW123207   5.117   3.345   6.497
 7436SOL    HW223208   4.992   3.245   6.530
 7437SOL     OW23209   6.967   6.333   5.413
 7437SOL    HW123210   0.008   6.283   5.361
 7437SOL    HW223211   7.012   6.394   5.478
 7438SOL     OW23212   6.436   4.071   0.983
 7438SOL    HW123213   6.390   4.106   0.901
 7438SOL    HW223214   6.532   4.055   0.963
 7439SOL     OW23215   1.605   6.636   2.774
 7439SOL    HW123216   1.659   6.559   2.807
 7439SOL    HW223217   1.531   6.603   2.716
 7440SOL     OW23218   1.540   0.586   4.514
 7440SOL    HW123219   1.606   0.659   4.528
 7440SOL    HW223220   1.450   0.616   4.544
 7441SOL     OW23221   6.662   1.811   3.261
 7441SOL    HW123222   6.731   1.841   3.328
 7441SOL    HW223223   6.708   1.780   3.178
 7442SOL     OW23224   1.587   0.916   0.468
 7442SOL    HW123225   1.496   0.875   0.461
 7442SOL    HW223226   1.583   0.996   0.529
 7443SOL     OW23227   5.903   0.900   1.099
 7443SOL    HW123228   5.852   0.880   1.183
 7443SOL    HW223229   5.919   0.999   1.092
 7444SOL     OW23230   2.402   2.313   4.599
 7444SOL    HW123231   2.326   2.265   4.555
 7444SOL    HW223232   2.430   2.391   4.543
 7445SOL     OW23233   6.270   2.552   2.458
 7445SOL    HW123234   6.321   2.500   2.527
 7445SOL    HW223235   6.218   2.625   2.504
 7446SOL     OW23236   4.403   4.578   2.535
 7446SOL    HW123237   4.400   4.505   2.466
 7446SOL    HW223238   4.498   4.607   2.548
 7447SOL     OW23239   1.678   2.900   6.309
 7447SOL    HW123240   1.763   2.950   6.293
 7447SOL    HW223241   1.685   2.808   6.271
 7448SOL     OW23242   6.931   0.926   5.506
 7448SOL    HW123243   6.904   0.852   5.567
 7448SOL    HW223244   6.853   0.987   5.491
 7449SOL     OW23245   3.142   1.260   2.861
 7449SOL    HW123246   3.139   1.201   2.941
 7449SOL    HW223247   3.098   1.347   2.881
 7450SOL     OW23248   3.756   2.059   1.784
 7450SOL    HW123249   3.722   2.119   1.857
 7450SOL    HW223250   3.789   2.114   1.708
 7451SOL     OW23251   0.916   0.643   1.794
 7451SOL    HW123252   0.829   0.606   1.762
 7451SOL    HW223253   0.991   0.595   1.749
 7452SOL     OW23254   2.048   5.692   2.891
 7452SOL    HW123255   2.119   5.750   2.932
 7452SOL    HW223256   2.041   5.607   2.943
 7453SOL     OW23257   6.506   4.317   4.608
 7453SOL    HW123258   6.570   4.254   4.653
 7453SOL    HW223259   6.412   4.292   4.633
 7454SOL     OW23260   2.951   1.975   0.333
 7454SOL    HW123261   2.857   1.939   0.332
 7454SOL    HW223262   2.953   2.057   0.391
 7455SOL     OW23263   5.393   6.827   0.261
 7455SOL    HW123264   5.441   6.859   0.179
 7455SOL    HW223265   5.319   6.765   0.235
 7456SOL     OW23266   1.416   2.486   6.749
 7456SOL    HW123267   1.437   2.542   6.829
 7456SOL    HW223268   1.322   2.503   6.720
 7457SOL     OW23269   0.422   6.397   5.036
 7457SOL    HW123270   0.324   6.410   5.049
 7457SOL    HW223271   0.451   6.314   5.084
 7458SOL     OW23272   3.496   0.547   1.890
 7458SOL    HW123273   3.578   0.520   1.841
 7458SOL    HW223274   3.426   0.577   1.824
 7459SOL     OW23275   3.963   4.917   3.743
 7459SOL    HW123276   4.054   4.876   3.746
 7459SOL    HW223277   3.972   5.017   3.752
 7460SOL     OW23278   1.386   5.070   6.058
 7460SOL    HW123279   1.301   5.090   6.010
 7460SOL    HW223280   1.443   5.010   6.002
 7461SOL     OW23281   3.373   1.789   3.587
 7461SOL    HW123282   3.452   1.779   3.526
 7461SOL    HW223283   3.363   1.707   3.643
 7462SOL     OW23284   1.297   2.419   3.884
 7462SOL    HW123285   1.262   2.337   3.839
 7462SOL    HW223286   1.224   2.460   3.939
 7463SOL     OW23287   3.694   3.685   2.575
 7463SOL    HW123288   3.737   3.701   2.486
 7463SOL    HW223289   3.755   3.719   2.647
 7464SOL     OW23290   4.541   5.623   0.668
 7464SOL    HW123291   4.446   5.653   0.679
 7464SOL    HW223292   4.544   5.523   0.669
 7465SOL     OW23293   2.980   1.087   2.675
 7465SOL    HW123294   3.044   1.155   2.712
 7465SOL    HW223295   3.030   1.018   2.623
 7466SOL     OW23296   0.093   6.258   1.039
 7466SOL    HW123297   0.040   6.174   1.034
 7466SOL    HW223298   0.034   6.337   1.019
 7467SOL     OW23299   3.865   2.456   0.577
 7467SOL    HW123300   3.891   2.483   0.484
 7467SOL    HW223301   3.772   2.421   0.577
 7468SOL     OW23302   5.126   5.066   5.011
 7468SOL    HW123303   5.072   5.070   4.926
 7468SOL    HW223304   5.223   5.059   4.988
 7469SOL     OW23305   4.953   2.244   1.034
 7469SOL    HW123306   5.021   2.270   1.103
 7469SOL    HW223307   4.917   2.327   0.990
 7470SOL     OW23308   0.766   3.280   3.201
 7470SOL    HW123309   0.864   3.275   3.219
 7470SOL    HW223310   0.720   3.324   3.278
 7471SOL     OW23311   6.958   4.408   5.892
 7471SOL    HW123312   6.964   4.318   5.849
 7471SOL    HW223313   0.019   4.433   5.930
 7472SOL     OW23314   3.454   5.647   2.884
 7472SOL    HW123315   3.449   5.557   2.928
 7472SOL    HW223316   3.532   5.697   2.921
 7473SOL     OW23317   1.719   2.235   6.281
 7473SOL    HW123318   1.692   2.168   6.213
 7473SOL    HW223319   1.811   2.215   6.314
 7474SOL     OW23320   2.587   1.323   1.924
 7474SOL    HW123321   2.568   1.416   1.956
 7474SOL    HW223322   2.678   1.295   1.956
 7475SOL     OW23323   5.574   1.000   6.228
 7475SOL    HW123324   5.502   0.933   6.248
 7475SOL    HW223325   5.638   0.961   6.162
 7476SOL     OW23326   1.749   6.703   4.611
 7476SOL    HW123327   1.771   6.799   4.596
 7476SOL    HW223328   1.712   6.691   4.703
 7477SOL     OW23329   4.856   4.107   5.098
 7477SOL    HW123330   4.869   4.206   5.098
 7477SOL    HW223331   4.768   4.084   5.139
 7478SOL     OW23332   6.545   4.294   1.461
 7478SOL    HW123333   6.565   4.254   1.550
 7478SOL    HW223334   6.547   4.222   1.391
 7479SOL     OW23335   4.047   6.992   4.596
 7479SOL    HW123336   4.063   6.912   4.654
 7479SOL    HW223337   4.062   6.966   4.500
 7480SOL     OW23338   5.919   5.154   0.097
 7480SOL    HW123339   5.867   5.155   0.182
 7480SOL    HW223340   5.867   5.104   0.027
 7481SOL     OW23341   6.035   6.736   0.289
 7481SOL    HW123342   6.011   6.639   0.278
 7481SOL    HW223343   5.968   6.781   0.347
 7482SOL     OW23344   5.277   0.265   5.303
 7482SOL    HW123345   5.374   0.284   5.296
 7482SOL    HW223346   5.236   0.323   5.374
 7483SOL     OW23347   3.795   6.981   6.298
 7483SOL    HW123348   3.800   0.008   6.214
 7483SOL    HW223349   3.881   6.990   6.349
 7484SOL     OW23350   3.098   5.977   1.133
 7484SOL    HW123351   3.029   5.922   1.084
 7484SOL    HW223352   3.184   5.973   1.083
 7485SOL     OW23353   1.154   0.290   5.109
 7485SOL    HW123354   1.132   0.341   5.026
 7485SOL    HW223355   1.074   0.287   5.169
 7486SOL     OW23356   1.828   2.105   4.788
 7486SOL    HW123357   1.785   2.029   4.739
 7486SOL    HW223358   1.865   2.171   4.723
 7487SOL     OW23359   1.698   6.502   2.464
 7487SOL    HW123360   1.745   6.568   2.523
 7487SOL    HW223361   1.616   6.469   2.510
 7488SOL     OW23362   4.938   2.441   4.613
 7488SOL    HW123363   5.019   2.460   4.669
 7488SOL    HW223364   4.860   2.492   4.647
 7489SOL     OW23365   1.412   3.232   3.370
 7489SOL    HW123366   1.318   3.204   3.350
 7489SOL    HW223367   1.419   3.258   3.466
 7490SOL     OW23368   5.478   0.716   2.364
 7490SOL    HW123369   5.512   0.645   2.425
 7490SOL    HW223370   5.516   0.702   2.272
 7491SOL     OW23371   0.933   0.121   1.521
 7491SOL    HW123372   0.965   0.028   1.539
 7491SOL    HW223373   0.835   0.119   1.501
 7492SOL     OW23374   1.311   1.789   2.937
 7492SOL    HW123375   1.225   1.740   2.920
 7492SOL    HW223376   1.326   1.856   2.865
 7493SOL     OW23377   5.847   4.266   7.018
 7493SOL    HW123378   5.844   4.298   0.085
 7493SOL    HW223379   5.831   4.343   6.957
 7494SOL     OW23380   4.641   2.560   0.826
 7494SOL    HW123381   4.559   2.549   0.882
 7494SOL    HW223382   4.648   2.655   0.795
 7495SOL     OW23383   1.253   1.955   3.416
 7495SOL    HW123384   1.205   2.026   3.364
 7495SOL    HW223385   1.196   1.925   3.492
 7496SOL     OW23386   0.361   5.133   5.977
 7496SOL    HW123387   0.444   5.127   5.922
 7496SOL    HW223388   0.378   5.189   6.058
 7497SOL     OW23389   0.579   4.508   2.918
 7497SOL    HW123390   0.672   4.486   2.891
 7497SOL    HW223391   0.544   4.438   2.980
 7498SOL     OW23392   5.114   1.835   4.479
 7498SOL    HW123393   5.172   1.914   4.459
 7498SOL    HW223394   5.043   1.861   4.544
 7499SOL     OW23395   3.566   5.057   3.426
 7499SOL    HW123396   3.492   5.085   3.488
 7499SOL    HW223397   3.624   4.990   3.472
 7500SOL     OW23398   4.748   4.009   1.415
 7500SOL    HW123399   4.732   3.910   1.410
 7500SOL    HW223400   4.794   4.031   1.501
 7501SOL     OW23401   1.224   4.419   3.432
 7501SOL    HW123402   1.246   4.431   3.529
 7501SOL    HW223403   1.231   4.323   3.408
 7502SOL     OW23404   1.398   1.852   5.020
 7502SOL    HW123405   1.448   1.812   4.944
 7502SOL    HW223406   1.325   1.911   4.984
 7503SOL     OW23407   2.293   2.290   1.074
 7503SOL    HW123408   2.197   2.273   1.095
 7503SOL    HW223409   2.322   2.229   1.000
 7504SOL     OW23410   5.398   5.205   6.202
 7504SOL    HW123411   5.457   5.260   6.144
 7504SOL    HW223412   5.310   5.251   6.215
 7505SOL     OW23413   1.165   1.846   3.157
 7505SOL    HW123414   1.218   1.824   3.240
 7505SOL    HW223415   1.225   1.838   3.077
 7506SOL     OW23416   3.524   0.482   3.116
 7506SOL    HW123417   3.525   0.423   3.197
 7506SOL    HW223418   3.537   0.426   3.034
 7507SOL     OW23419   2.104   6.114   5.075
 7507SOL    HW123420   2.179   6.131   5.138
 7507SOL    HW223421   2.137   6.120   4.981
 7508SOL     OW23422   4.717   6.134   3.268
 7508SOL    HW123423   4.695   6.225   3.234
 7508SOL    HW223424   4.647   6.105   3.334
 7509SOL     OW23425   2.246   4.408   6.804
 7509SOL    HW123426   2.263   4.361   6.891
 7509SOL    HW223427   2.326   4.464   6.781
 7510SOL     OW23428   3.712   3.042   4.117
 7510SOL    HW123429   3.672   2.977   4.053
 7510SOL    HW223430   3.781   3.097   4.071
 7511SOL     OW23431   1.519   0.969   1.834
 7511SOL    HW123432   1.433   0.961   1.885
 7511SOL    HW223433   1.534   0.886   1.781
 7512SOL     OW23434   1.499   3.189   2.413
 7512SOL    HW123435   1.491   3.090   2.423
 7512SOL    HW223436   1.501   3.212   2.315
 7513SOL     OW23437   2.166   3.027   7.000
 7513SOL    HW123438   2.105   2.969   6.946
 7513SOL    HW223439   2.164   2.999   0.067
 7514SOL     OW23440   2.925   5.071   3.162
 7514SOL    HW123441   2.950   4.984   3.205
 7514SOL    HW223442   2.860   5.053   3.088
 7515SOL     OW23443   6.408   5.187   3.668
 7515SOL    HW123444   6.452   5.276   3.676
 7515SOL    HW223445   6.309   5.198   3.681
 7516SOL     OW23446   1.809   3.250   1.154
 7516SOL    HW123447   1.845   3.203   1.074
 7516SOL    HW223448   1.715   3.219   1.172
 7517SOL     OW23449   1.216   5.983   2.160
 7517SOL    HW123450   1.242   6.014   2.251
 7517SOL    HW223451   1.123   5.948   2.161
 7518SOL     OW23452   5.209   3.629   2.086
 7518SOL    HW123453   5.155   3.713   2.075
 7518SOL    HW223454   5.150   3.549   2.075
 7519SOL     OW23455   1.918   0.563   4.636
 7519SOL    HW123456   1.944   0.574   4.540
 7519SOL    HW223457   1.933   0.649   4.685
 7520SOL     OW23458   1.533   0.338   4.742
 7520SOL    HW123459   1.491   0.313   4.655
 7520SOL    HW223460   1.462   0.346   4.812
 7521SOL     OW23461   3.876   2.445   5.846
 7521SOL    HW123462   3.927   2.360   5.858
 7521SOL    HW223463   3.928   2.521   5.886
 7522SOL     OW23464   1.942   6.726   2.201
 7522SOL    HW123465   1.967   6.738   2.297
 7522SOL    HW223466   1.847   6.754   2.188
 7523SOL     OW23467   6.804   5.902   6.283
 7523SOL    HW123468   6.742   5.964   6.235
 7523SOL    HW223469   6.770   5.808   6.273
 7524SOL     OW23470   6.161   2.710   6.080
 7524SOL    HW123471   6.234   2.679   6.019
 7524SOL    HW223472   6.197   2.778   6.144
 7525SOL     OW23473   0.521   0.266   0.482
 7525SOL    HW123474   0.483   0.345   0.531
 7525SOL    HW223475   0.593   0.297   0.420
 7526SOL     OW23476   3.820   3.428   5.353
 7526SOL    HW123477   3.858   3.468   5.270
 7526SOL    HW223478   3.764   3.495   5.401
 7527SOL     OW23479   2.582   6.161   1.484
 7527SOL    HW123480   2.520   6.184   1.409
 7527SOL    HW223481   2.557   6.214   1.566
 7528SOL     OW23482   5.836   2.109   0.312
 7528SOL    HW123483   5.790   2.197   0.298
 7528SOL    HW223484   5.771   2.043   0.350
 7529SOL     OW23485   1.104   0.415   4.083
 7529SOL    HW123486   1.026   0.392   4.026
 7529SOL    HW223487   1.187   0.417   4.027
 7530SOL     OW23488   0.168   3.507   2.621
 7530SOL    HW123489   0.199   3.508   2.716
 7530SOL    HW223490   0.162   3.413   2.589
 7531SOL     OW23491   1.761   2.292   4.357
 7531SOL    HW123492   1.781   2.216   4.295
 7531SOL    HW223493   1.664   2.316   4.351
 7532SOL     OW23494   4.684   4.218   2.321
 7532SOL    HW123495   4.738   4.140   2.287
 7532SOL    HW223496   4.621   4.248   2.250
 7533SOL     OW23497   3.806   0.195   5.241
 7533SOL    HW123498   3.836   0.287   5.217
 7533SOL    HW223499   3.717   0.199   5.286
 7534SOL     OW23500   4.195   6.975   4.205
 7534SOL    HW123501   4.221   6.879   4.219
 7534SOL    HW223502   4.265   0.006   4.243
 7535SOL     OW23503   3.062   4.375   6.565
 7535SOL    HW123504   2.981   4.424   6.595
 7535SOL    HW223505   3.120   4.355   6.644
 7536SOL     OW23506   4.525   4.852   7.005
 7536SOL    HW123507   4.486   4.782   6.945
 7536SOL    HW223508   4.620   4.829   7.026
 7537SOL     OW23509   2.022   4.602   5.096
 7537SOL    HW123510   1.925   4.616   5.075
 7537SOL    HW223511   2.056   4.525   5.043
 7538SOL     OW23512   3.390   4.016   5.556
 7538SOL    HW123513   3.472   4.060   5.593
 7538SOL    HW223514   3.351   4.075   5.485
 7539SOL     OW23515   1.394   2.864   4.267
 7539SOL    HW123516   1.323   2.793   4.268
 7539SOL    HW223517   1.375   2.928   4.193
 7540SOL     OW23518   2.894   0.639   0.370
 7540SOL    HW123519   2.943   0.576   0.310
 7540SOL    HW223520   2.917   0.619   0.465
 7541SOL     OW23521   0.314   1.910   6.135
 7541SOL    HW123522   0.282   1.969   6.210
 7541SOL    HW223523   0.391   1.954   6.089
 7542SOL     OW23524   1.833   0.480   4.374
 7542SOL    HW123525   1.759   0.419   4.402
 7542SOL    HW223526   1.847   0.473   4.275
 7543SOL     OW23527   2.156   2.354   2.307
 7543SOL    HW123528   2.239   2.298   2.308
 7543SOL    HW223529   2.152   2.407   2.223
 7544SOL     OW23530   1.145   2.221   2.740
 7544SOL    HW123531   1.154   2.314   2.776
 7544SOL    HW223532   1.235   2.187   2.713
 7545SOL     OW23533   3.910   0.169   4.042
 7545SOL    HW123534   3.950   0.261   4.034
 7545SOL    HW223535   3.874   0.157   4.134
 7546SOL     OW23536   4.741   6.254   4.849
 7546SOL    HW123537   4.696   6.331   4.893
 7546SOL    HW223538   4.722   6.170   4.900
 7547SOL     OW23539   1.671   6.744   1.293
 7547SOL    HW123540   1.594   6.744   1.357
 7547SOL    HW223541   1.694   6.650   1.269
 7548SOL     OW23542   2.665   3.984   0.968
 7548SOL    HW123543   2.609   3.925   0.910
 7548SOL    HW223544   2.625   4.075   0.973
 7549SOL     OW23545   6.085   6.889   2.432
 7549SOL    HW123546   6.071   6.874   2.530
 7549SOL    HW223547   6.098   6.986   2.415
 7550SOL     OW23548   0.937   5.421   0.730
 7550SOL    HW123549   0.861   5.358   0.720
 7550SOL    HW223550   0.988   5.427   0.644
 7551SOL     OW23551   4.687   3.798   5.719
 7551SOL    HW123552   4.708   3.813   5.815
 7551SOL    HW223553   4.621   3.867   5.688
 7552SOL     OW23554   3.729   5.474   4.824
 7552SOL    HW123555   3.640   5.468   4.868
 7552SOL    HW223556   3.743   5.567   4.790
 7553SOL     OW23557   4.348   4.344   5.588
 7553SOL    HW123558   4.446   4.337   5.604
 7553SOL    HW223559   4.299   4.326   5.674
 7554SOL     OW23560   6.679   0.697   0.960
 7554SOL    HW123561   6.769   0.698   0.916
 7554SOL    HW223562   6.615   0.753   0.908
 7555SOL     OW23563   3.066   6.425   6.733
 7555SOL    HW123564   3.078   6.484   6.813
 7555SOL    HW223565   2.991   6.360   6.750
 7556SOL     OW23566   0.222   4.055   2.882
 7556SOL    HW123567   0.278   3.982   2.922
 7556SOL    HW223568   0.204   4.125   2.951
 7557SOL     OW23569   4.625   4.155   0.735
 7557SOL    HW123570   4.576   4.196   0.659
 7557SOL    HW223571   4.560   4.120   0.802
 7558SOL     OW23572   1.502   3.752   3.592
 7558SOL    HW123573   1.598   3.738   3.567
 7558SOL    HW223574   1.476   3.687   3.663
 7559SOL     OW23575   1.153   5.197   0.414
 7559SOL    HW123576   1.231   5.210   0.476
 7559SOL    HW223577   1.102   5.116   0.441
 7560SOL     OW23578   4.427   0.062   5.724
 7560SOL    HW123579   4.343   0.080   5.774
 7560SOL    HW223580   4.506   0.073   5.784
 7561SOL     OW23581   1.520   2.905   0.504
 7561SOL    HW123582   1.479   2.981   0.454
 7561SOL    HW223583   1.453   2.832   0.516
 7562SOL     OW23584   4.584   6.287   5.313
 7562SOL    HW123585   4.552   6.378   5.289
 7562SOL    HW223586   4.656   6.259   5.249
 7563SOL     OW23587   2.688   1.211   3.333
 7563SOL    HW123588   2.728   1.302   3.325
 7563SOL    HW223589   2.633   1.206   3.416
 7564SOL     OW23590   6.363   5.588   4.071
 7564SOL    HW123591   6.393   5.674   4.112
 7564SOL    HW223592   6.326   5.606   3.980
 7565SOL     OW23593   4.557   5.189   6.760
 7565SOL    HW123594   4.561   5.198   6.860
 7565SOL    HW223595   4.554   5.092   6.735
 7566SOL     OW23596   1.528   5.798   4.085
 7566SOL    HW123597   1.620   5.761   4.097
 7566SOL    HW223598   1.522   5.887   4.131
 7567SOL     OW23599   2.884   4.199   0.419
 7567SOL    HW123600   2.867   4.284   0.470
 7567SOL    HW223601   2.797   4.163   0.386
 7568SOL     OW23602   4.056   4.815   4.486
 7568SOL    HW123603   4.010   4.855   4.565
 7568SOL    HW223604   4.004   4.834   4.403
 7569SOL     OW23605   3.514   6.939   2.771
 7569SOL    HW123606   3.553   6.990   2.847
 7569SOL    HW223607   3.584   6.923   2.702
 7570SOL     OW23608   6.195   5.070   5.077
 7570SOL    HW123609   6.184   5.021   5.163
 7570SOL    HW223610   6.254   5.149   5.091
 7571SOL     OW23611   6.739   4.397   0.687
 7571SOL    HW123612   6.772   4.400   0.782
 7571SOL    HW223613   6.687   4.313   0.673
 7572SOL     OW23614   5.984   1.357   3.517
 7572SOL    HW123615   6.063   1.404   3.557
 7572SOL    HW223616   6.012   1.264   3.491
 7573SOL     OW23617   3.172   4.919   3.854
 7573SOL    HW123618   3.167   4.895   3.950
 7573SOL    HW223619   3.261   4.961   3.834
 7574SOL     OW23620   4.281   6.095   1.797
 7574SOL    HW123621   4.279   6.022   1.729
 7574SOL    HW223622   4.190   6.105   1.838
 7575SOL     OW23623   5.351   3.611   3.751
 7575SOL    HW123624   5.300   3.559   3.818
 7575SOL    HW223625   5.289   3.673   3.702
 7576SOL     OW23626   0.192   4.466   1.899
 7576SOL    HW123627   0.229   4.411   1.975
 7576SOL    HW223628   0.263   4.529   1.867
 7577SOL     OW23629   3.962   1.606   3.753
 7577SOL    HW123630   3.941   1.541   3.826
 7577SOL    HW223631   3.979   1.696   3.793
 7578SOL     OW23632   2.112   5.206   5.583
 7578SOL    HW123633   2.020   5.245   5.584
 7578SOL    HW223634   2.119   5.135   5.653
 7579SOL     OW23635   4.101   2.068   4.701
 7579SOL    HW123636   4.055   1.998   4.756
 7579SOL    HW223637   4.044   2.089   4.621
 7580SOL     OW23638   1.503   3.123   2.708
 7580SOL    HW123639   1.448   3.133   2.624
 7580SOL    HW223640   1.584   3.180   2.702
 7581SOL     OW23641   5.506   0.992   1.034
 7581SOL    HW123642   5.527   0.902   0.996
 7581SOL    HW223643   5.413   0.993   1.070
 7582SOL     OW23644   3.787   3.436   1.496
 7582SOL    HW123645   3.833   3.454   1.583
 7582SOL    HW223646   3.693   3.405   1.513
 7583SOL     OW23647   6.083   4.354   3.165
 7583SOL    HW123648   5.988   4.361   3.135
 7583SOL    HW223649   6.096   4.411   3.247
 7584SOL     OW23650   1.810   2.681   1.991
 7584SOL    HW123651   1.797   2.651   1.896
 7584SOL    HW223652   1.737   2.744   2.016
 7585SOL     OW23653   3.177   3.888   0.540
 7585SOL    HW123654   3.197   3.946   0.461
 7585SOL    HW223655   3.080   3.863   0.540
 7586SOL     OW23656   1.373   2.597   3.208
 7586SOL    HW123657   1.408   2.504   3.221
 7586SOL    HW223658   1.275   2.599   3.227
 7587SOL     OW23659   3.133   0.443   5.542
 7587SOL    HW123660   3.131   0.536   5.507
 7587SOL    HW223661   3.166   0.381   5.470
 7588SOL     OW23662   0.461   4.454   1.588
 7588SOL    HW123663   0.447   4.373   1.531
 7588SOL    HW223664   0.404   4.529   1.555
 7589SOL     OW23665   4.753   6.068   6.418
 7589SOL    HW123666   4.804   5.982   6.414
 7589SOL    HW223667   4.656   6.048   6.433
 7590SOL     OW23668   2.287   0.811   5.326
 7590SOL    HW123669   2.377   0.768   5.322
 7590SOL    HW223670   2.219   0.743   5.352
 7591SOL     OW23671   0.224   5.735   6.279
 7591SOL    HW123672   0.276   5.751   6.363
 7591SOL    HW223673   0.285   5.738   6.200
 7592SOL     OW23674   4.751   4.653   6.768
 7592SOL    HW123675   4.776   4.748   6.753
 7592SOL    HW223676   4.797   4.618   6.850
 7593SOL     OW23677   6.733   4.795   0.261
 7593SOL    HW123678   6.822   4.785   0.216
 7593SOL    HW223679   6.728   4.885   0.305
 7594SOL     OW23680   1.160   0.676   4.747
 7594SOL    HW123681   1.216   0.737   4.691
 7594SOL    HW223682   1.125   0.726   4.826
 7595SOL     OW23683   0.209   4.083   6.787
 7595SOL    HW123684   0.234   4.023   6.711
 7595SOL    HW223685   0.178   4.028   6.865
 7596SOL     OW23686   5.624   5.263   2.289
 7596SOL    HW123687   5.612   5.262   2.190
 7596SOL    HW223688   5.539   5.237   2.334
 7597SOL     OW23689   2.484   4.584   2.928
 7597SOL    HW123690   2.534   4.574   3.014
 7597SOL    HW223691   2.487   4.497   2.878
 7598SOL     OW23692   6.105   1.511   2.690
 7598SOL    HW123693   6.200   1.537   2.670
 7598SOL    HW223694   6.104   1.451   2.770
 7599SOL     OW23695   5.516   4.114   1.692
 7599SOL    HW123696   5.453   4.092   1.766
 7599SOL    HW223697   5.588   4.044   1.687
 7600SOL     OW23698   1.781   2.989   2.650
 7600SOL    HW123699   1.773   2.892   2.625
 7600SOL    HW223700   1.697   3.018   2.697
 7601SOL     OW23701   1.847   0.538   5.494
 7601SOL    HW123702   1.870   0.623   5.448
 7601SOL    HW223703   1.931   0.487   5.514
 7602SOL     OW23704   2.202   2.860   5.194
 7602SOL    HW123705   2.257   2.777   5.185
 7602SOL    HW223706   2.248   2.936   5.148
 7603SOL     OW23707   5.711   1.241   1.627
 7603SOL    HW123708   5.615   1.265   1.612
 7603SOL    HW223709   5.731   1.155   1.580
 7604SOL     OW23710   5.852   5.416   6.517
 7604SOL    HW123711   5.814   5.324   6.516
 7604SOL    HW223712   5.952   5.411   6.527
 7605SOL     OW23713   4.829   3.029   5.099
 7605SOL    HW123714   4.921   2.992   5.110
 7605SOL    HW223715   4.827   3.123   5.132
 7606SOL     OW23716   5.431   0.957   3.695
 7606SOL    HW123717   5.513   1.000   3.733
 7606SOL    HW223718   5.457   0.877   3.641
 7607SOL     OW23719   4.883   6.339   6.318
 7607SOL    HW123720   4.972   6.307   6.352
 7607SOL    HW223721   4.872   6.436   6.340
 7608SOL     OW23722   3.593   3.183   4.821
 7608SOL    HW123723   3.549   3.241   4.752
 7608SOL    HW223724   3.531   3.110   4.849
 7609SOL     OW23725   0.751   2.625   2.957
 7609SOL    HW123726   0.654   2.640   2.934
 7609SOL    HW223727   0.799   2.590   2.877
 7610SOL     OW23728   5.768   0.527   2.296
 7610SOL    HW123729   5.713   0.504   2.376
 7610SOL    HW223730   5.710   0.532   2.215
 7611SOL     OW23731   1.590   2.081   1.492
 7611SOL    HW123732   1.527   2.155   1.467
 7611SOL    HW223733   1.539   2.009   1.540
 7612SOL     OW23734   3.516   0.802   2.697
 7612SOL    HW123735   3.506   0.759   2.607
 7612SOL    HW223736   3.425   0.817   2.736
 7613SOL     OW23737   6.811   0.801   1.974
 7613SOL    HW123738   6.853   0.713   1.951
 7613SOL    HW223739   6.755   0.832   1.897
 7614SOL     OW23740   4.083   1.175   6.828
 7614SOL    HW123741   3.996   1.141   6.865
 7614SOL    HW223742   4.080   1.274   6.823
 7615SOL     OW23743   4.685   4.924   6.216
 7615SOL    HW123744   4.634   4.935   6.131
 7615SOL    HW223745   4.628   4.875   6.282
 7616SOL     OW23746   0.024   5.878   3.783
 7616SOL    HW123747   0.002   5.784   3.758
 7616SOL    HW223748   0.049   5.882   3.880
 7617SOL     OW23749   3.985   5.262   3.487
 7617SOL    HW123750   4.001   5.190   3.554
 7617SOL    HW223751   4.069   5.279   3.435
 7618SOL     OW23752   3.486   1.316   0.330
 7618SOL    HW123753   3.436   1.331   0.245
 7618SOL    HW223754   3.580   1.347   0.320
 7619SOL     OW23755   5.610   3.551   5.834
 7619SOL    HW123756   5.613   3.467   5.889
 7619SOL    HW223757   5.691   3.607   5.854
 7620SOL     OW23758   2.734   5.568   2.104
 7620SOL    HW123759   2.698   5.660   2.089
 7620SOL    HW223760   2.809   5.550   2.040
 7621SOL     OW23761   2.452   3.061   1.450
 7621SOL    HW123762   2.393   3.123   1.399
 7621SOL    HW223763   2.521   3.022   1.389
 7622SOL     OW23764   4.899   1.774   0.803
 7622SOL    HW123765   4.861   1.839   0.868
 7622SOL    HW223766   4.874   1.800   0.710
 7623SOL     OW23767   6.810   6.912   5.250
 7623SOL    HW123768   6.870   6.905   5.329
 7623SOL    HW223769   6.716   6.928   5.281
 7624SOL     OW23770   6.733   1.377   4.889
 7624SOL    HW123771   6.716   1.421   4.801
 7624SOL    HW223772   6.774   1.287   4.873
 7625SOL     OW23773   2.171   4.392   0.698
 7625SOL    HW123774   2.232   4.377   0.621
 7625SOL    HW223775   2.224   4.419   0.778
 7626SOL     OW23776   2.555   3.898   5.345
 7626SOL    HW123777   2.518   3.845   5.421
 7626SOL    HW223778   2.480   3.940   5.294
 7627SOL     OW23779   0.286   6.850   6.797
 7627SOL    HW123780   0.262   6.755   6.778
 7627SOL    HW223781   0.207   6.909   6.780
 7628SOL     OW23782   4.126   1.458   0.577
 7628SOL    HW123783   4.211   1.409   0.595
 7628SOL    HW223784   4.071   1.462   0.660
 7629SOL     OW23785   6.084   5.611   2.221
 7629SOL    HW123786   6.054   5.564   2.304
 7629SOL    HW223787   6.109   5.705   2.244
 7630SOL     OW23788   5.608   2.300   2.390
 7630SOL    HW123789   5.599   2.336   2.483
 7630SOL    HW223790   5.701   2.317   2.357
 7631SOL     OW23791   0.834   0.571   3.909
 7631SOL    HW123792   0.754   0.591   3.853
 7631SOL    HW223793   0.839   0.473   3.926
 7632SOL     OW23794   5.375   1.079   4.896
 7632SOL    HW123795   5.364   0.999   4.954
 7632SOL    HW223796   5.310   1.076   4.820
 7633SOL     OW23797   5.705   3.449   6.118
 7633SOL    HW123798   5.624   3.413   6.071
 7633SOL    HW223799   5.783   3.447   6.055
 7634SOL     OW23800   0.602   1.843   2.196
 7634SOL    HW123801   0.667   1.840   2.119
 7634SOL    HW223802   0.645   1.887   2.274
 7635SOL     OW23803   2.141   4.614   5.765
 7635SOL    HW123804   2.102   4.683   5.826
 7635SOL    HW223805   2.098   4.525   5.782
 7636SOL     OW23806   0.790   1.710   3.466
 7636SOL    HW123807   0.828   1.717   3.558
 7636SOL    HW223808   0.692   1.691   3.471
 7637SOL     OW23809   3.244   6.409   3.931
 7637SOL    HW123810   3.209   6.346   3.862
 7637SOL    HW223811   3.342   6.394   3.944
 7638SOL     OW23812   4.539   5.272   1.762
 7638SOL    HW123813   4.576   5.273   1.669
 7638SOL    HW223814   4.471   5.344   1.772
 7639SOL     OW23815   0.671   2.038   4.286
 7639SOL    HW123816   0.629   1.989   4.210
 7639SOL    HW223817   0.758   2.079   4.255
 7640SOL     OW23818   2.261   2.918   6.677
 7640SOL    HW123819   2.303   2.828   6.688
 7640SOL    HW223820   2.253   2.962   6.766
 7641SOL     OW23821   6.092   3.007   0.901
 7641SOL    HW123822   6.133   3.043   0.985
 7641SOL    HW223823   6.144   2.928   0.869
 7642SOL     OW23824   1.167   3.154   3.250
 7642SOL    HW123825   1.138   3.183   3.159
 7642SOL    HW223826   1.210   3.064   3.244
 7643SOL     OW23827   5.949   3.742   3.460
 7643SOL    HW123828   6.018   3.749   3.532
 7643SOL    HW223829   5.860   3.771   3.496
 7644SOL     OW23830   6.937   2.682   4.232
 7644SOL    HW123831   6.926   2.720   4.140
 7644SOL    HW223832   7.018   2.624   4.235
 7645SOL     OW23833   3.482   2.854   0.817
 7645SOL    HW123834   3.578   2.877   0.799
 7645SOL    HW223835   3.460   2.872   0.913
 7646SOL     OW23836   0.429   0.207   2.397
 7646SOL    HW123837   0.349   0.195   2.455
 7646SOL    HW223838   0.414   0.283   2.334
 7647SOL     OW23839   2.616   4.528   6.972
 7647SOL    HW123840   2.708   4.564   6.985
 7647SOL    HW223841   2.620   4.428   6.970
 7648SOL     OW23842   2.705   0.647   3.793
 7648SOL    HW123843   2.616   0.684   3.817
 7648SOL    HW223844   2.758   0.716   3.744
 7649SOL     OW23845   3.674   2.177   1.307
 7649SOL    HW123846   3.612   2.152   1.381
 7649SOL    HW223847   3.767   2.184   1.342
 7650SOL     OW23848   0.478   4.663   1.256
 7650SOL    HW123849   0.452   4.682   1.162
 7650SOL    HW223850   0.550   4.727   1.284
 7651SOL     OW23851   5.814   2.363   6.042
 7651SOL    HW123852   5.782   2.306   6.118
 7651SOL    HW223853   5.786   2.321   5.955
 7652SOL     OW23854   0.499   2.763   2.119
 7652SOL    HW123855   0.530   2.696   2.052
 7652SOL    HW223856   0.570   2.831   2.133
 7653SOL     OW23857   4.955   2.463   1.447
 7653SOL    HW123858   4.930   2.366   1.437
 7653SOL    HW223859   4.872   2.519   1.446
 7654SOL     OW23860   6.120   3.674   5.001
 7654SOL    HW123861   6.132   3.586   5.046
 7654SOL    HW223862   6.057   3.730   5.054
 7655SOL     OW23863   5.157   4.026   6.192
 7655SOL    HW123864   5.144   3.934   6.229
 7655SOL    HW223865   5.246   4.061   6.222
 7656SOL     OW23866   6.813   0.378   5.228
 7656SOL    HW123867   6.875   0.406   5.301
 7656SOL    HW223868   6.750   0.308   5.264
 7657SOL     OW23869   3.642   2.101   3.206
 7657SOL    HW123870   3.669   2.068   3.116
 7657SOL    HW223871   3.720   2.146   3.249
 7658SOL     OW23872   4.564   1.293   5.516
 7658SOL    HW123873   4.558   1.384   5.475
 7658SOL    HW223874   4.550   1.223   5.446
 7659SOL     OW23875   4.876   5.701   6.617
 7659SOL    HW123876   4.975   5.709   6.626
 7659SOL    HW223877   4.854   5.619   6.564
 7660SOL     OW23878   5.481   5.621   3.804
 7660SOL    HW123879   5.404   5.679   3.830
 7660SOL    HW223880   5.550   5.622   3.876
 7661SOL     OW23881   5.948   3.335   3.667
 7661SOL    HW123882   5.995   3.367   3.749
 7661SOL    HW223883   5.983   3.383   3.587
 7662SOL     OW23884   6.570   5.480   3.486
 7662SOL    HW123885   6.582   5.426   3.569
 7662SOL    HW223886   6.659   5.508   3.450
 7663SOL     OW23887   1.065   6.464   6.892
 7663SOL    HW123888   1.036   6.401   6.820
 7663SOL    HW223889   1.002   6.541   6.896
 7664SOL     OW23890   5.121   4.797   5.133
 7664SOL    HW123891   5.094   4.889   5.103
 7664SOL    HW223892   5.166   4.750   5.057
 7665SOL     OW23893   1.776   5.689   4.146
 7665SOL    HW123894   1.859   5.744   4.155
 7665SOL    HW223895   1.787   5.624   4.071
 7666SOL     OW23896   2.035   0.136   2.263
 7666SOL    HW123897   2.020   0.217   2.207
 7666SOL    HW223898   2.102   0.156   2.334
 7667SOL     OW23899   5.669   0.166   5.532
 7667SOL    HW123900   5.700   0.153   5.626
 7667SOL    HW223901   5.736   0.126   5.469
 7668SOL     OW23902   3.477   4.030   3.095
 7668SOL    HW123903   3.391   4.080   3.098
 7668SOL    HW223904   3.495   4.000   3.001
 7669SOL     OW23905   4.168   6.088   4.779
 7669SOL    HW123906   4.265   6.110   4.766
 7669SOL    HW223907   4.137   6.125   4.867
 7670SOL     OW23908   1.332   5.781   0.838
 7670SOL    HW123909   1.332   5.866   0.890
 7670SOL    HW223910   1.267   5.788   0.762
 7671SOL     OW23911   5.093   2.804   4.916
 7671SOL    HW123912   5.072   2.848   5.004
 7671SOL    HW223913   5.155   2.862   4.864
 7672SOL     OW23914   5.083   0.009   1.598
 7672SOL    HW123915   5.093   7.026   1.697
 7672SOL    HW223916   5.058   0.103   1.577
 7673SOL     OW23917   1.864   4.064   6.941
 7673SOL    HW123918   1.893   4.117   6.861
 7673SOL    HW223919   1.888   4.114   7.024
 7674SOL     OW23920   6.200   1.354   6.497
 7674SOL    HW123921   6.296   1.377   6.511
 7674SOL    HW223922   6.188   1.310   6.408
 7675SOL     OW23923   5.282   0.150   3.671
 7675SOL    HW123924   5.236   0.170   3.585
 7675SOL    HW223925   5.290   0.051   3.683
 7676SOL     OW23926   2.449   0.492   0.207
 7676SOL    HW123927   2.527   0.554   0.195
 7676SOL    HW223928   2.365   0.546   0.216
 7677SOL     OW23929   1.505   1.824   2.577
 7677SOL    HW123930   1.503   1.908   2.522
 7677SOL    HW223931   1.559   1.755   2.530
 7678SOL     OW23932   4.748   6.858   5.608
 7678SOL    HW123933   4.807   6.869   5.529
 7678SOL    HW223934   4.765   6.931   5.674
 7679SOL     OW23935   1.730   5.123   4.387
 7679SOL    HW123936   1.735   5.173   4.474
 7679SOL    HW223937   1.806   5.058   4.382
 7680SOL     OW23938   4.521   0.353   0.669
 7680SOL    HW123939   4.488   0.418   0.738
 7680SOL    HW223940   4.582   0.287   0.713
 7681SOL     OW23941   4.499   2.379   5.349
 7681SOL    HW123942   4.488   2.411   5.443
 7681SOL    HW223943   4.560   2.300   5.348
 7682SOL     OW23944   3.814   1.129   6.887
 7682SOL    HW123945   3.819   1.194   6.963
 7682SOL    HW223946   3.719   1.109   6.866
 7683SOL     OW23947   6.364   3.451   3.227
 7683SOL    HW123948   6.380   3.461   3.129
 7683SOL    HW223949   6.285   3.506   3.254
 7684SOL     OW23950   3.877   2.298   6.515
 7684SOL    HW123951   3.854   2.339   6.603
 7684SOL    HW223952   3.911   2.205   6.530
 7685SOL     OW23953   4.693   4.333   1.681
 7685SOL    HW123954   4.663   4.321   1.586
 7685SOL    HW223955   4.615   4.319   1.742
 7686SOL     OW23956   2.181   0.719   2.059
 7686SOL    HW123957   2.181   0.729   2.158
 7686SOL    HW223958   2.275   0.718   2.026
 7687SOL     OW23959   4.905   4.446   5.419
 7687SOL    HW123960   4.817   4.429   5.462
 7687SOL    HW223961   4.902   4.418   5.323
 7688SOL     OW23962   0.018   0.383   3.603
 7688SOL    HW123963   7.017   0.402   3.697
 7688SOL    HW223964   0.118   0.375   3.600
 7689SOL     OW23965   3.571   0.170   5.054
 7689SOL    HW123966   3.648   0.106   5.065
 7689SOL    HW223967   3.594   0.257   5.097
 7690SOL     OW23968   0.731   5.480   3.127
 7690SOL    HW123969   0.648   5.493   3.182
 7690SOL    HW223970   0.771   5.569   3.107
 7691SOL     OW23971   0.123   4.291   5.694
 7691SOL    HW123972   0.049   4.224   5.704
 7691SOL    HW223973   0.201   4.264   5.750
 7692SOL     OW23974   1.105   5.944   1.363
 7692SOL    HW123975   1.183   6.005   1.352
 7692SOL    HW223976   1.105   5.877   1.289
 7693SOL     OW23977   4.075   1.468   6.725
 7693SOL    HW123978   4.166   1.509   6.718
 7693SOL    HW223979   4.014   1.509   6.657
 7694SOL     OW23980   5.719   5.670   3.966
 7694SOL    HW123981   5.787   5.598   3.955
 7694SOL    HW223982   5.752   5.736   4.034
 7695SOL     OW23983   5.303   6.726   6.247
 7695SOL    HW123984   5.311   6.775   6.160
 7695SOL    HW223985   5.248   6.644   6.233
 7696SOL     OW23986   1.191   4.106   5.398
 7696SOL    HW123987   1.124   4.179   5.414
 7696SOL    HW223988   1.283   4.139   5.421
 7697SOL     OW23989   4.467   0.132   2.138
 7697SOL    HW123990   4.445   0.057   2.200
 7697SOL    HW223991   4.405   0.130   2.060
 7698SOL     OW23992   0.204   2.233   6.255
 7698SOL    HW123993   0.250   2.163   6.308
 7698SOL    HW223994   0.261   2.259   6.176
 7699SOL     OW23995   3.194   3.691   1.588
 7699SOL    HW123996   3.153   3.765   1.534
 7699SOL    HW223997   3.291   3.711   1.603
 7700SOL     OW23998   5.824   1.242   5.578
 7700SOL    HW123999   5.757   1.315   5.564
 7700SOL    HW224000   5.857   1.210   5.490
 7701SOL     OW24001   6.861   2.502   5.116
 7701SOL    HW124002   6.896   2.530   5.027
 7701SOL    HW224003   6.872   2.578   5.181
 7702SOL     OW24004   0.905   6.017   7.013
 7702SOL    HW124005   1.004   6.028   7.016
 7702SOL    HW224006   0.862   6.090   0.039
 7703SOL     OW24007   1.272   2.682   0.251
 7703SOL    HW124008   1.205   2.754   0.234
 7703SOL    HW224009   1.353   2.698   0.196
 7704SOL     OW24010   4.087   3.565   1.705
 7704SOL    HW124011   4.105   3.626   1.628
 7704SOL    HW224012   3.990   3.540   1.705
 7705SOL     OW24013   3.845   2.936   4.870
 7705SOL    HW124014   3.855   3.006   4.800
 7705SOL    HW224015   3.932   2.889   4.883
 7706SOL     OW24016   6.090   1.039   5.500
 7706SOL    HW124017   6.058   0.945   5.493
 7706SOL    HW224018   6.031   1.099   5.447
 7707SOL     OW24019   0.284   5.070   6.298
 7707SOL    HW124020   0.379   5.092   6.274
 7707SOL    HW224021   0.250   5.000   6.236
 7708SOL     OW24022   5.424   1.518   5.716
 7708SOL    HW124023   5.347   1.527   5.780
 7708SOL    HW224024   5.415   1.432   5.666
 7709SOL     OW24025   4.060   2.517   1.595
 7709SOL    HW124026   4.140   2.501   1.653
 7709SOL    HW224027   4.008   2.594   1.631
 7710SOL     OW24028   3.268   1.165   6.127
 7710SOL    HW124029   3.281   1.261   6.149
 7710SOL    HW224030   3.285   1.109   6.208
 7711SOL     OW24031   5.051   6.699   4.529
 7711SOL    HW124032   4.973   6.647   4.494
 7711SOL    HW224033   5.061   6.681   4.627
 7712SOL     OW24034   6.236   4.227   6.229
 7712SOL    HW124035   6.152   4.210   6.281
 7712SOL    HW224036   6.283   4.307   6.266
 7713SOL     OW24037   1.195   5.002   6.543
 7713SOL    HW124038   1.199   5.057   6.460
 7713SOL    HW224039   1.101   5.000   6.577
 7714SOL     OW24040   6.469   4.792   4.978
 7714SOL    HW124041   6.521   4.713   5.009
 7714SOL    HW224042   6.371   4.776   4.993
 7715SOL     OW24043   3.248   1.412   1.471
 7715SOL    HW124044   3.163   1.437   1.518
 7715SOL    HW224045   3.279   1.489   1.415
 7716SOL     OW24046   3.479   2.011   4.493
 7716SOL    HW124047   3.406   2.079   4.491
 7716SOL    HW224048   3.486   1.967   4.404
 7717SOL     OW24049   3.200   6.323   0.454
 7717SOL    HW124050   3.296   6.349   0.461
 7717SOL    HW224051   3.193   6.223   0.456
 7718SOL     OW24052   1.317   6.108   3.140
 7718SOL    HW124053   1.368   6.176   3.194
 7718SOL    HW224054   1.256   6.058   3.200
 7719SOL     OW24055   5.268   2.622   5.923
 7719SOL    HW124056   5.245   2.525   5.935
 7719SOL    HW224057   5.304   2.659   6.008
 7720SOL     OW24058   4.632   6.272   1.406
 7720SOL    HW124059   4.574   6.293   1.328
 7720SOL    HW224060   4.576   6.262   1.488
 7721SOL     OW24061   0.329   5.039   3.739
 7721SOL    HW124062   0.387   5.064   3.662
 7721SOL    HW224063   0.370   4.962   3.788
 7722SOL     OW24064   0.465   5.777   3.501
 7722SOL    HW124065   0.376   5.795   3.542
 7722SOL    HW224066   0.481   5.843   3.427
 7723SOL     OW24067   0.045   2.269   5.957
 7723SOL    HW124068   6.990   2.280   6.012
 7723SOL    HW224069   0.045   2.179   5.913
 7724SOL     OW24070   2.771   5.923   6.982
 7724SOL    HW124071   2.697   5.856   6.990
 7724SOL    HW224072   2.764   5.989   0.028
 7725SOL     OW24073   4.850   4.300   3.315
 7725SOL    HW124074   4.935   4.292   3.366
 7725SOL    HW224075   4.773   4.294   3.379
 7726SOL     OW24076   4.920   6.262   3.515
 7726SOL    HW124077   4.953   6.356   3.506
 7726SOL    HW224078   4.847   6.245   3.448
 7727SOL     OW24079   6.088   3.420   2.486
 7727SOL    HW124080   6.144   3.501   2.464
 7727SOL    HW224081   5.996   3.449   2.511
 7728SOL     OW24082   1.956   3.286   2.878
 7728SOL    HW124083   1.872   3.295   2.825
 7728SOL    HW224084   2.035   3.299   2.818
 7729SOL     OW24085   5.646   1.299   5.887
 7729SOL    HW124086   5.613   1.347   5.968
 7729SOL    HW224087   5.739   1.265   5.903
 7730SOL     OW24088   4.455   6.049   3.162
 7730SOL    HW124089   4.443   5.985   3.237
 7730SOL    HW224090   4.447   6.143   3.196
 7731SOL     OW24091   6.218   1.505   3.612
 7731SOL    HW124092   6.262   1.435   3.668
 7731SOL    HW224093   6.277   1.528   3.535
 7732SOL     OW24094   4.143   4.639   0.923
 7732SOL    HW124095   4.218   4.667   0.864
 7732SOL    HW224096   4.126   4.710   0.993
 7733SOL     OW24097   3.634   5.428   1.675
 7733SOL    HW124098   3.569   5.503   1.666
 7733SOL    HW224099   3.650   5.387   1.585
 7734SOL     OW24100   0.874   2.952   2.151
 7734SOL    HW124101   0.967   2.918   2.170
 7734SOL    HW224102   0.865   3.044   2.190
 7735SOL     OW24103   5.668   4.003   0.636
 7735SOL    HW124104   5.763   4.015   0.663
 7735SOL    HW224105   5.638   3.911   0.660
 7736SOL     OW24106   5.861   4.484   6.855
 7736SOL    HW124107   5.915   4.483   6.771
 7736SOL    HW224108   5.921   4.497   6.934
 7737SOL     OW24109   4.986   3.480   6.982
 7737SOL    HW124110   4.939   3.506   6.897
 7737SOL    HW224111   5.023   3.562   7.026
 7738SOL     OW24112   1.722   4.829   6.408
 7738SOL    HW124113   1.711   4.831   6.508
 7738SOL    HW224114   1.634   4.813   6.365
 7739SOL     OW24115   6.189   4.911   2.353
 7739SOL    HW124116   6.199   4.829   2.296
 7739SOL    HW224117   6.095   4.943   2.348
 7740SOL     OW24118   6.788   6.040   3.334
 7740SOL    HW124119   6.772   6.074   3.241
 7740SOL    HW224120   6.882   6.060   3.361
 7741SOL     OW24121   2.507   5.451   3.589
 7741SOL    HW124122   2.551   5.371   3.629
 7741SOL    HW224123   2.562   5.532   3.607
 7742SOL     OW24124   6.825   0.771   4.445
 7742SOL    HW124125   6.792   0.848   4.390
 7742SOL    HW224126   6.809   0.685   4.395
 7743SOL     OW24127   5.049   3.416   2.035
 7743SOL    HW124128   5.036   3.317   2.037
 7743SOL    HW224129   4.989   3.456   1.966
 7744SOL     OW24130   0.052   6.628   3.411
 7744SOL    HW124131   0.095   6.545   3.446
 7744SOL    HW224132   0.113   6.706   3.428
 7745SOL     OW24133   6.449   2.707   5.393
 7745SOL    HW124134   6.514   2.632   5.407
 7745SOL    HW224135   6.359   2.669   5.372
 7746SOL     OW24136   1.757   0.566   6.336
 7746SOL    HW124137   1.678   0.627   6.346
 7746SOL    HW224138   1.778   0.526   6.425
 7747SOL     OW24139   4.672   4.792   0.774
 7747SOL    HW124140   4.765   4.789   0.738
 7747SOL    HW224141   4.627   4.875   0.742
 7748SOL     OW24142   1.158   3.827   6.674
 7748SOL    HW124143   1.245   3.875   6.679
 7748SOL    HW224144   1.175   3.730   6.657
 7749SOL     OW24145   5.899   3.452   5.916
 7749SOL    HW124146   5.997   3.441   5.935
 7749SOL    HW224147   5.874   3.548   5.931
 7750SOL     OW24148   3.799   5.585   2.856
 7750SOL    HW124149   3.758   5.675   2.871
 7750SOL    HW224150   3.769   5.523   2.928
 7751SOL     OW24151   1.130   2.431   1.371
 7751SOL    HW124152   1.071   2.434   1.452
 7751SOL    HW224153   1.145   2.336   1.344
 7752SOL     OW24154   2.686   1.195   2.349
 7752SOL    HW124155   2.638   1.168   2.433
 7752SOL    HW224156   2.756   1.262   2.371
 7753SOL     OW24157   4.989   0.624   4.866
 7753SOL    HW124158   4.980   0.635   4.966
 7753SOL    HW224159   4.909   0.664   4.821
 7754SOL     OW24160   4.464   6.310   1.129
 7754SOL    HW124161   4.546   6.296   1.074
 7754SOL    HW224162   4.418   6.223   1.144
 7755SOL     OW24163   1.572   2.738   5.972
 7755SOL    HW124164   1.530   2.658   5.930
 7755SOL    HW224165   1.502   2.790   6.021
 7756SOL     OW24166   1.502   4.411   1.957
 7756SOL    HW124167   1.522   4.398   2.054
 7756SOL    HW224168   1.566   4.476   1.917
 7757SOL     OW24169   0.436   4.337   0.671
 7757SOL    HW124170   0.481   4.249   0.682
 7757SOL    HW224171   0.337   4.325   0.672
 7758SOL     OW24172   6.566   1.218   5.087
 7758SOL    HW124173   6.578   1.273   5.004
 7758SOL    HW224174   6.522   1.274   5.158
 7759SOL     OW24175   3.332   1.199   2.678
 7759SOL    HW124176   3.276   1.220   2.758
 7759SOL    HW224177   3.422   1.168   2.708
 7760SOL     OW24178   5.403   2.867   0.435
 7760SOL    HW124179   5.452   2.895   0.517
 7760SOL    HW224180   5.466   2.864   0.358
 7761SOL     OW24181   4.909   5.107   2.992
 7761SOL    HW124182   5.007   5.126   2.989
 7761SOL    HW224183   4.893   5.010   2.971
 7762SOL     OW24184   4.759   1.130   7.009
 7762SOL    HW124185   4.692   1.057   7.017
 7762SOL    HW224186   4.721   1.203   6.951
 7763SOL     OW24187   1.413   0.648   2.907
 7763SOL    HW124188   1.431   0.735   2.861
 7763SOL    HW224189   1.451   0.651   2.999
 7764SOL     OW24190   3.758   4.356   5.369
 7764SOL    HW124191   3.851   4.325   5.348
 7764SOL    HW224192   3.746   4.450   5.336
 7765SOL     OW24193   6.664   4.017   4.158
 7765SOL    HW124194   6.598   4.042   4.087
 7765SOL    HW224195   6.636   4.059   4.245
 7766SOL     OW24196   0.208   2.870   5.594
 7766SOL    HW124197   0.215   2.789   5.652
 7766SOL    HW224198   0.271   2.941   5.628
 7767SOL     OW24199   4.102   0.710   3.032
 7767SOL    HW124200   4.137   0.748   2.946
 7767SOL    HW224201   4.170   0.723   3.104
 7768SOL     OW24202   3.161   6.108   4.200
 7768SOL    HW124203   3.150   6.023   4.252
 7768SOL    HW224204   3.181   6.183   4.262
 7769SOL     OW24205   4.105   1.885   6.157
 7769SOL    HW124206   4.013   1.924   6.149
 7769SOL    HW224207   4.172   1.959   6.158
 7770SOL     OW24208   1.340   2.945   3.405
 7770SOL    HW124209   1.384   3.005   3.471
 7770SOL    HW224210   1.386   2.857   3.403
 7771SOL     OW24211   1.160   3.002   5.164
 7771SOL    HW124212   1.097   3.055   5.107
 7771SOL    HW224213   1.155   2.906   5.138
 7772SOL     OW24214   5.136   6.638   2.024
 7772SOL    HW124215   5.072   6.627   2.100
 7772SOL    HW224216   5.098   6.701   1.957
 7773SOL     OW24217   2.572   6.765   5.758
 7773SOL    HW124218   2.607   6.857   5.738
 7773SOL    HW224219   2.492   6.772   5.817
 7774SOL     OW24220   5.131   1.080   2.657
 7774SOL    HW124221   5.167   1.010   2.596
 7774SOL    HW224222   5.062   1.040   2.717
 7775SOL     OW24223   4.116   2.424   1.346
 7775SOL    HW124224   4.039   2.363   1.325
 7775SOL    HW224225   4.098   2.471   1.433
 7776SOL     OW24226   2.355   1.979   3.651
 7776SOL    HW124227   2.329   1.887   3.681
 7776SOL    HW224228   2.338   2.043   3.726
 7777SOL     OW24229   4.977   4.534   2.867
 7777SOL    HW124230   5.051   4.601   2.866
 7777SOL    HW224231   4.992   4.468   2.941
 7778SOL     OW24232   0.917   3.114   1.740
 7778SOL    HW124233   0.880   3.197   1.782
 7778SOL    HW224234   0.878   3.034   1.785
 7779SOL     OW24235   2.001   1.444   4.029
 7779SOL    HW124236   2.023   1.509   4.102
 7779SOL    HW224237   1.908   1.461   3.996
 7780SOL     OW24238   6.595   5.859   3.879
 7780SOL    HW124239   6.570   5.831   3.972
 7780SOL    HW224240   6.557   5.950   3.861
 7781SOL     OW24241   3.251   3.213   1.606
 7781SOL    HW124242   3.210   3.269   1.679
 7781SOL    HW224243   3.185   3.200   1.533
 7782SOL     OW24244   5.027   5.385   3.322
 7782SOL    HW124245   5.011   5.476   3.284
 7782SOL    HW224246   5.012   5.387   3.421
 7783SOL     OW24247   0.149   6.638   3.776
 7783SOL    HW124248   0.232   6.695   3.769
 7783SOL    HW224249   0.073   6.685   3.731
 7784SOL     OW24250   0.358   3.107   2.434
 7784SOL    HW124251   0.355   3.009   2.419
 7784SOL    HW224252   0.439   3.145   2.388
 7785SOL     OW24253   5.994   0.377   2.552
 7785SOL    HW124254   6.060   0.378   2.626
 7785SOL    HW224255   6.007   0.457   2.494
 7786SOL     OW24256   5.554   0.701   6.291
 7786SOL    HW124257   5.520   0.677   6.200
 7786SOL    HW224258   5.652   0.681   6.296
 7787SOL     OW24259   0.930   2.011   0.906
 7787SOL    HW124260   0.878   1.985   0.824
 7787SOL    HW224261   0.964   2.104   0.896
 7788SOL     OW24262   0.656   4.193   2.518
 7788SOL    HW124263   0.638   4.149   2.430
 7788SOL    HW224264   0.619   4.137   2.592
 7789SOL     OW24265   3.995   7.023   6.480
 7789SOL    HW124266   3.999   7.015   6.579
 7789SOL    HW224267   4.054   0.070   6.450
 7790SOL     OW24268   4.023   4.814   5.046
 7790SOL    HW124269   4.115   4.783   5.069
 7790SOL    HW224270   3.975   4.840   5.130
 7791SOL     OW24271   1.507   6.238   1.190
 7791SOL    HW124272   1.575   6.166   1.180
 7791SOL    HW224273   1.528   6.313   1.127
 7792SOL     OW24274   1.321   1.683   1.600
 7792SOL    HW124275   1.363   1.644   1.519
 7792SOL    HW224276   1.277   1.770   1.576
 7793SOL     OW24277   4.789   1.015   0.737
 7793SOL    HW124278   4.863   0.977   0.682
 7793SOL    HW224279   4.821   1.096   0.786
 7794SOL     OW24280   0.906   1.636   3.061
 7794SOL    HW124281   0.978   1.635   2.992
 7794SOL    HW224282   0.864   1.546   3.067
 7795SOL     OW24283   4.666   3.340   0.890
 7795SOL    HW124284   4.618   3.264   0.933
 7795SOL    HW224285   4.728   3.306   0.820
 7796SOL     OW24286   3.939   1.687   0.196
 7796SOL    HW124287   3.966   1.682   0.100
 7796SOL    HW224288   3.891   1.774   0.212
 7797SOL     OW24289   1.637   5.790   2.744
 7797SOL    HW124290   1.623   5.806   2.646
 7797SOL    HW224291   1.556   5.819   2.794
 7798SOL     OW24292   2.240   2.783   0.611
 7798SOL    HW124293   2.301   2.808   0.686
 7798SOL    HW224294   2.162   2.846   0.609
 7799SOL     OW24295   2.631   5.808   4.188
 7799SOL    HW124296   2.724   5.833   4.162
 7799SOL    HW224297   2.568   5.835   4.116
 7800SOL     OW24298   0.514   1.397   1.556
 7800SOL    HW124299   0.436   1.335   1.545
 7800SOL    HW224300   0.586   1.370   1.491
 7801SOL     OW24301   2.970   2.552   0.990
 7801SOL    HW124302   2.911   2.472   0.979
 7801SOL    HW224303   3.065   2.526   0.974
 7802SOL     OW24304   0.059   4.706   4.369
 7802SOL    HW124305   0.110   4.691   4.454
 7802SOL    HW224306   0.018   4.619   4.339
 7803SOL     OW24307   3.148   2.461   6.203
 7803SOL    HW124308   3.053   2.447   6.232
 7803SOL    HW224309   3.186   2.375   6.170
 7804SOL     OW24310   3.236   1.606   5.446
 7804SOL    HW124311   3.143   1.642   5.442
 7804SOL    HW224312   3.299   1.673   5.407
 7805SOL     OW24313   0.043   1.724   6.267
 7805SOL    HW124314   7.004   1.789   6.232
 7805SOL    HW224315   0.122   1.722   6.205
 7806SOL     OW24316   6.598   2.728   4.998
 7806SOL    HW124317   6.582   2.800   5.066
 7806SOL    HW224318   6.563   2.757   4.909
 7807SOL     OW24319   2.543   6.361   5.504
 7807SOL    HW124320   2.637   6.327   5.502
 7807SOL    HW224321   2.496   6.325   5.584
 7808SOL     OW24322   0.448   2.856   4.546
 7808SOL    HW124323   0.518   2.920   4.576
 7808SOL    HW224324   0.386   2.837   4.622
 7809SOL     OW24325   2.909   0.544   2.874
 7809SOL    HW124326   2.829   0.564   2.817
 7809SOL    HW224327   2.916   0.613   2.946
 7810SOL     OW24328   2.783   6.941   5.476
 7810SOL    HW124329   2.792   7.016   5.410
 7810SOL    HW224330   2.701   6.956   5.531
 7811SOL     OW24331   1.114   5.950   3.267
 7811SOL    HW124332   1.086   5.873   3.210
 7811SOL    HW224333   1.095   5.930   3.363
 7812SOL     OW24334   3.152   0.011   5.486
 7812SOL    HW124335   3.185   7.015   5.577
 7812SOL    HW224336   3.230   0.038   5.428
 7813SOL     OW24337   5.048   0.957   0.615
 7813SOL    HW124338   5.002   1.043   0.594
 7813SOL    HW224339   5.132   0.975   0.665
 7814SOL     OW24340   6.468   1.986   1.548
 7814SOL    HW124341   6.440   2.005   1.454
 7814SOL    HW224342   6.387   1.979   1.606
 7815SOL     OW24343   4.676   5.756   3.616
 7815SOL    HW124344   4.670   5.710   3.705
 7815SOL    HW224345   4.753   5.720   3.564
 7816SOL     OW24346   1.516   1.180   5.623
 7816SOL    HW124347   1.474   1.172   5.533
 7816SOL    HW224348   1.446   1.169   5.694
 7817SOL     OW24349   5.127   0.905   5.576
 7817SOL    HW124350   5.038   0.874   5.543
 7817SOL    HW224351   5.172   0.830   5.624
 7818SOL     OW24352   3.912   6.899   3.423
 7818SOL    HW124353   3.866   6.870   3.339
 7818SOL    HW224354   4.000   6.852   3.431
 7819SOL     OW24355   2.724   2.402   4.458
 7819SOL    HW124356   2.802   2.458   4.430
 7819SOL    HW224357   2.756   2.327   4.516
 7820SOL     OW24358   1.661   0.707   6.669
 7820SOL    HW124359   1.720   0.785   6.650
 7820SOL    HW224360   1.708   0.622   6.644
 7821SOL     OW24361   2.696   6.117   5.997
 7821SOL    HW124362   2.717   6.199   6.050
 7821SOL    HW224363   2.598   6.100   6.000
 7822SOL     OW24364   0.595   1.457   4.743
 7822SOL    HW124365   0.502   1.442   4.776
 7822SOL    HW224366   0.651   1.497   4.816
 7823SOL     OW24367   1.797   2.185   5.046
 7823SOL    HW124368   1.852   2.268   5.041
 7823SOL    HW224369   1.799   2.139   4.957
 7824SOL     OW24370   6.436   4.159   2.849
 7824SOL    HW124371   6.346   4.119   2.864
 7824SOL    HW224372   6.476   4.185   2.936
 7825SOL     OW24373   3.012   3.855   4.190
 7825SOL    HW124374   2.925   3.847   4.238
 7825SOL    HW224375   3.013   3.792   4.112
 7826SOL     OW24376   6.199   6.978   0.965
 7826SOL    HW124377   6.180   6.983   1.063
 7826SOL    HW224378   6.193   0.042   0.925
 7827SOL     OW24379   5.170   3.434   0.253
 7827SOL    HW124380   5.190   3.467   0.161
 7827SOL    HW224381   5.094   3.488   0.292
 7828SOL     OW24382   0.912   5.358   0.002
 7828SOL    HW124383   0.817   5.384   0.019
 7828SOL    HW224384   0.965   5.369   0.086
 7829SOL     OW24385   3.219   4.101   2.755
 7829SOL    HW124386   3.202   4.199   2.744
 7829SOL    HW224387   3.238   4.061   2.666
 7830SOL     OW24388   6.949   4.815   0.069
 7830SOL    HW124389   0.021   4.819   0.064
 7830SOL    HW224390   6.916   4.745   0.005
 7831SOL     OW24391   3.350   3.864   0.183
 7831SOL    HW124392   3.278   3.869   0.114
 7831SOL    HW224393   3.379   3.957   0.207
 7832SOL     OW24394   3.713   2.746   5.938
 7832SOL    HW124395   3.776   2.755   5.861
 7832SOL    HW224396   3.707   2.650   5.965
 7833SOL     OW24397   6.356   6.651   1.908
 7833SOL    HW124398   6.273   6.608   1.873
 7833SOL    HW224399   6.421   6.664   1.834
 7834SOL     OW24400   4.906   1.154   1.460
 7834SOL    HW124401   4.910   1.084   1.532
 7834SOL    HW224402   4.810   1.179   1.443
 7835SOL     OW24403   2.178   2.357   4.071
 7835SOL    HW124404   2.274   2.363   4.099
 7835SOL    HW224405   2.121   2.409   4.135
 7836SOL     OW24406   2.410   6.710   0.295
 7836SOL    HW124407   2.407   6.756   0.206
 7836SOL    HW224408   2.319   6.712   0.337
 7837SOL     OW24409   4.935   6.862   1.931
 7837SOL    HW124410   4.849   6.913   1.918
 7837SOL    HW224411   5.011   6.927   1.934
 7838SOL     OW24412   3.366   5.292   4.028
 7838SOL    HW124413   3.352   5.255   4.119
 7838SOL    HW224414   3.288   5.351   4.003
 7839SOL     OW24415   0.039   5.586   3.145
 7839SOL    HW124416   6.978   5.630   3.129
 7839SOL    HW224417   0.089   5.638   3.214
 7840SOL     OW24418   4.033   2.987   6.282
 7840SOL    HW124419   3.957   2.935   6.243
 7840SOL    HW224420   4.013   3.085   6.276
 7841SOL     OW24421   1.268   1.471   5.581
 7841SOL    HW124422   1.212   1.392   5.556
 7841SOL    HW224423   1.210   1.552   5.590
 7842SOL     OW24424   1.020   1.114   2.411
 7842SOL    HW124425   1.107   1.151   2.443
 7842SOL    HW224426   1.032   1.077   2.318
 7843SOL     OW24427   6.428   2.022   1.910
 7843SOL    HW124428   6.364   1.986   1.841
 7843SOL    HW224429   6.507   2.062   1.864
 7844SOL     OW24430   3.801   1.702   3.199
 7844SOL    HW124431   3.799   1.705   3.099
 7844SOL    HW224432   3.756   1.619   3.231
 7845SOL     OW24433   0.998   0.987   4.728
 7845SOL    HW124434   1.021   0.952   4.637
 7845SOL    HW224435   1.074   1.042   4.763
 7846SOL     OW24436   5.265   6.821   2.812
 7846SOL    HW124437   5.298   6.766   2.888
 7846SOL    HW224438   5.198   6.769   2.760
 7847SOL     OW24439   0.775   6.454   5.634
 7847SOL    HW124440   0.851   6.517   5.623
 7847SOL    HW224441   0.696   6.502   5.672
 7848SOL     OW24442   4.346   3.155   1.400
 7848SOL    HW124443   4.270   3.147   1.465
 7848SOL    HW224444   4.344   3.246   1.358
 7849SOL     OW24445   6.642   4.520   5.850
 7849SOL    HW124446   6.671   4.564   5.935
 7849SOL    HW224447   6.543   4.505   5.853
 7850SOL     OW24448   1.311   2.943   4.791
 7850SOL    HW124449   1.337   2.855   4.832
 7850SOL    HW224450   1.281   3.005   4.863
 7851SOL     OW24451   2.878   6.353   0.475
 7851SOL    HW124452   2.902   6.449   0.468
 7851SOL    HW224453   2.942   6.307   0.537
 7852SOL     OW24454   2.272   6.333   0.721
 7852SOL    HW124455   2.360   6.337   0.768
 7852SOL    HW224456   2.239   6.426   0.703
 7853SOL     OW24457   2.700   2.138   6.700
 7853SOL    HW124458   2.665   2.064   6.642
 7853SOL    HW224459   2.703   2.107   6.795
 7854SOL     OW24460   3.912   4.090   4.727
 7854SOL    HW124461   3.977   4.020   4.699
 7854SOL    HW224462   3.918   4.169   4.665
 7855SOL     OW24463   3.137   7.021   4.792
 7855SOL    HW124464   3.104   6.934   4.756
 7855SOL    HW224465   3.186   7.005   4.878
 7856SOL     OW24466   3.014   2.419   5.640
 7856SOL    HW124467   3.021   2.433   5.541
 7856SOL    HW224468   2.972   2.499   5.682
 7857SOL     OW24469   0.384   3.865   4.842
 7857SOL    HW124470   0.481   3.857   4.866
 7857SOL    HW224471   0.328   3.840   4.921
 7858SOL     OW24472   5.283   2.884   3.554
 7858SOL    HW124473   5.241   2.839   3.474
 7858SOL    HW224474   5.241   2.973   3.567
 7859SOL     OW24475   6.827   6.793   0.018
 7859SOL    HW124476   6.922   6.819   0.039
 7859SOL    HW224477   6.827   6.719   6.979
 7860SOL     OW24478   4.297   6.865   0.326
 7860SOL    HW124479   4.294   6.826   0.418
 7860SOL    HW224480   4.378   6.923   0.317
 7861SOL     OW24481   6.439   3.565   0.268
 7861SOL    HW124482   6.373   3.492   0.251
 7861SOL    HW224483   6.392   3.642   0.312
 7862SOL     OW24484   2.942   4.661   1.636
 7862SOL    HW124485   2.921   4.614   1.722
 7862SOL    HW224486   2.893   4.617   1.561
 7863SOL     OW24487   4.544   5.825   2.650
 7863SOL    HW124488   4.611   5.767   2.604
 7863SOL    HW224489   4.592   5.895   2.704
 7864SOL     OW24490   2.152   5.678   5.579
 7864SOL    HW124491   2.147   5.615   5.656
 7864SOL    HW224492   2.083   5.654   5.511
 7865SOL     OW24493   4.524   0.400   2.952
 7865SOL    HW124494   4.597   0.387   2.885
 7865SOL    HW224495   4.506   0.314   2.999
 7866SOL     OW24496   2.812   0.427   5.343
 7866SOL    HW124497   2.789   0.503   5.404
 7866SOL    HW224498   2.877   0.459   5.274
 7867SOL     OW24499   7.019   2.290   0.240
 7867SOL    HW124500   6.935   2.344   0.250
 7867SOL    HW224501   7.003   2.215   0.176
 7868SOL     OW24502   5.301   0.328   1.430
 7868SOL    HW124503   5.330   0.400   1.493
 7868SOL    HW224504   5.332   0.351   1.337
 7869SOL     OW24505   5.878   1.946   4.433
 7869SOL    HW124506   5.908   1.887   4.508
 7869SOL    HW224507   5.947   1.945   4.360
 7870SOL     OW24508   5.840   0.310   3.184
 7870SOL    HW124509   5.848   0.231   3.124
 7870SOL    HW224510   5.898   0.297   3.264
 7871SOL     OW24511   5.383   2.663   3.010
 7871SOL    HW124512   5.459   2.725   2.993
 7871SOL    HW224513   5.356   2.619   2.924
 7872SOL     OW24514   5.327   3.967   3.799
 7872SOL    HW124515   5.296   4.058   3.773
 7872SOL    HW224516   5.357   3.917   3.718
 7873SOL     OW24517   7.001   6.391   4.623
 7873SOL    HW124518   6.984   6.424   4.530
 7873SOL    HW224519   0.050   6.326   4.621
 7874SOL     OW24520   5.917   6.472   0.310
 7874SOL    HW124521   5.876   6.479   0.401
 7874SOL    HW224522   5.985   6.398   0.309
 7875SOL     OW24523   5.191   2.452   0.332
 7875SOL    HW124524   5.268   2.465   0.269
 7875SOL    HW224525   5.150   2.541   0.353
 7876SOL     OW24526   6.818   2.738   5.294
 7876SOL    HW124527   6.912   2.769   5.277
 7876SOL    HW224528   6.755   2.815   5.279
 7877SOL     OW24529   6.035   3.298   1.284
 7877SOL    HW124530   6.022   3.214   1.231
 7877SOL    HW224531   6.105   3.283   1.353
 7878SOL     OW24532   3.928   3.465   2.322
 7878SOL    HW124533   3.981   3.523   2.261
 7878SOL    HW224534   3.969   3.466   2.413
 7879SOL     OW24535   6.614   1.502   5.543
 7879SOL    HW124536   6.712   1.496   5.565
 7879SOL    HW224537   6.584   1.597   5.552
 7880SOL     OW24538   1.988   6.129   6.428
 7880SOL    HW124539   2.054   6.098   6.496
 7880SOL    HW224540   2.011   6.222   6.399
 7881SOL     OW24541   6.925   4.816   5.547
 7881SOL    HW124542   6.852   4.767   5.596
 7881SOL    HW224543   6.996   4.844   5.612
 7882SOL     OW24544   1.157   4.680   0.630
 7882SOL    HW124545   1.246   4.690   0.674
 7882SOL    HW224546   1.089   4.653   0.697
 7883SOL     OW24547   3.082   2.093   2.709
 7883SOL    HW124548   3.111   2.114   2.615
 7883SOL    HW224549   3.072   2.179   2.759
 7884SOL     OW24550   6.487   2.381   5.898
 7884SOL    HW124551   6.440   2.458   5.942
 7884SOL    HW224552   6.449   2.295   5.932
 7885SOL     OW24553   5.204   4.547   2.174
 7885SOL    HW124554   5.287   4.600   2.159
 7885SOL    HW224555   5.126   4.593   2.132
 7886SOL     OW24556   3.717   5.356   3.493
 7886SOL    HW124557   3.669   5.269   3.482
 7886SOL    HW224558   3.815   5.342   3.482
 7887SOL     OW24559   0.436   3.464   0.753
 7887SOL    HW124560   0.418   3.408   0.834
 7887SOL    HW224561   0.357   3.522   0.734
 7888SOL     OW24562   0.396   1.102   5.123
 7888SOL    HW124563   0.392   1.058   5.212
 7888SOL    HW224564   0.309   1.147   5.103
 7889SOL     OW24565   6.099   4.539   0.520
 7889SOL    HW124566   6.060   4.624   0.485
 7889SOL    HW224567   6.059   4.462   0.471
 7890SOL     OW24568   1.174   2.356   1.850
 7890SOL    HW124569   1.197   2.260   1.832
 7890SOL    HW224570   1.176   2.373   1.949
 7891SOL     OW24571   6.586   0.951   5.061
 7891SOL    HW124572   6.668   0.954   5.004
 7891SOL    HW224573   6.570   1.041   5.102
 7892SOL     OW24574   0.784   1.798   4.681
 7892SOL    HW124575   0.718   1.805   4.606
 7892SOL    HW224576   0.799   1.888   4.720
 7893SOL     OW24577   5.824   6.099   0.687
 7893SOL    HW124578   5.916   6.123   0.716
 7893SOL    HW224579   5.819   6.001   0.669
 7894SOL     OW24580   2.719   0.259   6.309
 7894SOL    HW124581   2.762   0.215   6.230
 7894SOL    HW224582   2.678   0.190   6.368
 7895SOL     OW24583   5.113   6.954   2.346
 7895SOL    HW124584   5.209   6.936   2.326
 7895SOL    HW224585   5.103   6.981   2.442
 7896SOL     OW24586   3.298   1.811   1.373
 7896SOL    HW124587   3.226   1.863   1.420
 7896SOL    HW224588   3.385   1.827   1.418
 7897SOL     OW24589   5.130   0.942   1.389
 7897SOL    HW124590   5.138   0.887   1.472
 7897SOL    HW224591   5.153   1.037   1.410
 7898SOL     OW24592   3.605   6.049   3.408
 7898SOL    HW124593   3.537   6.000   3.461
 7898SOL    HW224594   3.684   6.070   3.466
 7899SOL     OW24595   5.675   4.756   2.751
 7899SOL    HW124596   5.761   4.787   2.790
 7899SOL    HW224597   5.656   4.662   2.780
 7900SOL     OW24598   0.530   4.073   0.734
 7900SOL    HW124599   0.572   4.112   0.815
 7900SOL    HW224600   0.434   4.053   0.752
 7901SOL     OW24601   0.172   3.203   6.374
 7901SOL    HW124602   0.110   3.281   6.380
 7901SOL    HW224603   0.121   3.123   6.343
 7902SOL     OW24604   1.560   1.056   1.510
 7902SOL    HW124605   1.592   0.985   1.572
 7902SOL    HW224606   1.509   1.125   1.562
 7903SOL     OW24607   3.492   2.158   5.694
 7903SOL    HW124608   3.418   2.186   5.632
 7903SOL    HW224609   3.534   2.239   5.735
 7904SOL     OW24610   5.824   3.404   3.177
 7904SOL    HW124611   5.736   3.359   3.160
 7904SOL    HW224612   5.887   3.338   3.218
 7905SOL     OW24613   6.371   2.188   0.589
 7905SOL    HW124614   6.362   2.287   0.583
 7905SOL    HW224615   6.291   2.150   0.635
 7906SOL     OW24616   6.928   5.961   6.050
 7906SOL    HW124617   7.012   6.003   6.085
 7906SOL    HW224618   6.876   5.922   6.126
 7907SOL     OW24619   5.149   5.757   2.997
 7907SOL    HW124620   5.064   5.710   2.972
 7907SOL    HW224621   5.153   5.846   2.952
 7908SOL     OW24622   1.571   0.067   6.384
 7908SOL    HW124623   1.495   0.089   6.322
 7908SOL    HW224624   1.543   7.020   6.444
 7909SOL     OW24625   0.016   4.020   3.100
 7909SOL    HW124626   0.041   4.102   3.048
 7909SOL    HW224627   7.004   3.953   3.038
 7910SOL     OW24628   1.538   4.094   4.460
 7910SOL    HW124629   1.587   4.153   4.396
 7910SOL    HW224630   1.598   4.071   4.537
 7911SOL     OW24631   5.898   3.910   6.661
 7911SOL    HW124632   5.990   3.940   6.635
 7911SOL    HW224633   5.830   3.968   6.616
 7912SOL     OW24634   5.872   5.623   1.764
 7912SOL    HW124635   5.894   5.687   1.691
 7912SOL    HW224636   5.925   5.646   1.846
 7913SOL     OW24637   0.934   3.979   6.708
 7913SOL    HW124638   1.013   3.919   6.696
 7913SOL    HW224639   0.946   4.061   6.654
 7914SOL     OW24640   1.121   0.391   4.840
 7914SOL    HW124641   1.116   0.302   4.794
 7914SOL    HW224642   1.146   0.461   4.773
 7915SOL     OW24643   2.336   6.403   1.691
 7915SOL    HW124644   2.262   6.428   1.628
 7915SOL    HW224645   2.407   6.474   1.687
 7916SOL     OW24646   2.081   0.435   2.891
 7916SOL    HW124647   2.156   0.409   2.830
 7916SOL    HW224648   2.009   0.479   2.838
 7917SOL     OW24649   4.512   1.175   2.953
 7917SOL    HW124650   4.495   1.190   2.855
 7917SOL    HW224651   4.571   1.248   2.988
 7918SOL     OW24652   1.710   2.711   2.632
 7918SOL    HW124653   1.655   2.635   2.597
 7918SOL    HW224654   1.693   2.721   2.730
 7919SOL     OW24655   0.989   0.504   4.609
 7919SOL    HW124656   0.907   0.556   4.586
 7919SOL    HW224657   1.064   0.567   4.632
 7920SOL     OW24658   4.963   0.067   1.171
 7920SOL    HW124659   4.922   0.149   1.211
 7920SOL    HW224660   4.895   7.023   1.163
 7921SOL     OW24661   6.513   3.510   1.151
 7921SOL    HW124662   6.547   3.497   1.058
 7921SOL    HW224663   6.493   3.607   1.166
 7922SOL     OW24664   1.967   6.749   3.337
 7922SOL    HW124665   1.971   6.842   3.300
 7922SOL    HW224666   1.886   6.739   3.395
 7923SOL     OW24667   5.445   0.242   6.733
 7923SOL    HW124668   5.496   0.325   6.754
 7923SOL    HW224669   5.364   0.237   6.792
 7924SOL     OW24670   5.364   5.651   6.823
 7924SOL    HW124671   5.267   5.649   6.849
 7924SOL    HW224672   5.414   5.584   6.878
 7925SOL     OW24673   2.235   4.501   6.527
 7925SOL    HW124674   2.213   4.582   6.473
 7925SOL    HW224675   2.180   4.501   6.611
 7926SOL     OW24676   4.995   5.564   0.580
 7926SOL    HW124677   4.916   5.511   0.550
 7926SOL    HW224678   4.975   5.606   0.668
 7927SOL     OW24679   4.730   6.804   3.735
 7927SOL    HW124680   4.670   6.882   3.718
 7927SOL    HW224681   4.825   6.836   3.739
 7928SOL     OW24682   5.891   2.912   3.926
 7928SOL    HW124683   5.890   2.958   4.015
 7928SOL    HW224684   5.946   2.966   3.862
 7929SOL     OW24685   4.482   3.960   5.652
 7929SOL    HW124686   4.412   4.026   5.678
 7929SOL    HW224687   4.469   3.934   5.556
 7930SOL     OW24688   3.587   5.291   0.715
 7930SOL    HW124689   3.602   5.193   0.708
 7930SOL    HW224690   3.645   5.328   0.788
 7931SOL     OW24691   5.481   0.829   0.525
 7931SOL    HW124692   5.556   0.886   0.558
 7931SOL    HW224693   5.514   0.770   0.451
 7932SOL     OW24694   1.229   3.692   0.799
 7932SOL    HW124695   1.155   3.733   0.746
 7932SOL    HW224696   1.256   3.605   0.757
 7933SOL     OW24697   2.334   1.493   0.268
 7933SOL    HW124698   2.420   1.510   0.315
 7933SOL    HW224699   2.347   1.420   0.200
 7934SOL     OW24700   6.549   5.377   0.877
 7934SOL    HW124701   6.472   5.435   0.905
 7934SOL    HW224702   6.618   5.375   0.949
 7935SOL     OW24703   6.479   4.552   3.899
 7935SOL    HW124704   6.544   4.507   3.837
 7935SOL    HW224705   6.427   4.621   3.848
 7936SOL     OW24706   2.352   5.440   3.823
 7936SOL    HW124707   2.419   5.421   3.894
 7936SOL    HW224708   2.396   5.439   3.733
 7937SOL     OW24709   4.104   0.939   1.803
 7937SOL    HW124710   4.073   1.004   1.733
 7937SOL    HW224711   4.201   0.919   1.789
 7938SOL     OW24712   1.864   0.065   3.377
 7938SOL    HW124713   1.820   0.151   3.404
 7938SOL    HW224714   1.919   0.079   3.295
 7939SOL     OW24715   1.943   0.360   3.962
 7939SOL    HW124716   2.042   0.352   3.946
 7939SOL    HW224717   1.904   0.421   3.893
 7940SOL     OW24718   6.512   1.092   5.725
 7940SOL    HW124719   6.485   1.182   5.692
 7940SOL    HW224720   6.469   1.074   5.814
 7941SOL     OW24721   2.743   0.474   0.989
 7941SOL    HW124722   2.711   0.405   0.923
 7941SOL    HW224723   2.807   0.536   0.944
 7942SOL     OW24724   1.838   3.490   0.793
 7942SOL    HW124725   1.750   3.459   0.827
 7942SOL    HW224726   1.838   3.589   0.786
 7943SOL     OW24727   1.716   5.817   6.692
 7943SOL    HW124728   1.619   5.835   6.702
 7943SOL    HW224729   1.753   5.870   6.615
 7944SOL     OW24730   1.458   1.876   0.695
 7944SOL    HW124731   1.479   1.778   0.694
 7944SOL    HW224732   1.392   1.895   0.768
 7945SOL     OW24733   6.534   4.521   3.539
 7945SOL    HW124734   6.579   4.457   3.601
 7945SOL    HW224735   6.441   4.489   3.521
 7946SOL     OW24736   5.427   1.235   5.702
 7946SOL    HW124737   5.495   1.250   5.773
 7946SOL    HW224738   5.335   1.248   5.740
 7947SOL     OW24739   0.765   4.127   0.041
 7947SOL    HW124740   0.714   4.208   0.010
 7947SOL    HW224741   0.705   4.047   0.040
 7948SOL     OW24742   1.334   5.603   1.076
 7948SOL    HW124743   1.400   5.662   1.121
 7948SOL    HW224744   1.333   5.623   0.978
 7949SOL     OW24745   3.964   5.271   5.191
 7949SOL    HW124746   3.933   5.333   5.263
 7949SOL    HW224747   3.896   5.269   5.118
 7950SOL     OW24748   6.260   2.637   6.512
 7950SOL    HW124749   6.281   2.602   6.603
 7950SOL    HW224750   6.272   2.564   6.445
 7951SOL     OW24751   3.143   0.533   2.691
 7951SOL    HW124752   3.220   0.512   2.752
 7951SOL    HW224753   3.058   0.534   2.744
 7952SOL     OW24754   0.355   3.405   5.309
 7952SOL    HW124755   0.350   3.363   5.218
 7952SOL    HW224756   0.340   3.504   5.301
 7953SOL     OW24757   0.537   0.902   6.954
 7953SOL    HW124758   0.634   0.888   6.932
 7953SOL    HW224759   0.514   0.851   0.009
 7954SOL     OW24760   4.005   2.282   0.940
 7954SOL    HW124761   4.037   2.311   0.850
 7954SOL    HW224762   3.973   2.361   0.991
 7955SOL     OW24763   6.451   6.805   6.783
 7955SOL    HW124764   6.504   6.889   6.794
 7955SOL    HW224765   6.512   6.731   6.755
 7956SOL     OW24766   0.156   6.789   1.487
 7956SOL    HW124767   0.079   6.730   1.510
 7956SOL    HW224768   0.191   6.832   1.570
 7957SOL     OW24769   6.059   2.094   6.314
 7957SOL    HW124770   6.080   2.043   6.230
 7957SOL    HW224771   6.129   2.164   6.329
 7958SOL     OW24772   4.778   2.500   5.870
 7958SOL    HW124773   4.847   2.568   5.896
 7958SOL    HW224774   4.732   2.466   5.953
 7959SOL     OW24775   5.525   2.716   0.112
 7959SOL    HW124776   5.584   2.765   0.176
 7959SOL    HW224777   5.434   2.756   0.114
 7960SOL     OW24778   0.877   2.920   5.005
 7960SOL    HW124779   0.889   2.905   5.103
 7960SOL    HW224780   0.875   3.018   4.986
 7961SOL     OW24781   6.344   0.015   6.044
 7961SOL    HW124782   6.299   6.967   5.999
 7961SOL    HW224783   6.435   7.015   6.075
 7962SOL     OW24784   6.288   0.585   4.499
 7962SOL    HW124785   6.249   0.527   4.571
 7962SOL    HW224786   6.343   0.658   4.540
 7963SOL     OW24787   5.797   6.201   2.569
 7963SOL    HW124788   5.830   6.211   2.663
 7963SOL    HW224789   5.757   6.110   2.557
 7964SOL     OW24790   1.207   5.016   1.832
 7964SOL    HW124791   1.297   5.046   1.803
 7964SOL    HW224792   1.154   4.987   1.752
 7965SOL     OW24793   4.808   1.939   6.530
 7965SOL    HW124794   4.812   1.995   6.612
 7965SOL    HW224795   4.893   1.950   6.477
 7966SOL     OW24796   5.752   4.028   5.198
 7966SOL    HW124797   5.700   4.101   5.153
 7966SOL    HW224798   5.696   3.985   5.268
 7967SOL     OW24799   2.200   4.496   1.844
 7967SOL    HW124800   2.210   4.480   1.943
 7967SOL    HW224801   2.290   4.496   1.801
 7968SOL     OW24802   2.145   2.468   3.280
 7968SOL    HW124803   2.129   2.385   3.227
 7968SOL    HW224804   2.221   2.519   3.239
 7969SOL     OW24805   2.468   4.450   6.404
 7969SOL    HW124806   2.390   4.482   6.457
 7969SOL    HW224807   2.437   4.384   6.335
 7970SOL     OW24808   6.560   2.618   2.718
 7970SOL    HW124809   6.546   2.585   2.625
 7970SOL    HW224810   6.587   2.715   2.716
 7971SOL     OW24811   2.552   7.024   0.086
 7971SOL    HW124812   2.584   0.003   7.020
 7971SOL    HW224813   2.496   0.076   0.108
 7972SOL     OW24814   3.364   2.908   3.986
 7972SOL    HW124815   3.365   2.884   3.889
 7972SOL    HW224816   3.281   2.961   4.006
 7973SOL     OW24817   1.105   5.557   2.176
 7973SOL    HW124818   1.102   5.615   2.257
 7973SOL    HW224819   1.124   5.462   2.203
 7974SOL     OW24820   0.398   3.146   3.708
 7974SOL    HW124821   0.460   3.068   3.712
 7974SOL    HW224822   0.339   3.137   3.628
 7975SOL     OW24823   3.775   0.239   6.436
 7975SOL    HW124824   3.793   0.146   6.467
 7975SOL    HW224825   3.678   0.260   6.447
 7976SOL     OW24826   0.010   0.084   0.818
 7976SOL    HW124827   7.026   7.025   0.771
 7976SOL    HW224828   7.022   0.072   0.916
 7977SOL     OW24829   5.434   5.073   3.005
 7977SOL    HW124830   5.514   5.014   2.994
 7977SOL    HW224831   5.464   5.167   3.022
 7978SOL     OW24832   0.386   4.228   1.475
 7978SOL    HW124833   0.368   4.192   1.383
 7978SOL    HW224834   0.409   4.153   1.536
 7979SOL     OW24835   3.842   2.834   5.678
 7979SOL    HW124836   3.915   2.894   5.645
 7979SOL    HW224837   3.788   2.801   5.600
 7980SOL     OW24838   3.925   5.883   2.640
 7980SOL    HW124839   3.849   5.893   2.704
 7980SOL    HW224840   4.011   5.885   2.691
 7981SOL     OW24841   1.073   2.916   3.783
 7981SOL    HW124842   1.042   2.831   3.740
 7981SOL    HW224843   0.993   2.969   3.813
 7982SOL     OW24844   6.582   6.885   0.698
 7982SOL    HW124845   6.487   6.904   0.672
 7982SOL    HW224846   6.642   6.904   0.619
 7983SOL     OW24847   3.656   1.590   0.705
 7983SOL    HW124848   3.699   1.653   0.771
 7983SOL    HW224849   3.557   1.606   0.704
 7984SOL     OW24850   5.835   1.265   1.870
 7984SOL    HW124851   5.822   1.174   1.909
 7984SOL    HW224852   5.793   1.268   1.779
 7985SOL     OW24853   2.848   3.798   6.158
 7985SOL    HW124854   2.832   3.709   6.201
 7985SOL    HW224855   2.833   3.871   6.225
 7986SOL     OW24856   2.058   1.291   3.485
 7986SOL    HW124857   2.028   1.384   3.505
 7986SOL    HW224858   2.004   1.226   3.538
 7987SOL     OW24859   0.485   2.644   0.040
 7987SOL    HW124860   0.434   2.668   6.986
 7987SOL    HW224861   0.497   2.726   0.097
 7988SOL     OW24862   6.224   0.014   1.978
 7988SOL    HW124863   6.132   7.023   2.012
 7988SOL    HW224864   6.277   0.062   2.048
 7989SOL     OW24865   0.845   5.053   1.992
 7989SOL    HW124866   0.796   4.966   1.986
 7989SOL    HW224867   0.904   5.052   2.073
 7990SOL     OW24868   4.338   4.842   5.625
 7990SOL    HW124869   4.373   4.881   5.539
 7990SOL    HW224870   4.286   4.759   5.604
 7991SOL     OW24871   5.245   0.622   4.205
 7991SOL    HW124872   5.265   0.595   4.300
 7991SOL    HW224873   5.253   0.721   4.197
 7992SOL     OW24874   3.177   0.273   0.539
 7992SOL    HW124875   3.142   0.365   0.557
 7992SOL    HW224876   3.112   0.222   0.484
 7993SOL     OW24877   6.128   4.555   1.392
 7993SOL    HW124878   6.057   4.597   1.336
 7993SOL    HW224879   6.085   4.497   1.462
 7994SOL     OW24880   0.825   1.084   5.117
 7994SOL    HW124881   0.845   1.011   5.182
 7994SOL    HW224882   0.910   1.130   5.090
 7995SOL     OW24883   0.584   5.790   0.354
 7995SOL    HW124884   0.565   5.829   0.444
 7995SOL    HW224885   0.655   5.720   0.362
 7996SOL     OW24886   1.683   6.365   4.095
 7996SOL    HW124887   1.633   6.278   4.084
 7996SOL    HW224888   1.682   6.415   4.008
 7997SOL     OW24889   2.519   0.706   6.094
 7997SOL    HW124890   2.571   0.627   6.127
 7997SOL    HW224891   2.472   0.750   6.170
 7998SOL     OW24892   1.966   2.003   1.831
 7998SOL    HW124893   1.955   2.100   1.810
 7998SOL    HW224894   2.060   1.975   1.813
 7999SOL     OW24895   6.997   0.758   2.355
 7999SOL    HW124896   6.986   0.794   2.448
 7999SOL    HW224897   0.000   0.664   2.359
 8000SOL     OW24898   4.665   5.830   0.524
 8000SOL    HW124899   4.601   5.904   0.504
 8000SOL    HW224900   4.619   5.759   0.577
 8001SOL     OW24901   5.114   4.817   2.065
 8001SOL    HW124902   5.104   4.914   2.041
 8001SOL    HW224903   5.164   4.770   1.993
 8002SOL     OW24904   1.260   0.653   5.226
 8002SOL    HW124905   1.358   0.651   5.205
 8002SOL    HW224906   1.244   0.601   5.310
 8003SOL     OW24907   2.367   5.469   2.841
 8003SOL    HW124908   2.430   5.416   2.784
 8003SOL    HW224909   2.333   5.547   2.788
 8004SOL     OW24910   2.193   4.044   3.629
 8004SOL    HW124911   2.226   4.077   3.541
 8004SOL    HW224912   2.182   4.122   3.691
 8005SOL     OW24913   2.909   0.158   4.834
 8005SOL    HW124914   2.998   0.114   4.818
 8005SOL    HW224915   2.893   0.167   4.932
 8006SOL     OW24916   4.681   5.266   6.516
 8006SOL    HW124917   4.670   5.353   6.467
 8006SOL    HW224918   4.652   5.277   6.611
 8007SOL     OW24919   0.780   0.306   1.291
 8007SOL    HW124920   0.845   0.261   1.229
 8007SOL    HW224921   0.731   0.378   1.242
 8008SOL     OW24922   4.999   5.319   1.369
 8008SOL    HW124923   4.973   5.231   1.409
 8008SOL    HW224924   5.003   5.388   1.442
 8009SOL     OW24925   5.659   0.272   1.486
 8009SOL    HW124926   5.653   0.244   1.390
 8009SOL    HW224927   5.745   0.322   1.500
 8010SOL     OW24928   3.047   6.828   0.604
 8010SOL    HW124929   3.129   6.880   0.579
 8010SOL    HW224930   3.022   6.849   0.699
 8011SOL     OW24931   3.719   1.489   1.726
 8011SOL    HW124932   3.769   1.482   1.640
 8011SOL    HW224933   3.745   1.573   1.774
 8012SOL     OW24934   5.893   0.776   5.303
 8012SOL    HW124935   5.947   0.796   5.221
 8012SOL    HW224936   5.809   0.730   5.276
 8013SOL     OW24937   3.656   0.958   3.545
 8013SOL    HW124938   3.682   0.864   3.525
 8013SOL    HW224939   3.592   0.960   3.622
 8014SOL     OW24940   2.138   2.523   3.546
 8014SOL    HW124941   2.040   2.545   3.543
 8014SOL    HW224942   2.174   2.520   3.453
 8015SOL     OW24943   3.908   5.626   5.194
 8015SOL    HW124944   3.816   5.589   5.182
 8015SOL    HW224945   3.959   5.617   5.108
 8016SOL     OW24946   2.678   3.670   5.648
 8016SOL    HW124947   2.737   3.602   5.604
 8016SOL    HW224948   2.727   3.756   5.657
 8017SOL     OW24949   5.496   6.658   1.925
 8017SOL    HW124950   5.491   6.685   1.828
 8017SOL    HW224951   5.592   6.649   1.952
 8018SOL     OW24952   3.636   2.725   1.166
 8018SOL    HW124953   3.714   2.675   1.204
 8018SOL    HW224954   3.567   2.738   1.236
 8019SOL     OW24955   3.167   3.403   0.807
 8019SOL    HW124956   3.111   3.335   0.854
 8019SOL    HW224957   3.206   3.363   0.724
 8020SOL     OW24958   0.872   6.871   0.099
 8020SOL    HW124959   0.845   6.873   0.196
 8020SOL    HW224960   0.966   6.839   0.092
 8021SOL     OW24961   1.250   2.059   0.577
 8021SOL    HW124962   1.231   2.034   0.482
 8021SOL    HW224963   1.304   1.987   0.620
 8022SOL     OW24964   4.236   0.048   2.580
 8022SOL    HW124965   4.289   0.045   2.665
 8022SOL    HW224966   4.215   6.983   2.550
 8023SOL     OW24967   3.682   4.839   2.577
 8023SOL    HW124968   3.768   4.795   2.603
 8023SOL    HW224969   3.700   4.908   2.506
 8024SOL     OW24970   2.499   1.087   6.586
 8024SOL    HW124971   2.429   1.066   6.654
 8024SOL    HW224972   2.588   1.096   6.631
 8025SOL     OW24973   1.357   6.892   1.737
 8025SOL    HW124974   1.440   6.843   1.762
 8025SOL    HW224975   1.278   6.832   1.750
 8026SOL     OW24976   0.648   6.580   5.345
 8026SOL    HW124977   0.729   6.527   5.369
 8026SOL    HW224978   0.675   6.661   5.292
 8027SOL     OW24979   4.292   0.059   6.209
 8027SOL    HW124980   4.228   0.096   6.275
 8027SOL    HW224981   4.379   0.109   6.215
 8028SOL     OW24982   3.407   5.698   6.276
 8028SOL    HW124983   3.416   5.730   6.370
 8028SOL    HW224984   3.432   5.772   6.213
 8029SOL     OW24985   1.764   6.984   1.229
 8029SOL    HW124986   1.723   6.896   1.256
 8029SOL    HW224987   1.718   7.018   1.147
 8030SOL     OW24988   0.922   3.443   0.515
 8030SOL    HW124989   0.860   3.515   0.548
 8030SOL    HW224990   0.981   3.481   0.443
 8031SOL     OW24991   0.580   0.630   4.290
 8031SOL    HW124992   0.610   0.567   4.361
 8031SOL    HW224993   0.506   0.687   4.326
 8032SOL     OW24994   0.889   3.507   1.694
 8032SOL    HW124995   0.988   3.500   1.708
 8032SOL    HW224996   0.865   3.603   1.679
 8033SOL     OW24997   3.572   5.045   0.500
 8033SOL    HW124998   3.667   5.071   0.486
 8033SOL    HW224999   3.516   5.081   0.426
 8034SOL     OW25000   0.990   1.613   5.204
 8034SOL    HW125001   1.077   1.659   5.220
 8034SOL    HW225002   1.001   1.545   5.131
 8035SOL     OW25003   5.230   0.472   3.577
 8035SOL    HW125004   5.231   0.423   3.490
 8035SOL    HW225005   5.319   0.463   3.621
 8036SOL     OW25006   5.384   4.999   5.300
 8036SOL    HW125007   5.287   5.025   5.299
 8036SOL    HW225008   5.394   4.909   5.257
 8037SOL     OW25009   3.712   0.944   6.445
 8037SOL    HW125010   3.630   0.989   6.479
 8037SOL    HW225011   3.708   0.846   6.468
 8038SOL     OW25012   5.504   5.800   2.219
 8038SOL    HW125013   5.404   5.796   2.230
 8038SOL    HW225014   5.529   5.887   2.177
 8039SOL     OW25015   1.923   2.433   5.016
 8039SOL    HW125016   1.878   2.518   5.043
 8039SOL    HW225017   2.019   2.451   4.993
 8040SOL     OW25018   0.757   6.941   4.860
 8040SOL    HW125019   0.705   6.908   4.939
 8040SOL    HW225020   0.774   0.011   4.870
 8041SOL     OW25021   3.044   1.914   2.901
 8041SOL    HW125022   3.077   1.983   2.837
 8041SOL    HW225023   3.113   1.842   2.911
 8042SOL     OW25024   5.259   4.367   6.382
 8042SOL    HW125025   5.336   4.429   6.398
 8042SOL    HW225026   5.243   4.358   6.284
 8043SOL     OW25027   5.785   5.409   0.162
 8043SOL    HW125028   5.836   5.365   0.088
 8043SOL    HW225029   5.704   5.355   0.183
 8044SOL     OW25030   1.322   3.023   1.353
 8044SOL    HW125031   1.310   2.981   1.443
 8044SOL    HW225032   1.260   3.101   1.344
 8045SOL     OW25033   5.945   2.942   5.145
 8045SOL    HW125034   5.879   2.973   5.213
 8045SOL    HW225035   5.898   2.889   5.074
 8046SOL     OW25036   0.024   4.448   1.673
 8046SOL    HW125037   0.057   4.359   1.643
 8046SOL    HW225038   0.079   4.481   1.750
 8047SOL     OW25039   2.847   6.256   0.198
 8047SOL    HW125040   2.797   6.174   0.171
 8047SOL    HW225041   2.845   6.266   0.297
 8048SOL     OW25042   4.789   2.063   6.755
 8048SOL    HW125043   4.707   2.028   6.800
 8048SOL    HW225044   4.861   2.075   6.823
 8049SOL     OW25045   2.396   1.793   0.252
 8049SOL    HW125046   2.340   1.711   0.243
 8049SOL    HW225047   2.396   1.823   0.348
 8050SOL     OW25048   6.921   4.728   5.875
 8050SOL    HW125049   6.950   4.634   5.853
 8050SOL    HW225050   6.990   4.792   5.841
 8051SOL     OW25051   4.160   6.171   3.331
 8051SOL    HW125052   4.189   6.234   3.258
 8051SOL    HW225053   4.062   6.179   3.345
 8052SOL     OW25054   1.948   1.448   3.089
 8052SOL    HW125055   1.900   1.466   3.003
 8052SOL    HW225056   1.925   1.519   3.156
 8053SOL     OW25057   1.605   1.225   6.612
 8053SOL    HW125058   1.664   1.246   6.533
 8053SOL    HW225059   1.594   1.126   6.620
 8054SOL     OW25060   4.936   3.849   4.965
 8054SOL    HW125061   4.915   3.761   5.008
 8054SOL    HW225062   4.853   3.906   4.963
 8055SOL     OW25063   6.856   1.119   6.132
 8055SOL    HW125064   6.923   1.141   6.061
 8055SOL    HW225065   6.895   1.051   6.195
 8056SOL     OW25066   1.563   2.504   2.573
 8056SOL    HW125067   1.540   2.422   2.625
 8056SOL    HW225068   1.595   2.479   2.482
 8057SOL     OW25069   3.023   1.604   2.039
 8057SOL    HW125070   3.082   1.626   1.962
 8057SOL    HW225071   3.044   1.665   2.116
 8058SOL     OW25072   3.193   6.355   1.858
 8058SOL    HW125073   3.204   6.387   1.952
 8058SOL    HW225074   3.096   6.340   1.839
 8059SOL     OW25075   4.623   4.280   5.082
 8059SOL    HW125076   4.678   4.287   4.999
 8059SOL    HW225077   4.553   4.210   5.070
 8060SOL     OW25078   0.313   1.369   4.789
 8060SOL    HW125079   0.223   1.337   4.818
 8060SOL    HW225080   0.376   1.292   4.782
 8061SOL     OW25081   6.922   0.203   0.494
 8061SOL    HW125082   7.018   0.186   0.473
 8061SOL    HW225083   6.891   0.286   0.449
 8062SOL     OW25084   5.002   4.354   6.823
 8062SOL    HW125085   4.940   4.321   6.753
 8062SOL    HW225086   5.082   4.293   6.828
 8063SOL     OW25087   2.559   4.591   2.072
 8063SOL    HW125088   2.655   4.587   2.045
 8063SOL    HW225089   2.551   4.630   2.163
 8064SOL     OW25090   6.881   2.084   0.072
 8064SOL    HW125091   6.901   1.998   0.120
 8064SOL    HW225092   6.796   2.074   0.021
 8065SOL     OW25093   5.453   7.005   6.883
 8065SOL    HW125094   5.431   0.057   6.828
 8065SOL    HW225095   5.379   6.938   6.877
 8066SOL     OW25096   6.711   1.074   5.511
 8066SOL    HW125097   6.682   1.059   5.605
 8066SOL    HW225098   6.638   1.046   5.449
 8067SOL     OW25099   5.738   0.932   4.514
 8067SOL    HW125100   5.742   0.890   4.424
 8067SOL    HW225101   5.690   0.872   4.577
 8068SOL     OW25102   6.793   4.137   1.332
 8068SOL    HW125103   6.793   4.187   1.419
 8068SOL    HW225104   6.716   4.168   1.276
 8069SOL     OW25105   0.823   2.352   1.876
 8069SOL    HW125106   0.773   2.282   1.825
 8069SOL    HW225107   0.918   2.322   1.889
 8070SOL     OW25108   5.564   4.142   0.983
 8070SOL    HW125109   5.515   4.167   0.899
 8070SOL    HW225110   5.595   4.047   0.976
 8071SOL     OW25111   1.831   7.020   6.474
 8071SOL    HW125112   1.911   0.023   6.422
 8071SOL    HW225113   1.751   0.044   6.446
 8072SOL     OW25114   2.752   1.732   5.691
 8072SOL    HW125115   2.838   1.732   5.742
 8072SOL    HW225116   2.680   1.692   5.747
 8073SOL     OW25117   5.329   5.265   0.555
 8073SOL    HW125118   5.384   5.348   0.544
 8073SOL    HW225119   5.315   5.223   0.465
 8074SOL     OW25120   6.648   0.925   0.533
 8074SOL    HW125121   6.649   0.856   0.461
 8074SOL    HW225122   6.698   0.891   0.612
 8075SOL     OW25123   0.290   6.822   1.215
 8075SOL    HW125124   0.238   6.828   1.301
 8075SOL    HW225125   0.232   6.853   1.139
 8076SOL     OW25126   6.677   5.865   0.682
 8076SOL    HW125127   6.722   5.833   0.599
 8076SOL    HW225128   6.617   5.793   0.717
 8077SOL     OW25129   5.823   4.238   1.459
 8077SOL    HW125130   5.788   4.153   1.496
 8077SOL    HW225131   5.914   4.223   1.420
 8078SOL     OW25132   5.077   1.770   1.548
 8078SOL    HW125133   5.165   1.763   1.594
 8078SOL    HW225134   5.044   1.864   1.553
 8079SOL     OW25135   6.973   0.883   5.943
 8079SOL    HW125136   0.033   0.846   5.971
 8079SOL    HW225137   6.958   0.863   5.846
 8080SOL     OW25138   6.666   4.067   3.465
 8080SOL    HW125139   6.568   4.085   3.449
 8080SOL    HW225140   6.714   4.067   3.377
 8081SOL     OW25141   5.752   1.072   5.129
 8081SOL    HW125142   5.700   1.025   5.058
 8081SOL    HW225143   5.717   1.047   5.219
 8082SOL     OW25144   5.072   2.896   5.169
 8082SOL    HW125145   5.048   2.885   5.265
 8082SOL    HW225146   5.169   2.877   5.155
 8083SOL     OW25147   0.113   3.080   3.628
 8083SOL    HW125148   0.160   3.105   3.544
 8083SOL    HW225149   0.116   3.156   3.693
 8084SOL     OW25150   5.890   1.753   7.016
 8084SOL    HW125151   5.946   1.675   6.990
 8084SOL    HW225152   5.844   1.790   6.935
 8085SOL     OW25153   1.627   6.188   4.621
 8085SOL    HW125154   1.606   6.269   4.566
 8085SOL    HW225155   1.702   6.209   4.684
 8086SOL     OW25156   6.880   1.968   1.723
 8086SOL    HW125157   6.824   2.013   1.653
 8086SOL    HW225158   6.972   1.952   1.687
 8087SOL     OW25159   6.093   0.792   6.915
 8087SOL    HW125160   6.048   0.706   6.892
 8087SOL    HW225161   6.026   0.867   6.912
 8088SOL     OW25162   6.126   0.019   5.765
 8088SOL    HW125163   6.170   6.959   5.754
 8088SOL    HW225164   6.177   0.074   5.831
 8089SOL     OW25165   6.669   0.701   0.354
 8089SOL    HW125166   6.730   0.715   0.276
 8089SOL    HW225167   6.578   0.676   0.321
 8090SOL     OW25168   3.640   2.137   4.797
 8090SOL    HW125169   3.614   2.232   4.780
 8090SOL    HW225170   3.557   2.080   4.804
 8091SOL     OW25171   0.929   3.241   5.431
 8091SOL    HW125172   0.926   3.253   5.530
 8091SOL    HW225173   1.013   3.284   5.395
 8092SOL     OW25174   4.743   6.252   5.523
 8092SOL    HW125175   4.830   6.203   5.510
 8092SOL    HW225176   4.699   6.265   5.434
 8093SOL     OW25177   3.653   0.259   3.691
 8093SOL    HW125178   3.555   0.244   3.701
 8093SOL    HW225179   3.691   0.189   3.631
 8094SOL     OW25180   2.283   5.031   3.026
 8094SOL    HW125181   2.368   5.083   3.034
 8094SOL    HW225182   2.298   4.937   3.056
 8095SOL     OW25183   0.340   5.142   5.172
 8095SOL    HW125184   0.319   5.053   5.212
 8095SOL    HW225185   0.376   5.129   5.079
 8096SOL     OW25186   1.194   5.201   0.722
 8096SOL    HW125187   1.163   5.106   0.729
 8096SOL    HW225188   1.118   5.259   0.692
 8097SOL     OW25189   5.156   0.665   6.861
 8097SOL    HW125190   5.229   0.640   6.924
 8097SOL    HW225191   5.084   0.714   6.912
 8098SOL     OW25192   2.820   6.380   5.072
 8098SOL    HW125193   2.877   6.299   5.085
 8098SOL    HW225194   2.745   6.378   5.138
 8099SOL     OW25195   2.279   4.863   3.481
 8099SOL    HW125196   2.327   4.938   3.528
 8099SOL    HW225197   2.323   4.846   3.393
 8100SOL     OW25198   7.003   6.417   0.554
 8100SOL    HW125199   0.073   6.426   0.538
 8100SOL    HW225200   6.953   6.438   0.470
 8101SOL     OW25201   3.078   4.913   6.541
 8101SOL    HW125202   3.137   4.840   6.578
 8101SOL    HW225203   3.036   4.881   6.456
 8102SOL     OW25204   0.987   4.515   3.749
 8102SOL    HW125205   1.063   4.453   3.771
 8102SOL    HW225206   1.012   4.572   3.670
 8103SOL     OW25207   5.319   0.582   1.552
 8103SOL    HW125208   5.353   0.620   1.637
 8103SOL    HW225209   5.221   0.599   1.544
 8104SOL     OW25210   1.608   6.574   0.262
 8104SOL    HW125211   1.665   6.615   0.334
 8104SOL    HW225212   1.661   6.568   0.177
 8105SOL     OW25213   7.017   6.798   2.851
 8105SOL    HW125214   0.039   6.831   2.931
 8105SOL    HW225215   6.994   6.702   2.863
 8106SOL     OW25216   4.156   6.918   6.966
 8106SOL    HW125217   4.120   6.910   0.031
 8106SOL    HW225218   4.238   6.861   6.958
 8107SOL     OW25219   0.364   6.238   0.044
 8107SOL    HW125220   0.362   6.160   0.107
 8107SOL    HW225221   0.315   6.315   0.085
 8108SOL     OW25222   1.941   1.161   1.089
 8108SOL    HW125223   1.927   1.208   1.177
 8108SOL    HW225224   2.007   1.213   1.034
 8109SOL     OW25225   0.286   3.890   2.315
 8109SOL    HW125226   0.240   3.814   2.361
 8109SOL    HW225227   0.319   3.860   2.226
 8110SOL     OW25228   4.924   3.780   6.441
 8110SOL    HW125229   4.875   3.693   6.444
 8110SOL    HW225230   4.984   3.782   6.361
 8111SOL     OW25231   5.539   2.224   2.840
 8111SOL    HW125232   5.548   2.241   2.938
 8111SOL    HW225233   5.444   2.205   2.818
 8112SOL     OW25234   1.860   4.527   6.478
 8112SOL    HW125235   1.845   4.625   6.492
 8112SOL    HW225236   1.844   4.504   6.381
 8113SOL     OW25237   5.764   5.066   6.915
 8113SOL    HW125238   5.685   5.028   6.866
 8113SOL    HW225239   5.779   5.160   6.884
 8114SOL     OW25240   2.139   2.628   2.766
 8114SOL    HW125241   2.203   2.689   2.812
 8114SOL    HW225242   2.151   2.634   2.667
 8115SOL     OW25243   2.604   1.861   5.926
 8115SOL    HW125244   2.531   1.805   5.887
 8115SOL    HW225245   2.569   1.915   6.002
 8116SOL     OW25246   4.043   3.158   1.909
 8116SOL    HW125247   4.096   3.242   1.924
 8116SOL    HW225248   3.980   3.144   1.985
 8117SOL     OW25249   1.113   0.827   2.657
 8117SOL    HW125250   1.034   0.805   2.601
 8117SOL    HW225251   1.180   0.753   2.652
 8118SOL     OW25252   5.807   1.930   6.781
 8118SOL    HW125253   5.799   1.895   6.688
 8118SOL    HW225254   5.893   1.981   6.791
 8119SOL     OW25255   5.560   5.026   6.739
 8119SOL    HW125256   5.508   4.941   6.725
 8119SOL    HW225257   5.500   5.094   6.782
 8120SOL     OW25258   2.028   6.783   2.473
 8120SOL    HW125259   2.011   6.705   2.532
 8120SOL    HW225260   2.125   6.807   2.476
 8121SOL     OW25261   1.590   2.088   3.293
 8121SOL    HW125262   1.595   2.138   3.207
 8121SOL    HW225263   1.599   2.152   3.369
 8122SOL     OW25264   0.326   5.391   1.369
 8122SOL    HW125265   0.261   5.340   1.314
 8122SOL    HW225266   0.282   5.474   1.405
 8123SOL     OW25267   6.824   0.459   5.907
 8123SOL    HW125268   6.789   0.365   5.907
 8123SOL    HW225269   6.753   0.521   5.939
 8124SOL     OW25270   6.454   5.648   5.884
 8124SOL    HW125271   6.422   5.606   5.968
 8124SOL    HW225272   6.380   5.700   5.842
 8125SOL     OW25273   0.856   6.109   1.491
 8125SOL    HW125274   0.901   6.028   1.454
 8125SOL    HW225275   0.796   6.149   1.421
 8126SOL     OW25276   3.431   5.581   4.977
 8126SOL    HW125277   3.370   5.661   4.980
 8126SOL    HW225278   3.377   5.499   4.957
 8127SOL     OW25279   4.620   1.838   5.407
 8127SOL    HW125280   4.528   1.871   5.388
 8127SOL    HW225281   4.662   1.894   5.478
 8128SOL     OW25282   3.736   2.938   0.781
 8128SOL    HW125283   3.740   2.923   0.682
 8128SOL    HW225284   3.802   2.878   0.826
 8129SOL     OW25285   6.419   3.270   3.754
 8129SOL    HW125286   6.498   3.215   3.727
 8129SOL    HW225287   6.362   3.218   3.818
 8130SOL     OW25288   0.025   6.373   0.193
 8130SOL    HW125289   0.108   6.428   0.193
 8130SOL    HW225290   0.041   6.289   0.245
 8131SOL     OW25291   2.896   2.057   0.052
 8131SOL    HW125292   2.891   2.157   0.048
 8131SOL    HW225293   2.934   2.030   0.141
 8132SOL     OW25294   6.268   1.769   4.460
 8132SOL    HW125295   6.229   1.841   4.402
 8132SOL    HW225296   6.215   1.763   4.544
 8133SOL     OW25297   4.369   5.422   1.278
 8133SOL    HW125298   4.383   5.504   1.222
 8133SOL    HW225299   4.456   5.373   1.287
 8134SOL     OW25300   6.315   1.641   0.001
 8134SOL    HW125301   6.273   1.559   6.989
 8134SOL    HW225302   6.384   1.612   0.068
 8135SOL     OW25303   2.629   5.989   1.938
 8135SOL    HW125304   2.641   5.934   2.020
 8135SOL    HW225305   2.654   6.084   1.957
 8136SOL     OW25306   4.275   4.739   2.181
 8136SOL    HW125307   4.358   4.689   2.156
 8136SOL    HW225308   4.291   4.837   2.168
 8137SOL     OW25309   3.586   1.194   6.031
 8137SOL    HW125310   3.492   1.165   6.010
 8137SOL    HW225311   3.625   1.131   6.099
 8138SOL     OW25312   6.513   1.196   2.410
 8138SOL    HW125313   6.439   1.263   2.405
 8138SOL    HW225314   6.563   1.196   2.323
 8139SOL     OW25315   1.238   1.733   5.209
 8139SOL    HW125316   1.296   1.758   5.132
 8139SOL    HW225317   1.266   1.786   5.290
 8140SOL     OW25318   4.650   2.780   3.388
 8140SOL    HW125319   4.605   2.816   3.306
 8140SOL    HW225320   4.747   2.767   3.369
 8141SOL     OW25321   6.458   4.021   3.963
 8141SOL    HW125322   6.378   4.071   3.994
 8141SOL    HW225323   6.452   3.926   3.994
 8142SOL     OW25324   0.319   6.049   0.686
 8142SOL    HW125325   0.309   6.139   0.728
 8142SOL    HW225326   0.233   6.024   0.641
 8143SOL     OW25327   6.978   3.000   6.333
 8143SOL    HW125328   6.938   3.091   6.342
 8143SOL    HW225329   0.018   3.001   6.260
 8144SOL     OW25330   4.329   5.881   0.396
 8144SOL    HW125331   4.351   5.955   0.459
 8144SOL    HW225332   4.262   5.912   0.329
 8145SOL     OW25333   4.543   0.326   4.422
 8145SOL    HW125334   4.482   0.246   4.420
 8145SOL    HW225335   4.488   0.409   4.425
 8146SOL     OW25336   3.115   1.580   2.876
 8146SOL    HW125337   3.213   1.596   2.886
 8146SOL    HW225338   3.069   1.601   2.962
 8147SOL     OW25339   4.828   1.865   3.806
 8147SOL    HW125340   4.830   1.862   3.706
 8147SOL    HW225341   4.857   1.955   3.837
 8148SOL     OW25342   0.875   2.786   3.322
 8148SOL    HW125343   0.860   2.834   3.236
 8148SOL    HW225344   0.933   2.841   3.382
 8149SOL     OW25345   4.008   5.494   4.420
 8149SOL    HW125346   3.990   5.576   4.366
 8149SOL    HW225347   3.981   5.413   4.368
 8150SOL     OW25348   1.827   6.001   0.313
 8150SOL    HW125349   1.749   5.962   0.264
 8150SOL    HW225350   1.875   5.928   0.362
 8151SOL     OW25351   0.971   1.896   4.943
 8151SOL    HW125352   1.033   1.972   4.921
 8151SOL    HW225353   0.998   1.815   4.890
 8152SOL     OW25354   0.459   0.970   3.332
 8152SOL    HW125355   0.441   1.040   3.263
 8152SOL    HW225356   0.402   0.890   3.314
 8153SOL     OW25357   1.543   6.632   6.657
 8153SOL    HW125358   1.627   6.592   6.620
 8153SOL    HW225359   1.463   6.589   6.615
 8154SOL     OW25360   1.931   6.905   3.916
 8154SOL    HW125361   1.933   6.900   4.016
 8154SOL    HW225362   2.001   6.844   3.878
 8155SOL     OW25363   4.177   3.612   5.196
 8155SOL    HW125364   4.135   3.521   5.191
 8155SOL    HW225365   4.164   3.659   5.109
 8156SOL     OW25366   1.080   6.261   4.855
 8156SOL    HW125367   0.981   6.258   4.839
 8156SOL    HW225368   1.125   6.299   4.774
 8157SOL     OW25369   6.025   2.816   6.551
 8157SOL    HW125370   5.934   2.782   6.574
 8157SOL    HW225371   6.085   2.739   6.531
 8158SOL     OW25372   1.069   5.749   2.466
 8158SOL    HW125373   1.161   5.741   2.428
 8158SOL    HW225374   1.066   5.705   2.556
 8159SOL     OW25375   0.461   6.461   0.662
 8159SOL    HW125376   0.429   6.451   0.756
 8159SOL    HW225377   0.445   6.555   0.631
 8160SOL     OW25378   6.183   1.930   0.719
 8160SOL    HW125379   6.165   1.911   0.622
 8160SOL    HW225380   6.114   1.885   0.775
 8161SOL     OW25381   3.551   4.024   1.727
 8161SOL    HW125382   3.574   4.120   1.742
 8161SOL    HW225383   3.537   3.979   1.815
 8162SOL     OW25384   5.529   0.753   0.903
 8162SOL    HW125385   5.445   0.705   0.877
 8162SOL    HW225386   5.602   0.687   0.920
 8163SOL     OW25387   2.678   3.038   5.366
 8163SOL    HW125388   2.699   3.135   5.377
 8163SOL    HW225389   2.598   3.028   5.306
 8164SOL     OW25390   5.418   4.252   1.443
 8164SOL    HW125391   5.431   4.348   1.467
 8164SOL    HW225392   5.459   4.195   1.514
 8165SOL     OW25393   1.659   3.615   2.005
 8165SOL    HW125394   1.754   3.593   2.027
 8165SOL    HW225395   1.641   3.595   1.909
 8166SOL     OW25396   2.666   0.200   2.739
 8166SOL    HW125397   2.633   0.188   2.832
 8166SOL    HW225398   2.766   0.200   2.739
 8167SOL     OW25399   5.168   3.137   4.418
 8167SOL    HW125400   5.113   3.100   4.493
 8167SOL    HW225401   5.144   3.090   4.333
 8168SOL     OW25402   2.901   1.339   2.400
 8168SOL    HW125403   2.995   1.332   2.365
 8168SOL    HW225404   2.894   1.417   2.462
 8169SOL     OW25405   5.422   4.056   5.737
 8169SOL    HW125406   5.494   4.124   5.746
 8169SOL    HW225407   5.364   4.057   5.819
 8170SOL     OW25408   0.803   5.115   4.477
 8170SOL    HW125409   0.707   5.101   4.453
 8170SOL    HW225410   0.858   5.125   4.394
 8171SOL     OW25411   2.108   0.785   6.771
 8171SOL    HW125412   2.034   0.761   6.834
 8171SOL    HW225413   2.193   0.742   6.801
 8172SOL     OW25414   0.079   5.320   2.582
 8172SOL    HW125415   0.038   5.400   2.538
 8172SOL    HW225416   0.014   5.281   2.647
 8173SOL     OW25417   0.268   3.640   6.857
 8173SOL    HW125418   0.215   3.592   6.786
 8173SOL    HW225419   0.346   3.687   6.814
 8174SOL     OW25420   5.237   6.455   2.311
 8174SOL    HW125421   5.280   6.545   2.323
 8174SOL    HW225422   5.150   6.466   2.264
 8175SOL     OW25423   1.247   2.308   3.415
 8175SOL    HW125424   1.176   2.242   3.387
 8175SOL    HW225425   1.302   2.332   3.335
 8176SOL     OW25426   4.761   4.558   3.090
 8176SOL    HW125427   4.762   4.597   2.998
 8176SOL    HW225428   4.721   4.466   3.087
 8177SOL     OW25429   2.231   0.284   6.005
 8177SOL    HW125430   2.304   0.226   5.970
 8177SOL    HW225431   2.181   0.235   6.077
 8178SOL     OW25432   2.093   6.197   6.810
 8178SOL    HW125433   2.051   6.160   6.893
 8178SOL    HW225434   2.122   6.121   6.752
 8179SOL     OW25435   4.110   6.904   5.209
 8179SOL    HW125436   4.069   6.938   5.124
 8179SOL    HW225437   4.060   6.940   5.287
 8180SOL     OW25438   4.737   4.176   4.406
 8180SOL    HW125439   4.747   4.139   4.498
 8180SOL    HW225440   4.775   4.112   4.340
 8181SOL     OW25441   2.269   1.605   3.008
 8181SOL    HW125442   2.173   1.577   3.007
 8181SOL    HW225443   2.278   1.694   3.053
 8182SOL     OW25444   5.793   2.964   5.376
 8182SOL    HW125445   5.737   2.904   5.433
 8182SOL    HW225446   5.773   3.059   5.398
 8183SOL     OW25447   2.134   4.320   3.789
 8183SOL    HW125448   2.231   4.343   3.791
 8183SOL    HW225449   2.096   4.331   3.881
 8184SOL     OW25450   6.146   6.045   5.187
 8184SOL    HW125451   6.156   6.122   5.124
 8184SOL    HW225452   6.108   5.966   5.139
 8185SOL     OW25453   0.304   2.208   3.771
 8185SOL    HW125454   0.373   2.216   3.699
 8185SOL    HW225455   0.225   2.264   3.748
 8186SOL     OW25456   4.114   2.943   6.533
 8186SOL    HW125457   4.188   2.876   6.527
 8186SOL    HW225458   4.082   2.967   6.441
 8187SOL     OW25459   2.748   1.675   6.349
 8187SOL    HW125460   2.781   1.741   6.416
 8187SOL    HW225461   2.688   1.720   6.284
 8188SOL     OW25462   5.063   3.720   2.978
 8188SOL    HW125463   5.107   3.799   2.934
 8188SOL    HW225464   5.090   3.636   2.931
 8189SOL     OW25465   0.153   5.782   2.913
 8189SOL    HW125466   0.068   5.826   2.883
 8189SOL    HW225467   0.150   5.685   2.891
 8190SOL     OW25468   5.330   3.548   2.679
 8190SOL    HW125469   5.369   3.462   2.644
 8190SOL    HW225470   5.352   3.622   2.615
 8191SOL     OW25471   5.783   4.426   1.188
 8191SOL    HW125472   5.800   4.377   1.273
 8191SOL    HW225473   5.686   4.419   1.164
 8192SOL     OW25474   2.482   1.581   0.574
 8192SOL    HW125475   2.492   1.521   0.494
 8192SOL    HW225476   2.570   1.592   0.619
 8193SOL     OW25477   3.935   6.169   5.994
 8193SOL    HW125478   3.918   6.169   5.895
 8193SOL    HW225479   3.865   6.113   6.039
 8194SOL     OW25480   0.355   1.090   2.385
 8194SOL    HW125481   0.428   1.090   2.453
 8194SOL    HW225482   0.388   1.131   2.300
 8195SOL     OW25483   6.198   1.065   0.776
 8195SOL    HW125484   6.146   1.011   0.843
 8195SOL    HW225485   6.226   1.005   0.701
 8196SOL     OW25486   2.575   0.716   0.967
 8196SOL    HW125487   2.604   0.644   1.029
 8196SOL    HW225488   2.645   0.789   0.966
 8197SOL     OW25489   0.853   6.708   0.746
 8197SOL    HW125490   0.884   6.799   0.774
 8197SOL    HW225491   0.779   6.679   0.807
 8198SOL     OW25492   2.285   0.880   2.635
 8198SOL    HW125493   2.273   0.959   2.695
 8198SOL    HW225494   2.345   0.813   2.680
 8199SOL     OW25495   5.976   4.643   1.174
 8199SOL    HW125496   5.904   4.574   1.169
 8199SOL    HW225497   5.962   4.711   1.102
 8200SOL     OW25498   3.952   4.817   1.501
 8200SOL    HW125499   3.895   4.820   1.584
 8200SOL    HW225500   3.927   4.893   1.441
 8201SOL     OW25501   0.652   1.095   4.478
 8201SOL    HW125502   0.646   1.044   4.564
 8201SOL    HW225503   0.567   1.143   4.462
 8202SOL     OW25504   1.741   3.578   4.247
 8202SOL    HW125505   1.723   3.546   4.154
 8202SOL    HW225506   1.695   3.666   4.261
 8203SOL     OW25507   6.455   4.122   6.843
 8203SOL    HW125508   6.502   4.114   6.931
 8203SOL    HW225509   6.363   4.083   6.851
 8204SOL     OW25510   2.702   6.522   1.953
 8204SOL    HW125511   2.652   6.435   1.951
 8204SOL    HW225512   2.639   6.598   1.941
 8205SOL     OW25513   3.614   6.751   3.043
 8205SOL    HW125514   3.555   6.709   3.111
 8205SOL    HW225515   3.559   6.780   2.964
 8206SOL     OW25516   3.842   2.132   4.506
 8206SOL    HW125517   3.782   2.067   4.552
 8206SOL    HW225518   3.788   2.187   4.442
 8207SOL     OW25519   2.416   6.355   0.230
 8207SOL    HW125520   2.345   6.408   0.277
 8207SOL    HW225521   2.465   6.414   0.166
 8208SOL     OW25522   1.010   5.783   0.932
 8208SOL    HW125523   0.948   5.706   0.920
 8208SOL    HW225524   1.047   5.782   1.025
 8209SOL     OW25525   0.658   6.084   4.212
 8209SOL    HW125526   0.753   6.107   4.191
 8209SOL    HW225527   0.655   6.026   4.294
 8210SOL     OW25528   2.460   0.242   1.221
 8210SOL    HW125529   2.366   0.209   1.218
 8210SOL    HW225530   2.519   0.181   1.168
 8211SOL     OW25531   3.397   4.194   4.618
 8211SOL    HW125532   3.435   4.219   4.529
 8211SOL    HW225533   3.299   4.175   4.608
 8212SOL     OW25534   3.562   5.367   6.885
 8212SOL    HW125535   3.648   5.417   6.888
 8212SOL    HW225536   3.504   5.404   6.812
 8213SOL     OW25537   5.100   3.881   2.055
 8213SOL    HW125538   5.171   3.950   2.046
 8213SOL    HW225539   5.029   3.896   1.986
 8214SOL     OW25540   3.967   4.822   3.439
 8214SOL    HW125541   3.970   4.848   3.535
 8214SOL    HW225542   4.050   4.771   3.415
 8215SOL     OW25543   2.959   6.134   5.039
 8215SOL    HW125544   3.014   6.133   5.123
 8215SOL    HW225545   2.959   6.043   4.998
 8216SOL     OW25546   6.433   4.484   0.142
 8216SOL    HW125547   6.441   4.463   0.239
 8216SOL    HW225548   6.505   4.435   0.092
 8217SOL     OW25549   3.590   6.264   3.653
 8217SOL    HW125550   3.664   6.285   3.717
 8217SOL    HW225551   3.550   6.176   3.676
 8218SOL     OW25552   2.066   5.810   3.639
 8218SOL    HW125553   2.127   5.765   3.705
 8218SOL    HW225554   2.120   5.865   3.576
 8219SOL     OW25555   4.053   3.789   4.973
 8219SOL    HW125556   4.083   3.823   4.883
 8219SOL    HW225557   3.955   3.770   4.971
 8220SOL     OW25558   4.547   4.064   5.925
 8220SOL    HW125559   4.464   4.052   5.870
 8220SOL    HW225560   4.554   3.989   5.991
 8221SOL     OW25561   6.633   3.678   4.161
 8221SOL    HW125562   6.546   3.629   4.151
 8221SOL    HW225563   6.636   3.722   4.250
 8222SOL     OW25564   5.495   1.694   5.934
 8222SOL    HW125565   5.468   1.779   5.889
 8222SOL    HW225566   5.538   1.633   5.869
 8223SOL     OW25567   1.502   6.465   5.663
 8223SOL    HW125568   1.584   6.501   5.707
 8223SOL    HW225569   1.527   6.394   5.597
 8224SOL     OW25570   4.979   1.655   4.989
 8224SOL    HW125571   4.917   1.635   4.912
 8224SOL    HW225572   5.073   1.634   4.962
 8225SOL     OW25573   6.180   1.421   6.923
 8225SOL    HW125574   6.245   1.362   6.876
 8225SOL    HW225575   6.088   1.401   6.892
 8226SOL     OW25576   3.936   0.602   6.659
 8226SOL    HW125577   3.967   0.670   6.725
 8226SOL    HW225578   3.852   0.636   6.614
 8227SOL     OW25579   6.141   3.364   2.761
 8227SOL    HW125580   6.193   3.281   2.780
 8227SOL    HW225581   6.126   3.372   2.663
 8228SOL     OW25582   3.007   1.569   5.200
 8228SOL    HW125583   2.956   1.600   5.280
 8228SOL    HW225584   2.966   1.485   5.164
 8229SOL     OW25585   4.861   3.545   0.847
 8229SOL    HW125586   4.830   3.462   0.892
 8229SOL    HW225587   4.783   3.590   0.804
 8230SOL     OW25588   5.946   1.256   6.533
 8230SOL    HW125589   6.042   1.281   6.550
 8230SOL    HW225590   5.935   1.157   6.545
 8231SOL     OW25591   3.223   0.892   1.356
 8231SOL    HW125592   3.160   0.891   1.433
 8231SOL    HW225593   3.267   0.982   1.350
 8232SOL     OW25594   4.003   5.967   4.403
 8232SOL    HW125595   4.076   5.898   4.405
 8232SOL    HW225596   4.013   6.023   4.321
 8233SOL     OW25597   2.943   0.697   6.991
 8233SOL    HW125598   2.904   0.660   6.907
 8233SOL    HW225599   2.893   0.779   7.019
 8234SOL     OW25600   0.309   2.721   6.173
 8234SOL    HW125601   0.360   2.713   6.259
 8234SOL    HW225602   0.234   2.786   6.186
 8235SOL     OW25603   1.337   6.171   6.664
 8235SOL    HW125604   1.424   6.222   6.663
 8235SOL    HW225605   1.338   6.104   6.738
 8236SOL     OW25606   0.754   0.572   0.744
 8236SOL    HW125607   0.768   0.487   0.794
 8236SOL    HW225608   0.841   0.602   0.705
 8237SOL     OW25609   4.773   4.190   5.820
 8237SOL    HW125610   4.806   4.263   5.880
 8237SOL    HW225611   4.704   4.136   5.868
 8238SOL     OW25612   0.106   5.290   0.015
 8238SOL    HW125613   0.133   5.330   0.103
 8238SOL    HW225614   0.184   5.244   7.002
 8239SOL     OW25615   5.132   2.847   3.872
 8239SOL    HW125616   5.108   2.750   3.858
 8239SOL    HW225617   5.215   2.868   3.820
 8240SOL     OW25618   3.312   3.335   4.960
 8240SOL    HW125619   3.248   3.354   5.034
 8240SOL    HW225620   3.345   3.422   4.921
 8241SOL     OW25621   0.366   2.922   5.301
 8241SOL    HW125622   0.279   2.897   5.344
 8241SOL    HW225623   0.421   2.839   5.286
 8242SOL     OW25624   0.729   4.050   3.202
 8242SOL    HW125625   0.814   4.056   3.254
 8242SOL    HW225626   0.658   4.009   3.259
 8243SOL     OW25627   2.221   5.726   3.852
 8243SOL    HW125628   2.168   5.719   3.937
 8243SOL    HW225629   2.267   5.639   3.835
 8244SOL     OW25630   5.639   6.719   4.701
 8244SOL    HW125631   5.738   6.719   4.708
 8244SOL    HW225632   5.599   6.714   4.792
 8245SOL     OW25633   5.415   3.953   1.883
 8245SOL    HW125634   5.345   4.009   1.927
 8245SOL    HW225635   5.429   3.870   1.936
 8246SOL     OW25636   2.011   4.202   0.412
 8246SOL    HW125637   2.033   4.155   0.497
 8246SOL    HW225638   1.920   4.242   0.419
 8247SOL     OW25639   1.997   5.127   3.596
 8247SOL    HW125640   2.063   5.080   3.654
 8247SOL    HW225641   2.022   5.224   3.588
 8248SOL     OW25642   6.116   1.093   2.973
 8248SOL    HW125643   6.080   1.047   2.891
 8248SOL    HW225644   6.150   1.183   2.948
 8249SOL     OW25645   3.401   6.786   5.538
 8249SOL    HW125646   3.442   6.802   5.448
 8249SOL    HW225647   3.306   6.757   5.527
 8250SOL     OW25648   2.038   0.947   0.157
 8250SOL    HW125649   2.043   1.029   0.215
 8250SOL    HW225650   2.120   0.942   0.099
 8251SOL     OW25651   1.834   1.567   6.609
 8251SOL    HW125652   1.925   1.606   6.617
 8251SOL    HW225653   1.766   1.635   6.638
 8252SOL     OW25654   0.691   0.803   6.425
 8252SOL    HW125655   0.625   0.841   6.359
 8252SOL    HW225656   0.774   0.858   6.424
 8253SOL     OW25657   7.003   3.665   4.408
 8253SOL    HW125658   6.940   3.600   4.365
 8253SOL    HW225659   6.962   3.756   4.410
 8254SOL     OW25660   4.883   4.053   0.476
 8254SOL    HW125661   4.868   4.009   0.565
 8254SOL    HW225662   4.878   4.152   0.487
 8255SOL     OW25663   1.715   5.975   5.758
 8255SOL    HW125664   1.632   5.958   5.705
 8255SOL    HW225665   1.738   5.894   5.811
 8256SOL     OW25666   1.720   5.833   3.251
 8256SOL    HW125667   1.624   5.838   3.280
 8256SOL    HW225668   1.725   5.798   3.158
 8257SOL     OW25669   4.873   4.567   3.525
 8257SOL    HW125670   4.792   4.585   3.581
 8257SOL    HW225671   4.947   4.628   3.553
 8258SOL     OW25672   0.483   2.933   4.099
 8258SOL    HW125673   0.527   2.927   4.189
 8258SOL    HW225674   0.425   2.853   4.085
 8259SOL     OW25675   5.267   3.778   3.998
 8259SOL    HW125676   5.348   3.721   4.014
 8259SOL    HW225677   5.284   3.837   3.920
 8260SOL     OW25678   4.715   2.338   6.106
 8260SOL    HW125679   4.720   2.248   6.150
 8260SOL    HW225680   4.715   2.409   6.175
 8261SOL     OW25681   5.167   2.432   3.366
 8261SOL    HW125682   5.253   2.446   3.413
 8261SOL    HW225683   5.099   2.497   3.400
 8262SOL     OW25684   5.355   3.895   2.263
 8262SOL    HW125685   5.391   3.827   2.198
 8262SOL    HW225686   5.410   3.978   2.257
 8263SOL     OW25687   0.175   1.517   0.290
 8263SOL    HW125688   0.225   1.442   0.334
 8263SOL    HW225689   0.117   1.480   0.217
 8264SOL     OW25690   3.466   1.687   1.855
 8264SOL    HW125691   3.566   1.684   1.846
 8264SOL    HW225692   3.440   1.765   1.913
 8265SOL     OW25693   6.340   5.361   0.377
 8265SOL    HW125694   6.240   5.361   0.379
 8265SOL    HW225695   6.375   5.436   0.433
 8266SOL     OW25696   4.264   2.322   2.900
 8266SOL    HW125697   4.173   2.285   2.919
 8266SOL    HW225698   4.280   2.323   2.801
 8267SOL     OW25699   1.552   3.887   2.464
 8267SOL    HW125700   1.505   3.959   2.412
 8267SOL    HW225701   1.487   3.844   2.527
 8268SOL     OW25702   2.318   5.419   1.388
 8268SOL    HW125703   2.331   5.385   1.481
 8268SOL    HW225704   2.329   5.344   1.323
 8269SOL     OW25705   6.144   2.244   3.101
 8269SOL    HW125706   6.129   2.209   3.194
 8269SOL    HW225707   6.164   2.169   3.039
 8270SOL     OW25708   4.511   5.258   0.483
 8270SOL    HW125709   4.525   5.159   0.480
 8270SOL    HW225710   4.509   5.289   0.579
 8271SOL     OW25711   2.701   0.510   6.200
 8271SOL    HW125712   2.715   0.428   6.255
 8271SOL    HW225713   2.755   0.585   6.238
 8272SOL     OW25714   0.002   1.325   2.047
 8272SOL    HW125715   0.064   1.382   1.994
 8272SOL    HW225716   0.054   1.266   2.109
 8273SOL     OW25717   5.606   0.392   6.038
 8273SOL    HW125718   5.628   0.404   6.135
 8273SOL    HW225719   5.645   0.306   6.006
 8274SOL     OW25720   4.843   0.003   3.985
 8274SOL    HW125721   4.745   7.021   3.996
 8274SOL    HW225722   4.885   0.022   4.073
 8275SOL     OW25723   4.870   0.850   4.569
 8275SOL    HW125724   4.814   0.842   4.486
 8275SOL    HW225725   4.966   0.838   4.546
 8276SOL     OW25726   4.775   2.815   6.906
 8276SOL    HW125727   4.839   2.891   6.914
 8276SOL    HW225728   4.686   2.841   6.943
 8277SOL     OW25729   1.255   0.537   1.600
 8277SOL    HW125730   1.264   0.549   1.699
 8277SOL    HW225731   1.311   0.460   1.570
 8278SOL     OW25732   1.599   1.556   1.560
 8278SOL    HW125733   1.680   1.525   1.512
 8278SOL    HW225734   1.518   1.513   1.521
 8279SOL     OW25735   5.845   4.512   6.241
 8279SOL    HW125736   5.785   4.452   6.293
 8279SOL    HW225737   5.910   4.457   6.189
 8280SOL     OW25738   0.095   4.874   0.698
 8280SOL    HW125739   0.053   4.792   0.737
 8280SOL    HW225740   0.115   4.939   0.772
 8281SOL     OW25741   2.263   4.406   0.302
 8281SOL    HW125742   2.330   4.403   0.228
 8281SOL    HW225743   2.290   4.342   0.374
 8282SOL     OW25744   4.424   2.974   0.505
 8282SOL    HW125745   4.481   3.052   0.478
 8282SOL    HW225746   4.336   2.980   0.458
 8283SOL     OW25747   0.783   1.878   2.964
 8283SOL    HW125748   0.690   1.849   2.982
 8283SOL    HW225749   0.846   1.829   3.024
 8284SOL     OW25750   4.147   2.410   0.726
 8284SOL    HW125751   4.074   2.476   0.711
 8284SOL    HW225752   4.236   2.454   0.715
 8285SOL     OW25753   0.740   4.672   0.591
 8285SOL    HW125754   0.679   4.714   0.658
 8285SOL    HW225755   0.687   4.608   0.535
 8286SOL     OW25756   6.801   1.933   6.645
 8286SOL    HW125757   6.765   1.925   6.552
 8286SOL    HW225758   6.800   2.028   6.674
 8287SOL     OW25759   0.929   1.855   2.652
 8287SOL    HW125760   0.860   1.918   2.687
 8287SOL    HW225761   0.981   1.899   2.579
 8288SOL     OW25762   1.964   6.613   2.691
 8288SOL    HW125763   1.996   6.674   2.764
 8288SOL    HW225764   1.874   6.577   2.716
 8289SOL     OW25765   5.773   6.160   0.181
 8289SOL    HW125766   5.697   6.095   0.188
 8289SOL    HW225767   5.779   6.195   0.088
 8290SOL     OW25768   4.554   2.844   1.709
 8290SOL    HW125769   4.633   2.783   1.713
 8290SOL    HW225770   4.584   2.939   1.717
 8291SOL     OW25771   6.072   5.714   5.105
 8291SOL    HW125772   6.120   5.679   5.186
 8291SOL    HW225773   5.977   5.732   5.129
 8292SOL     OW25774   0.806   4.096   6.082
 8292SOL    HW125775   0.882   4.082   6.019
 8292SOL    HW225776   0.840   4.096   6.176
 8293SOL     OW25777   3.545   5.438   3.700
 8293SOL    HW125778   3.582   5.396   3.783
 8293SOL    HW225779   3.611   5.429   3.626
 8294SOL     OW25780   6.164   3.412   5.962
 8294SOL    HW125781   6.219   3.355   5.901
 8294SOL    HW225782   6.219   3.490   5.994
 8295SOL     OW25783   3.901   5.088   1.676
 8295SOL    HW125784   3.837   5.154   1.714
 8295SOL    HW225785   3.861   4.996   1.681
 8296SOL     OW25786   3.501   0.094   1.965
 8296SOL    HW125787   3.404   0.116   1.980
 8296SOL    HW225788   3.521   0.096   1.867
 8297SOL     OW25789   5.076   4.833   1.766
 8297SOL    HW125790   5.081   4.933   1.768
 8297SOL    HW225791   5.160   4.795   1.806
 8298SOL     OW25792   0.089   5.694   0.844
 8298SOL    HW125793   0.016   5.720   0.782
 8298SOL    HW225794   0.102   5.766   0.912
 8299SOL     OW25795   1.172   1.239   6.922
 8299SOL    HW125796   1.226   1.253   7.005
 8299SOL    HW225797   1.081   1.280   6.935
 8300SOL     OW25798   4.717   5.886   5.317
 8300SOL    HW125799   4.640   5.950   5.310
 8300SOL    HW225800   4.800   5.937   5.338
 8301SOL     OW25801   6.116   4.255   6.957
 8301SOL    HW125802   6.119   4.179   6.893
 8301SOL    HW225803   6.026   4.259   7.000
 8302SOL     OW25804   3.417   6.411   6.216
 8302SOL    HW125805   3.460   6.501   6.219
 8302SOL    HW225806   3.396   6.381   6.309
 8303SOL     OW25807   6.639   4.341   4.267
 8303SOL    HW125808   6.564   4.407   4.274
 8303SOL    HW225809   6.672   4.339   4.172
 8304SOL     OW25810   5.405   3.017   3.822
 8304SOL    HW125811   5.416   3.003   3.724
 8304SOL    HW225812   5.495   3.022   3.865
 8305SOL     OW25813   4.428   6.298   5.676
 8305SOL    HW125814   4.524   6.297   5.706
 8305SOL    HW225815   4.409   6.384   5.629
 8306SOL     OW25816   4.543   0.906   3.279
 8306SOL    HW125817   4.480   0.831   3.301
 8306SOL    HW225818   4.635   0.869   3.269
 8307SOL     OW25819   0.951   5.310   4.179
 8307SOL    HW125820   0.988   5.289   4.269
 8307SOL    HW225821   0.911   5.227   4.139
 8308SOL     OW25822   2.067   4.111   0.674
 8308SOL    HW125823   1.970   4.131   0.662
 8308SOL    HW225824   2.110   4.184   0.725
 8309SOL     OW25825   5.582   5.519   2.611
 8309SOL    HW125826   5.642   5.438   2.612
 8309SOL    HW225827   5.503   5.502   2.670
 8310SOL     OW25828   2.496   5.834   3.111
 8310SOL    HW125829   2.517   5.925   3.146
 8310SOL    HW225830   2.576   5.798   3.061
 8311SOL     OW25831   4.931   6.754   2.441
 8311SOL    HW125832   4.862   6.731   2.372
 8311SOL    HW225833   5.009   6.798   2.396
 8312SOL     OW25834   6.576   6.844   0.972
 8312SOL    HW125835   6.581   6.882   0.879
 8312SOL    HW225836   6.492   6.791   0.981
 8313SOL     OW25837   5.153   1.907   5.557
 8313SOL    HW125838   5.108   1.956   5.482
 8313SOL    HW225839   5.183   1.972   5.626
 8314SOL     OW25840   5.395   5.542   5.669
 8314SOL    HW125841   5.371   5.547   5.572
 8314SOL    HW225842   5.407   5.446   5.696
 8315SOL     OW25843   3.343   2.005   6.839
 8315SOL    HW125844   3.430   2.052   6.854
 8315SOL    HW225845   3.359   1.916   6.797
 8316SOL     OW25846   1.395   0.977   5.086
 8316SOL    HW125847   1.410   1.029   5.170
 8316SOL    HW225848   1.319   0.913   5.099
 8317SOL     OW25849   2.748   1.407   6.297
 8317SOL    HW125850   2.750   1.495   6.344
 8317SOL    HW225851   2.670   1.354   6.328
 8318SOL     OW25852   5.191   5.862   5.221
 8318SOL    HW125853   5.286   5.846   5.193
 8318SOL    HW225854   5.155   5.942   5.173
 8319SOL     OW25855   3.015   6.234   6.302
 8319SOL    HW125856   2.942   6.175   6.336
 8319SOL    HW225857   3.029   6.310   6.365
 8320SOL     OW25858   3.842   4.705   5.559
 8320SOL    HW125859   3.900   4.776   5.520
 8320SOL    HW225860   3.899   4.641   5.612
 8321SOL     OW25861   0.593   6.466   0.151
 8321SOL    HW125862   0.497   6.456   0.179
 8321SOL    HW225863   0.600   6.451   0.053
 8322SOL     OW25864   2.790   0.163   2.351
 8322SOL    HW125865   2.873   0.112   2.373
 8322SOL    HW225866   2.719   0.142   2.419
 8323SOL     OW25867   6.436   5.609   6.783
 8323SOL    HW125868   6.450   5.510   6.788
 8323SOL    HW225869   6.471   5.651   6.867
 8324SOL     OW25870   6.913   5.847   4.732
 8324SOL    HW125871   6.825   5.895   4.741
 8324SOL    HW225872   6.937   5.805   4.820
 8325SOL     OW25873   1.560   5.182   4.717
 8325SOL    HW125874   1.597   5.266   4.677
 8325SOL    HW225875   1.490   5.207   4.785
 8326SOL     OW25876   3.574   0.914   0.032
 8326SOL    HW125877   3.632   0.969   0.094
 8326SOL    HW225878   3.489   0.890   0.079
 8327SOL     OW25879   0.881   6.074   5.443
 8327SOL    HW125880   0.803   6.126   5.477
 8327SOL    HW225881   0.855   5.978   5.430
 8328SOL     OW25882   1.389   6.936   1.102
 8328SOL    HW125883   1.393   6.839   1.077
 8328SOL    HW225884   1.315   6.949   1.169
 8329SOL     OW25885   1.917   1.836   6.280
 8329SOL    HW125886   1.949   1.767   6.216
 8329SOL    HW225887   1.988   1.854   6.348
 8330SOL     OW25888   3.427   6.614   0.160
 8330SOL    HW125889   3.518   6.573   0.154
 8330SOL    HW225890   3.367   6.553   0.213
 8331SOL     OW25891   1.713   2.660   6.188
 8331SOL    HW125892   1.671   2.687   6.101
 8331SOL    HW225893   1.710   2.561   6.197
 8332SOL     OW25894   5.070   4.420   0.702
 8332SOL    HW125895   5.073   4.337   0.647
 8332SOL    HW225896   4.982   4.428   0.747
 8333SOL     OW25897   1.978   4.228   5.653
 8333SOL    HW125898   2.029   4.269   5.728
 8333SOL    HW225899   2.005   4.273   5.567
 8334SOL     OW25900   3.303   2.841   5.980
 8334SOL    HW125901   3.351   2.831   6.067
 8334SOL    HW225902   3.370   2.845   5.906
 8335SOL     OW25903   6.638   2.731   0.435
 8335SOL    HW125904   6.735   2.757   0.438
 8335SOL    HW225905   6.582   2.812   0.420
 8336SOL     OW25906   0.507   4.272   3.674
 8336SOL    HW125907   0.436   4.322   3.723
 8336SOL    HW225908   0.592   4.325   3.675
 8337SOL     OW25909   6.466   6.919   4.301
 8337SOL    HW125910   6.555   6.896   4.339
 8337SOL    HW225911   6.408   6.957   4.373
 8338SOL     OW25912   2.277   4.452   0.943
 8338SOL    HW125913   2.306   4.433   1.036
 8338SOL    HW225914   2.210   4.527   0.944
 8339SOL     OW25915   6.551   7.024   1.782
 8339SOL    HW125916   6.500   0.024   1.863
 8339SOL    HW225917   6.642   0.035   1.783
 8340SOL     OW25918   6.009   2.562   6.278
 8340SOL    HW125919   6.083   2.587   6.216
 8340SOL    HW225920   6.022   2.609   6.366
 8341SOL     OW25921   3.525   6.697   0.878
 8341SOL    HW125922   3.603   6.638   0.900
 8341SOL    HW225923   3.552   6.793   0.889
 8342SOL     OW25924   4.001   0.834   1.374
 8342SOL    HW125925   3.902   0.843   1.362
 8342SOL    HW225926   4.041   0.793   1.293
 8343SOL     OW25927   4.646   6.074   2.935
 8343SOL    HW125928   4.740   6.040   2.928
 8343SOL    HW225929   4.606   6.043   3.021
 8344SOL     OW25930   2.251   4.297   4.831
 8344SOL    HW125931   2.273   4.275   4.736
 8344SOL    HW225932   2.287   4.225   4.891
 8345SOL     OW25933   7.006   0.164   4.026
 8345SOL    HW125934   0.038   0.244   4.020
 8345SOL    HW225935   0.033   0.081   4.034
 8346SOL     OW25936   5.424   4.022   2.598
 8346SOL    HW125937   5.377   4.104   2.563
 8346SOL    HW225938   5.432   4.028   2.697
 8347SOL     OW25939   1.572   1.434   6.799
 8347SOL    HW125940   1.484   1.425   6.846
 8347SOL    HW225941   1.580   1.362   6.730
 8348SOL     OW25942   2.559   6.468   0.904
 8348SOL    HW125943   2.534   6.549   0.956
 8348SOL    HW225944   2.567   6.390   0.965
 8349SOL     OW25945   4.652   6.215   0.935
 8349SOL    HW125946   4.630   6.117   0.931
 8349SOL    HW225947   4.751   6.227   0.927
 8350SOL     OW25948   2.344   0.987   6.381
 8350SOL    HW125949   2.385   1.010   6.469
 8350SOL    HW225950   2.358   0.889   6.363
 8351SOL     OW25951   0.886   4.450   3.247
 8351SOL    HW125952   0.833   4.524   3.205
 8351SOL    HW225953   0.941   4.405   3.177
 8352SOL     OW25954   2.130   6.779   6.613
 8352SOL    HW125955   2.159   6.787   6.708
 8352SOL    HW225956   2.205   6.808   6.553
 8353SOL     OW25957   1.960   5.966   2.750
 8353SOL    HW125958   1.890   5.896   2.764
 8353SOL    HW225959   2.011   5.947   2.667
 8354SOL     OW25960   5.311   3.284   3.755
 8354SOL    HW125961   5.361   3.210   3.798
 8354SOL    HW225962   5.253   3.329   3.823
 8355SOL     OW25963   3.467   3.738   5.598
 8355SOL    HW125964   3.388   3.708   5.652
 8355SOL    HW225965   3.450   3.831   5.564
 8356SOL     OW25966   3.639   2.899   2.730
 8356SOL    HW125967   3.588   2.852   2.658
 8356SOL    HW225968   3.657   2.993   2.703
 8357SOL     OW25969   3.485   6.837   5.004
 8357SOL    HW125970   3.545   6.896   4.949
 8357SOL    HW225971   3.478   6.747   4.961
 8358SOL     OW25972   6.936   1.037   4.575
 8358SOL    HW125973   6.921   0.947   4.535
 8358SOL    HW225974   6.848   1.078   4.597
 8359SOL     OW25975   5.311   2.721   5.464
 8359SOL    HW125976   5.246   2.645   5.465
 8359SOL    HW225977   5.326   2.753   5.558
 8360SOL     OW25978   3.574   0.216   2.472
 8360SOL    HW125979   3.599   0.304   2.513
 8360SOL    HW225980   3.598   0.217   2.375
 8361SOL     OW25981   4.732   1.747   0.004
 8361SOL    HW125982   4.821   1.751   6.986
 8361SOL    HW225983   4.683   1.665   7.004
 8362SOL     OW25984   0.311   4.316   2.111
 8362SOL    HW125985   0.257   4.284   2.189
 8362SOL    HW225986   0.405   4.331   2.140
 8363SOL     OW25987   3.608   2.454   1.344
 8363SOL    HW125988   3.524   2.464   1.290
 8363SOL    HW225989   3.649   2.365   1.323
 8364SOL     OW25990   0.627   1.452   3.539
 8364SOL    HW125991   0.680   1.370   3.518
 8364SOL    HW225992   0.673   1.503   3.612
 8365SOL     OW25993   2.324   2.736   1.104
 8365SOL    HW125994   2.401   2.735   1.168
 8365SOL    HW225995   2.347   2.683   1.023
 8366SOL     OW25996   5.245   6.151   1.446
 8366SOL    HW125997   5.187   6.106   1.377
 8366SOL    HW225998   5.226   6.250   1.446
 8367SOL     OW25999   0.916   5.016   4.239
 8367SOL    HW126000   0.999   4.961   4.233
 8367SOL    HW226001   0.837   4.959   4.218
 8368SOL     OW26002   0.547   3.523   6.266
 8368SOL    HW126003   0.552   3.507   6.365
 8368SOL    HW226004   0.546   3.621   6.248
 8369SOL     OW26005   1.147   0.890   0.597
 8369SOL    HW126006   1.070   0.949   0.575
 8369SOL    HW226007   1.213   0.940   0.653
 8370SOL     OW26008   2.572   3.171   1.664
 8370SOL    HW126009   2.556   3.118   1.580
 8370SOL    HW226010   2.618   3.113   1.731
 8371SOL     OW26011   2.614   4.630   5.547
 8371SOL    HW126012   2.656   4.551   5.501
 8371SOL    HW226013   2.541   4.598   5.607
 8372SOL     OW26014   1.576   6.953   3.106
 8372SOL    HW126015   1.672   6.947   3.078
 8372SOL    HW226016   1.553   6.876   3.166
 8373SOL     OW26017   6.429   0.587   4.252
 8373SOL    HW126018   6.357   0.587   4.320
 8373SOL    HW226019   6.508   0.535   4.285
 8374SOL     OW26020   0.386   1.950   3.733
 8374SOL    HW126021   0.407   1.887   3.808
 8374SOL    HW226022   0.361   2.039   3.770
 8375SOL     OW26023   1.335   2.214   5.729
 8375SOL    HW126024   1.388   2.272   5.667
 8375SOL    HW226025   1.359   2.118   5.714
 8376SOL     OW26026   1.097   0.954   3.409
 8376SOL    HW126027   1.107   1.019   3.484
 8376SOL    HW226028   1.025   0.888   3.431
 8377SOL     OW26029   4.436   5.906   2.241
 8377SOL    HW126030   4.464   5.989   2.191
 8377SOL    HW226031   4.375   5.931   2.316
 8378SOL     OW26032   4.390   6.175   5.985
 8378SOL    HW126033   4.381   6.256   5.927
 8378SOL    HW226034   4.306   6.163   6.038
 8379SOL     OW26035   6.404   3.003   1.794
 8379SOL    HW126036   6.331   3.071   1.784
 8379SOL    HW226037   6.486   3.047   1.832
 8380SOL     OW26038   1.410   5.157   2.990
 8380SOL    HW126039   1.465   5.152   2.907
 8380SOL    HW226040   1.447   5.096   3.059
 8381SOL     OW26041   0.229   2.815   2.481
 8381SOL    HW126042   0.205   2.814   2.384
 8381SOL    HW226043   0.157   2.863   2.533
 8382SOL     OW26044   0.927   0.662   2.169
 8382SOL    HW126045   1.010   0.658   2.112
 8382SOL    HW226046   0.865   0.589   2.141
 8383SOL     OW26047   2.385   6.637   4.375
 8383SOL    HW126048   2.453   6.710   4.370
 8383SOL    HW226049   2.301   6.673   4.416
 8384SOL     OW26050   0.615   3.781   3.813
 8384SOL    HW126051   0.674   3.795   3.893
 8384SOL    HW226052   0.589   3.869   3.774
 8385SOL     OW26053   3.916   2.170   1.447
 8385SOL    HW126054   3.917   2.207   1.540
 8385SOL    HW226055   4.002   2.121   1.430
 8386SOL     OW26056   6.558   5.800   2.338
 8386SOL    HW126057   6.471   5.756   2.361
 8386SOL    HW226058   6.578   5.785   2.241
 8387SOL     OW26059   0.508   2.233   4.037
 8387SOL    HW126060   0.476   2.303   3.973
 8387SOL    HW226061   0.516   2.146   3.989
 8388SOL     OW26062   3.471   6.389   1.477
 8388SOL    HW126063   3.392   6.432   1.522
 8388SOL    HW226064   3.440   6.311   1.424
 8389SOL     OW26065   0.993   2.675   4.407
 8389SOL    HW126066   1.042   2.730   4.476
 8389SOL    HW226067   0.901   2.655   4.440
 8390SOL     OW26068   1.317   6.519   6.549
 8390SOL    HW126069   1.288   6.469   6.467
 8390SOL    HW226070   1.294   6.465   6.630
 8391SOL     OW26071   4.934   6.327   1.099
 8391SOL    HW126072   4.898   6.290   1.185
 8391SOL    HW226073   4.965   6.252   1.041
 8392SOL     OW26074   3.199   5.835   0.590
 8392SOL    HW126075   3.271   5.782   0.546
 8392SOL    HW226076   3.157   5.780   0.662
 8393SOL     OW26077   1.480   6.668   2.258
 8393SOL    HW126078   1.431   6.741   2.211
 8393SOL    HW226079   1.544   6.708   2.325
 8394SOL     OW26080   1.783   1.204   4.163
 8394SOL    HW126081   1.876   1.208   4.125
 8394SOL    HW226082   1.781   1.251   4.251
 8395SOL     OW26083   1.845   6.353   6.857
 8395SOL    HW126084   1.935   6.316   6.877
 8395SOL    HW226085   1.846   6.396   6.766
 8396SOL     OW26086   4.813   2.037   0.139
 8396SOL    HW126087   4.838   1.948   0.101
 8396SOL    HW226088   4.786   2.026   0.235
 8397SOL     OW26089   0.321   4.456   3.787
 8397SOL    HW126090   0.225   4.443   3.814
 8397SOL    HW226091   0.331   4.545   3.743
 8398SOL     OW26092   5.741   1.847   6.503
 8398SOL    HW126093   5.683   1.774   6.466
 8398SOL    HW226094   5.705   1.936   6.473
 8399SOL     OW26095   5.271   0.037   4.998
 8399SOL    HW126096   5.271   6.976   4.951
 8399SOL    HW226097   5.245   0.024   5.094
 8400SOL     OW26098   5.937   5.741   3.269
 8400SOL    HW126099   5.988   5.790   3.340
 8400SOL    HW226100   5.991   5.741   3.185
 8401SOL     OW26101   2.091   3.480   4.873
 8401SOL    HW126102   2.111   3.417   4.948
 8401SOL    HW226103   2.101   3.433   4.786
 8402SOL     OW26104   4.887   1.125   4.341
 8402SOL    HW126105   4.978   1.095   4.312
 8402SOL    HW226106   4.891   1.219   4.375
 8403SOL     OW26107   0.990   1.804   6.489
 8403SOL    HW126108   1.057   1.791   6.416
 8403SOL    HW226109   0.898   1.786   6.454
 8404SOL     OW26110   4.971   5.416   5.489
 8404SOL    HW126111   4.941   5.453   5.577
 8404SOL    HW226112   5.036   5.341   5.506
 8405SOL     OW26113   0.432   3.054   6.159
 8405SOL    HW126114   0.482   2.978   6.117
 8405SOL    HW226115   0.445   3.137   6.104
 8406SOL     OW26116   5.881   3.763   1.824
 8406SOL    HW126117   5.976   3.786   1.805
 8406SOL    HW226118   5.860   3.780   1.920
 8407SOL     OW26119   5.370   3.177   2.106
 8407SOL    HW126120   5.397   3.273   2.102
 8407SOL    HW226121   5.340   3.154   2.199
 8408SOL     OW26122   5.309   4.146   4.336
 8408SOL    HW126123   5.246   4.072   4.359
 8408SOL    HW226124   5.337   4.137   4.240
 8409SOL     OW26125   0.906   1.982   3.723
 8409SOL    HW126126   0.823   2.020   3.682
 8409SOL    HW226127   0.881   1.931   3.806
 8410SOL     OW26128   1.649   5.294   2.141
 8410SOL    HW126129   1.602   5.214   2.104
 8410SOL    HW226130   1.733   5.265   2.186
 8411SOL     OW26131   1.922   3.531   3.037
 8411SOL    HW126132   1.827   3.515   3.012
 8411SOL    HW226133   1.973   3.445   3.034
 8412SOL     OW26134   5.494   2.647   2.658
 8412SOL    HW126135   5.401   2.611   2.668
 8412SOL    HW226136   5.533   2.662   2.749
 8413SOL     OW26137   1.537   5.103   1.925
 8413SOL    HW126138   1.548   5.036   1.852
 8413SOL    HW226139   1.585   5.187   1.900
 8414SOL     OW26140   6.426   0.283   4.005
 8414SOL    HW126141   6.353   0.216   3.991
 8414SOL    HW226142   6.398   0.371   3.966
 8415SOL     OW26143   0.671   4.878   1.193
 8415SOL    HW126144   0.627   4.958   1.233
 8415SOL    HW226145   0.768   4.896   1.178
 8416SOL     OW26146   4.343   4.815   2.695
 8416SOL    HW126147   4.436   4.841   2.721
 8416SOL    HW226148   4.346   4.736   2.633
 8417SOL     OW26149   0.948   5.571   6.792
 8417SOL    HW126150   0.991   5.578   6.701
 8417SOL    HW226151   0.943   5.475   6.819
 8418SOL     OW26152   5.859   6.233   2.833
 8418SOL    HW126153   5.931   6.241   2.901
 8418SOL    HW226154   5.778   6.284   2.864
 8419SOL     OW26155   2.346   1.586   3.353
 8419SOL    HW126156   2.361   1.658   3.285
 8419SOL    HW226157   2.298   1.509   3.312
 8420SOL     OW26158   5.128   1.662   5.429
 8420SOL    HW126159   5.128   1.738   5.494
 8420SOL    HW226160   5.088   1.692   5.343
 8421SOL     OW26161   7.026   1.129   0.950
 8421SOL    HW126162   6.930   1.101   0.958
 8421SOL    HW226163   0.006   1.227   0.965
 8422SOL     OW26164   3.003   1.117   1.105
 8422SOL    HW126165   2.950   1.146   1.026
 8422SOL    HW226166   3.025   1.196   1.162
 8423SOL     OW26167   1.730   4.566   1.876
 8423SOL    HW126168   1.823   4.542   1.849
 8423SOL    HW226169   1.698   4.643   1.820
 8424SOL     OW26170   2.460   2.301   2.311
 8424SOL    HW126171   2.464   2.368   2.236
 8424SOL    HW226172   2.550   2.293   2.354
 8425SOL     OW26173   0.099   5.465   5.943
 8425SOL    HW126174   0.079   5.392   5.878
 8425SOL    HW226175   0.014   5.498   5.984
 8426SOL     OW26176   3.567   4.192   3.287
 8426SOL    HW126177   3.586   4.287   3.261
 8426SOL    HW226178   3.544   4.140   3.205
 8427SOL     OW26179   2.294   0.997   6.744
 8427SOL    HW126180   2.247   1.084   6.761
 8427SOL    HW226181   2.227   0.930   6.710
 8428SOL     OW26182   6.984   2.909   1.656
 8428SOL    HW126183   7.021   2.964   1.731
 8428SOL    HW226184   0.007   2.929   1.572
 8429SOL     OW26185   1.349   6.663   3.075
 8429SOL    HW126186   1.382   6.717   2.998
 8429SOL    HW226187   1.268   6.706   3.114
 8430SOL     OW26188   3.140   6.220   3.761
 8430SOL    HW126189   3.132   6.125   3.791
 8430SOL    HW226190   3.187   6.224   3.674
 8431SOL     OW26191   3.315   3.482   3.203
 8431SOL    HW126192   3.354   3.507   3.114
 8431SOL    HW226193   3.341   3.551   3.271
 8432SOL     OW26194   4.025   5.644   0.528
 8432SOL    HW126195   4.026   5.603   0.437
 8432SOL    HW226196   3.934   5.637   0.568
 8433SOL     OW26197   6.515   1.655   3.426
 8433SOL    HW126198   6.572   1.573   3.424
 8433SOL    HW226199   6.551   1.723   3.363
 8434SOL     OW26200   5.418   6.452   0.022
 8434SOL    HW126201   5.375   6.446   0.112
 8434SOL    HW226202   5.371   6.392   6.986
 8435SOL     OW26203   5.409   3.555   0.434
 8435SOL    HW126204   5.402   3.493   0.356
 8435SOL    HW226205   5.320   3.599   0.450
 8436SOL     OW26206   3.339   4.363   1.565
 8436SOL    HW126207   3.399   4.402   1.635
 8436SOL    HW226208   3.279   4.434   1.529
 8437SOL     OW26209   0.287   3.115   0.791
 8437SOL    HW126210   0.275   3.125   0.692
 8437SOL    HW226211   0.283   3.018   0.815
 8438SOL     OW26212   2.518   5.691   1.780
 8438SOL    HW126213   2.508   5.789   1.800
 8438SOL    HW226214   2.445   5.640   1.825
 8439SOL     OW26215   5.521   0.563   2.123
 8439SOL    HW126216   5.579   0.538   2.045
 8439SOL    HW226217   5.427   0.535   2.106
 8440SOL     OW26218   1.316   3.882   3.444
 8440SOL    HW126219   1.389   3.836   3.495
 8440SOL    HW226220   1.332   3.871   3.346
 8441SOL     OW26221   4.696   5.745   1.040
 8441SOL    HW126222   4.745   5.658   1.036
 8441SOL    HW226223   4.636   5.746   1.120
 8442SOL     OW26224   2.927   3.256   0.631
 8442SOL    HW126225   2.969   3.184   0.577
 8442SOL    HW226226   2.973   3.264   0.719
 8443SOL     OW26227   6.888   2.746   0.491
 8443SOL    HW126228   6.984   2.720   0.482
 8443SOL    HW226229   6.880   2.819   0.559
 8444SOL     OW26230   5.130   2.693   3.109
 8444SOL    HW126231   5.067   2.694   3.031
 8444SOL    HW226232   5.221   2.666   3.078
 8445SOL     OW26233   3.378   5.396   3.470
 8445SOL    HW126234   3.411   5.436   3.556
 8445SOL    HW226235   3.456   5.374   3.412
 8446SOL     OW26236   5.931   4.144   2.975
 8446SOL    HW126237   5.865   4.204   3.019
 8446SOL    HW226238   5.904   4.049   2.988
 8447SOL     OW26239   5.626   4.956   0.945
 8447SOL    HW126240   5.716   4.943   0.988
 8447SOL    HW226241   5.567   5.006   1.008
 8448SOL     OW26242   1.363   4.445   5.444
 8448SOL    HW126243   1.270   4.477   5.461
 8448SOL    HW226244   1.426   4.522   5.447
 8449SOL     OW26245   2.323   0.925   5.834
 8449SOL    HW126246   2.296   1.017   5.862
 8449SOL    HW226247   2.411   0.929   5.787
 8450SOL     OW26248   1.656   5.967   0.647
 8450SOL    HW126249   1.671   5.963   0.746
 8450SOL    HW226250   1.677   6.059   0.613
 8451SOL     OW26251   2.706   4.313   1.625
 8451SOL    HW126252   2.744   4.221   1.634
 8451SOL    HW226253   2.722   4.364   1.710
 8452SOL     OW26254   6.764   5.805   2.514
 8452SOL    HW126255   6.683   5.819   2.457
 8452SOL    HW226256   6.739   5.755   2.596
 8453SOL     OW26257   0.762   4.396   5.410
 8453SOL    HW126258   0.807   4.315   5.371
 8453SOL    HW226259   0.827   4.446   5.468
 8454SOL     OW26260   2.067   6.893   6.112
 8454SOL    HW126261   2.095   6.988   6.122
 8454SOL    HW226262   2.044   6.875   6.016
 8455SOL     OW26263   6.260   2.180   0.100
 8455SOL    HW126264   6.326   2.243   0.139
 8455SOL    HW226265   6.290   2.086   0.115
 8456SOL     OW26266   5.943   4.700   3.464
 8456SOL    HW126267   6.010   4.625   3.462
 8456SOL    HW226268   5.852   4.663   3.487
 8457SOL     OW26269   5.538   6.050   6.189
 8457SOL    HW126270   5.510   6.017   6.279
 8457SOL    HW226271   5.536   6.150   6.188
 8458SOL     OW26272   1.122   1.223   1.336
 8458SOL    HW126273   1.149   1.304   1.284
 8458SOL    HW226274   1.058   1.249   1.408
 8459SOL     OW26275   1.933   4.741   2.863
 8459SOL    HW126276   1.959   4.837   2.848
 8459SOL    HW226277   1.885   4.733   2.950
 8460SOL     OW26278   3.789   1.100   1.157
 8460SOL    HW126279   3.716   1.168   1.150
 8460SOL    HW226280   3.875   1.145   1.180
 8461SOL     OW26281   5.266   4.857   3.072
 8461SOL    HW126282   5.197   4.849   3.143
 8461SOL    HW226283   5.297   4.952   3.066
 8462SOL     OW26284   2.034   3.383   0.258
 8462SOL    HW126285   1.999   3.476   0.243
 8462SOL    HW226286   2.031   3.332   0.172
 8463SOL     OW26287   0.644   6.397   1.812
 8463SOL    HW126288   0.650   6.297   1.812
 8463SOL    HW226289   0.733   6.436   1.835
 8464SOL     OW26290   6.583   3.080   6.886
 8464SOL    HW126291   6.509   3.143   6.910
 8464SOL    HW226292   6.657   3.090   6.952
 8465SOL     OW26293   5.935   3.913   0.444
 8465SOL    HW126294   5.839   3.928   0.419
 8465SOL    HW226295   5.958   3.970   0.523
 8466SOL     OW26296   0.170   1.587   4.656
 8466SOL    HW126297   0.217   1.674   4.641
 8466SOL    HW226298   0.235   1.519   4.689
 8467SOL     OW26299   2.950   0.580   0.644
 8467SOL    HW126300   3.027   0.558   0.704
 8467SOL    HW226301   2.882   0.632   0.694
 8468SOL     OW26302   6.833   3.418   2.004
 8468SOL    HW126303   6.900   3.347   1.982
 8468SOL    HW226304   6.748   3.375   2.034
 8469SOL     OW26305   3.468   2.766   5.545
 8469SOL    HW126306   3.544   2.775   5.480
 8469SOL    HW226307   3.386   2.738   5.496
 8470SOL     OW26308   1.518   5.500   0.293
 8470SOL    HW126309   1.441   5.457   0.247
 8470SOL    HW226310   1.489   5.533   0.383
 8471SOL     OW26311   3.679   1.889   3.784
 8471SOL    HW126312   3.688   1.900   3.685
 8471SOL    HW226313   3.766   1.856   3.822
 8472SOL     OW26314   6.330   1.226   6.827
 8472SOL    HW126315   6.317   1.128   6.843
 8472SOL    HW226316   6.383   1.240   6.743
 8473SOL     OW26317   4.906   5.133   5.668
 8473SOL    HW126318   4.818   5.162   5.706
 8473SOL    HW226319   4.973   5.205   5.682
 8474SOL     OW26320   2.974   4.126   6.633
 8474SOL    HW126321   3.023   4.198   6.584
 8474SOL    HW226322   2.877   4.128   6.607
 8475SOL     OW26323   0.906   1.901   3.234
 8475SOL    HW126324   0.992   1.864   3.200
 8475SOL    HW226325   0.856   1.830   3.283
 8476SOL     OW26326   6.777   0.623   2.311
 8476SOL    HW126327   6.709   0.673   2.258
 8476SOL    HW226328   6.857   0.682   2.326
 8477SOL     OW26329   6.311   0.277   1.161
 8477SOL    HW126330   6.279   0.260   1.068
 8477SOL    HW226331   6.386   0.215   1.182
 8478SOL     OW26332   2.248   6.548   0.084
 8478SOL    HW126333   2.225   6.502   7.026
 8478SOL    HW226334   2.164   6.578   0.129
 8479SOL     OW26335   1.457   1.870   0.230
 8479SOL    HW126336   1.505   1.945   0.275
 8479SOL    HW226337   1.484   1.865   0.134
 8480SOL     OW26338   3.196   4.579   1.637
 8480SOL    HW126339   3.262   4.654   1.636
 8480SOL    HW226340   3.103   4.617   1.641
 8481SOL     OW26341   5.768   3.201   1.692
 8481SOL    HW126342   5.792   3.174   1.599
 8481SOL    HW226343   5.681   3.250   1.691
 8482SOL     OW26344   4.936   0.007   5.414
 8482SOL    HW126345   4.858   7.016   5.355
 8482SOL    HW226346   4.935   0.104   5.439
 8483SOL     OW26347   4.662   5.255   3.868
 8483SOL    HW126348   4.671   5.166   3.823
 8483SOL    HW226349   4.687   5.246   3.965
 8484SOL     OW26350   5.535   6.596   5.415
 8484SOL    HW126351   5.498   6.507   5.441
 8484SOL    HW226352   5.610   6.582   5.349
 8485SOL     OW26353   3.381   0.583   6.086
 8485SOL    HW126354   3.451   0.585   6.157
 8485SOL    HW226355   3.363   0.676   6.054
 8486SOL     OW26356   5.151   2.565   4.778
 8486SOL    HW126357   5.248   2.540   4.779
 8486SOL    HW226358   5.138   2.651   4.827
 8487SOL     OW26359   1.029   1.351   5.893
 8487SOL    HW126360   0.971   1.432   5.902
 8487SOL    HW226361   1.089   1.345   5.973
 8488SOL     OW26362   4.028   5.716   2.930
 8488SOL    HW126363   4.083   5.699   2.848
 8488SOL    HW226364   3.950   5.653   2.931
 8489SOL     OW26365   6.377   2.344   1.821
 8489SOL    HW126366   6.448   2.404   1.859
 8489SOL    HW226367   6.415   2.291   1.745
 8490SOL     OW26368   4.505   0.295   6.947
 8490SOL    HW126369   4.597   0.333   6.953
 8490SOL    HW226370   4.472   0.273   0.010
 8491SOL     OW26371   2.934   6.306   1.782
 8491SOL    HW126372   2.949   6.227   1.722
 8491SOL    HW226373   2.873   6.281   1.857
 8492SOL     OW26374   6.050   6.558   4.139
 8492SOL    HW126375   6.061   6.656   4.153
 8492SOL    HW226376   6.036   6.513   4.227
 8493SOL     OW26377   4.959   0.303   5.269
 8493SOL    HW126378   4.887   0.307   5.199
 8493SOL    HW226379   5.040   0.259   5.231
 8494SOL     OW26380   0.177   3.537   2.162
 8494SOL    HW126381   0.116   3.567   2.089
 8494SOL    HW226382   0.266   3.513   2.124
 8495SOL     OW26383   4.277   5.509   4.728
 8495SOL    HW126384   4.315   5.485   4.818
 8495SOL    HW226385   4.202   5.447   4.706
 8496SOL     OW26386   3.956   2.137   2.384
 8496SOL    HW126387   3.890   2.139   2.458
 8496SOL    HW226388   3.908   2.122   2.297
 8497SOL     OW26389   6.166   1.253   3.243
 8497SOL    HW126390   6.077   1.248   3.197
 8497SOL    HW226391   6.237   1.273   3.175
 8498SOL     OW26392   6.049   6.045   5.454
 8498SOL    HW126393   6.083   6.042   5.360
 8498SOL    HW226394   5.951   6.063   5.454
 8499SOL     OW26395   6.594   0.086   6.147
 8499SOL    HW126396   6.613   0.063   6.243
 8499SOL    HW226397   6.564   0.181   6.140
 8500SOL     OW26398   0.196   0.345   5.668
 8500SOL    HW126399   0.260   0.357   5.591
 8500SOL    HW226400   0.102   0.350   5.634
 8501SOL     OW26401   3.721   6.672   4.795
 8501SOL    HW126402   3.748   6.596   4.854
 8501SOL    HW226403   3.674   6.637   4.714
 8502SOL     OW26404   6.635   2.447   0.505
 8502SOL    HW126405   6.657   2.544   0.507
 8502SOL    HW226406   6.634   2.410   0.598
 8503SOL     OW26407   4.652   2.848   5.889
 8503SOL    HW126408   4.591   2.825   5.814
 8503SOL    HW226409   4.745   2.858   5.855
 8504SOL     OW26410   1.586   1.137   3.204
 8504SOL    HW126411   1.597   1.130   3.303
 8504SOL    HW226412   1.533   1.059   3.171
 8505SOL     OW26413   6.040   1.294   2.519
 8505SOL    HW126414   6.087   1.358   2.581
 8505SOL    HW226415   5.958   1.259   2.565
 8506SOL     OW26416   2.412   1.212   4.239
 8506SOL    HW126417   2.501   1.205   4.194
 8506SOL    HW226418   2.341   1.233   4.171
 8507SOL     OW26419   4.128   5.508   0.293
 8507SOL    HW126420   4.224   5.478   0.299
 8507SOL    HW226421   4.111   5.546   0.202
 8508SOL     OW26422   3.260   0.960   6.337
 8508SOL    HW126423   3.189   0.899   6.302
 8508SOL    HW226424   3.338   0.906   6.367
 8509SOL     OW26425   3.809   1.793   2.156
 8509SOL    HW126426   3.713   1.822   2.156
 8509SOL    HW226427   3.827   1.737   2.236
 8510SOL     OW26428   0.734   2.515   5.355
 8510SOL    HW126429   0.745   2.555   5.446
 8510SOL    HW226430   0.677   2.433   5.362
 8511SOL     OW26431   5.848   1.964   4.024
 8511SOL    HW126432   5.757   2.002   4.041
 8511SOL    HW226433   5.848   1.915   3.937
 8512SOL     OW26434   2.618   7.017   6.394
 8512SOL    HW126435   2.560   6.981   6.467
 8512SOL    HW226436   2.655   6.941   6.341
 8513SOL     OW26437   3.454   5.977   6.783
 8513SOL    HW126438   3.523   6.043   6.813
 8513SOL    HW226439   3.363   6.019   6.789
 8514SOL     OW26440   4.516   5.785   4.453
 8514SOL    HW126441   4.481   5.692   4.454
 8514SOL    HW226442   4.597   5.790   4.393
 8515SOL     OW26443   5.430   2.641   2.006
 8515SOL    HW126444   5.472   2.598   2.085
 8515SOL    HW226445   5.363   2.709   2.036
 8516SOL     OW26446   0.037   2.720   0.938
 8516SOL    HW126447   0.016   2.812   0.973
 8516SOL    HW226448   7.027   2.651   1.000
 8517SOL     OW26449   0.952   3.776   4.668
 8517SOL    HW126450   0.971   3.868   4.632
 8517SOL    HW226451   1.010   3.760   4.749
 8518SOL     OW26452   3.308   5.610   1.500
 8518SOL    HW126453   3.349   5.583   1.587
 8518SOL    HW226454   3.301   5.710   1.496
 8519SOL     OW26455   2.853   5.574   3.087
 8519SOL    HW126456   2.864   5.482   3.124
 8519SOL    HW226457   2.874   5.573   2.990
 8520SOL     OW26458   3.755   5.622   6.889
 8520SOL    HW126459   3.707   5.641   6.975
 8520SOL    HW226460   3.766   5.707   6.838
 8521SOL     OW26461   0.412   0.974   3.865
 8521SOL    HW126462   0.475   0.899   3.843
 8521SOL    HW226463   0.348   0.988   3.790
 8522SOL     OW26464   2.644   6.003   4.490
 8522SOL    HW126465   2.547   5.987   4.472
 8522SOL    HW226466   2.677   6.077   4.431
 8523SOL     OW26467   2.051   5.561   7.015
 8523SOL    HW126468   2.066   5.630   6.945
 8523SOL    HW226469   2.061   5.470   6.976
 8524SOL     OW26470   1.963   1.177   6.279
 8524SOL    HW126471   2.059   1.204   6.279
 8524SOL    HW226472   1.953   1.091   6.330
 8525SOL     OW26473   5.789   4.116   4.824
 8525SOL    HW126474   5.756   4.165   4.904
 8525SOL    HW226475   5.737   4.031   4.813
 8526SOL     OW26476   6.706   2.850   1.457
 8526SOL    HW126477   6.725   2.878   1.363
 8526SOL    HW226478   6.676   2.930   1.510
 8527SOL     OW26479   4.693   1.494   5.033
 8527SOL    HW126480   4.608   1.446   5.052
 8527SOL    HW226481   4.673   1.590   5.010
 8528SOL     OW26482   6.051   6.929   0.082
 8528SOL    HW126483   6.062   6.852   0.145
 8528SOL    HW226484   6.121   6.924   0.011
 8529SOL     OW26485   6.782   1.415   4.365
 8529SOL    HW126486   6.841   1.489   4.333
 8529SOL    HW226487   6.686   1.443   4.357
 8530SOL     OW26488   1.852   5.275   5.585
 8530SOL    HW126489   1.815   5.184   5.604
 8530SOL    HW226490   1.833   5.299   5.489
 8531SOL     OW26491   2.897   5.347   3.225
 8531SOL    HW126492   2.883   5.249   3.215
 8531SOL    HW226493   2.974   5.364   3.287
 8532SOL     OW26494   1.101   2.980   6.804
 8532SOL    HW126495   1.088   2.941   6.895
 8532SOL    HW226496   1.171   2.928   6.755
 8533SOL     OW26497   3.100   0.564   6.646
 8533SOL    HW126498   3.036   0.504   6.599
 8533SOL    HW226499   3.193   0.531   6.632
 8534SOL     OW26500   3.444   2.565   0.874
 8534SOL    HW126501   3.471   2.661   0.877
 8534SOL    HW226502   3.498   2.513   0.941
 8535SOL     OW26503   0.039   1.925   5.572
 8535SOL    HW126504   0.094   1.952   5.493
 8535SOL    HW226505   6.978   1.894   5.543
 8536SOL     OW26506   6.569   0.361   6.155
 8536SOL    HW126507   6.494   0.419   6.188
 8536SOL    HW226508   6.589   0.384   6.060
 8537SOL     OW26509   3.347   6.642   3.577
 8537SOL    HW126510   3.339   6.741   3.587
 8537SOL    HW226511   3.443   6.616   3.574
 8538SOL     OW26512   3.933   1.980   5.386
 8538SOL    HW126513   3.909   1.954   5.293
 8538SOL    HW226514   3.941   2.080   5.392
 8539SOL     OW26515   0.625   2.913   2.804
 8539SOL    HW126516   0.714   2.921   2.849
 8539SOL    HW226517   0.625   2.967   2.720
 8540SOL     OW26518   4.636   6.071   6.081
 8540SOL    HW126519   4.551   6.123   6.076
 8540SOL    HW226520   4.633   5.994   6.017
 8541SOL     OW26521   3.579   6.019   5.667
 8541SOL    HW126522   3.493   5.967   5.668
 8541SOL    HW226523   3.576   6.085   5.592
 8542SOL     OW26524   1.485   4.988   4.478
 8542SOL    HW126525   1.429   5.043   4.541
 8542SOL    HW226526   1.562   5.043   4.446
 8543SOL     OW26527   3.701   1.755   5.587
 8543SOL    HW126528   3.745   1.700   5.658
 8543SOL    HW226529   3.742   1.846   5.585
 8544SOL     OW26530   4.891   4.035   5.439
 8544SOL    HW126531   4.867   3.942   5.467
 8544SOL    HW226532   4.846   4.101   5.499
 8545SOL     OW26533   1.923   0.876   6.569
 8545SOL    HW126534   1.973   0.889   6.484
 8545SOL    HW226535   1.982   0.832   6.636
 8546SOL     OW26536   2.715   1.953   4.173
 8546SOL    HW126537   2.810   1.931   4.196
 8546SOL    HW226538   2.666   1.983   4.254
 8547SOL     OW26539   5.600   4.613   5.851
 8547SOL    HW126540   5.557   4.684   5.795
 8547SOL    HW226541   5.623   4.651   5.941
 8548SOL     OW26542   1.616   3.997   3.722
 8548SOL    HW126543   1.708   3.968   3.752
 8548SOL    HW226544   1.592   3.949   3.638
 8549SOL     OW26545   2.764   0.295   3.445
 8549SOL    HW126546   2.808   0.221   3.496
 8549SOL    HW226547   2.691   0.257   3.388
 8550SOL     OW26548   0.240   3.718   5.041
 8550SOL    HW126549   0.152   3.764   5.039
 8550SOL    HW226550   0.231   3.625   5.004
 8551SOL     OW26551   3.309   2.132   4.204
 8551SOL    HW126552   3.293   2.226   4.235
 8551SOL    HW226553   3.337   2.133   4.108
 8552SOL     OW26554   3.949   1.561   1.982
 8552SOL    HW126555   3.855   1.583   2.006
 8552SOL    HW226556   3.984   1.489   2.041
 8553SOL     OW26557   6.111   2.346   0.469
 8553SOL    HW126558   6.102   2.366   0.567
 8553SOL    HW226559   6.134   2.250   0.457
 8554SOL     OW26560   0.125   0.666   6.483
 8554SOL    HW126561   0.084   0.672   6.573
 8554SOL    HW226562   0.222   0.641   6.492
 8555SOL     OW26563   3.534   1.672   3.933
 8555SOL    HW126564   3.535   1.751   3.872
 8555SOL    HW226565   3.627   1.637   3.944
 8556SOL     OW26566   1.227   3.867   6.079
 8556SOL    HW126567   1.323   3.851   6.057
 8556SOL    HW226568   1.215   3.869   6.178
 8557SOL     OW26569   6.131   6.769   0.800
 8557SOL    HW126570   6.147   6.842   0.866
 8557SOL    HW226571   6.032   6.750   0.796
 8558SOL     OW26572   1.865   6.192   3.496
 8558SOL    HW126573   1.851   6.207   3.593
 8558SOL    HW226574   1.845   6.097   3.473
 8559SOL     OW26575   1.504   2.309   2.770
 8559SOL    HW126576   1.483   2.380   2.837
 8559SOL    HW226577   1.599   2.279   2.783
 8560SOL     OW26578   3.394   4.775   1.638
 8560SOL    HW126579   3.467   4.737   1.694
 8560SOL    HW226580   3.345   4.846   1.689
 8561SOL     OW26581   3.778   0.980   2.455
 8561SOL    HW126582   3.770   1.079   2.466
 8561SOL    HW226583   3.687   0.942   2.439
 8562SOL     OW26584   5.913   4.017   5.918
 8562SOL    HW126585   5.915   4.110   5.880
 8562SOL    HW226586   5.843   4.012   5.990
 8563SOL     OW26587   0.326   3.970   3.683
 8563SOL    HW126588   0.423   3.990   3.673
 8563SOL    HW226589   0.278   3.993   3.599
 8564SOL     OW26590   4.042   6.579   6.992
 8564SOL    HW126591   4.108   6.529   0.021
 8564SOL    HW226592   3.987   6.639   0.021
 8565SOL     OW26593   1.801   5.197   0.899
 8565SOL    HW126594   1.782   5.148   0.815
 8565SOL    HW226595   1.748   5.282   0.902
 8566SOL     OW26596   2.562   1.100   3.973
 8566SOL    HW126597   2.554   1.199   3.985
 8566SOL    HW226598   2.470   1.060   3.970
 8567SOL     OW26599   1.477   2.799   0.077
 8567SOL    HW126600   1.456   2.880   0.023
 8567SOL    HW226601   1.565   2.810   0.122
 8568SOL     OW26602   5.753   0.156   5.949
 8568SOL    HW126603   5.806   0.098   6.011
 8568SOL    HW226604   5.756   0.119   5.857
 8569SOL     OW26605   4.380   1.787   5.933
 8569SOL    HW126606   4.378   1.885   5.950
 8569SOL    HW226607   4.452   1.766   5.866
 8570SOL     OW26608   1.502   2.014   3.968
 8570SOL    HW126609   1.465   2.013   3.875
 8570SOL    HW226610   1.498   2.107   4.005
 8571SOL     OW26611   1.724   0.913   3.729
 8571SOL    HW126612   1.711   0.954   3.819
 8571SOL    HW226613   1.663   0.835   3.718
 8572SOL     OW26614   2.698   2.967   6.340
 8572SOL    HW126615   2.733   2.964   6.434
 8572SOL    HW226616   2.619   3.028   6.336
 8573SOL     OW26617   1.868   6.348   5.328
 8573SOL    HW126618   1.770   6.366   5.327
 8573SOL    HW226619   1.887   6.263   5.278
 8574SOL     OW26620   6.453   2.754   5.698
 8574SOL    HW126621   6.430   2.660   5.672
 8574SOL    HW226622   6.530   2.785   5.642
 8575SOL     OW26623   1.597   6.729   3.962
 8575SOL    HW126624   1.642   6.647   3.925
 8575SOL    HW226625   1.566   6.786   3.886
 8576SOL     OW26626   1.669   4.247   4.288
 8576SOL    HW126627   1.599   4.307   4.251
 8576SOL    HW226628   1.752   4.253   4.232
 8577SOL     OW26629   1.929   1.274   1.343
 8577SOL    HW126630   1.937   1.331   1.424
 8577SOL    HW226631   1.834   1.248   1.329
 8578SOL     OW26632   1.894   0.710   6.159
 8578SOL    HW126633   1.918   0.649   6.083
 8578SOL    HW226634   1.858   0.656   6.235
 8579SOL     OW26635   2.631   7.021   3.098
 8579SOL    HW126636   2.671   7.003   3.187
 8579SOL    HW226637   2.666   6.956   3.031
 8580SOL     OW26638   1.056   0.096   2.032
 8580SOL    HW126639   1.101   0.007   2.028
 8580SOL    HW226640   1.063   0.133   2.125
 8581SOL     OW26641   4.153   3.491   3.780
 8581SOL    HW126642   4.172   3.421   3.849
 8581SOL    HW226643   4.120   3.574   3.825
 8582SOL     OW26644   5.361   5.210   0.288
 8582SOL    HW126645   5.353   5.291   0.229
 8582SOL    HW226646   5.324   5.131   0.241
 8583SOL     OW26647   3.551   6.857   1.957
 8583SOL    HW126648   3.533   6.953   1.980
 8583SOL    HW226649   3.642   6.849   1.917
 8584SOL     OW26650   5.801   3.066   6.266
 8584SOL    HW126651   5.751   3.046   6.181
 8584SOL    HW226652   5.735   3.083   6.339
 8585SOL     OW26653   5.033   2.735   2.863
 8585SOL    HW126654   4.933   2.733   2.861
 8585SOL    HW226655   5.067   2.796   2.791
 8586SOL     OW26656   6.066   6.647   6.046
 8586SOL    HW126657   6.023   6.574   5.994
 8586SOL    HW226658   6.021   6.655   6.136
 8587SOL     OW26659   6.150   6.885   1.248
 8587SOL    HW126660   6.220   6.925   1.306
 8587SOL    HW226661   6.122   6.797   1.285
 8588SOL     OW26662   1.797   2.819   5.813
 8588SOL    HW126663   1.750   2.859   5.734
 8588SOL    HW226664   1.729   2.779   5.875
 8589SOL     OW26665   6.550   3.259   6.375
 8589SOL    HW126666   6.460   3.221   6.396
 8589SOL    HW226667   6.593   3.205   6.303
 8590SOL     OW26668   1.064   1.385   2.799
 8590SOL    HW126669   0.977   1.350   2.765
 8590SOL    HW226670   1.051   1.477   2.836
 8591SOL     OW26671   0.835   4.651   6.484
 8591SOL    HW126672   0.768   4.679   6.552
 8591SOL    HW226673   0.898   4.584   6.524
 8592SOL     OW26674   0.059   1.857   4.852
 8592SOL    HW126675   0.021   1.922   4.917
 8592SOL    HW226676   0.142   1.895   4.810
 8593SOL     OW26677   0.339   0.604   0.348
 8593SOL    HW126678   0.241   0.618   0.334
 8593SOL    HW226679   0.365   0.515   0.312
 8594SOL     OW26680   6.038   2.344   7.020
 8594SOL    HW126681   6.104   2.283   0.037
 8594SOL    HW226682   6.087   2.407   6.960
 8595SOL     OW26683   5.719   6.716   1.350
 8595SOL    HW126684   5.772   6.685   1.271
 8595SOL    HW226685   5.781   6.744   1.423
 8596SOL     OW26686   0.740   2.637   5.600
 8596SOL    HW126687   0.760   2.735   5.595
 8596SOL    HW226688   0.662   2.621   5.660
 8597SOL     OW26689   6.406   2.632   5.975
 8597SOL    HW126690   6.414   2.686   5.892
 8597SOL    HW226691   6.492   2.635   6.025
 8598SOL     OW26692   6.346   6.569   5.692
 8598SOL    HW126693   6.415   6.506   5.655
 8598SOL    HW226694   6.381   6.609   5.777
 8599SOL     OW26695   6.362   4.555   5.902
 8599SOL    HW126696   6.305   4.526   5.825
 8599SOL    HW226697   6.341   4.650   5.925
 8600SOL     OW26698   3.296   3.149   1.985
 8600SOL    HW126699   3.234   3.083   2.027
 8600SOL    HW226700   3.381   3.154   2.037
 8601SOL     OW26701   4.809   4.535   1.297
 8601SOL    HW126702   4.852   4.579   1.375
 8601SOL    HW226703   4.822   4.436   1.303
 8602SOL     OW26704   2.394   6.197   5.172
 8602SOL    HW126705   2.450   6.220   5.092
 8602SOL    HW226706   2.356   6.280   5.211
 8603SOL     OW26707   0.441   1.254   6.732
 8603SOL    HW126708   0.405   1.183   6.672
 8603SOL    HW226709   0.368   1.287   6.792
 8604SOL     OW26710   1.823   6.135   6.173
 8604SOL    HW126711   1.753   6.087   6.225
 8604SOL    HW226712   1.909   6.135   6.224
 8605SOL     OW26713   0.199   4.918   4.237
 8605SOL    HW126714   0.156   4.839   4.280
 8605SOL    HW226715   0.150   5.001   4.263
 8606SOL     OW26716   0.068   0.080   6.554
 8606SOL    HW126717   0.126   0.084   6.473
 8606SOL    HW226718   0.106   0.139   6.625
 8607SOL     OW26719   3.182   2.574   1.358
 8607SOL    HW126720   3.154   2.664   1.327
 8607SOL    HW226721   3.210   2.518   1.280
 8608SOL     OW26722   1.582   5.457   1.936
 8608SOL    HW126723   1.601   5.395   2.012
 8608SOL    HW226724   1.517   5.527   1.966
 8609SOL     OW26725   5.468   2.735   4.281
 8609SOL    HW126726   5.410   2.654   4.273
 8609SOL    HW226727   5.535   2.736   4.206
 8610SOL     OW26728   0.335   5.421   2.412
 8610SOL    HW126729   0.260   5.366   2.447
 8610SOL    HW226730   0.380   5.373   2.337
 8611SOL     OW26731   2.088   1.440   6.015
 8611SOL    HW126732   2.056   1.378   5.943
 8611SOL    HW226733   2.030   1.430   6.096
 8612SOL     OW26734   3.524   3.059   6.259
 8612SOL    HW126735   3.498   3.113   6.179
 8612SOL    HW226736   3.533   2.963   6.231
 8613SOL     OW26737   3.534   3.183   3.794
 8613SOL    HW126738   3.486   3.239   3.861
 8613SOL    HW226739   3.537   3.088   3.827
 8614SOL     OW26740   0.190   3.489   3.856
 8614SOL    HW126741   0.182   3.517   3.760
 8614SOL    HW226742   0.281   3.514   3.891
 8615SOL     OW26743   3.884   0.427   5.074
 8615SOL    HW126744   3.891   0.522   5.104
 8615SOL    HW226745   3.881   0.424   4.974
 8616SOL     OW26746   6.270   3.834   5.216
 8616SOL    HW126747   6.313   3.744   5.213
 8616SOL    HW226748   6.244   3.863   5.124
 8617SOL     OW26749   0.757   6.821   4.622
 8617SOL    HW126750   0.673   6.843   4.572
 8617SOL    HW226751   0.759   6.872   4.708
 8618SOL     OW26752   0.171   4.519   0.662
 8618SOL    HW126753   0.091   4.575   0.685
 8618SOL    HW226754   0.229   4.569   0.596
 8619SOL     OW26755   6.051   4.215   6.438
 8619SOL    HW126756   5.975   4.153   6.418
 8619SOL    HW226757   6.020   4.287   6.500
 8620SOL     OW26758   0.725   6.752   4.054
 8620SOL    HW126759   0.785   6.832   4.060
 8620SOL    HW226760   0.631   6.782   4.041
 8621SOL     OW26761   6.629   3.232   2.115
 8621SOL    HW126762   6.571   3.165   2.161
 8621SOL    HW226763   6.588   3.323   2.122
 8622SOL     OW26764   0.857   6.031   1.946
 8622SOL    HW126765   0.911   5.948   1.959
 8622SOL    HW226766   0.862   6.061   1.851
 8623SOL     OW26767   1.651   2.300   3.846
 8623SOL    HW126768   1.571   2.322   3.902
 8623SOL    HW226769   1.731   2.347   3.883
 8624SOL     OW26770   3.567   3.872   6.299
 8624SOL    HW126771   3.537   3.777   6.291
 8624SOL    HW226772   3.534   3.910   6.385
 8625SOL     OW26773   4.285   3.037   6.162
 8625SOL    HW126774   4.193   3.014   6.193
 8625SOL    HW226775   4.349   3.028   6.238
 8626SOL     OW26776   5.712   1.145   0.149
 8626SOL    HW126777   5.797   1.163   0.198
 8626SOL    HW226778   5.635   1.183   0.201
 8627SOL     OW26779   6.917   0.219   2.737
 8627SOL    HW126780   6.835   0.275   2.750
 8627SOL    HW226781   6.929   0.199   2.639
 8628SOL     OW26782   1.328   6.247   0.667
 8628SOL    HW126783   1.239   6.202   0.667
 8628SOL    HW226784   1.354   6.269   0.573
 8629SOL     OW26785   0.148   1.124   4.392
 8629SOL    HW126786   0.092   1.068   4.454
 8629SOL    HW226787   0.089   1.164   4.321
 8630SOL     OW26788   6.222   3.636   1.365
 8630SOL    HW126789   6.260   3.551   1.402
 8630SOL    HW226790   6.178   3.617   1.277
 8631SOL     OW26791   1.612   5.703   0.104
 8631SOL    HW126792   1.569   5.649   0.176
 8631SOL    HW226793   1.605   5.800   0.128
 8632SOL     OW26794   5.800   5.965   2.923
 8632SOL    HW126795   5.832   6.045   2.871
 8632SOL    HW226796   5.841   5.882   2.885
 8633SOL     OW26797   6.645   4.144   5.922
 8633SOL    HW126798   6.636   4.228   5.976
 8633SOL    HW226799   6.736   4.106   5.935
 8634SOL     OW26800   4.714   4.390   0.212
 8634SOL    HW126801   4.762   4.348   0.289
 8634SOL    HW226802   4.774   4.393   0.132
 8635SOL     OW26803   5.159   1.532   6.985
 8635SOL    HW126804   5.182   1.445   6.939
 8635SOL    HW226805   5.237   1.595   6.977
 8636SOL     OW26806   4.863   5.973   0.684
 8636SOL    HW126807   4.938   5.947   0.623
 8636SOL    HW226808   4.775   5.957   0.637
 8637SOL     OW26809   3.045   2.834   1.060
 8637SOL    HW126810   3.004   2.755   1.014
 8637SOL    HW226811   3.110   2.802   1.129
 8638SOL     OW26812   5.134   2.370   5.054
 8638SOL    HW126813   5.065   2.378   5.126
 8638SOL    HW226814   5.091   2.339   4.970
 8639SOL     OW26815   4.115   3.916   0.232
 8639SOL    HW126816   4.034   3.958   0.274
 8639SOL    HW226817   4.191   3.919   0.297
 8640SOL     OW26818   2.932   2.836   0.290
 8640SOL    HW126819   2.946   2.737   0.285
 8640SOL    HW226820   2.994   2.882   0.226
 8641SOL     OW26821   3.341   4.875   2.928
 8641SOL    HW126822   3.390   4.868   3.016
 8641SOL    HW226823   3.358   4.966   2.888
 8642SOL     OW26824   2.770   6.532   3.297
 8642SOL    HW126825   2.836   6.463   3.327
 8642SOL    HW226826   2.679   6.491   3.293
 8643SOL     OW26827   3.807   6.519   1.316
 8643SOL    HW126828   3.885   6.537   1.375
 8643SOL    HW226829   3.788   6.421   1.314
 8644SOL     OW26830   4.716   2.455   6.335
 8644SOL    HW126831   4.772   2.411   6.404
 8644SOL    HW226832   4.619   2.450   6.363
 8645SOL     OW26833   4.608   4.806   3.077
 8645SOL    HW126834   4.592   4.834   2.982
 8645SOL    HW226835   4.703   4.774   3.086
 8646SOL     OW26836   5.786   2.277   3.987
 8646SOL    HW126837   5.745   2.192   4.017
 8646SOL    HW226838   5.847   2.259   3.910
 8647SOL     OW26839   2.161   4.908   2.080
 8647SOL    HW126840   2.066   4.933   2.102
 8647SOL    HW226841   2.210   4.888   2.165
 8648SOL     OW26842   5.770   6.006   6.392
 8648SOL    HW126843   5.760   5.913   6.427
 8648SOL    HW226844   5.701   6.022   6.321
 8649SOL     OW26845   5.307   3.028   1.880
 8649SOL    HW126846   5.293   3.052   1.784
 8649SOL    HW226847   5.320   3.111   1.934
 8650SOL     OW26848   1.417   1.210   5.252
 8650SOL    HW126849   1.367   1.198   5.338
 8650SOL    HW226850   1.390   1.296   5.210
 8651SOL     OW26851   4.797   1.677   1.440
 8651SOL    HW126852   4.748   1.592   1.418
 8651SOL    HW226853   4.869   1.657   1.506
 8652SOL     OW26854   6.204   3.363   4.787
 8652SOL    HW126855   6.290   3.411   4.765
 8652SOL    HW226856   6.176   3.309   4.708
 8653SOL     OW26857   4.429   1.030   6.505
 8653SOL    HW126858   4.446   1.077   6.418
 8653SOL    HW226859   4.333   1.041   6.531
 8654SOL     OW26860   6.638   4.897   3.457
 8654SOL    HW126861   6.558   4.872   3.511
 8654SOL    HW226862   6.698   4.817   3.447
 8655SOL     OW26863   1.900   6.965   4.648
 8655SOL    HW126864   1.983   7.002   4.606
 8655SOL    HW226865   1.899   6.989   4.745
 8656SOL     OW26866   4.125   6.524   0.235
 8656SOL    HW126867   4.163   6.546   0.325
 8656SOL    HW226868   4.035   6.482   0.246
 8657SOL     OW26869   2.759   1.782   2.368
 8657SOL    HW126870   2.703   1.865   2.382
 8657SOL    HW226871   2.837   1.784   2.430
 8658SOL     OW26872   5.896   3.991   0.835
 8658SOL    HW126873   5.837   4.052   0.888
 8658SOL    HW226874   5.964   3.949   0.896
 8659SOL     OW26875   3.105   6.893   3.529
 8659SOL    HW126876   3.081   6.842   3.612
 8659SOL    HW226877   3.184   6.951   3.547
 8660SOL     OW26878   6.541   4.384   1.000
 8660SOL    HW126879   6.516   4.481   0.992
 8660SOL    HW226880   6.495   4.331   0.928
 8661SOL     OW26881   6.168   2.548   1.372
 8661SOL    HW126882   6.156   2.554   1.471
 8661SOL    HW226883   6.090   2.591   1.326
 8662SOL     OW26884   1.731   3.065   1.865
 8662SOL    HW126885   1.809   3.072   1.802
 8662SOL    HW226886   1.763   3.030   1.953
 8663SOL     OW26887   3.628   5.786   2.010
 8663SOL    HW126888   3.656   5.698   2.049
 8663SOL    HW226889   3.549   5.773   1.951
 8664SOL     OW26890   3.504   5.915   4.782
 8664SOL    HW126891   3.420   5.878   4.822
 8664SOL    HW226892   3.568   5.941   4.854
 8665SOL     OW26893   0.590   3.165   6.497
 8665SOL    HW126894   0.526   3.095   6.465
 8665SOL    HW226895   0.663   3.122   6.549
 8666SOL     OW26896   3.967   6.945   2.220
 8666SOL    HW126897   3.883   6.905   2.255
 8666SOL    HW226898   3.954   0.016   2.207
 8667SOL     OW26899   4.148   2.137   2.186
 8667SOL    HW126900   4.135   2.055   2.129
 8667SOL    HW226901   4.080   2.138   2.259
 8668SOL     OW26902   3.428   1.983   3.338
 8668SOL    HW126903   3.487   1.914   3.380
 8668SOL    HW226904   3.483   2.042   3.279
 8669SOL     OW26905   0.217   6.081   6.377
 8669SOL    HW126906   0.124   6.050   6.395
 8669SOL    HW226907   0.239   6.159   6.436
 8670SOL     OW26908   6.709   5.160   5.231
 8670SOL    HW126909   6.729   5.088   5.297
 8670SOL    HW226910   6.693   5.120   5.141
 8671SOL     OW26911   6.828   3.943   3.259
 8671SOL    HW126912   6.780   3.862   3.225
 8671SOL    HW226913   6.892   3.976   3.189
 8672SOL     OW26914   6.414   0.959   2.024
 8672SOL    HW126915   6.493   0.967   1.963
 8672SOL    HW226916   6.339   0.914   1.975
 8673SOL     OW26917   0.105   1.145   2.209
 8673SOL    HW126918   0.120   1.136   2.308
 8673SOL    HW226919   0.052   1.066   2.177
 8674SOL     OW26920   0.386   2.555   3.743
 8674SOL    HW126921   0.362   2.651   3.727
 8674SOL    HW226922   0.338   2.523   3.825
 8675SOL     OW26923   5.667   2.641   4.563
 8675SOL    HW126924   5.688   2.545   4.542
 8675SOL    HW226925   5.638   2.688   4.480
 8676SOL     OW26926   5.483   2.577   1.193
 8676SOL    HW126927   5.515   2.548   1.103
 8676SOL    HW226928   5.385   2.560   1.200
 8677SOL     OW26929   3.046   1.637   6.943
 8677SOL    HW126930   3.043   1.608   0.011
 8677SOL    HW226931   3.034   1.736   6.938
 8678SOL     OW26932   2.580   2.306   0.038
 8678SOL    HW126933   2.608   2.274   0.128
 8678SOL    HW226934   2.492   2.266   0.014
 8679SOL     OW26935   1.819   2.277   6.932
 8679SOL    HW126936   1.776   2.229   6.856
 8679SOL    HW226937   1.801   2.375   6.923
 8680SOL     OW26938   0.097   0.039   1.095
 8680SOL    HW126939   0.174   7.027   1.044
 8680SOL    HW226940   0.128   0.067   1.186
 8681SOL     OW26941   5.631   5.335   1.578
 8681SOL    HW126942   5.597   5.407   1.518
 8681SOL    HW226943   5.707   5.287   1.535
 8682SOL     OW26944   1.380   2.274   1.442
 8682SOL    HW126945   1.293   2.268   1.393
 8682SOL    HW226946   1.424   2.361   1.421
 8683SOL     OW26947   2.643   5.049   4.485
 8683SOL    HW126948   2.738   5.023   4.503
 8683SOL    HW226949   2.619   5.128   4.542
 8684SOL     OW26950   2.458   4.751   3.800
 8684SOL    HW126951   2.365   4.716   3.803
 8684SOL    HW226952   2.514   4.693   3.741
 8685SOL     OW26953   4.096   3.290   5.329
 8685SOL    HW126954   4.031   3.348   5.378
 8685SOL    HW226955   4.128   3.218   5.390
 8686SOL     OW26956   0.378   4.676   2.518
 8686SOL    HW126957   0.348   4.647   2.609
 8686SOL    HW226958   0.458   4.623   2.491
 8687SOL     OW26959   5.404   3.034   5.723
 8687SOL    HW126960   5.391   2.935   5.728
 8687SOL    HW226961   5.318   3.080   5.746
 8688SOL     OW26962   1.473   3.200   4.272
 8688SOL    HW126963   1.408   3.252   4.217
 8688SOL    HW226964   1.502   3.254   4.351
 8689SOL     OW26965   5.378   3.285   0.702
 8689SOL    HW126966   5.325   3.248   0.778
 8689SOL    HW226967   5.438   3.357   0.736
 8690SOL     OW26968   1.304   2.767   2.814
 8690SOL    HW126969   1.283   2.810   2.726
 8690SOL    HW226970   1.375   2.818   2.860
 8691SOL     OW26971   4.333   1.372   6.581
 8691SOL    HW126972   4.407   1.318   6.621
 8691SOL    HW226973   4.258   1.312   6.554
 8692SOL     OW26974   5.709   1.951   4.764
 8692SOL    HW126975   5.636   1.946   4.833
 8692SOL    HW226976   5.764   2.033   4.778
 8693SOL     OW26977   1.020   0.810   4.960
 8693SOL    HW126978   0.991   0.715   4.964
 8693SOL    HW226979   0.978   0.854   4.880
 8694SOL     OW26980   3.135   3.367   6.029
 8694SOL    HW126981   3.083   3.293   6.071
 8694SOL    HW226982   3.092   3.394   5.943
 8695SOL     OW26983   4.051   4.088   1.367
 8695SOL    HW126984   4.118   4.030   1.413
 8695SOL    HW226985   3.963   4.081   1.414
 8696SOL     OW26986   2.615   4.277   6.587
 8696SOL    HW126987   2.675   4.304   6.662
 8696SOL    HW226988   2.580   4.359   6.541
 8697SOL     OW26989   0.844   3.316   4.795
 8697SOL    HW126990   0.748   3.291   4.807
 8697SOL    HW226991   0.884   3.263   4.720
 8698SOL     OW26992   5.305   4.447   6.803
 8698SOL    HW126993   5.402   4.462   6.785
 8698SOL    HW226994   5.250   4.510   6.749
 8699SOL     OW26995   2.112   1.700   1.488
 8699SOL    HW126996   2.202   1.688   1.447
 8699SOL    HW226997   2.073   1.788   1.459
 8700SOL     OW26998   0.529   2.477   5.072
 8700SOL    HW126999   0.606   2.531   5.037
 8700SOL    HW227000   0.484   2.431   4.996
 8701SOL     OW27001   2.630   3.185   0.329
 8701SOL    HW127002   2.626   3.253   0.402
 8701SOL    HW227003   2.663   3.098   0.366
 8702SOL     OW27004   4.865   4.348   0.479
 8702SOL    HW127005   4.945   4.407   0.473
 8702SOL    HW227006   4.818   4.363   0.567
 8703SOL     OW27007   2.357   5.506   0.704
 8703SOL    HW127008   2.388   5.420   0.746
 8703SOL    HW227009   2.262   5.496   0.675
 8704SOL     OW27010   6.573   1.858   3.920
 8704SOL    HW127011   6.486   1.885   3.879
 8704SOL    HW227012   6.611   1.935   3.971
 8705SOL     OW27013   3.252   2.328   0.543
 8705SOL    HW127014   3.273   2.263   0.470
 8705SOL    HW227015   3.305   2.304   0.625
 8706SOL     OW27016   5.151   3.231   5.224
 8706SOL    HW127017   5.164   3.322   5.186
 8706SOL    HW227018   5.055   3.217   5.248
 8707SOL     OW27019   1.576   0.649   3.129
 8707SOL    HW127020   1.610   0.687   3.215
 8707SOL    HW227021   1.644   0.587   3.090
 8708SOL     OW27022   5.262   2.070   0.250
 8708SOL    HW127023   5.340   2.042   0.194
 8708SOL    HW227024   5.190   2.002   0.243
 8709SOL     OW27025   6.154   6.210   4.129
 8709SOL    HW127026   6.121   6.264   4.051
 8709SOL    HW227027   6.127   6.255   4.214
 8710SOL     OW27028   1.891   2.661   3.454
 8710SOL    HW127029   1.818   2.651   3.521
 8710SOL    HW227030   1.877   2.596   3.379
 8711SOL     OW27031   0.630   2.221   2.261
 8711SOL    HW127032   0.690   2.147   2.233
 8711SOL    HW227033   0.553   2.184   2.314
 8712SOL     OW27034   1.314   4.069   4.314
 8712SOL    HW127035   1.230   4.067   4.369
 8712SOL    HW227036   1.393   4.051   4.373
 8713SOL     OW27037   0.541   4.263   4.412
 8713SOL    HW127038   0.604   4.337   4.434
 8713SOL    HW227039   0.484   4.242   4.492
 8714SOL     OW27040   1.463   3.651   6.181
 8714SOL    HW127041   1.549   3.688   6.147
 8714SOL    HW227042   1.465   3.647   6.281
 8715SOL     OW27043   2.297   4.755   1.531
 8715SOL    HW127044   2.265   4.772   1.625
 8715SOL    HW227045   2.297   4.841   1.480
 8716SOL     OW27046   5.517   6.940   2.757
 8716SOL    HW127047   5.426   6.899   2.750
 8716SOL    HW227048   5.569   6.893   2.829
 8717SOL     OW27049   4.931   1.650   6.596
 8717SOL    HW127050   4.877   1.731   6.575
 8717SOL    HW227051   4.941   1.642   6.696
 8718SOL     OW27052   2.745   5.028   6.193
 8718SOL    HW127053   2.711   5.115   6.226
 8718SOL    HW227054   2.768   5.036   6.096
 8719SOL     OW27055   3.017   2.022   4.142
 8719SOL    HW127056   3.107   2.060   4.123
 8719SOL    HW227057   3.026   1.925   4.165
 8720SOL     OW27058   0.378   6.765   4.884
 8720SOL    HW127059   0.290   6.762   4.932
 8720SOL    HW227060   0.374   6.834   4.812
 8721SOL     OW27061   0.373   0.693   1.788
 8721SOL    HW127062   0.329   0.717   1.702
 8721SOL    HW227063   0.426   0.771   1.822
 8722SOL     OW27064   3.730   1.283   0.779
 8722SOL    HW127065   3.661   1.292   0.707
 8722SOL    HW227066   3.759   1.187   0.785
 8723SOL     OW27067   2.922   6.444   3.679
 8723SOL    HW127068   2.930   6.409   3.586
 8723SOL    HW227069   2.973   6.385   3.741
 8724SOL     OW27070   5.758   6.769   5.059
 8724SOL    HW127071   5.773   6.712   5.140
 8724SOL    HW227072   5.701   6.719   4.993
 8725SOL     OW27073   6.581   1.161   2.682
 8725SOL    HW127074   6.611   1.066   2.676
 8725SOL    HW227075   6.551   1.193   2.592
 8726SOL     OW27076   6.478   0.043   1.139
 8726SOL    HW127077   6.554   0.106   1.126
 8726SOL    HW227078   6.509   6.977   1.123
 8727SOL     OW27079   4.796   5.037   6.435
 8727SOL    HW127080   4.740   5.110   6.476
 8727SOL    HW227081   4.745   4.996   6.359
 8728SOL     OW27082   4.827   0.223   3.784
 8728SOL    HW127083   4.866   0.157   3.848
 8728SOL    HW227084   4.827   0.314   3.826
 8729SOL     OW27085   5.388   5.643   6.318
 8729SOL    HW127086   5.444   5.665   6.239
 8729SOL    HW227087   5.291   5.659   6.296
 8730SOL     OW27088   4.091   4.629   1.798
 8730SOL    HW127089   4.149   4.572   1.740
 8730SOL    HW227090   4.127   4.722   1.801
 8731SOL     OW27091   0.300   2.798   3.696
 8731SOL    HW127092   0.232   2.865   3.726
 8731SOL    HW227093   0.276   2.763   3.606
 8732SOL     OW27094   5.482   6.367   5.568
 8732SOL    HW127095   5.383   6.376   5.576
 8732SOL    HW227096   5.518   6.325   5.651
 8733SOL     OW27097   5.999   4.046   1.749
 8733SOL    HW127098   6.040   3.960   1.716
 8733SOL    HW227099   5.935   4.080   1.682
 8734SOL     OW27100   6.925   6.445   0.980
 8734SOL    HW127101   6.859   6.493   1.038
 8734SOL    HW227102   6.932   6.491   0.892
 8735SOL     OW27103   1.631   1.777   6.651
 8735SOL    HW127104   1.618   1.847   6.581
 8735SOL    HW227105   1.546   1.724   6.660
 8736SOL     OW27106   0.299   6.151   3.858
 8736SOL    HW127107   0.249   6.198   3.930
 8736SOL    HW227108   0.342   6.069   3.895
 8737SOL     OW27109   0.841   5.808   6.408
 8737SOL    HW127110   0.818   5.904   6.419
 8737SOL    HW227111   0.840   5.784   6.310
 8738SOL     OW27112   1.471   2.204   2.183
 8738SOL    HW127113   1.441   2.108   2.187
 8738SOL    HW227114   1.539   2.213   2.110
 8739SOL     OW27115   5.053   4.863   3.237
 8739SOL    HW127116   4.963   4.818   3.241
 8739SOL    HW227117   5.045   4.957   3.273
 8740SOL     OW27118   1.804   0.520   3.048
 8740SOL    HW127119   1.856   0.591   3.095
 8740SOL    HW227120   1.828   0.519   2.952
 8741SOL     OW27121   1.868   2.502   2.336
 8741SOL    HW127122   1.939   2.434   2.356
 8741SOL    HW227123   1.779   2.457   2.336
 8742SOL     OW27124   1.355   3.529   0.316
 8742SOL    HW127125   1.435   3.525   0.376
 8742SOL    HW227126   1.321   3.623   0.312
 8743SOL     OW27127   2.028   2.744   0.303
 8743SOL    HW127128   2.076   2.831   0.316
 8743SOL    HW227129   1.951   2.739   0.368
 8744SOL     OW27130   2.785   4.139   5.704
 8744SOL    HW127131   2.820   4.051   5.671
 8744SOL    HW227132   2.789   4.142   5.803
 8745SOL     OW27133   5.508   0.874   0.101
 8745SOL    HW127134   5.451   0.921   0.168
 8745SOL    HW227135   5.564   0.940   0.052
 8746SOL     OW27136   4.519   4.697   4.520
 8746SOL    HW127137   4.514   4.668   4.616
 8746SOL    HW227138   4.427   4.700   4.482
 8747SOL     OW27139   6.653   6.699   1.343
 8747SOL    HW127140   6.668   6.679   1.440
 8747SOL    HW227141   6.697   6.786   1.320
 8748SOL     OW27142   5.741   2.379   5.163
 8748SOL    HW127143   5.745   2.307   5.232
 8748SOL    HW227144   5.816   2.443   5.177
 8749SOL     OW27145   1.593   1.345   4.020
 8749SOL    HW127146   1.674   1.298   4.055
 8749SOL    HW227147   1.621   1.416   3.956
 8750SOL     OW27148   3.637   3.992   2.402
 8750SOL    HW127149   3.637   4.043   2.316
 8750SOL    HW227150   3.720   3.938   2.409
 8751SOL     OW27151   1.310   6.576   6.927
 8751SOL    HW127152   1.301   6.607   7.021
 8751SOL    HW227153   1.237   6.512   6.905
 8752SOL     OW27154   1.184   2.597   6.650
 8752SOL    HW127155   1.127   2.615   6.570
 8752SOL    HW227156   1.125   2.586   6.731
 8753SOL     OW27157   2.185   1.875   1.100
 8753SOL    HW127158   2.215   1.819   1.177
 8753SOL    HW227159   2.116   1.941   1.132
 8754SOL     OW27160   1.643   6.265   0.061
 8754SOL    HW127161   1.717   6.272   0.127
 8754SOL    HW227162   1.680   6.267   6.996
 8755SOL     OW27163   6.197   1.240   1.691
 8755SOL    HW127164   6.199   1.151   1.647
 8755SOL    HW227165   6.264   1.300   1.648
 8756SOL     OW27166   1.757   1.317   2.135
 8756SOL    HW127167   1.737   1.333   2.038
 8756SOL    HW227168   1.694   1.371   2.191
 8757SOL     OW27169   5.165   5.740   6.017
 8757SOL    HW127170   5.131   5.710   5.927
 8757SOL    HW227171   5.259   5.772   6.007
 8758SOL     OW27172   3.804   5.065   6.616
 8758SOL    HW127173   3.879   5.119   6.653
 8758SOL    HW227174   3.720   5.087   6.666
 8759SOL     OW27175   6.801   0.587   1.525
 8759SOL    HW127176   6.733   0.548   1.588
 8759SOL    HW227177   6.759   0.598   1.435
 8760SOL     OW27178   1.488   2.328   4.335
 8760SOL    HW127179   1.452   2.244   4.375
 8760SOL    HW227180   1.529   2.384   4.407
 8761SOL     OW27181   5.232   2.573   4.289
 8761SOL    HW127182   5.171   2.633   4.236
 8761SOL    HW227183   5.221   2.593   4.387
 8762SOL     OW27184   3.822   6.502   2.567
 8762SOL    HW127185   3.871   6.565   2.627
 8762SOL    HW227186   3.883   6.427   2.540
 8763SOL     OW27187   6.544   1.782   5.486
 8763SOL    HW127188   6.448   1.785   5.460
 8763SOL    HW227189   6.562   1.853   5.554
 8764SOL     OW27190   2.314   5.363   5.683
 8764SOL    HW127191   2.243   5.294   5.665
 8764SOL    HW227192   2.321   5.425   5.605
 8765SOL     OW27193   4.809   0.120   3.220
 8765SOL    HW127194   4.780   0.214   3.208
 8765SOL    HW227195   4.777   0.085   3.308
 8766SOL     OW27196   6.429   0.548   4.975
 8766SOL    HW127197   6.523   0.513   4.974
 8766SOL    HW227198   6.366   0.477   4.944
 8767SOL     OW27199   1.918   1.123   5.101
 8767SOL    HW127200   1.996   1.142   5.160
 8767SOL    HW227201   1.833   1.136   5.152
 8768SOL     OW27202   0.279   2.355   0.007
 8768SOL    HW127203   0.222   2.274   7.017
 8768SOL    HW227204   0.243   2.403   0.087
 8769SOL     OW27205   0.399   0.484   6.955
 8769SOL    HW127206   0.418   0.489   6.857
 8769SOL    HW227207   0.467   0.537   7.005
 8770SOL     OW27208   4.362   1.696   1.009
 8770SOL    HW127209   4.269   1.701   0.973
 8770SOL    HW227210   4.359   1.676   1.107
 8771SOL     OW27211   0.753   2.604   0.045
 8771SOL    HW127212   0.780   2.590   0.140
 8771SOL    HW227213   0.654   2.597   0.037
 8772SOL     OW27214   6.716   0.112   3.567
 8772SOL    HW127215   6.662   0.045   3.515
 8772SOL    HW227216   6.655   0.164   3.626
 8773SOL     OW27217   6.281   1.577   4.244
 8773SOL    HW127218   6.266   1.627   4.329
 8773SOL    HW227219   6.274   1.639   4.166
 8774SOL     OW27220   1.006   2.234   6.620
 8774SOL    HW127221   1.028   2.322   6.579
 8774SOL    HW227222   1.078   2.168   6.599
 8775SOL     OW27223   4.484   2.076   2.385
 8775SOL    HW127224   4.488   2.091   2.286
 8775SOL    HW227225   4.393   2.098   2.419
 8776SOL     OW27226   6.009   3.202   0.733
 8776SOL    HW127227   6.048   3.125   0.784
 8776SOL    HW227228   6.071   3.280   0.738
 8777SOL     OW27229   6.684   2.535   4.552
 8777SOL    HW127230   6.727   2.574   4.634
 8777SOL    HW227231   6.585   2.547   4.557
 8778SOL     OW27232   1.821   4.542   5.481
 8778SOL    HW127233   1.812   4.609   5.407
 8778SOL    HW227234   1.900   4.483   5.463
 8779SOL     OW27235   2.906   6.720   3.634
 8779SOL    HW127236   2.884   6.753   3.542
 8779SOL    HW227237   2.930   6.623   3.629
 8780SOL     OW27238   1.282   3.347   4.152
 8780SOL    HW127239   1.310   3.426   4.207
 8780SOL    HW227240   1.239   3.380   4.068
 8781SOL     OW27241   3.976   0.750   2.503
 8781SOL    HW127242   3.961   0.833   2.449
 8781SOL    HW227243   4.060   0.704   2.472
 8782SOL     OW27244   0.302   2.756   6.893
 8782SOL    HW127245   0.298   2.666   6.850
 8782SOL    HW227246   0.219   2.772   6.947
 8783SOL     OW27247   3.353   4.057   6.624
 8783SOL    HW127248   3.451   4.058   6.608
 8783SOL    HW227249   3.306   4.105   6.550
 8784SOL     OW27250   4.778   1.986   5.581
 8784SOL    HW127251   4.829   1.996   5.666
 8784SOL    HW227252   4.790   2.069   5.526
 8785SOL     OW27253   0.027   6.926   6.042
 8785SOL    HW127254   7.022   6.968   6.126
 8785SOL    HW227255   0.061   6.997   5.980
 8786SOL     OW27256   4.415   2.414   3.359
 8786SOL    HW127257   4.457   2.326   3.335
 8786SOL    HW227258   4.375   2.456   3.278
 8787SOL     OW27259   2.925   5.807   2.386
 8787SOL    HW127260   3.020   5.789   2.362
 8787SOL    HW227261   2.918   5.900   2.423
 8788SOL     OW27262   6.445   0.575   3.026
 8788SOL    HW127263   6.524   0.591   2.966
 8788SOL    HW227264   6.436   0.477   3.043
 8789SOL     OW27265   1.933   4.156   0.150
 8789SOL    HW127266   1.995   4.211   0.207
 8789SOL    HW227267   1.839   4.168   0.183
 8790SOL     OW27268   4.848   3.553   5.356
 8790SOL    HW127269   4.941   3.524   5.331
 8790SOL    HW227270   4.794   3.565   5.273
 8791SOL     OW27271   3.525   6.800   5.273
 8791SOL    HW127272   3.506   6.780   5.177
 8791SOL    HW227273   3.615   6.764   5.298
 8792SOL     OW27274   5.065   4.142   0.803
 8792SOL    HW127275   5.039   4.060   0.754
 8792SOL    HW227276   5.008   4.152   0.884
 8793SOL     OW27277   6.772   0.917   4.858
 8793SOL    HW127278   6.704   0.880   4.796
 8793SOL    HW227279   6.841   0.848   4.877
 8794SOL     OW27280   1.458   2.947   2.911
 8794SOL    HW127281   1.490   2.979   3.000
 8794SOL    HW227282   1.485   3.014   2.841
 8795SOL     OW27283   1.127   0.432   6.597
 8795SOL    HW127284   1.057   0.416   6.666
 8795SOL    HW227285   1.149   0.530   6.594
 8796SOL     OW27286   6.033   5.235   4.098
 8796SOL    HW127287   6.094   5.288   4.157
 8796SOL    HW227288   6.044   5.138   4.117
 8797SOL     OW27289   5.821   5.347   6.126
 8797SOL    HW127290   5.756   5.419   6.100
 8797SOL    HW227291   5.910   5.388   6.145
 8798SOL     OW27292   2.225   4.857   0.239
 8798SOL    HW127293   2.292   4.899   0.178
 8798SOL    HW227294   2.203   4.765   0.204
 8799SOL     OW27295   0.666   5.754   2.268
 8799SOL    HW127296   0.629   5.672   2.311
 8799SOL    HW227297   0.621   5.835   2.306
 8800SOL     OW27298   6.901   6.770   4.621
 8800SOL    HW127299   6.991   6.728   4.633
 8800SOL    HW227300   6.865   6.795   4.710
 8801SOL     OW27301   5.885   3.136   5.906
 8801SOL    HW127302   5.878   3.231   5.874
 8801SOL    HW227303   5.793   3.102   5.930
 8802SOL     OW27304   1.026   6.237   6.705
 8802SOL    HW127305   1.035   6.196   6.796
 8802SOL    HW227306   1.063   6.174   6.637
 8803SOL     OW27307   4.761   4.971   4.838
 8803SOL    HW127308   4.765   5.071   4.830
 8803SOL    HW227309   4.760   4.945   4.934
 8804SOL     OW27310   1.823   5.969   1.489
 8804SOL    HW127311   1.834   6.009   1.580
 8804SOL    HW227312   1.825   5.869   1.496
 8805SOL     OW27313   4.759   5.402   0.498
 8805SOL    HW127314   4.670   5.360   0.484
 8805SOL    HW227315   4.831   5.336   0.474
 8806SOL     OW27316   1.656   1.211   1.808
 8806SOL    HW127317   1.599   1.128   1.811
 8806SOL    HW227318   1.606   1.286   1.852
 8807SOL     OW27319   5.239   1.218   1.456
 8807SOL    HW127320   5.169   1.289   1.466
 8807SOL    HW227321   5.313   1.252   1.399
 8808SOL     OW27322   2.053   1.457   0.727
 8808SOL    HW127323   2.115   1.506   0.666
 8808SOL    HW227324   1.966   1.507   0.734
 8809SOL     OW27325   1.296   3.359   2.473
 8809SOL    HW127326   1.380   3.307   2.454
 8809SOL    HW227327   1.320   3.452   2.502
 8810SOL     OW27328   6.606   2.790   3.493
 8810SOL    HW127329   6.523   2.777   3.548
 8810SOL    HW227330   6.639   2.884   3.504
 8811SOL     OW27331   3.478   5.889   2.414
 8811SOL    HW127332   3.464   5.918   2.509
 8811SOL    HW227333   3.576   5.881   2.397
 8812SOL     OW27334   5.616   0.505   0.104
 8812SOL    HW127335   5.688   0.552   0.053
 8812SOL    HW227336   5.586   0.562   0.180
 8813SOL     OW27337   1.724   2.577   1.159
 8813SOL    HW127338   1.759   2.497   1.208
 8813SOL    HW227339   1.734   2.563   1.061
 8814SOL     OW27340   6.011   0.937   4.303
 8814SOL    HW127341   6.022   0.840   4.324
 8814SOL    HW227342   5.959   0.948   4.219
 8815SOL     OW27343   4.921   0.806   1.278
 8815SOL    HW127344   4.866   0.782   1.358
 8815SOL    HW227345   5.006   0.849   1.309
 8816SOL     OW27346   6.380   1.560   2.701
 8816SOL    HW127347   6.425   1.529   2.785
 8816SOL    HW227348   6.447   1.570   2.628
 8817SOL     OW27349   0.942   2.111   4.232
 8817SOL    HW127350   0.947   2.050   4.311
 8817SOL    HW227351   0.973   2.202   4.258
 8818SOL     OW27352   1.581   5.474   6.307
 8818SOL    HW127353   1.664   5.436   6.350
 8818SOL    HW227354   1.550   5.553   6.360
 8819SOL     OW27355   5.306   5.913   6.888
 8819SOL    HW127356   5.345   5.832   6.845
 8819SOL    HW227357   5.374   5.956   6.947
 8820SOL     OW27358   3.647   6.448   5.521
 8820SOL    HW127359   3.569   6.412   5.470
 8820SOL    HW227360   3.615   6.511   5.592
 8821SOL     OW27361   1.778   5.322   5.330
 8821SOL    HW127362   1.707   5.274   5.279
 8821SOL    HW227363   1.868   5.292   5.297
 8822SOL     OW27364   0.279   0.778   5.225
 8822SOL    HW127365   0.246   0.812   5.313
 8822SOL    HW227366   0.210   0.794   5.155
 8823SOL     OW27367   4.561   2.557   3.534
 8823SOL    HW127368   4.592   2.642   3.491
 8823SOL    HW227369   4.489   2.516   3.478
 8824SOL     OW27370   1.098   0.398   3.377
 8824SOL    HW127371   1.177   0.375   3.321
 8824SOL    HW227372   1.053   0.315   3.409
 8825SOL     OW27373   1.572   6.446   6.262
 8825SOL    HW127374   1.668   6.441   6.289
 8825SOL    HW227375   1.555   6.534   6.218
 8826SOL     OW27376   0.897   2.838   0.037
 8826SOL    HW127377   0.842   2.759   0.013
 8826SOL    HW227378   0.841   2.905   0.086
 8827SOL     OW27379   5.053   6.573   4.124
 8827SOL    HW127380   5.131   6.589   4.064
 8827SOL    HW227381   5.064   6.624   4.209
 8828SOL     OW27382   5.002   2.790   5.890
 8828SOL    HW127383   4.983   2.810   5.794
 8828SOL    HW227384   5.091   2.744   5.897
 8829SOL     OW27385   6.193   0.589   2.894
 8829SOL    HW127386   6.123   0.577   2.965
 8829SOL    HW227387   6.281   0.608   2.938
 8830SOL     OW27388   2.784   2.309   2.765
 8830SOL    HW127389   2.727   2.391   2.766
 8830SOL    HW227390   2.826   2.296   2.855
 8831SOL     OW27391   0.450   2.134   2.478
 8831SOL    HW127392   0.361   2.151   2.437
 8831SOL    HW227393   0.443   2.142   2.577
 8832SOL     OW27394   6.093   6.952   5.157
 8832SOL    HW127395   6.080   7.000   5.069
 8832SOL    HW227396   6.161   7.002   5.211
 8833SOL     OW27397   4.757   2.754   1.200
 8833SOL    HW127398   4.668   2.709   1.191
 8833SOL    HW227399   4.814   2.731   1.121
 8834SOL     OW27400   6.461   4.097   5.707
 8834SOL    HW127401   6.519   4.102   5.788
 8834SOL    HW227402   6.369   4.128   5.730
 8835SOL     OW27403   6.135   1.394   5.218
 8835SOL    HW127404   6.219   1.438   5.189
 8835SOL    HW227405   6.072   1.387   5.140
 8836SOL     OW27406   4.161   1.383   0.032
 8836SOL    HW127407   4.193   1.387   0.127
 8836SOL    HW227408   4.233   1.415   6.999
 8837SOL     OW27409   5.877   5.366   1.318
 8837SOL    HW127410   5.854   5.289   1.259
 8837SOL    HW227411   5.854   5.452   1.272
 8838SOL     OW27412   0.726   2.582   1.996
 8838SOL    HW127413   0.655   2.608   1.930
 8838SOL    HW227414   0.761   2.491   1.974
 8839SOL     OW27415   4.786   4.376   1.971
 8839SOL    HW127416   4.704   4.334   2.011
 8839SOL    HW227417   4.781   4.371   1.871
 8840SOL     OW27418   0.392   6.639   1.036
 8840SOL    HW127419   0.347   6.708   1.092
 8840SOL    HW227420   0.400   6.554   1.089
 8841SOL     OW27421   4.740   2.034   0.411
 8841SOL    HW127422   4.641   2.033   0.402
 8841SOL    HW227423   4.765   2.065   0.503
 8842SOL     OW27424   3.168   3.105   3.393
 8842SOL    HW127425   3.176   3.114   3.492
 8842SOL    HW227426   3.227   3.032   3.361
 8843SOL     OW27427   2.498   6.405   4.990
 8843SOL    HW127428   2.454   6.489   4.957
 8843SOL    HW227429   2.550   6.425   5.073
 8844SOL     OW27430   4.068   2.466   5.376
 8844SOL    HW127431   4.117   2.515   5.304
 8844SOL    HW227432   4.062   2.524   5.458
 8845SOL     OW27433   0.138   3.657   2.403
 8845SOL    HW127434   0.169   3.595   2.331
 8845SOL    HW227435   0.129   3.606   2.488
 8846SOL     OW27436   5.100   5.611   4.250
 8846SOL    HW127437   5.004   5.588   4.265
 8846SOL    HW227438   5.105   5.691   4.189
 8847SOL     OW27439   1.052   3.184   3.540
 8847SOL    HW127440   1.050   3.233   3.453
 8847SOL    HW227441   1.038   3.086   3.523
 8848SOL     OW27442   6.118   2.883   1.407
 8848SOL    HW127443   6.158   2.968   1.442
 8848SOL    HW227444   6.070   2.835   1.481
 8849SOL     OW27445   3.685   5.257   4.413
 8849SOL    HW127446   3.688   5.348   4.373
 8849SOL    HW227447   3.724   5.259   4.505
 8850SOL     OW27448   4.564   1.518   1.414
 8850SOL    HW127449   4.471   1.497   1.445
 8850SOL    HW227450   4.559   1.588   1.343
 8851SOL     OW27451   6.488   5.127   3.420
 8851SOL    HW127452   6.566   5.067   3.436
 8851SOL    HW227453   6.434   5.135   3.505
 8852SOL     OW27454   5.916   4.713   4.464
 8852SOL    HW127455   5.951   4.761   4.544
 8852SOL    HW227456   5.822   4.682   4.482
 8853SOL     OW27457   4.369   1.602   4.518
 8853SOL    HW127458   4.393   1.552   4.435
 8853SOL    HW227459   4.383   1.542   4.597
 8854SOL     OW27460   2.569   0.633   6.676
 8854SOL    HW127461   2.607   0.604   6.764
 8854SOL    HW227462   2.630   0.700   6.634
 8855SOL     OW27463   6.653   4.505   6.359
 8855SOL    HW127464   6.738   4.476   6.314
 8855SOL    HW227465   6.675   4.553   6.443
 8856SOL     OW27466   5.281   1.688   6.139
 8856SOL    HW127467   5.230   1.605   6.163
 8856SOL    HW227468   5.354   1.665   6.075
 8857SOL     OW27469   1.629   3.356   4.449
 8857SOL    HW127470   1.595   3.329   4.539
 8857SOL    HW227471   1.722   3.322   4.437
 8858SOL     OW27472   1.437   3.174   5.907
 8858SOL    HW127473   1.534   3.152   5.907
 8858SOL    HW227474   1.413   3.221   5.822
 8859SOL     OW27475   2.916   5.275   4.599
 8859SOL    HW127476   2.820   5.271   4.569
 8859SOL    HW227477   2.936   5.194   4.654
 8860SOL     OW27478   2.561   1.117   1.766
 8860SOL    HW127479   2.541   1.139   1.670
 8860SOL    HW227480   2.546   1.199   1.822
 8861SOL     OW27481   2.429   1.146   0.130
 8861SOL    HW127482   2.374   1.068   0.102
 8861SOL    HW227483   2.393   1.230   0.089
 8862SOL     OW27484   0.723   3.574   3.635
 8862SOL    HW127485   0.693   3.480   3.624
 8862SOL    HW227486   0.661   3.622   3.697
 8863SOL     OW27487   1.754   5.781   5.045
 8863SOL    HW127488   1.752   5.700   5.105
 8863SOL    HW227489   1.788   5.755   4.955
 8864SOL     OW27490   2.198   3.760   5.188
 8864SOL    HW127491   2.188   3.718   5.098
 8864SOL    HW227492   2.252   3.843   5.180
 8865SOL     OW27493   3.186   1.915   5.714
 8865SOL    HW127494   3.159   2.010   5.731
 8865SOL    HW227495   3.133   1.879   5.637
 8866SOL     OW27496   5.648   7.004   4.933
 8866SOL    HW127497   5.719   6.945   4.974
 8866SOL    HW227498   5.597   0.022   5.006
 8867SOL     OW27499   5.171   1.393   2.941
 8867SOL    HW127500   5.238   1.452   2.985
 8867SOL    HW227501   5.195   1.380   2.845
 8868SOL     OW27502   6.136   2.621   0.456
 8868SOL    HW127503   6.075   2.548   0.427
 8868SOL    HW227504   6.118   2.644   0.552
 8869SOL     OW27505   1.435   1.173   3.893
 8869SOL    HW127506   1.482   1.251   3.936
 8869SOL    HW227507   1.336   1.185   3.904
 8870SOL     OW27508   3.576   6.789   1.538
 8870SOL    HW127509   3.675   6.777   1.524
 8870SOL    HW227510   3.527   6.733   1.471
 8871SOL     OW27511   0.833   2.258   3.830
 8871SOL    HW127512   0.895   2.180   3.830
 8871SOL    HW227513   0.756   2.240   3.768
 8872SOL     OW27514   0.745   1.040   2.449
 8872SOL    HW127515   0.710   1.019   2.358
 8872SOL    HW227516   0.845   1.042   2.447
 8873SOL     OW27517   0.005   5.829   4.502
 8873SOL    HW127518   6.990   5.845   4.591
 8873SOL    HW227519   7.027   5.731   4.480
 8874SOL     OW27520   0.592   1.068   6.039
 8874SOL    HW127521   0.510   1.113   6.003
 8874SOL    HW227522   0.673   1.104   5.993
 8875SOL     OW27523   1.428   0.882   4.159
 8875SOL    HW127524   1.514   0.920   4.125
 8875SOL    HW227525   1.430   0.782   4.152
 8876SOL     OW27526   3.252   1.155   4.187
 8876SOL    HW127527   3.276   1.177   4.282
 8876SOL    HW227528   3.159   1.186   4.168
 8877SOL     OW27529   2.340   6.758   5.893
 8877SOL    HW127530   2.242   6.771   5.877
 8877SOL    HW227531   2.356   6.669   5.934
 8878SOL     OW27532   6.090   4.130   5.499
 8878SOL    HW127533   6.170   4.149   5.554
 8878SOL    HW227534   6.115   4.130   5.402
 8879SOL     OW27535   6.404   6.004   4.863
 8879SOL    HW127536   6.380   6.100   4.878
 8879SOL    HW227537   6.503   5.996   4.857
 8880SOL     OW27538   1.380   0.122   5.097
 8880SOL    HW127539   1.307   0.189   5.087
 8880SOL    HW227540   1.460   0.165   5.138
 8881SOL     OW27541   6.172   1.020   1.526
 8881SOL    HW127542   6.172   1.002   1.427
 8881SOL    HW227543   6.146   0.937   1.574
 8882SOL     OW27544   5.092   1.888   0.156
 8882SOL    HW127545   5.081   1.798   0.196
 8882SOL    HW227546   5.156   1.883   0.079
 8883SOL     OW27547   5.920   1.530   5.772
 8883SOL    HW127548   5.873   1.568   5.852
 8883SOL    HW227549   5.855   1.516   5.698
 8884SOL     OW27550   0.834   1.477   6.447
 8884SOL    HW127551   0.896   1.506   6.374
 8884SOL    HW227552   0.887   1.461   6.531
 8885SOL     OW27553   5.713   3.609   1.642
 8885SOL    HW127554   5.772   3.655   1.708
 8885SOL    HW227555   5.766   3.543   1.589
 8886SOL     OW27556   3.051   6.345   6.048
 8886SOL    HW127557   3.034   6.300   6.136
 8886SOL    HW227558   3.132   6.306   6.005
 8887SOL     OW27559   1.538   1.161   6.976
 8887SOL    HW127560   1.628   1.116   6.975
 8887SOL    HW227561   1.484   1.128   6.899
 8888SOL     OW27562   1.539   1.828   3.150
 8888SOL    HW127563   1.542   1.898   3.220
 8888SOL    HW227564   1.456   1.839   3.095
 8889SOL     OW27565   3.284   0.882   5.817
 8889SOL    HW127566   3.221   0.857   5.890
 8889SOL    HW227567   3.288   0.808   5.750
 8890SOL     OW27568   6.154   5.673   3.070
 8890SOL    HW127569   6.173   5.591   3.124
 8890SOL    HW227570   6.142   5.647   2.974
 8891SOL     OW27571   3.322   2.268   6.424
 8891SOL    HW127572   3.290   2.243   6.333
 8891SOL    HW227573   3.258   2.232   6.492
 8892SOL     OW27574   1.074   0.700   3.815
 8892SOL    HW127575   1.005   0.678   3.884
 8892SOL    HW227576   1.130   0.619   3.798
 8893SOL     OW27577   0.229   0.342   0.696
 8893SOL    HW127578   0.317   0.382   0.723
 8893SOL    HW227579   0.154   0.394   0.738
 8894SOL     OW27580   5.014   2.995   5.434
 8894SOL    HW127581   4.955   3.074   5.452
 8894SOL    HW227582   5.090   2.995   5.498
 8895SOL     OW27583   1.049   1.388   3.528
 8895SOL    HW127584   1.089   1.469   3.485
 8895SOL    HW227585   0.950   1.400   3.534
 8896SOL     OW27586   1.623   3.818   4.249
 8896SOL    HW127587   1.535   3.835   4.293
 8896SOL    HW227588   1.624   3.863   4.159
 8897SOL     OW27589   0.357   1.760   2.144
 8897SOL    HW127590   0.452   1.787   2.155
 8897SOL    HW227591   0.342   1.727   2.051
 8898SOL     OW27592   1.356   2.238   5.152
 8898SOL    HW127593   1.446   2.279   5.134
 8898SOL    HW227594   1.285   2.304   5.127
 8899SOL     OW27595   4.136   6.794   3.154
 8899SOL    HW127596   4.189   6.862   3.205
 8899SOL    HW227597   4.043   6.829   3.139
 8900SOL     OW27598   6.164   1.765   3.654
 8900SOL    HW127599   6.156   1.666   3.641
 8900SOL    HW227600   6.170   1.809   3.564
 8901SOL     OW27601   1.200   6.898   2.025
 8901SOL    HW127602   1.195   6.840   1.943
 8901SOL    HW227603   1.153   6.853   2.101
 8902SOL     OW27604   4.283   6.728   5.611
 8902SOL    HW127605   4.196   6.735   5.563
 8902SOL    HW227606   4.345   6.801   5.580
 8903SOL     OW27607   6.023   1.677   2.902
 8903SOL    HW127608   6.031   1.636   2.993
 8903SOL    HW227609   6.070   1.619   2.835
 8904SOL     OW27610   2.413   4.374   4.035
 8904SOL    HW127611   2.366   4.461   4.044
 8904SOL    HW227612   2.372   4.307   4.097
 8905SOL     OW27613   2.045   4.290   5.011
 8905SOL    HW127614   2.129   4.299   4.958
 8905SOL    HW227615   2.054   4.214   5.075
 8906SOL     OW27616   1.458   4.952   4.047
 8906SOL    HW127617   1.542   4.985   4.003
 8906SOL    HW227618   1.473   4.860   4.081
 8907SOL     OW27619   3.957   2.858   0.012
 8907SOL    HW127620   4.008   2.908   6.970
 8907SOL    HW227621   3.873   2.907   0.032
 8908SOL     OW27622   1.084   2.932   2.947
 8908SOL    HW127623   1.102   3.027   2.973
 8908SOL    HW227624   1.170   2.886   2.927
 8909SOL     OW27625   3.450   0.082   4.831
 8909SOL    HW127626   3.471   0.108   4.925
 8909SOL    HW227627   3.510   0.008   4.802
 8910SOL     OW27628   4.316   3.081   6.937
 8910SOL    HW127629   4.328   3.065   0.007
 8910SOL    HW227630   4.402   3.113   6.898
 8911SOL     OW27631   5.204   3.854   5.038
 8911SOL    HW127632   5.113   3.842   4.997
 8911SOL    HW227633   5.201   3.930   5.103
 8912SOL     OW27634   3.752   1.051   0.191
 8912SOL    HW127635   3.737   1.142   0.230
 8912SOL    HW227636   3.845   1.022   0.211
 8913SOL     OW27637   3.824   3.545   1.782
 8913SOL    HW127638   3.810   3.506   1.873
 8913SOL    HW227639   3.735   3.567   1.741
 8914SOL     OW27640   5.475   4.380   3.025
 8914SOL    HW127641   5.482   4.388   2.926
 8914SOL    HW227642   5.403   4.442   3.058
 8915SOL     OW27643   1.357   5.549   1.671
 8915SOL    HW127644   1.446   5.551   1.716
 8915SOL    HW227645   1.295   5.488   1.719
 8916SOL     OW27646   5.222   2.543   0.871
 8916SOL    HW127647   5.209   2.591   0.958
 8916SOL    HW227648   5.190   2.600   0.796
 8917SOL     OW27649   5.607   4.040   6.004
 8917SOL    HW127650   5.577   4.135   6.018
 8917SOL    HW227651   5.547   3.995   5.938
 8918SOL     OW27652   5.067   4.753   5.395
 8918SOL    HW127653   4.967   4.757   5.402
 8918SOL    HW227654   5.094   4.763   5.299
 8919SOL     OW27655   1.912   3.093   0.945
 8919SOL    HW127656   1.917   3.003   0.988
 8919SOL    HW227657   2.002   3.119   0.911
 8920SOL     OW27658   5.767   5.441   5.548
 8920SOL    HW127659   5.788   5.343   5.539
 8920SOL    HW227660   5.735   5.460   5.641
 8921SOL     OW27661   0.454   5.342   3.104
 8921SOL    HW127662   0.512   5.403   3.157
 8921SOL    HW227663   0.371   5.391   3.075
 8922SOL     OW27664   1.149   3.108   0.759
 8922SOL    HW127665   1.051   3.113   0.736
 8922SOL    HW227666   1.159   3.076   0.853
 8923SOL     OW27667   2.143   5.167   4.138
 8923SOL    HW127668   2.220   5.183   4.075
 8923SOL    HW227669   2.073   5.237   4.123
 8924SOL     OW27670   1.836   6.348   4.342
 8924SOL    HW127671   1.902   6.273   4.332
 8924SOL    HW227672   1.781   6.354   4.259
 8925SOL     OW27673   4.701   5.456   1.204
 8925SOL    HW127674   4.781   5.488   1.255
 8925SOL    HW227675   4.712   5.360   1.181
 8926SOL     OW27676   5.650   6.688   0.330
 8926SOL    HW127677   5.617   6.594   0.333
 8926SOL    HW227678   5.573   6.751   0.331
 8927SOL     OW27679   2.857   1.844   5.291
 8927SOL    HW127680   2.883   1.940   5.303
 8927SOL    HW227681   2.843   1.824   5.194
 8928SOL     OW27682   1.722   0.278   5.930
 8928SOL    HW127683   1.646   0.332   5.966
 8928SOL    HW227684   1.686   0.201   5.876
 8929SOL     OW27685   4.587   4.361   3.020
 8929SOL    HW127686   4.608   4.272   2.980
 8929SOL    HW227687   4.538   4.417   2.953
 8930SOL     OW27688   0.759   5.499   5.256
 8930SOL    HW127689   0.679   5.533   5.307
 8930SOL    HW227690   0.773   5.556   5.175
 8931SOL     OW27691   5.798   0.956   1.890
 8931SOL    HW127692   5.720   0.937   1.950
 8931SOL    HW227693   5.768   0.954   1.795
 8932SOL     OW27694   3.497   0.249   6.452
 8932SOL    HW127695   3.413   0.287   6.489
 8932SOL    HW227696   3.479   0.158   6.415
 8933SOL     OW27697   1.615   0.537   5.617
 8933SOL    HW127698   1.560   0.605   5.569
 8933SOL    HW227699   1.704   0.528   5.570
 8934SOL     OW27700   2.321   6.213   3.099
 8934SOL    HW127701   2.348   6.297   3.053
 8934SOL    HW227702   2.223   6.197   3.085
 8935SOL     OW27703   4.766   2.227   2.203
 8935SOL    HW127704   4.786   2.130   2.212
 8935SOL    HW227705   4.835   2.281   2.252
 8936SOL     OW27706   0.922   3.526   2.173
 8936SOL    HW127707   0.906   3.452   2.108
 8936SOL    HW227708   0.954   3.607   2.123
 8937SOL     OW27709   3.448   6.144   5.243
 8937SOL    HW127710   3.394   6.067   5.276
 8937SOL    HW227711   3.425   6.226   5.296
 8938SOL     OW27712   4.281   6.399   2.523
 8938SOL    HW127713   4.344   6.323   2.511
 8938SOL    HW227714   4.288   6.434   2.617
 8939SOL     OW27715   0.009   3.435   5.607
 8939SOL    HW127716   7.007   3.418   5.514
 8939SOL    HW227717   6.959   3.430   5.669
 8940SOL     OW27718   6.064   3.849   2.742
 8940SOL    HW127719   5.968   3.875   2.750
 8940SOL    HW227720   6.074   3.751   2.758
 8941SOL     OW27721   5.991   2.698   4.030
 8941SOL    HW127722   6.031   2.629   3.971
 8941SOL    HW227723   5.963   2.777   3.976
 8942SOL     OW27724   5.221   6.390   4.455
 8942SOL    HW127725   5.136   6.435   4.428
 8942SOL    HW227726   5.229   6.303   4.406
 8943SOL     OW27727   4.381   3.303   0.672
 8943SOL    HW127728   4.324   3.231   0.634
 8943SOL    HW227729   4.470   3.303   0.625
 8944SOL     OW27730   4.446   5.774   6.056
 8944SOL    HW127731   4.372   5.794   5.992
 8944SOL    HW227732   4.412   5.775   6.149
 8945SOL     OW27733   6.546   4.250   2.056
 8945SOL    HW127734   6.494   4.335   2.056
 8945SOL    HW227735   6.505   4.187   1.989
 8946SOL     OW27736   3.958   1.854   3.885
 8946SOL    HW127737   3.948   1.938   3.833
 8946SOL    HW227738   3.947   1.873   3.983
 8947SOL     OW27739   3.422   5.669   0.511
 8947SOL    HW127740   3.510   5.703   0.477
 8947SOL    HW227741   3.434   5.627   0.601
 8948SOL     OW27742   5.899   6.763   2.968
 8948SOL    HW127743   5.922   6.682   2.914
 8948SOL    HW227744   5.980   6.821   2.978
 8949SOL     OW27745   3.821   6.163   0.976
 8949SOL    HW127746   3.774   6.179   0.889
 8949SOL    HW227747   3.892   6.093   0.963
 8950SOL     OW27748   3.519   3.392   3.617
 8950SOL    HW127749   3.531   3.316   3.681
 8950SOL    HW227750   3.431   3.383   3.571
 8951SOL     OW27751   0.698   0.755   4.082
 8951SOL    HW127752   0.641   0.711   4.151
 8951SOL    HW227753   0.760   0.687   4.042
 8952SOL     OW27754   1.968   4.130   4.654
 8952SOL    HW127755   2.041   4.078   4.698
 8952SOL    HW227756   1.965   4.107   4.557
 8953SOL     OW27757   2.178   5.145   0.641
 8953SOL    HW127758   2.230   5.229   0.627
 8953SOL    HW227759   2.203   5.078   0.571
 8954SOL     OW27760   2.069   3.768   5.633
 8954SOL    HW127761   1.984   3.815   5.657
 8954SOL    HW227762   2.077   3.761   5.534
 8955SOL     OW27763   6.864   2.484   6.448
 8955SOL    HW127764   6.937   2.422   6.420
 8955SOL    HW227765   6.856   2.558   6.381
 8956SOL     OW27766   0.954   6.348   0.916
 8956SOL    HW127767   0.958   6.319   0.820
 8956SOL    HW227768   1.034   6.314   0.965
 8957SOL     OW27769   0.487   0.176   3.979
 8957SOL    HW127770   0.517   0.261   4.021
 8957SOL    HW227771   0.401   0.146   4.021
 8958SOL     OW27772   0.256   2.844   4.370
 8958SOL    HW127773   0.334   2.834   4.431
 8958SOL    HW227774   0.259   2.934   4.326
 8959SOL     OW27775   5.631   1.436   3.591
 8959SOL    HW127776   5.577   1.466   3.669
 8959SOL    HW227777   5.668   1.516   3.543
 8960SOL     OW27778   3.423   6.672   1.807
 8960SOL    HW127779   3.452   6.764   1.834
 8960SOL    HW227780   3.504   6.615   1.792
 8961SOL     OW27781   2.190   2.336   5.609
 8961SOL    HW127782   2.117   2.273   5.635
 8961SOL    HW227783   2.209   2.327   5.512
 8962SOL     OW27784   6.810   5.479   0.493
 8962SOL    HW127785   6.908   5.489   0.513
 8962SOL    HW227786   6.793   5.501   0.397
 8963SOL     OW27787   2.337   5.172   5.194
 8963SOL    HW127788   2.381   5.087   5.163
 8963SOL    HW227789   2.350   5.182   5.293
 8964SOL     OW27790   1.666   3.651   3.880
 8964SOL    HW127791   1.748   3.697   3.847
 8964SOL    HW227792   1.692   3.562   3.919
 8965SOL     OW27793   3.013   6.840   6.296
 8965SOL    HW127794   3.033   6.913   6.229
 8965SOL    HW227795   3.035   6.751   6.255
 8966SOL     OW27796   4.058   6.633   5.274
 8966SOL    HW127797   4.092   6.547   5.235
 8966SOL    HW227798   4.098   6.710   5.226
 8967SOL     OW27799   2.294   0.072   3.215
 8967SOL    HW127800   2.315   7.002   3.213
 8967SOL    HW227801   2.354   0.118   3.280
 8968SOL     OW27802   2.873   5.631   2.780
 8968SOL    HW127803   2.947   5.686   2.740
 8968SOL    HW227804   2.907   5.538   2.797
 8969SOL     OW27805   6.779   0.458   1.058
 8969SOL    HW127806   6.735   0.548   1.051
 8969SOL    HW227807   6.847   0.448   0.985
 8970SOL     OW27808   2.762   2.003   4.699
 8970SOL    HW127809   2.743   2.036   4.791
 8970SOL    HW227810   2.682   2.017   4.641
 8971SOL     OW27811   2.893   5.805   0.999
 8971SOL    HW127812   2.805   5.850   0.984
 8971SOL    HW227813   2.887   5.745   1.078
 8972SOL     OW27814   6.773   4.348   0.312
 8972SOL    HW127815   6.861   4.350   0.360
 8972SOL    HW227816   6.785   4.384   0.220
 8973SOL     OW27817   2.695   1.998   3.152
 8973SOL    HW127818   2.793   2.020   3.150
 8973SOL    HW227819   2.679   1.914   3.101
 8974SOL     OW27820   0.501   4.725   5.433
 8974SOL    HW127821   0.511   4.743   5.335
 8974SOL    HW227822   0.499   4.626   5.447
 8975SOL     OW27823   1.140   3.839   6.347
 8975SOL    HW127824   1.129   3.740   6.332
 8975SOL    HW227825   1.180   3.854   6.438
 8976SOL     OW27826   5.496   6.827   1.252
 8976SOL    HW127827   5.493   6.922   1.285
 8976SOL    HW227828   5.577   6.782   1.290
 8977SOL     OW27829   1.012   5.466   6.278
 8977SOL    HW127830   1.008   5.448   6.376
 8977SOL    HW227831   0.935   5.523   6.251
 8978SOL     OW27832   6.647   5.159   4.748
 8978SOL    HW127833   6.552   5.159   4.780
 8978SOL    HW227834   6.675   5.065   4.729
 8979SOL     OW27835   1.784   4.882   3.291
 8979SOL    HW127836   1.879   4.883   3.261
 8979SOL    HW227837   1.779   4.848   3.385
 8980SOL     OW27838   4.958   1.397   6.579
 8980SOL    HW127839   4.965   1.380   6.480
 8980SOL    HW227840   4.965   1.495   6.597
 8981SOL     OW27841   3.798   2.404   6.763
 8981SOL    HW127842   3.781   2.501   6.780
 8981SOL    HW227843   3.816   2.357   6.849
 8982SOL     OW27844   0.165   0.877   3.590
 8982SOL    HW127845   0.142   0.861   3.494
 8982SOL    HW227846   0.084   0.908   3.639
 8983SOL     OW27847   1.418   6.923   2.195
 8983SOL    HW127848   1.434   7.006   2.248
 8983SOL    HW227849   1.339   6.937   2.135
 8984SOL     OW27850   6.545   0.991   3.584
 8984SOL    HW127851   6.501   0.909   3.548
 8984SOL    HW227852   6.614   0.965   3.651
 8985SOL     OW27853   5.381   0.261   0.155
 8985SOL    HW127854   5.321   0.315   0.097
 8985SOL    HW227855   5.466   0.241   0.106
 8986SOL     OW27856   1.259   0.148   6.422
 8986SOL    HW127857   1.262   0.100   6.510
 8986SOL    HW227858   1.177   0.205   6.417
 8987SOL     OW27859   3.183   6.499   3.420
 8987SOL    HW127860   3.136   6.557   3.353
 8987SOL    HW227861   3.245   6.555   3.475
 8988SOL     OW27862   1.688   6.249   1.469
 8988SOL    HW127863   1.717   6.185   1.397
 8988SOL    HW227864   1.657   6.197   1.548
 8989SOL     OW27865   6.258   1.666   2.386
 8989SOL    HW127866   6.286   1.599   2.317
 8989SOL    HW227867   6.162   1.689   2.374
 8990SOL     OW27868   3.953   1.900   3.376
 8990SOL    HW127869   3.868   1.853   3.351
 8990SOL    HW227870   4.028   1.863   3.320
 8991SOL     OW27871   1.788   2.156   1.063
 8991SOL    HW127872   1.741   2.069   1.080
 8991SOL    HW227873   1.788   2.175   0.965
 8992SOL     OW27874   1.044   5.334   4.887
 8992SOL    HW127875   0.956   5.307   4.849
 8992SOL    HW227876   1.085   5.405   4.829
 8993SOL     OW27877   5.310   4.252   3.646
 8993SOL    HW127878   5.322   4.286   3.739
 8993SOL    HW227879   5.396   4.212   3.614
 8994SOL     OW27880   1.239   6.076   2.887
 8994SOL    HW127881   1.264   6.100   2.981
 8994SOL    HW227882   1.145   6.042   2.886
 8995SOL     OW27883   1.657   3.729   3.146
 8995SOL    HW127884   1.721   3.795   3.108
 8995SOL    HW227885   1.637   3.659   3.077
 8996SOL     OW27886   3.257   4.157   1.418
 8996SOL    HW127887   3.308   4.225   1.471
 8996SOL    HW227888   3.313   4.074   1.408
 8997SOL     OW27889   4.409   1.267   4.938
 8997SOL    HW127890   4.427   1.268   5.037
 8997SOL    HW227891   4.317   1.232   4.921
 8998SOL     OW27892   0.867   1.584   5.964
 8998SOL    HW127893   0.775   1.553   5.990
 8998SOL    HW227894   0.921   1.602   6.047
 8999SOL     OW27895   0.018   2.803   5.156
 8999SOL    HW127896   0.017   2.752   5.070
 8999SOL    HW227897   0.044   2.898   5.138
 9000SOL     OW27898   4.023   5.191   1.458
 9000SOL    HW127899   3.958   5.155   1.525
 9000SOL    HW227900   4.099   5.127   1.447
 9001SOL     OW27901   1.184   3.451   3.913
 9001SOL    HW127902   1.088   3.475   3.926
 9001SOL    HW227903   1.190   3.365   3.861
 9002SOL     OW27904   4.947   3.116   6.640
 9002SOL    HW127905   4.976   3.020   6.649
 9002SOL    HW227906   4.877   3.136   6.709
 9003SOL     OW27907   0.384   3.518   0.459
 9003SOL    HW127908   0.321   3.576   0.513
 9003SOL    HW227909   0.457   3.485   0.518
 9004SOL     OW27910   5.725   5.634   1.158
 9004SOL    HW127911   5.690   5.704   1.096
 9004SOL    HW227912   5.694   5.544   1.127
 9005SOL     OW27913   4.753   4.259   3.904
 9005SOL    HW127914   4.764   4.168   3.944
 9005SOL    HW227915   4.837   4.285   3.857
 9006SOL     OW27916   3.195   6.343   2.684
 9006SOL    HW127917   3.148   6.431   2.688
 9006SOL    HW227918   3.284   6.356   2.640
 9007SOL     OW27919   2.027   0.297   5.549
 9007SOL    HW127920   2.125   0.309   5.535
 9007SOL    HW227921   2.009   0.283   5.647
 9008SOL     OW27922   6.844   5.139   1.678
 9008SOL    HW127923   6.882   5.215   1.731
 9008SOL    HW227924   6.869   5.053   1.722
 9009SOL     OW27925   4.189   6.559   6.739
 9009SOL    HW127926   4.177   6.644   6.686
 9009SOL    HW227927   4.146   6.570   6.829
 9010SOL     OW27928   6.688   6.379   4.566
 9010SOL    HW127929   6.775   6.419   4.540
 9010SOL    HW227930   6.677   6.290   4.522
 9011SOL     OW27931   4.454   2.486   2.418
 9011SOL    HW127932   4.430   2.406   2.363
 9011SOL    HW227933   4.480   2.561   2.358
 9012SOL     OW27934   4.022   4.797   2.045
 9012SOL    HW127935   4.070   4.748   2.118
 9012SOL    HW227936   4.077   4.796   1.962
 9013SOL     OW27937   3.252   6.174   0.877
 9013SOL    HW127938   3.262   6.100   0.944
 9013SOL    HW227939   3.312   6.250   0.902
 9014SOL     OW27940   2.078   1.651   2.423
 9014SOL    HW127941   2.128   1.611   2.500
 9014SOL    HW227942   2.048   1.578   2.361
 9015SOL     OW27943   6.510   2.326   4.761
 9015SOL    HW127944   6.435   2.323   4.827
 9015SOL    HW227945   6.597   2.339   4.809
 9016SOL     OW27946   0.141   4.950   0.301
 9016SOL    HW127947   0.072   4.899   0.352
 9016SOL    HW227948   0.156   5.039   0.345
 9017SOL     OW27949   6.076   2.936   1.946
 9017SOL    HW127950   5.977   2.927   1.935
 9017SOL    HW227951   6.120   2.847   1.933
 9018SOL     OW27952   5.669   2.400   6.588
 9018SOL    HW127953   5.645   2.374   6.682
 9018SOL    HW227954   5.585   2.410   6.534
 9019SOL     OW27955   2.209   5.942   0.257
 9019SOL    HW127956   2.212   6.030   0.304
 9019SOL    HW227957   2.161   5.876   0.315
 9020SOL     OW27958   0.795   5.210   4.750
 9020SOL    HW127959   0.711   5.197   4.802
 9020SOL    HW227960   0.794   5.151   4.669
 9021SOL     OW27961   6.622   5.521   4.946
 9021SOL    HW127962   6.664   5.599   4.992
 9021SOL    HW227963   6.682   5.490   4.872
 9022SOL     OW27964   1.008   6.990   5.626
 9022SOL    HW127965   1.087   0.022   5.640
 9022SOL    HW227966   1.017   6.944   5.537
 9023SOL     OW27967   3.598   3.766   4.308
 9023SOL    HW127968   3.505   3.794   4.330
 9023SOL    HW227969   3.646   3.742   4.392
 9024SOL     OW27970   1.733   0.268   0.568
 9024SOL    HW127971   1.713   0.209   0.491
 9024SOL    HW227972   1.726   0.216   0.653
 9025SOL     OW27973   0.243   2.620   0.489
 9025SOL    HW127974   0.219   2.691   0.556
 9025SOL    HW227975   0.325   2.571   0.520
 9026SOL     OW27976   2.746   4.462   6.277
 9026SOL    HW127977   2.777   4.533   6.214
 9026SOL    HW227978   2.659   4.491   6.319
 9027SOL     OW27979   1.325   3.548   1.973
 9027SOL    HW127980   1.388   3.540   1.896
 9027SOL    HW227981   1.294   3.642   1.981
 9028SOL     OW27982   1.941   3.676   5.358
 9028SOL    HW127983   2.033   3.678   5.320
 9028SOL    HW227984   1.881   3.737   5.306
 9029SOL     OW27985   4.768   5.282   2.797
 9029SOL    HW127986   4.683   5.232   2.786
 9029SOL    HW227987   4.823   5.240   2.870
 9030SOL     OW27988   5.071   2.532   2.259
 9030SOL    HW127989   5.067   2.618   2.309
 9030SOL    HW227990   5.053   2.549   2.162
 9031SOL     OW27991   2.488   0.669   2.414
 9031SOL    HW127992   2.532   0.696   2.499
 9031SOL    HW227993   2.438   0.747   2.376
 9032SOL     OW27994   0.567   4.030   2.982
 9032SOL    HW127995   0.554   3.947   2.928
 9032SOL    HW227996   0.642   4.017   3.047
 9033SOL     OW27997   0.483   2.787   2.422
 9033SOL    HW127998   0.529   2.725   2.486
 9033SOL    HW227999   0.384   2.774   2.429
 9034SOL     OW28000   1.321   6.573   1.013
 9034SOL    HW128001   1.319   6.479   0.979
 9034SOL    HW228002   1.267   6.631   0.952
 9035SOL     OW28003   6.017   1.472   4.316
 9035SOL    HW128004   6.093   1.517   4.269
 9035SOL    HW228005   5.964   1.419   4.250
 9036SOL     OW28006   6.763   2.002   4.138
 9036SOL    HW128007   6.695   1.953   4.193
 9036SOL    HW228008   6.855   1.982   4.172
 9037SOL     OW28009   2.758   4.194   6.346
 9037SOL    HW128010   2.784   4.278   6.300
 9037SOL    HW228011   2.687   4.213   6.413
 9038SOL     OW28012   3.851   5.902   5.568
 9038SOL    HW128013   3.889   5.912   5.475
 9038SOL    HW228014   3.761   5.860   5.562
 9039SOL     OW28015   2.767   4.928   0.479
 9039SOL    HW128016   2.862   4.917   0.510
 9039SOL    HW228017   2.735   4.842   0.439
 9040SOL     OW28018   3.461   1.454   2.686
 9040SOL    HW128019   3.398   1.504   2.627
 9040SOL    HW228020   3.443   1.356   2.679
 9041SOL     OW28021   2.459   2.727   5.226
 9041SOL    HW128022   2.523   2.700   5.154
 9041SOL    HW228023   2.442   2.825   5.221
 9042SOL     OW28024   1.509   5.244   2.472
 9042SOL    HW128025   1.579   5.207   2.411
 9042SOL    HW228026   1.462   5.169   2.518
 9043SOL     OW28027   0.530   1.523   6.710
 9043SOL    HW128028   0.523   1.426   6.734
 9043SOL    HW228029   0.600   1.565   6.768
 9044SOL     OW28030   0.563   4.415   1.329
 9044SOL    HW128031   0.552   4.514   1.337
 9044SOL    HW228032   0.504   4.380   1.256
 9045SOL     OW28033   1.734   4.697   5.268
 9045SOL    HW128034   1.744   4.781   5.214
 9045SOL    HW228035   1.737   4.618   5.208
 9046SOL     OW28036   4.276   4.686   6.172
 9046SOL    HW128037   4.332   4.720   6.095
 9046SOL    HW228038   4.180   4.707   6.155
 9047SOL     OW28039   0.747   5.106   3.992
 9047SOL    HW128040   0.670   5.157   3.953
 9047SOL    HW228041   0.714   5.027   4.042
 9048SOL     OW28042   1.202   1.911   5.800
 9048SOL    HW128043   1.222   1.877   5.891
 9048SOL    HW228044   1.287   1.935   5.753
 9049SOL     OW28045   4.327   5.823   5.568
 9049SOL    HW128046   4.423   5.835   5.594
 9049SOL    HW228047   4.322   5.777   5.479
 9050SOL     OW28048   0.647   3.496   0.186
 9050SOL    HW128049   0.742   3.512   0.157
 9050SOL    HW228050   0.595   3.581   0.176
 9051SOL     OW28051   6.919   5.840   6.681
 9051SOL    HW128052   6.820   5.829   6.676
 9051SOL    HW228053   6.956   5.848   6.588
 9052SOL     OW28054   2.158   4.412   4.316
 9052SOL    HW128055   2.058   4.426   4.317
 9052SOL    HW228056   2.202   4.496   4.285
 9053SOL     OW28057   0.728   0.514   2.715
 9053SOL    HW128058   0.725   0.530   2.813
 9053SOL    HW228059   0.757   0.420   2.697
 9054SOL     OW28060   1.343   0.113   1.858
 9054SOL    HW128061   1.356   0.024   1.813
 9054SOL    HW228062   1.259   0.110   1.913
 9055SOL     OW28063   1.444   3.095   5.432
 9055SOL    HW128064   1.478   3.005   5.458
 9055SOL    HW228065   1.488   3.123   5.347
 9056SOL     OW28066   5.322   2.264   1.960
 9056SOL    HW128067   5.259   2.334   1.927
 9056SOL    HW228068   5.307   2.249   2.058
 9057SOL     OW28069   3.609   0.266   5.953
 9057SOL    HW128070   3.516   0.246   5.984
 9057SOL    HW228071   3.608   0.348   5.896
 9058SOL     OW28072   2.240   2.920   3.650
 9058SOL    HW128073   2.325   2.871   3.674
 9058SOL    HW228074   2.195   2.873   3.574
 9059SOL     OW28075   0.754   6.735   2.304
 9059SOL    HW128076   0.741   6.735   2.403
 9059SOL    HW228077   0.705   6.813   2.264
 9060SOL     OW28078   0.484   4.976   0.459
 9060SOL    HW128079   0.477   4.921   0.375
 9060SOL    HW228080   0.580   4.998   0.477
 9061SOL     OW28081   3.952   4.786   2.583
 9061SOL    HW128082   4.033   4.751   2.535
 9061SOL    HW228083   3.981   4.849   2.655
 9062SOL     OW28084   6.748   6.131   3.054
 9062SOL    HW128085   6.813   6.205   3.041
 9062SOL    HW228086   6.771   6.055   2.993
 9063SOL     OW28087   5.827   6.306   1.136
 9063SOL    HW128088   5.758   6.335   1.069
 9063SOL    HW228089   5.913   6.286   1.089
 9064SOL     OW28090   1.441   6.335   3.758
 9064SOL    HW128091   1.439   6.235   3.756
 9064SOL    HW228092   1.369   6.371   3.700
 9065SOL     OW28093   3.303   4.068   6.913
 9065SOL    HW128094   3.256   3.987   6.947
 9065SOL    HW228095   3.333   4.053   6.819
 9066SOL     OW28096   5.338   5.437   3.982
 9066SOL    HW128097   5.312   5.531   3.960
 9066SOL    HW228098   5.429   5.418   3.945
 9067SOL     OW28099   2.287   0.545   3.662
 9067SOL    HW128100   2.272   0.463   3.607
 9067SOL    HW228101   2.232   0.621   3.626
 9068SOL     OW28102   5.619   0.744   4.688
 9068SOL    HW128103   5.541   0.719   4.745
 9068SOL    HW228104   5.704   0.728   4.738
 9069SOL     OW28105   4.434   2.593   1.048
 9069SOL    HW128106   4.338   2.579   1.072
 9069SOL    HW228107   4.492   2.551   1.117
 9070SOL     OW28108   0.644   0.499   6.441
 9070SOL    HW128109   0.588   0.432   6.391
 9070SOL    HW228110   0.648   0.584   6.388
 9071SOL     OW28111   5.740   2.356   0.252
 9071SOL    HW128112   5.807   2.424   0.282
 9071SOL    HW228113   5.648   2.396   0.258
 9072SOL     OW28114   6.127   0.663   1.644
 9072SOL    HW128115   6.216   0.621   1.628
 9072SOL    HW228116   6.098   0.714   1.563
 9073SOL     OW28117   4.828   3.164   6.125
 9073SOL    HW128118   4.748   3.163   6.066
 9073SOL    HW228119   4.855   3.070   6.147
 9074SOL     OW28120   2.219   0.435   3.279
 9074SOL    HW128121   2.128   0.402   3.258
 9074SOL    HW228122   2.277   0.429   3.198
 9075SOL     OW28123   5.191   5.797   1.296
 9075SOL    HW128124   5.249   5.730   1.249
 9075SOL    HW228125   5.231   5.819   1.385
 9076SOL     OW28126   1.048   6.833   2.251
 9076SOL    HW128127   1.017   6.915   2.300
 9076SOL    HW228128   0.968   6.780   2.223
 9077SOL     OW28129   6.134   0.210   6.916
 9077SOL    HW128130   6.175   0.228   7.005
 9077SOL    HW228131   6.174   0.273   6.848
 9078SOL     OW28132   5.286   6.352   6.857
 9078SOL    HW128133   5.192   6.326   6.880
 9078SOL    HW228134   5.305   6.328   6.762
 9079SOL     OW28135   2.983   1.286   6.433
 9079SOL    HW128136   3.006   1.202   6.384
 9079SOL    HW228137   2.911   1.334   6.383
 9080SOL     OW28138   6.690   4.796   1.070
 9080SOL    HW128139   6.702   4.711   1.121
 9080SOL    HW228140   6.756   4.800   0.995
 9081SOL     OW28141   5.170   1.950   6.189
 9081SOL    HW128142   5.190   1.853   6.198
 9081SOL    HW228143   5.184   1.979   6.094
 9082SOL     OW28144   2.857   4.527   6.647
 9082SOL    HW128145   2.795   4.550   6.572
 9082SOL    HW228146   2.863   4.605   6.710
 9083SOL     OW28147   3.334   0.332   0.983
 9083SOL    HW128148   3.380   0.251   1.019
 9083SOL    HW228149   3.254   0.353   1.040
 9084SOL     OW28150   0.342   4.322   4.224
 9084SOL    HW128151   0.427   4.328   4.276
 9084SOL    HW228152   0.314   4.226   4.215
 9085SOL     OW28153   3.415   4.942   2.282
 9085SOL    HW128154   3.406   4.920   2.185
 9085SOL    HW228155   3.325   4.940   2.326
 9086SOL     OW28156   0.477   1.586   0.361
 9086SOL    HW128157   0.400   1.530   0.394
 9086SOL    HW228158   0.441   1.664   0.309
 9087SOL     OW28159   4.748   1.670   0.260
 9087SOL    HW128160   4.688   1.590   0.260
 9087SOL    HW228161   4.731   1.725   0.178
 9088SOL     OW28162   5.901   6.386   0.578
 9088SOL    HW128163   5.983   6.333   0.557
 9088SOL    HW228164   5.868   6.361   0.669
 9089SOL     OW28165   4.642   5.162   3.112
 9089SOL    HW128166   4.736   5.131   3.099
 9089SOL    HW228167   4.641   5.252   3.154
 9090SOL     OW28168   6.568   4.795   4.720
 9090SOL    HW128169   6.534   4.797   4.814
 9090SOL    HW228170   6.635   4.721   4.711
 9091SOL     OW28171   1.767   1.684   2.190
 9091SOL    HW128172   1.856   1.726   2.206
 9091SOL    HW228173   1.752   1.673   2.091
 9092SOL     OW28174   3.581   1.811   5.111
 9092SOL    HW128175   3.619   1.901   5.134
 9092SOL    HW228176   3.481   1.817   5.108
 9093SOL     OW28177   1.607   4.057   0.835
 9093SOL    HW128178   1.507   4.046   0.833
 9093SOL    HW228179   1.641   4.029   0.925
 9094SOL     OW28180   0.808   2.515   6.729
 9094SOL    HW128181   0.808   2.425   6.771
 9094SOL    HW228182   0.839   2.584   6.795
 9095SOL     OW28183   2.796   2.331   0.946
 9095SOL    HW128184   2.801   2.288   1.036
 9095SOL    HW228185   2.834   2.270   0.877
 9096SOL     OW28186   0.046   4.183   3.356
 9096SOL    HW128187   0.018   4.151   3.266
 9096SOL    HW228188   0.104   4.114   3.400
 9097SOL     OW28189   6.826   5.857   5.768
 9097SOL    HW128190   6.851   5.769   5.728
 9097SOL    HW228191   6.879   5.871   5.852
 9098SOL     OW28192   3.377   3.378   5.627
 9098SOL    HW128193   3.396   3.422   5.715
 9098SOL    HW228194   3.347   3.284   5.642
 9099SOL     OW28195   2.276   2.662   6.104
 9099SOL    HW128196   2.238   2.610   6.181
 9099SOL    HW228197   2.353   2.611   6.065
 9100SOL     OW28198   1.795   1.612   0.726
 9100SOL    HW128199   1.786   1.556   0.644
 9100SOL    HW228200   1.785   1.709   0.702
 9101SOL     OW28201   2.445   1.857   0.526
 9101SOL    HW128202   2.542   1.862   0.503
 9101SOL    HW228203   2.425   1.769   0.569
 9102SOL     OW28204   4.368   6.142   2.620
 9102SOL    HW128205   4.465   6.138   2.596
 9102SOL    HW228206   4.356   6.120   2.717
 9103SOL     OW28207   1.459   3.838   6.407
 9103SOL    HW128208   1.536   3.901   6.392
 9103SOL    HW228209   1.373   3.884   6.384
 9104SOL     OW28210   4.809   6.784   3.175
 9104SOL    HW128211   4.744   6.847   3.216
 9104SOL    HW228212   4.844   6.823   3.090
 9105SOL     OW28213   3.260   2.216   6.152
 9105SOL    HW128214   3.213   2.132   6.125
 9105SOL    HW228215   3.351   2.218   6.111
 9106SOL     OW28216   6.846   5.438   1.334
 9106SOL    HW128217   6.747   5.439   1.344
 9106SOL    HW228218   6.887   5.401   1.418
 9107SOL     OW28219   4.686   6.823   6.819
 9107SOL    HW128220   4.611   6.882   6.847
 9107SOL    HW228221   4.649   6.741   6.775
 9108SOL     OW28222   3.682   5.877   0.678
 9108SOL    HW128223   3.595   5.885   0.726
 9108SOL    HW228224   3.667   5.892   0.580
 9109SOL     OW28225   3.578   1.526   4.335
 9109SOL    HW128226   3.622   1.438   4.353
 9109SOL    HW228227   3.486   1.510   4.300
 9110SOL     OW28228   0.523   3.974   3.382
 9110SOL    HW128229   0.561   3.947   3.470
 9110SOL    HW228230   0.504   3.892   3.327
 9111SOL     OW28231   3.559   4.491   1.635
 9111SOL    HW128232   3.553   4.556   1.711
 9111SOL    HW228233   3.565   4.541   1.549
 9112SOL     OW28234   1.013   6.431   2.475
 9112SOL    HW128235   1.019   6.343   2.428
 9112SOL    HW228236   1.105   6.462   2.500
 9113SOL     OW28237   2.054   6.930   1.215
 9113SOL    HW128238   1.956   6.930   1.195
 9113SOL    HW228239   2.092   6.839   1.199
 9114SOL     OW28240   3.206   3.820   2.072
 9114SOL    HW128241   3.280   3.826   2.140
 9114SOL    HW228242   3.178   3.912   2.046
 9115SOL     OW28243   1.589   4.709   4.046
 9115SOL    HW128244   1.590   4.721   3.947
 9115SOL    HW228245   1.556   4.617   4.067
 9116SOL     OW28246   3.558   2.794   0.031
 9116SOL    HW128247   3.519   2.705   0.057
 9116SOL    HW228248   3.582   2.793   6.962
 9117SOL     OW28249   1.369   2.658   0.499
 9117SOL    HW128250   1.314   2.597   0.556
 9117SOL    HW228251   1.331   2.660   0.406
 9118SOL     OW28252   0.694   6.693   1.560
 9118SOL    HW128253   0.791   6.672   1.574
 9118SOL    HW228254   0.638   6.633   1.616
 9119SOL     OW28255   6.111   0.205   0.516
 9119SOL    HW128256   6.083   0.122   0.562
 9119SOL    HW228257   6.183   0.250   0.569
 9120SOL     OW28258   6.148   6.868   6.350
 9120SOL    HW128259   6.073   6.805   6.332
 9120SOL    HW228260   6.181   6.853   6.444
 9121SOL     OW28261   1.152   0.610   6.088
 9121SOL    HW128262   1.157   0.688   6.025
 9121SOL    HW228263   1.090   0.632   6.163
 9122SOL     OW28264   6.757   3.798   1.114
 9122SOL    HW128265   6.693   3.782   1.189
 9122SOL    HW228266   6.767   3.715   1.059
 9123SOL     OW28267   1.455   0.105   5.501
 9123SOL    HW128268   1.442   0.056   5.415
 9123SOL    HW228269   1.551   0.127   5.512
 9124SOL     OW28270   0.310   4.165   5.133
 9124SOL    HW128271   0.280   4.169   5.228
 9124SOL    HW228272   0.365   4.084   5.118
 9125SOL     OW28273   4.777   6.028   1.754
 9125SOL    HW128274   4.824   6.107   1.715
 9125SOL    HW228275   4.821   5.944   1.722
 9126SOL     OW28276   5.244   0.815   3.480
 9126SOL    HW128277   5.321   0.758   3.511
 9126SOL    HW228278   5.217   0.876   3.554
 9127SOL     OW28279   5.793   4.906   5.588
 9127SOL    HW128280   5.796   5.003   5.566
 9127SOL    HW228281   5.755   4.894   5.680
 9128SOL     OW28282   4.834   2.904   4.839
 9128SOL    HW128283   4.902   2.834   4.858
 9128SOL    HW228284   4.811   2.952   4.924
 9129SOL     OW28285   3.478   0.995   0.891
 9129SOL    HW128286   3.427   0.920   0.849
 9129SOL    HW228287   3.555   1.020   0.833
 9130SOL     OW28288   5.969   5.431   1.605
 9130SOL    HW128289   5.929   5.439   1.513
 9130SOL    HW228290   5.932   5.503   1.664
 9131SOL     OW28291   0.691   4.746   3.875
 9131SOL    HW128292   0.632   4.802   3.933
 9131SOL    HW228293   0.778   4.729   3.921
 9132SOL     OW28294   1.214   2.686   4.208
 9132SOL    HW128295   1.199   2.653   4.115
 9132SOL    HW228296   1.130   2.673   4.261
 9133SOL     OW28297   2.055   5.063   0.871
 9133SOL    HW128298   2.072   5.091   0.776
 9133SOL    HW228299   1.972   5.107   0.905
 9134SOL     OW28300   3.299   5.151   6.234
 9134SOL    HW128301   3.284   5.185   6.327
 9134SOL    HW228302   3.212   5.119   6.196
 9135SOL     OW28303   1.099   0.177   2.664
 9135SOL    HW128304   1.142   0.264   2.640
 9135SOL    HW228305   1.003   0.193   2.688
 9136SOL     OW28306   3.661   5.327   6.019
 9136SOL    HW128307   3.722   5.381   5.960
 9136SOL    HW228308   3.689   5.338   6.114
 9137SOL     OW28309   3.106   0.162   2.667
 9137SOL    HW128310   3.197   0.126   2.645
 9137SOL    HW228311   3.113   0.259   2.688
 9138SOL     OW28312   3.833   4.564   1.222
 9138SOL    HW128313   3.856   4.478   1.268
 9138SOL    HW228314   3.850   4.555   1.124
 9139SOL     OW28315   4.546   0.684   5.286
 9139SOL    HW128316   4.581   0.756   5.345
 9139SOL    HW228317   4.503   0.612   5.341
 9140SOL     OW28318   6.484   2.166   4.231
 9140SOL    HW128319   6.406   2.206   4.183
 9140SOL    HW228320   6.491   2.206   4.322
 9141SOL     OW28321   5.365   1.435   5.120
 9141SOL    HW128322   5.425   1.370   5.074
 9141SOL    HW228323   5.365   1.416   5.218
 9142SOL     OW28324   1.758   2.731   6.605
 9142SOL    HW128325   1.784   2.790   6.529
 9142SOL    HW228326   1.665   2.754   6.634
 9143SOL     OW28327   6.714   3.989   0.907
 9143SOL    HW128328   6.713   3.926   0.984
 9143SOL    HW228329   6.806   3.990   0.865
 9144SOL     OW28330   1.272   5.825   4.279
 9144SOL    HW128331   1.173   5.824   4.266
 9144SOL    HW228332   1.318   5.822   4.191
 9145SOL     OW28333   1.509   3.026   6.962
 9145SOL    HW128334   1.585   3.048   7.024
 9145SOL    HW228335   1.542   3.026   6.868
 9146SOL     OW28336   0.637   1.444   2.010
 9146SOL    HW128337   0.719   1.397   1.979
 9146SOL    HW228338   0.595   1.492   1.933
 9147SOL     OW28339   4.150   5.402   6.418
 9147SOL    HW128340   4.134   5.499   6.433
 9147SOL    HW228341   4.063   5.355   6.402
 9148SOL     OW28342   3.733   5.074   2.867
 9148SOL    HW128343   3.730   4.974   2.858
 9148SOL    HW228344   3.760   5.098   2.960
 9149SOL     OW28345   6.389   3.583   4.746
 9149SOL    HW128346   6.336   3.664   4.722
 9149SOL    HW228347   6.439   3.600   4.831
 9150SOL     OW28348   3.557   1.155   3.094
 9150SOL    HW128349   3.648   1.125   3.065
 9150SOL    HW228350   3.488   1.093   3.055
 9151SOL     OW28351   6.242   3.691   2.001
 9151SOL    HW128352   6.305   3.753   2.050
 9151SOL    HW228353   6.172   3.659   2.064
 9152SOL     OW28354   1.899   4.490   2.599
 9152SOL    HW128355   1.839   4.560   2.562
 9152SOL    HW228356   1.993   4.505   2.567
 9153SOL     OW28357   2.280   2.498   0.663
 9153SOL    HW128358   2.288   2.423   0.597
 9153SOL    HW228359   2.314   2.582   0.622
 9154SOL     OW28360   0.891   4.879   0.792
 9154SOL    HW128361   0.926   4.798   0.745
 9154SOL    HW228362   0.963   4.919   0.848
 9155SOL     OW28363   1.862   5.001   6.866
 9155SOL    HW128364   1.921   4.924   6.841
 9155SOL    HW228365   1.896   5.043   6.950
 9156SOL     OW28366   4.818   2.715   1.734
 9156SOL    HW128367   4.780   2.657   1.807
 9156SOL    HW228368   4.853   2.800   1.774
 9157SOL     OW28369   5.363   3.840   5.576
 9157SOL    HW128370   5.267   3.823   5.554
 9157SOL    HW228371   5.375   3.935   5.602
 9158SOL     OW28372   0.743   4.403   3.657
 9158SOL    HW128373   0.778   4.365   3.572
 9158SOL    HW228374   0.818   4.444   3.710
 9159SOL     OW28375   0.176   6.038   1.787
 9159SOL    HW128376   0.210   5.961   1.840
 9159SOL    HW228377   0.096   6.078   1.832
 9160SOL     OW28378   1.062   6.229   0.167
 9160SOL    HW128379   1.109   6.312   0.137
 9160SOL    HW228380   0.963   6.245   0.166
 9161SOL     OW28381   5.019   2.725   1.996
 9161SOL    HW128382   5.016   2.639   1.945
 9161SOL    HW228383   4.970   2.796   1.945
 9162SOL     OW28384   5.886   2.985   3.488
 9162SOL    HW128385   5.852   2.899   3.450
 9162SOL    HW228386   5.832   3.010   3.568
 9163SOL     OW28387   4.000   0.886   5.062
 9163SOL    HW128388   3.932   0.853   5.127
 9163SOL    HW228389   4.080   0.919   5.112
 9164SOL     OW28390   2.580   0.492   1.206
 9164SOL    HW128391   2.528   0.409   1.225
 9164SOL    HW228392   2.646   0.474   1.133
 9165SOL     OW28393   5.689   5.808   1.390
 9165SOL    HW128394   5.686   5.737   1.321
 9165SOL    HW228395   5.671   5.897   1.348
 9166SOL     OW28396   3.638   4.910   1.335
 9166SOL    HW128397   3.728   4.881   1.302
 9166SOL    HW228398   3.599   4.977   1.271
 9167SOL     OW28399   1.068   3.723   4.409
 9167SOL    HW128400   1.054   3.626   4.428
 9167SOL    HW228401   1.025   3.778   4.480
 9168SOL     OW28402   4.189   1.037   0.007
 9168SOL    HW128403   4.187   1.109   6.966
 9168SOL    HW228404   4.107   1.044   0.064
 9169SOL     OW28405   0.923   0.309   3.904
 9169SOL    HW128406   0.952   0.302   3.808
 9169SOL    HW228407   0.897   0.219   3.938
 9170SOL     OW28408   6.450   5.158   0.705
 9170SOL    HW128409   6.415   5.112   0.787
 9170SOL    HW228410   6.508   5.235   0.733
 9171SOL     OW28411   4.216   5.790   4.441
 9171SOL    HW128412   4.311   5.820   4.428
 9171SOL    HW228413   4.213   5.690   4.439
 9172SOL     OW28414   1.983   2.176   3.944
 9172SOL    HW128415   1.941   2.236   3.874
 9172SOL    HW228416   2.027   2.233   4.013
 9173SOL     OW28417   6.436   5.270   5.101
 9173SOL    HW128418   6.459   5.305   5.010
 9173SOL    HW228419   6.494   5.314   5.170
 9174SOL     OW28420   0.257   5.442   6.318
 9174SOL    HW128421   0.198   5.523   6.312
 9174SOL    HW228422   0.201   5.363   6.344
 9175SOL     OW28423   1.824   6.519   6.334
 9175SOL    HW128424   1.910   6.470   6.324
 9175SOL    HW228425   1.833   6.611   6.294
 9176SOL     OW28426   1.291   2.703   5.788
 9176SOL    HW128427   1.195   2.706   5.762
 9176SOL    HW228428   1.301   2.662   5.878
 9177SOL     OW28429   1.751   4.424   2.866
 9177SOL    HW128430   1.729   4.513   2.908
 9177SOL    HW228431   1.814   4.438   2.790
 9178SOL     OW28432   1.517   3.755   0.004
 9178SOL    HW128433   1.434   3.698   7.027
 9178SOL    HW228434   1.590   3.703   0.049
 9179SOL     OW28435   2.967   4.294   5.376
 9179SOL    HW128436   2.901   4.280   5.450
 9179SOL    HW228437   2.930   4.358   5.309
 9180SOL     OW28438   5.067   1.312   2.023
 9180SOL    HW128439   5.163   1.329   2.001
 9180SOL    HW228440   5.060   1.265   2.111
 9181SOL     OW28441   3.791   1.267   2.431
 9181SOL    HW128442   3.748   1.312   2.353
 9181SOL    HW228443   3.886   1.246   2.409
 9182SOL     OW28444   2.369   6.877   1.571
 9182SOL    HW128445   2.422   6.921   1.499
 9182SOL    HW228446   2.273   6.873   1.544
 9183SOL     OW28447   5.471   4.802   5.090
 9183SOL    HW128448   5.500   4.850   5.007
 9183SOL    HW228449   5.480   4.704   5.077
 9184SOL     OW28450   5.596   6.990   0.100
 9184SOL    HW128451   5.551   7.026   0.018
 9184SOL    HW228452   5.663   6.921   0.073
 9185SOL     OW28453   5.124   1.315   4.964
 9185SOL    HW128454   5.149   1.388   4.901
 9185SOL    HW228455   5.202   1.293   5.023
 9186SOL     OW28456   5.139   1.072   5.881
 9186SOL    HW128457   5.226   1.035   5.912
 9186SOL    HW228458   5.147   1.102   5.786
 9187SOL     OW28459   1.968   6.244   2.766
 9187SOL    HW128460   1.937   6.148   2.764
 9187SOL    HW228461   2.067   6.247   2.755
 9188SOL     OW28462   3.201   5.694   0.329
 9188SOL    HW128463   3.133   5.709   0.400
 9188SOL    HW228464   3.288   5.668   0.372
 9189SOL     OW28465   5.531   4.729   1.766
 9189SOL    HW128466   5.613   4.783   1.783
 9189SOL    HW228467   5.488   4.760   1.681
 9190SOL     OW28468   1.572   5.934   0.208
 9190SOL    HW128469   1.532   5.946   0.299
 9190SOL    HW228470   1.534   6.002   0.146
 9191SOL     OW28471   6.399   0.351   6.435
 9191SOL    HW128472   6.400   0.258   6.472
 9191SOL    HW228473   6.468   0.406   6.481
 9192SOL     OW28474   1.238   3.435   4.773
 9192SOL    HW128475   1.251   3.420   4.675
 9192SOL    HW228476   1.300   3.375   4.824
 9193SOL     OW28477   4.295   4.001   0.427
 9193SOL    HW128478   4.356   4.078   0.409
 9193SOL    HW228479   4.223   4.029   0.490
 9194SOL     OW28480   3.359   0.523   4.331
 9194SOL    HW128481   3.451   0.520   4.293
 9194SOL    HW228482   3.312   0.437   4.312
 9195SOL     OW28483   1.755   1.550   3.935
 9195SOL    HW128484   1.672   1.589   3.976
 9195SOL    HW228485   1.745   1.550   3.835
 9196SOL     OW28486   5.462   1.122   5.461
 9196SOL    HW128487   5.365   1.107   5.445
 9196SOL    HW228488   5.473   1.188   5.536
 9197SOL     OW28489   2.851   3.619   0.280
 9197SOL    HW128490   2.878   3.634   0.375
 9197SOL    HW228491   2.825   3.523   0.268
 9198SOL     OW28492   1.458   4.153   5.030
 9198SOL    HW128493   1.558   4.140   5.028
 9198SOL    HW228494   1.420   4.124   4.942
 9199SOL     OW28495   6.384   5.163   4.829
 9199SOL    HW128496   6.328   5.147   4.747
 9199SOL    HW228497   6.327   5.153   4.910
 9200SOL     OW28498   3.432   6.199   1.289
 9200SOL    HW128499   3.522   6.243   1.296
 9200SOL    HW228500   3.438   6.105   1.322
 9201SOL     OW28501   2.327   4.844   1.100
 9201SOL    HW128502   2.427   4.842   1.104
 9201SOL    HW228503   2.293   4.757   1.064
 9202SOL     OW28504   2.557   1.397   4.022
 9202SOL    HW128505   2.650   1.420   3.992
 9202SOL    HW228506   2.490   1.448   3.967
 9203SOL     OW28507   6.437   6.482   1.105
 9203SOL    HW128508   6.404   6.575   1.091
 9203SOL    HW228509   6.537   6.482   1.113
 9204SOL     OW28510   5.813   0.221   4.843
 9204SOL    HW128511   5.788   0.128   4.869
 9204SOL    HW228512   5.744   0.285   4.879
 9205SOL     OW28513   6.977   5.240   2.805
 9205SOL    HW128514   7.010   5.165   2.863
 9205SOL    HW228515   6.884   5.264   2.832
 9206SOL     OW28516   4.177   0.429   6.970
 9206SOL    HW128517   4.210   0.507   6.919
 9206SOL    HW228518   4.113   0.376   6.914
 9207SOL     OW28519   4.978   5.395   6.533
 9207SOL    HW128520   4.964   5.407   6.631
 9207SOL    HW228521   4.911   5.330   6.497
 9208SOL     OW28522   1.274   3.620   2.248
 9208SOL    HW128523   1.315   3.592   2.162
 9208SOL    HW228524   1.263   3.719   2.249
 9209SOL     OW28525   2.200   6.504   6.587
 9209SOL    HW128526   2.298   6.506   6.569
 9209SOL    HW228527   2.171   6.591   6.626
 9210SOL     OW28528   6.113   0.320   3.792
 9210SOL    HW128529   6.176   0.365   3.728
 9210SOL    HW228530   6.039   0.383   3.815
 9211SOL     OW28531   0.761   1.384   3.075
 9211SOL    HW128532   0.801   1.294   3.059
 9211SOL    HW228533   0.666   1.374   3.103
 9212SOL     OW28534   4.800   4.691   4.811
 9212SOL    HW128535   4.711   4.646   4.822
 9212SOL    HW228536   4.787   4.790   4.815
 9213SOL     OW28537   6.076   3.822   0.937
 9213SOL    HW128538   6.074   3.722   0.941
 9213SOL    HW228539   6.123   3.858   1.017
 9214SOL     OW28540   7.001   5.202   0.978
 9214SOL    HW128541   7.013   5.258   0.896
 9214SOL    HW228542   7.023   5.256   1.059
 9215SOL     OW28543   0.831   1.336   1.110
 9215SOL    HW128544   0.777   1.337   1.194
 9215SOL    HW228545   0.770   1.327   1.031
 9216SOL     OW28546   1.492   7.001   3.852
 9216SOL    HW128547   1.442   6.946   3.785
 9216SOL    HW228548   1.561   0.029   3.805
 9217SOL     OW28549   0.778   2.114   1.124
 9217SOL    HW128550   0.869   2.079   1.146
 9217SOL    HW228551   0.742   2.066   1.044
 9218SOL     OW28552   2.694   0.966   0.990
 9218SOL    HW128553   2.609   1.007   1.024
 9218SOL    HW228554   2.746   0.928   1.067
 9219SOL     OW28555   5.635   0.964   0.707
 9219SOL    HW128556   5.601   0.943   0.798
 9219SOL    HW228557   5.734   0.952   0.705
 9220SOL     OW28558   3.881   6.354   0.335
 9220SOL    HW128559   3.804   6.414   0.359
 9220SOL    HW228560   3.853   6.259   0.345
 9221SOL     OW28561   3.179   4.888   4.865
 9221SOL    HW128562   3.252   4.822   4.880
 9221SOL    HW228563   3.130   4.903   4.951
 9222SOL     OW28564   3.161   2.450   7.008
 9222SOL    HW128565   3.245   2.397   7.023
 9222SOL    HW228566   3.150   2.469   6.911
 9223SOL     OW28567   2.871   3.204   5.273
 9223SOL    HW128568   2.808   3.280   5.292
 9223SOL    HW228569   2.835   3.149   5.197
 9224SOL     OW28570   2.420   4.660   5.245
 9224SOL    HW128571   2.445   4.575   5.199
 9224SOL    HW228572   2.498   4.723   5.243
 9225SOL     OW28573   1.255   5.670   6.770
 9225SOL    HW128574   1.253   5.629   6.861
 9225SOL    HW228575   1.162   5.682   6.737
 9226SOL     OW28576   4.968   6.380   0.722
 9226SOL    HW128577   4.987   6.347   0.629
 9226SOL    HW228578   4.951   6.479   0.718
 9227SOL     OW28579   1.129   6.264   1.891
 9227SOL    HW128580   1.087   6.234   1.805
 9227SOL    HW228581   1.217   6.307   1.872
 9228SOL     OW28582   1.072   5.875   6.676
 9228SOL    HW128583   1.102   5.930   6.754
 9228SOL    HW228584   1.076   5.931   6.593
 9229SOL     OW28585   1.129   6.051   5.069
 9229SOL    HW128586   1.119   6.100   4.983
 9229SOL    HW228587   1.187   6.104   5.131
 9230SOL     OW28588   4.894   1.169   3.281
 9230SOL    HW128589   4.984   1.185   3.322
 9230SOL    HW228590   4.896   1.192   3.184
 9231SOL     OW28591   2.087   3.107   3.464
 9231SOL    HW128592   1.991   3.090   3.487
 9231SOL    HW228593   2.145   3.036   3.505
 9232SOL     OW28594   4.191   5.506   0.741
 9232SOL    HW128595   4.145   5.548   0.663
 9232SOL    HW228596   4.130   5.506   0.820
 9233SOL     OW28597   6.337   4.266   0.802
 9233SOL    HW128598   6.376   4.284   0.711
 9233SOL    HW228599   6.264   4.332   0.821
 9234SOL     OW28600   1.288   6.062   4.031
 9234SOL    HW128601   1.196   6.083   3.998
 9234SOL    HW228602   1.353   6.074   3.955
 9235SOL     OW28603   0.861   2.524   3.167
 9235SOL    HW128604   0.832   2.546   3.074
 9235SOL    HW228605   0.807   2.578   3.233
 9236SOL     OW28606   3.456   2.645   6.501
 9236SOL    HW128607   3.521   2.603   6.438
 9236SOL    HW228608   3.365   2.605   6.488
 9237SOL     OW28609   1.526   3.571   2.760
 9237SOL    HW128610   1.595   3.596   2.692
 9237SOL    HW228611   1.453   3.639   2.761
 9238SOL     OW28612   4.440   4.391   6.840
 9238SOL    HW128613   4.465   4.330   6.765
 9238SOL    HW228614   4.454   4.344   6.927
 9239SOL     OW28615   2.053   3.291   7.004
 9239SOL    HW128616   1.968   3.280   6.953
 9239SOL    HW228617   2.090   3.201   0.000
 9240SOL     OW28618   4.550   0.612   2.300
 9240SOL    HW128619   4.505   0.529   2.268
 9240SOL    HW228620   4.529   0.626   2.397
 9241SOL     OW28621   0.880   5.823   5.326
 9241SOL    HW128622   0.952   5.758   5.301
 9241SOL    HW228623   0.841   5.864   5.244
 9242SOL     OW28624   4.926   6.803   1.450
 9242SOL    HW128625   4.990   6.870   1.488
 9242SOL    HW228626   4.977   6.723   1.418
 9243SOL     OW28627   5.699   0.486   4.477
 9243SOL    HW128628   5.719   0.584   4.473
 9243SOL    HW228629   5.711   0.446   4.386
 9244SOL     OW28630   3.475   6.393   0.511
 9244SOL    HW128631   3.505   6.350   0.596
 9244SOL    HW228632   3.546   6.455   0.478
 9245SOL     OW28633   0.368   6.629   2.424
 9245SOL    HW128634   0.444   6.598   2.368
 9245SOL    HW228635   0.282   6.610   2.377
 9246SOL     OW28636   6.770   5.458   3.297
 9246SOL    HW128637   6.814   5.380   3.252
 9246SOL    HW228638   6.732   5.519   3.228
 9247SOL     OW28639   0.736   0.782   2.943
 9247SOL    HW128640   0.766   0.844   3.016
 9247SOL    HW228641   0.763   0.819   2.854
 9248SOL     OW28642   4.633   1.598   6.343
 9248SOL    HW128643   4.551   1.625   6.293
 9248SOL    HW228644   4.711   1.595   6.280
 9249SOL     OW28645   3.858   6.452   4.003
 9249SOL    HW128646   3.864   6.518   3.928
 9249SOL    HW228647   3.870   6.501   4.090
 9250SOL     OW28648   4.960   3.551   3.379
 9250SOL    HW128649   4.920   3.587   3.295
 9250SOL    HW228650   5.056   3.528   3.363
 9251SOL     OW28651   4.205   2.174   2.504
 9251SOL    HW128652   4.113   2.196   2.473
 9251SOL    HW228653   4.207   2.081   2.541
 9252SOL     OW28654   1.471   6.871   4.851
 9252SOL    HW128655   1.484   6.969   4.834
 9252SOL    HW228656   1.560   6.827   4.863
 9253SOL     OW28657   1.088   6.805   5.809
 9253SOL    HW128658   1.054   6.863   5.735
 9253SOL    HW228659   1.165   6.750   5.775
 9254SOL     OW28660   4.617   2.328   0.626
 9254SOL    HW128661   4.615   2.238   0.671
 9254SOL    HW228662   4.642   2.398   0.694
 9255SOL     OW28663   6.946   4.853   0.492
 9255SOL    HW128664   7.016   4.867   0.562
 9255SOL    HW228665   6.895   4.769   0.512
 9256SOL     OW28666   3.942   5.124   2.696
 9256SOL    HW128667   4.022   5.079   2.736
 9256SOL    HW228668   3.868   5.126   2.763
 9257SOL     OW28669   0.618   3.759   0.863
 9257SOL    HW128670   0.660   3.799   0.945
 9257SOL    HW228671   0.563   3.829   0.817
 9258SOL     OW28672   3.191   2.932   5.157
 9258SOL    HW128673   3.146   2.981   5.232
 9258SOL    HW228674   3.130   2.861   5.123
 9259SOL     OW28675   1.995   2.720   0.824
 9259SOL    HW128676   2.021   2.631   0.786
 9259SOL    HW228677   1.979   2.785   0.749
 9260SOL     OW28678   6.544   3.920   0.707
 9260SOL    HW128679   6.609   3.945   0.779
 9260SOL    HW228680   6.586   3.852   0.647
 9261SOL     OW28681   2.051   6.770   5.529
 9261SOL    HW128682   1.958   6.751   5.497
 9261SOL    HW228683   2.079   6.861   5.498
 9262SOL     OW28684   6.200   6.813   6.888
 9262SOL    HW128685   6.159   6.724   6.910
 9262SOL    HW228686   6.283   6.799   6.834
 9263SOL     OW28687   5.925   3.770   2.494
 9263SOL    HW128688   5.852   3.839   2.500
 9263SOL    HW228689   5.988   3.782   2.571
 9264SOL     OW28690   5.323   2.248   0.444
 9264SOL    HW128691   5.268   2.326   0.413
 9264SOL    HW228692   5.324   2.178   0.372
 9265SOL     OW28693   1.779   1.214   5.600
 9265SOL    HW128694   1.825   1.290   5.646
 9265SOL    HW228695   1.680   1.223   5.613
 9266SOL     OW28696   3.247   6.784   3.270
 9266SOL    HW128697   3.190   6.835   3.333
 9266SOL    HW228698   3.197   6.704   3.236
 9267SOL     OW28699   3.101   4.708   6.118
 9267SOL    HW128700   3.080   4.693   6.214
 9267SOL    HW228701   3.087   4.805   6.096
 9268SOL     OW28702   0.914   1.171   3.038
 9268SOL    HW128703   0.896   1.102   2.968
 9268SOL    HW228704   0.987   1.139   3.099
 9269SOL     OW28705   4.440   1.481   5.169
 9269SOL    HW128706   4.495   1.497   5.251
 9269SOL    HW228707   4.345   1.465   5.195
 9270SOL     OW28708   1.524   0.668   5.188
 9270SOL    HW128709   1.590   0.600   5.220
 9270SOL    HW228710   1.550   0.699   5.096
 9271SOL     OW28711   0.060   5.680   5.760
 9271SOL    HW128712   0.064   5.613   5.835
 9271SOL    HW228713   0.105   5.764   5.789
 9272SOL     OW28714   2.241   5.280   6.875
 9272SOL    HW128715   2.190   5.203   6.837
 9272SOL    HW228716   2.336   5.277   6.844
 9273SOL     OW28717   3.271   5.262   5.758
 9273SOL    HW128718   3.306   5.277   5.850
 9273SOL    HW228719   3.221   5.175   5.755
 9274SOL     OW28720   4.898   1.399   1.627
 9274SOL    HW128721   4.835   1.381   1.702
 9274SOL    HW228722   4.871   1.345   1.547
 9275SOL     OW28723   6.783   0.375   6.295
 9275SOL    HW128724   6.805   0.292   6.346
 9275SOL    HW228725   6.702   0.360   6.239
 9276SOL     OW28726   5.112   0.519   3.805
 9276SOL    HW128727   5.196   0.571   3.819
 9276SOL    HW228728   5.115   0.476   3.714
 9277SOL     OW28729   5.116   2.449   6.754
 9277SOL    HW128730   5.124   2.389   6.674
 9277SOL    HW228731   5.192   2.430   6.817
 9278SOL     OW28732   1.183   2.039   1.071
 9278SOL    HW128733   1.179   1.941   1.051
 9278SOL    HW228734   1.159   2.090   0.988
 9279SOL     OW28735   2.585   0.264   0.888
 9279SOL    HW128736   2.630   0.188   0.935
 9279SOL    HW228737   2.531   0.229   0.812
 9280SOL     OW28738   1.868   0.695   2.163
 9280SOL    HW128739   1.780   0.650   2.181
 9280SOL    HW228740   1.890   0.756   2.239
 9281SOL     OW28741   1.566   2.351   0.522
 9281SOL    HW128742   1.657   2.383   0.549
 9281SOL    HW228743   1.571   2.313   0.430
 9282SOL     OW28744   4.040   0.653   6.032
 9282SOL    HW128745   4.095   0.721   5.984
 9282SOL    HW228746   3.948   0.689   6.048
 9283SOL     OW28747   5.727   2.735   3.474
 9283SOL    HW128748   5.819   2.726   3.512
 9283SOL    HW228749   5.730   2.717   3.376
 9284SOL     OW28750   3.798   3.760   2.347
 9284SOL    HW128751   3.895   3.757   2.323
 9284SOL    HW228752   3.744   3.736   2.267
 9285SOL     OW28753   6.660   2.741   6.885
 9285SOL    HW128754   6.626   2.835   6.881
 9285SOL    HW228755   6.725   2.726   6.811
 9286SOL     OW28756   5.637   5.505   4.673
 9286SOL    HW128757   5.695   5.437   4.628
 9286SOL    HW228758   5.552   5.517   4.622
 9287SOL     OW28759   3.682   6.873   2.549
 9287SOL    HW128760   3.762   6.872   2.609
 9287SOL    HW228761   3.707   6.913   2.461
 9288SOL     OW28762   4.353   1.757   7.013
 9288SOL    HW128763   4.389   1.837   6.966
 9288SOL    HW228764   4.326   1.783   0.078
 9289SOL     OW28765   5.448   3.501   3.488
 9289SOL    HW128766   5.496   3.414   3.475
 9289SOL    HW228767   5.412   3.505   3.581
 9290SOL     OW28768   4.115   2.275   4.379
 9290SOL    HW128769   4.047   2.315   4.441
 9290SOL    HW228770   4.076   2.268   4.287
 9291SOL     OW28771   0.616   3.186   4.826
 9291SOL    HW128772   0.571   3.255   4.883
 9291SOL    HW228773   0.614   3.098   4.873
 9292SOL     OW28774   1.301   4.274   6.806
 9292SOL    HW128775   1.210   4.314   6.805
 9292SOL    HW228776   1.350   4.299   6.722
 9293SOL     OW28777   5.415   3.352   6.190
 9293SOL    HW128778   5.459   3.282   6.246
 9293SOL    HW228779   5.366   3.309   6.114
 9294SOL     OW28780   5.480   5.610   0.149
 9294SOL    HW128781   5.567   5.655   0.131
 9294SOL    HW228782   5.415   5.676   0.186
 9295SOL     OW28783   4.848   3.026   3.185
 9295SOL    HW128784   4.880   3.040   3.091
 9295SOL    HW228785   4.878   3.101   3.243
 9296SOL     OW28786   6.172   0.476   4.724
 9296SOL    HW128787   6.114   0.409   4.678
 9296SOL    HW228788   6.147   0.480   4.821
 9297SOL     OW28789   0.346   6.799   1.775
 9297SOL    HW128790   0.276   6.790   1.846
 9297SOL    HW228791   0.380   6.708   1.750
 9298SOL     OW28792   0.114   6.842   4.370
 9298SOL    HW128793   0.048   6.835   4.296
 9298SOL    HW228794   0.080   6.904   4.440
 9299SOL     OW28795   1.915   2.270   4.599
 9299SOL    HW128796   1.855   2.303   4.526
 9299SOL    HW228797   1.972   2.345   4.632
 9300SOL     OW28798   5.693   4.850   3.970
 9300SOL    HW128799   5.630   4.804   4.033
 9300SOL    HW228800   5.670   4.825   3.876
 9301SOL     OW28801   6.442   4.942   1.661
 9301SOL    HW128802   6.425   4.933   1.562
 9301SOL    HW228803   6.447   4.851   1.702
 9302SOL     OW28804   1.036   2.007   2.923
 9302SOL    HW128805   0.966   1.953   2.970
 9302SOL    HW228806   0.994   2.090   2.885
 9303SOL     OW28807   4.707   4.105   0.269
 9303SOL    HW128808   4.768   4.091   0.346
 9303SOL    HW228809   4.761   4.119   0.186
 9304SOL     OW28810   5.164   3.591   0.715
 9304SOL    HW128811   5.256   3.568   0.747
 9304SOL    HW228812   5.109   3.624   0.792
 9305SOL     OW28813   4.638   4.023   1.740
 9305SOL    HW128814   4.592   3.998   1.654
 9305SOL    HW228815   4.576   4.079   1.796
 9306SOL     OW28816   0.427   6.248   2.922
 9306SOL    HW128817   0.431   6.315   2.848
 9306SOL    HW228818   0.344   6.262   2.976
 9307SOL     OW28819   2.078   0.928   6.335
 9307SOL    HW128820   2.152   0.989   6.362
 9307SOL    HW228821   2.111   0.861   6.268
 9308SOL     OW28822   0.461   1.818   0.488
 9308SOL    HW128823   0.478   1.724   0.516
 9308SOL    HW228824   0.392   1.820   0.415
 9309SOL     OW28825   4.127   2.766   0.196
 9309SOL    HW128826   4.055   2.813   0.145
 9309SOL    HW228827   4.100   2.759   0.292
 9310SOL     OW28828   4.165   5.938   1.449
 9310SOL    HW128829   4.110   5.980   1.521
 9310SOL    HW228830   4.171   6.000   1.371
 9311SOL     OW28831   0.452   3.126   1.163
 9311SOL    HW128832   0.396   3.130   1.246
 9311SOL    HW228833   0.464   3.031   1.135
 9312SOL     OW28834   1.890   3.614   5.005
 9312SOL    HW128835   1.946   3.536   4.974
 9312SOL    HW228836   1.943   3.698   4.996
 9313SOL     OW28837   6.657   0.728   3.299
 9313SOL    HW128838   6.672   0.638   3.339
 9313SOL    HW228839   6.685   0.727   3.203
 9314SOL     OW28840   6.963   4.050   0.494
 9314SOL    HW128841   6.874   4.005   0.498
 9314SOL    HW228842   6.952   4.145   0.465
 9315SOL     OW28843   0.707   6.116   6.107
 9315SOL    HW128844   0.660   6.183   6.049
 9315SOL    HW228845   0.639   6.056   6.150
 9316SOL     OW28846   2.947   4.847   4.683
 9316SOL    HW128847   2.885   4.879   4.755
 9316SOL    HW228848   3.040   4.844   4.719
 9317SOL     OW28849   3.912   4.378   5.872
 9317SOL    HW128850   3.897   4.281   5.854
 9317SOL    HW228851   3.880   4.400   5.965
 9318SOL     OW28852   0.312   6.933   6.068
 9318SOL    HW128853   0.351   7.023   6.050
 9318SOL    HW228854   0.213   6.941   6.082
 9319SOL     OW28855   6.870   3.899   4.328
 9319SOL    HW128856   6.791   3.924   4.273
 9319SOL    HW228857   6.869   3.951   4.414
 9320SOL     OW28858   3.840   3.212   5.558
 9320SOL    HW128859   3.786   3.129   5.548
 9320SOL    HW228860   3.826   3.271   5.479
 9321SOL     OW28861   5.447   0.235   4.257
 9321SOL    HW128862   5.454   0.225   4.357
 9321SOL    HW228863   5.354   0.261   4.233
 9322SOL     OW28864   0.741   6.052   1.201
 9322SOL    HW128865   0.664   6.105   1.168
 9322SOL    HW228866   0.810   6.045   1.129
 9323SOL     OW28867   0.746   1.262   5.879
 9323SOL    HW128868   0.720   1.318   5.801
 9323SOL    HW228869   0.846   1.254   5.883
 9324SOL     OW28870   1.339   5.418   6.831
 9324SOL    HW128871   1.429   5.397   6.793
 9324SOL    HW228872   1.304   5.503   6.792
 9325SOL     OW28873   0.192   3.413   6.688
 9325SOL    HW128874   0.238   3.326   6.668
 9325SOL    HW228875   0.126   3.399   6.762
 9326SOL     OW28876   2.395   6.075   1.785
 9326SOL    HW128877   2.485   6.035   1.801
 9326SOL    HW228878   2.406   6.167   1.745
 9327SOL     OW28879   2.232   1.939   4.441
 9327SOL    HW128880   2.206   1.846   4.413
 9327SOL    HW228881   2.150   1.992   4.459
 9328SOL     OW28882   2.472   1.511   2.184
 9328SOL    HW128883   2.534   1.531   2.260
 9328SOL    HW228884   2.494   1.570   2.106
 9329SOL     OW28885   0.699   4.030   1.467
 9329SOL    HW128886   0.720   4.116   1.421
 9329SOL    HW228887   0.713   3.954   1.404
 9330SOL     OW28888   5.465   5.774   6.580
 9330SOL    HW128889   5.470   5.703   6.650
 9330SOL    HW228890   5.459   5.732   6.489
 9331SOL     OW28891   0.935   0.895   0.300
 9331SOL    HW128892   0.880   0.920   0.380
 9331SOL    HW228893   1.022   0.943   0.303
 9332SOL     OW28894   3.725   4.044   4.893
 9332SOL    HW128895   3.729   4.081   4.986
 9332SOL    HW228896   3.812   4.059   4.846
 9333SOL     OW28897   5.147   6.510   1.054
 9333SOL    HW128898   5.066   6.453   1.036
 9333SOL    HW228899   5.182   6.545   0.967
 9334SOL     OW28900   2.177   6.485   5.051
 9334SOL    HW128901   2.083   6.457   5.030
 9334SOL    HW228902   2.192   6.479   5.150
 9335SOL     OW28903   0.504   1.726   2.511
 9335SOL    HW128904   0.426   1.788   2.516
 9335SOL    HW228905   0.550   1.721   2.600
 9336SOL     OW28906   3.343   0.347   5.293
 9336SOL    HW128907   3.386   0.425   5.338
 9336SOL    HW228908   3.402   0.313   5.220
 9337SOL     OW28909   5.369   6.737   3.326
 9337SOL    HW128910   5.337   6.749   3.232
 9337SOL    HW228911   5.467   6.718   3.325
 9338SOL     OW28912   1.777   6.427   2.819
 9338SOL    HW128913   1.800   6.466   2.908
 9338SOL    HW228914   1.848   6.362   2.792
 9339SOL     OW28915   3.968   5.590   1.177
 9339SOL    HW128916   4.015   5.546   1.254
 9339SOL    HW228917   3.879   5.548   1.164
 9340SOL     OW28918   6.943   2.948   6.707
 9340SOL    HW128919   0.012   2.925   6.709
 9340SOL    HW228920   6.931   3.045   6.726
 9341SOL     OW28921   0.962   4.044   5.839
 9341SOL    HW128922   0.896   4.029   5.765
 9341SOL    HW228923   1.051   4.065   5.801
 9342SOL     OW28924   1.293   0.239   0.423
 9342SOL    HW128925   1.258   0.159   0.374
 9342SOL    HW228926   1.374   0.275   0.376
 9343SOL     OW28927   6.134   6.457   3.130
 9343SOL    HW128928   6.185   6.528   3.081
 9343SOL    HW228929   6.075   6.499   3.198
 9344SOL     OW28930   5.339   6.273   0.730
 9344SOL    HW128931   5.300   6.188   0.765
 9344SOL    HW228932   5.304   6.351   0.783
 9345SOL     OW28933   0.714   2.287   0.400
 9345SOL    HW128934   0.804   2.253   0.426
 9345SOL    HW228935   0.720   2.384   0.376
 9346SOL     OW28936   6.170   0.653   1.121
 9346SOL    HW128937   6.097   0.589   1.145
 9346SOL    HW228938   6.258   0.605   1.124
 9347SOL     OW28939   1.707   6.172   3.234
 9347SOL    HW128940   1.699   6.086   3.185
 9347SOL    HW228941   1.800   6.208   3.223
 9348SOL     OW28942   2.926   5.170   0.481
 9348SOL    HW128943   2.850   5.235   0.480
 9348SOL    HW228944   2.952   5.147   0.387
 9349SOL     OW28945   1.207   6.447   2.776
 9349SOL    HW128946   1.139   6.500   2.826
 9349SOL    HW228947   1.192   6.349   2.794
 9350SOL     OW28948   0.469   3.137   5.187
 9350SOL    HW128949   0.438   3.062   5.246
 9350SOL    HW228950   0.569   3.142   5.190
 9351SOL     OW28951   3.073   6.600   6.999
 9351SOL    HW128952   2.997   6.665   7.000
 9351SOL    HW228953   3.062   6.535   0.047
 9352SOL     OW28954   2.722   4.742   6.194
 9352SOL    HW128955   2.744   4.839   6.180
 9352SOL    HW228956   2.655   4.713   6.127
 9353SOL     OW28957   6.938   6.857   0.825
 9353SOL    HW128958   6.846   6.888   0.802
 9353SOL    HW228959   6.951   6.764   0.792
 9354SOL     OW28960   1.217   1.177   5.473
 9354SOL    HW128961   1.247   1.172   5.568
 9354SOL    HW228962   1.118   1.166   5.468
 9355SOL     OW28963   0.927   1.455   5.425
 9355SOL    HW128964   0.916   1.517   5.347
 9355SOL    HW228965   0.953   1.507   5.506
 9356SOL     OW28966   3.959   0.472   3.088
 9356SOL    HW128967   4.017   0.551   3.066
 9356SOL    HW228968   3.984   0.438   3.179
 9357SOL     OW28969   2.036   2.466   0.749
 9357SOL    HW128970   2.120   2.482   0.698
 9357SOL    HW228971   2.043   2.381   0.800
 9358SOL     OW28972   0.962   1.646   0.358
 9358SOL    HW128973   1.032   1.591   0.312
 9358SOL    HW228974   1.003   1.691   0.438
 9359SOL     OW28975   0.307   0.885   5.776
 9359SOL    HW128976   0.401   0.855   5.791
 9359SOL    HW228977   0.294   0.976   5.816
 9360SOL     OW28978   6.689   6.455   5.929
 9360SOL    HW128979   6.677   6.357   5.948
 9360SOL    HW228980   6.772   6.487   5.974
 9361SOL     OW28981   2.298   5.681   4.423
 9361SOL    HW128982   2.262   5.591   4.447
 9361SOL    HW228983   2.308   5.688   4.323
 9362SOL     OW28984   1.795   0.530   2.494
 9362SOL    HW128985   1.895   0.524   2.497
 9362SOL    HW228986   1.759   0.461   2.432
 9363SOL     OW28987   1.110   2.787   2.187
 9363SOL    HW128988   1.044   2.716   2.212
 9363SOL    HW228989   1.138   2.775   2.092
 9364SOL     OW28990   0.835   1.920   6.725
 9364SOL    HW128991   0.868   1.878   6.640
 9364SOL    HW228992   0.744   1.886   6.745
 9365SOL     OW28993   2.965   1.006   5.356
 9365SOL    HW128994   2.982   1.083   5.419
 9365SOL    HW228995   2.923   1.040   5.272
 9366SOL     OW28996   3.269   6.016   2.285
 9366SOL    HW128997   3.244   6.104   2.325
 9366SOL    HW228998   3.341   5.974   2.341
 9367SOL     OW28999   6.825   0.073   1.757
 9367SOL    HW129000   6.854   0.068   1.661
 9367SOL    HW229001   6.878   0.007   1.811
 9368SOL     OW29002   2.235   0.955   3.401
 9368SOL    HW129003   2.234   0.859   3.376
 9368SOL    HW229004   2.176   1.007   3.338
 9369SOL     OW29005   3.306   5.260   0.611
 9369SOL    HW129006   3.406   5.254   0.618
 9369SOL    HW229007   3.281   5.296   0.521
 9370SOL     OW29008   4.876   2.456   5.429
 9370SOL    HW129009   4.793   2.461   5.484
 9370SOL    HW229010   4.859   2.493   5.338
 9371SOL     OW29011   3.831   5.046   0.528
 9371SOL    HW129012   3.882   4.980   0.582
 9371SOL    HW229013   3.867   5.138   0.546
 9372SOL     OW29014   5.549   6.829   0.609
 9372SOL    HW129015   5.635   6.833   0.558
 9372SOL    HW229016   5.495   6.911   0.590
 9373SOL     OW29017   0.065   1.317   1.520
 9373SOL    HW129018   0.163   1.294   1.527
 9373SOL    HW229019   0.047   1.403   1.569
 9374SOL     OW29020   6.886   5.507   6.148
 9374SOL    HW129021   6.831   5.515   6.065
 9374SOL    HW229022   6.839   5.553   6.223
 9375SOL     OW29023   1.673   1.484   0.053
 9375SOL    HW129024   1.740   1.422   0.092
 9375SOL    HW229025   1.636   1.446   6.996
 9376SOL     OW29026   3.194   4.058   0.753
 9376SOL    HW129027   3.201   3.997   0.674
 9376SOL    HW229028   3.116   4.119   0.742
 9377SOL     OW29029   0.788   0.955   3.238
 9377SOL    HW129030   0.704   0.978   3.287
 9377SOL    HW229031   0.844   1.037   3.228
 9378SOL     OW29032   4.503   1.134   5.288
 9378SOL    HW129033   4.506   1.053   5.230
 9378SOL    HW229034   4.423   1.129   5.348
 9379SOL     OW29035   3.714   0.277   4.473
 9379SOL    HW129036   3.789   0.319   4.423
 9379SOL    HW229037   3.750   0.207   4.535
 9380SOL     OW29038   5.207   6.434   1.434
 9380SOL    HW129039   5.255   6.501   1.378
 9380SOL    HW229040   5.218   6.458   1.531
 9381SOL     OW29041   4.452   1.489   4.772
 9381SOL    HW129042   4.529   1.461   4.715
 9381SOL    HW229043   4.455   1.440   4.859
 9382SOL     OW29044   2.445   6.034   6.025
 9382SOL    HW129045   2.423   6.040   6.122
 9382SOL    HW229046   2.370   5.990   5.976
 9383SOL     OW29047   5.618   3.834   0.972
 9383SOL    HW129048   5.559   3.788   1.038
 9383SOL    HW229049   5.673   3.765   0.923
 9384SOL     OW29050   4.569   0.846   0.488
 9384SOL    HW129051   4.668   0.862   0.487
 9384SOL    HW229052   4.536   0.842   0.393
 9385SOL     OW29053   4.405   2.344   4.412
 9385SOL    HW129054   4.312   2.332   4.376
 9385SOL    HW229055   4.459   2.262   4.395
 9386SOL     OW29056   5.294   0.591   0.822
 9386SOL    HW129057   5.280   0.493   0.808
 9386SOL    HW229058   5.273   0.640   0.738
 9387SOL     OW29059   3.168   2.378   6.670
 9387SOL    HW129060   3.170   2.282   6.642
 9387SOL    HW229061   3.205   2.436   6.598
 9388SOL     OW29062   2.261   6.382   5.300
 9388SOL    HW129063   2.252   6.471   5.345
 9388SOL    HW229064   2.301   6.316   5.365
 9389SOL     OW29065   2.247   3.746   1.827
 9389SOL    HW129066   2.227   3.663   1.879
 9389SOL    HW229067   2.204   3.825   1.871
 9390SOL     OW29068   5.768   5.115   4.021
 9390SOL    HW129069   5.843   5.147   4.079
 9390SOL    HW229070   5.744   5.021   4.048
 9391SOL     OW29071   0.502   5.090   4.497
 9391SOL    HW129072   0.462   5.060   4.411
 9391SOL    HW229073   0.475   5.028   4.570
 9392SOL     OW29074   3.461   5.118   2.837
 9392SOL    HW129075   3.451   5.080   2.745
 9392SOL    HW229076   3.556   5.145   2.852
 9393SOL     OW29077   2.372   5.049   0.447
 9393SOL    HW129078   2.302   5.032   0.377
 9393SOL    HW229079   2.445   4.982   0.436
 9394SOL     OW29080   5.023   7.025   7.005
 9394SOL    HW129081   4.994   6.983   6.919
 9394SOL    HW229082   5.017   6.958   0.051
 9395SOL     OW29083   0.478   0.547   1.471
 9395SOL    HW129084   0.427   0.569   1.388
 9395SOL    HW229085   0.537   0.623   1.495
 9396SOL     OW29086   0.804   0.599   6.639
 9396SOL    HW129087   0.734   0.548   6.589
 9396SOL    HW229088   0.858   0.653   6.574
 9397SOL     OW29089   3.763   1.672   5.848
 9397SOL    HW129090   3.734   1.622   5.929
 9397SOL    HW229091   3.781   1.768   5.873
 9398SOL     OW29092   0.042   3.129   6.985
 9398SOL    HW129093   0.054   3.211   6.930
 9398SOL    HW229094   6.975   3.122   7.015
 9399SOL     OW29095   1.592   2.537   4.505
 9399SOL    HW129096   1.649   2.572   4.579
 9399SOL    HW229097   1.615   2.585   4.420
 9400SOL     OW29098   5.586   1.419   0.696
 9400SOL    HW129099   5.626   1.462   0.615
 9400SOL    HW229100   5.487   1.432   0.696
 9401SOL     OW29101   6.616   2.045   3.681
 9401SOL    HW129102   6.628   2.070   3.777
 9401SOL    HW229103   6.522   2.062   3.652
 9402SOL     OW29104   3.812   5.272   5.427
 9402SOL    HW129105   3.717   5.242   5.436
 9402SOL    HW229106   3.821   5.364   5.465
 9403SOL     OW29107   5.641   2.576   0.886
 9403SOL    HW129108   5.679   2.484   0.878
 9403SOL    HW229109   5.715   2.642   0.894
 9404SOL     OW29110   2.343   2.144   0.856
 9404SOL    HW129111   2.249   2.164   0.828
 9404SOL    HW229112   2.406   2.196   0.799
 9405SOL     OW29113   5.624   5.558   4.933
 9405SOL    HW129114   5.630   5.554   4.833
 9405SOL    HW229115   5.545   5.615   4.959
 9406SOL     OW29116   1.277   0.735   0.859
 9406SOL    HW129117   1.186   0.747   0.898
 9406SOL    HW229118   1.316   0.648   0.889
 9407SOL     OW29119   1.697   4.504   4.725
 9407SOL    HW129120   1.773   4.442   4.743
 9407SOL    HW229121   1.730   4.598   4.718
 9408SOL     OW29122   5.618   5.368   3.958
 9408SOL    HW129123   5.684   5.296   3.939
 9408SOL    HW229124   5.661   5.441   4.012
 9409SOL     OW29125   5.774   5.101   2.003
 9409SOL    HW129126   5.836   5.180   2.002
 9409SOL    HW229127   5.680   5.132   1.992
 9410SOL     OW29128   4.762   0.473   0.571
 9410SOL    HW129129   4.811   0.390   0.543
 9410SOL    HW229130   4.664   0.453   0.579
 9411SOL     OW29131   3.664   3.657   5.224
 9411SOL    HW129132   3.572   3.693   5.212
 9411SOL    HW229133   3.676   3.630   5.320
 9412SOL     OW29134   3.891   6.847   1.396
 9412SOL    HW129135   3.961   6.844   1.325
 9412SOL    HW229136   3.896   6.764   1.452
 9413SOL     OW29137   3.905   4.818   2.940
 9413SOL    HW129138   3.996   4.859   2.935
 9413SOL    HW229139   3.882   4.777   2.852
 9414SOL     OW29140   2.280   0.954   1.875
 9414SOL    HW129141   2.317   0.911   1.792
 9414SOL    HW229142   2.200   0.903   1.906
 9415SOL     OW29143   4.425   0.530   0.853
 9415SOL    HW129144   4.447   0.611   0.800
 9415SOL    HW229145   4.423   0.553   0.951
 9416SOL     OW29146   6.729   5.095   6.059
 9416SOL    HW129147   6.723   5.023   5.991
 9416SOL    HW229148   6.826   5.113   6.080
 9417SOL     OW29149   4.289   6.368   3.165
 9417SOL    HW129150   4.372   6.415   3.194
 9417SOL    HW229151   4.270   6.391   3.070
 9418SOL     OW29152   2.538   1.948   4.941
 9418SOL    HW129153   2.557   2.024   5.003
 9418SOL    HW229154   2.455   1.968   4.889
 9419SOL     OW29155   3.100   2.148   5.794
 9419SOL    HW129156   3.009   2.181   5.817
 9419SOL    HW229157   3.169   2.211   5.831
 9420SOL     OW29158   4.657   3.381   5.732
 9420SOL    HW129159   4.645   3.381   5.632
 9420SOL    HW229160   4.602   3.309   5.772
 9421SOL     OW29161   3.678   6.897   0.129
 9421SOL    HW129162   3.591   6.876   0.084
 9421SOL    HW229163   3.741   6.820   0.118
 9422SOL     OW29164   1.781   6.353   6.006
 9422SOL    HW129165   1.733   6.311   5.929
 9422SOL    HW229166   1.807   6.283   6.072
 9423SOL     OW29167   5.232   4.742   1.152
 9423SOL    HW129168   5.215   4.645   1.132
 9423SOL    HW229169   5.255   4.790   1.067
 9424SOL     OW29170   5.770   6.724   4.094
 9424SOL    HW129171   5.843   6.792   4.079
 9424SOL    HW229172   5.810   6.639   4.127
 9425SOL     OW29173   0.475   5.794   1.113
 9425SOL    HW129174   0.473   5.701   1.078
 9425SOL    HW229175   0.536   5.799   1.193
 9426SOL     OW29176   5.022   1.060   6.140
 9426SOL    HW129177   5.002   0.962   6.141
 9426SOL    HW229178   5.067   1.084   6.054
 9427SOL     OW29179   3.201   5.630   1.999
 9427SOL    HW129180   3.185   5.728   1.999
 9427SOL    HW229181   3.251   5.604   2.082
 9428SOL     OW29182   6.572   6.566   4.362
 9428SOL    HW129183   6.604   6.660   4.369
 9428SOL    HW229184   6.596   6.515   4.444
 9429SOL     OW29185   2.981   2.240   4.325
 9429SOL    HW129186   2.956   2.229   4.421
 9429SOL    HW229187   2.971   2.153   4.277
 9430SOL     OW29188   1.379   0.446   3.938
 9430SOL    HW129189   1.411   0.352   3.927
 9430SOL    HW229190   1.370   0.489   3.848
 9431SOL     OW29191   1.356   4.904   5.299
 9431SOL    HW129192   1.270   4.918   5.349
 9431SOL    HW229193   1.355   4.813   5.257
 9432SOL     OW29194   6.614   2.102   3.023
 9432SOL    HW129195   6.704   2.139   2.997
 9432SOL    HW229196   6.550   2.178   3.038
 9433SOL     OW29197   4.516   5.765   1.222
 9433SOL    HW129198   4.417   5.758   1.229
 9433SOL    HW229199   4.555   5.780   1.312
 9434SOL     OW29200   5.166   6.206   4.824
 9434SOL    HW129201   5.221   6.288   4.813
 9434SOL    HW229202   5.216   6.127   4.788
 9435SOL     OW29203   6.904   3.884   6.908
 9435SOL    HW129204   6.833   3.935   6.957
 9435SOL    HW229205   6.883   3.786   6.912
 9436SOL     OW29206   2.665   2.000   2.501
 9436SOL    HW129207   2.719   2.001   2.585
 9436SOL    HW229208   2.713   2.052   2.431
 9437SOL     OW29209   4.589   1.302   3.586
 9437SOL    HW129210   4.584   1.217   3.534
 9437SOL    HW229211   4.682   1.315   3.621
 9438SOL     OW29212   4.296   0.530   2.433
 9438SOL    HW129213   4.291   0.479   2.519
 9438SOL    HW229214   4.335   0.471   2.362
 9439SOL     OW29215   1.674   5.116   0.635
 9439SOL    HW129216   1.636   5.197   0.591
 9439SOL    HW229217   1.678   5.041   0.568
 9440SOL     OW29218   1.683   5.026   3.905
 9440SOL    HW129219   1.723   4.968   3.834
 9440SOL    HW229220   1.744   5.104   3.921
 9441SOL     OW29221   6.865   6.505   4.392
 9441SOL    HW129222   6.874   6.604   4.399
 9441SOL    HW229223   6.860   6.478   4.296
 9442SOL     OW29224   6.318   2.554   0.830
 9442SOL    HW129225   6.351   2.506   0.748
 9442SOL    HW229226   6.376   2.531   0.908
 9443SOL     OW29227   0.934   4.897   1.399
 9443SOL    HW129228   0.931   4.923   1.302
 9443SOL    HW229229   0.876   4.959   1.452
 9444SOL     OW29230   1.916   5.866   6.094
 9444SOL    HW129231   1.874   5.815   6.019
 9444SOL    HW229232   1.855   5.864   6.173
 9445SOL     OW29233   1.098   1.193   4.347
 9445SOL    HW129234   1.032   1.190   4.423
 9445SOL    HW229235   1.063   1.140   4.270
 9446SOL     OW29236   4.950   5.941   3.393
 9446SOL    HW129237   4.949   5.984   3.483
 9446SOL    HW229238   4.859   5.906   3.372
 9447SOL     OW29239   6.015   5.255   2.552
 9447SOL    HW129240   5.965   5.173   2.522
 9447SOL    HW229241   6.088   5.228   2.615
 9448SOL     OW29242   4.898   3.209   0.369
 9448SOL    HW129243   4.984   3.251   0.394
 9448SOL    HW229244   4.883   3.219   0.270
 9449SOL     OW29245   4.052   0.351   2.778
 9449SOL    HW129246   4.006   0.428   2.822
 9449SOL    HW229247   3.992   0.311   2.709
 9450SOL     OW29248   0.756   0.498   2.052
 9450SOL    HW129249   0.818   0.438   2.001
 9450SOL    HW229250   0.666   0.498   2.008
 9451SOL     OW29251   4.161   5.032   0.363
 9451SOL    HW129252   4.175   4.970   0.440
 9451SOL    HW229253   4.086   5.094   0.383
 9452SOL     OW29254   6.157   2.922   5.343
 9452SOL    HW129255   6.077   2.921   5.282
 9452SOL    HW229256   6.133   2.970   5.427
 9453SOL     OW29257   6.180   4.825   2.980
 9453SOL    HW129258   6.255   4.764   2.952
 9453SOL    HW229259   6.216   4.917   2.996
 9454SOL     OW29260   5.375   5.339   1.383
 9454SOL    HW129261   5.343   5.409   1.447
 9454SOL    HW229262   5.297   5.305   1.329
 9455SOL     OW29263   4.684   0.795   1.466
 9455SOL    HW129264   4.627   0.719   1.498
 9455SOL    HW229265   4.631   0.879   1.468
 9456SOL     OW29266   6.532   2.650   1.506
 9456SOL    HW129267   6.555   2.576   1.443
 9456SOL    HW229268   6.591   2.728   1.489
 9457SOL     OW29269   6.527   6.446   4.110
 9457SOL    HW129270   6.557   6.508   4.182
 9457SOL    HW229271   6.588   6.366   4.107
 9458SOL     OW29272   0.127   4.317   6.990
 9458SOL    HW129273   0.108   4.407   6.951
 9458SOL    HW229274   0.174   4.261   6.922
 9459SOL     OW29275   6.630   4.556   4.882
 9459SOL    HW129276   6.614   4.461   4.907
 9459SOL    HW229277   6.728   4.572   4.869
 9460SOL     OW29278   2.165   2.970   2.821
 9460SOL    HW129279   2.119   2.998   2.906
 9460SOL    HW229280   2.233   2.899   2.841
 9461SOL     OW29281   1.215   1.461   0.923
 9461SOL    HW129282   1.117   1.479   0.934
 9461SOL    HW229283   1.267   1.540   0.954
 9462SOL     OW29284   0.155   1.168   4.957
 9462SOL    HW129285   0.195   1.078   4.942
 9462SOL    HW229286   0.058   1.166   4.931
 9463SOL     OW29287   0.944   4.932   1.124
 9463SOL    HW129288   1.000   4.919   1.042
 9463SOL    HW229289   0.910   5.026   1.126
 9464SOL     OW29290   1.448   1.105   2.148
 9464SOL    HW129291   1.467   1.199   2.179
 9464SOL    HW229292   1.428   1.106   2.050
 9465SOL     OW29293   1.656   5.600   6.890
 9465SOL    HW129294   1.651   5.634   6.984
 9465SOL    HW229295   1.666   5.678   6.827
 9466SOL     OW29296   3.590   4.241   5.559
 9466SOL    HW129297   3.516   4.300   5.591
 9466SOL    HW229298   3.652   4.293   5.500
 9467SOL     OW29299   1.539   3.574   1.713
 9467SOL    HW129300   1.471   3.507   1.683
 9467SOL    HW229301   1.626   3.555   1.667
 9468SOL     OW29302   0.018   2.241   0.992
 9468SOL    HW129303   0.004   2.256   0.894
 9468SOL    HW229304   0.080   2.311   1.028
 9469SOL     OW29305   5.734   6.958   1.826
 9469SOL    HW129306   5.643   6.987   1.858
 9469SOL    HW229307   5.787   6.923   1.904
 9470SOL     OW29308   3.190   3.497   1.405
 9470SOL    HW129309   3.276   3.456   1.373
 9470SOL    HW229310   3.210   3.568   1.472
 9471SOL     OW29311   0.227   3.442   4.926
 9471SOL    HW129312   0.254   3.482   4.839
 9471SOL    HW229313   0.148   3.383   4.913
 9472SOL     OW29314   2.349   4.291   6.199
 9472SOL    HW129315   2.423   4.249   6.146
 9472SOL    HW229316   2.261   4.257   6.166
 9473SOL     OW29317   2.884   3.422   2.053
 9473SOL    HW129318   2.907   3.518   2.066
 9473SOL    HW229319   2.881   3.400   1.956
 9474SOL     OW29320   5.458   4.461   0.687
 9474SOL    HW129321   5.429   4.474   0.782
 9474SOL    HW229322   5.537   4.401   0.685
 9475SOL     OW29323   6.223   3.407   6.669
 9475SOL    HW129324   6.262   3.482   6.615
 9475SOL    HW229325   6.127   3.426   6.690
 9476SOL     OW29326   4.203   3.430   1.146
 9476SOL    HW129327   4.169   3.415   1.053
 9476SOL    HW229328   4.143   3.383   1.211
 9477SOL     OW29329   0.637   5.833   1.317
 9477SOL    HW129330   0.698   5.786   1.380
 9477SOL    HW229331   0.688   5.904   1.268
 9478SOL     OW29332   0.297   3.658   5.320
 9478SOL    HW129333   0.286   3.690   5.226
 9478SOL    HW229334   0.321   3.736   5.378
 9479SOL     OW29335   4.225   0.660   1.939
 9479SOL    HW129336   4.277   0.727   1.991
 9479SOL    HW229337   4.280   0.578   1.925
 9480SOL     OW29338   5.344   1.283   1.192
 9480SOL    HW129339   5.413   1.326   1.134
 9480SOL    HW229340   5.259   1.274   1.141
 9481SOL     OW29341   4.751   0.015   3.448
 9481SOL    HW129342   4.766   6.945   3.438
 9481SOL    HW229343   4.676   0.030   3.513
 9482SOL     OW29344   5.718   4.032   6.489
 9482SOL    HW129345   5.762   4.035   6.400
 9482SOL    HW229346   5.652   3.957   6.492
 9483SOL     OW29347   5.719   4.955   0.526
 9483SOL    HW129348   5.714   5.048   0.562
 9483SOL    HW229349   5.676   4.951   0.436
 9484SOL     OW29350   1.208   5.569   4.044
 9484SOL    HW129351   1.278   5.525   4.099
 9484SOL    HW229352   1.206   5.528   3.953
 9485SOL     OW29353   6.532   1.680   5.834
 9485SOL    HW129354   6.523   1.616   5.909
 9485SOL    HW229355   6.441   1.712   5.805
 9486SOL     OW29356   6.207   5.480   6.423
 9486SOL    HW129357   6.212   5.559   6.484
 9486SOL    HW229358   6.291   5.427   6.429
 9487SOL     OW29359   3.015   3.665   3.759
 9487SOL    HW129360   2.966   3.683   3.845
 9487SOL    HW229361   3.109   3.638   3.780
 9488SOL     OW29362   0.857   1.444   2.515
 9488SOL    HW129363   0.804   1.409   2.438
 9488SOL    HW229364   0.878   1.541   2.500
 9489SOL     OW29365   0.420   4.448   0.029
 9489SOL    HW129366   0.436   4.382   0.102
 9489SOL    HW229367   0.389   4.401   6.975
 9490SOL     OW29368   5.520   3.715   5.265
 9490SOL    HW129369   5.506   3.804   5.309
 9490SOL    HW229370   5.553   3.649   5.334
 9491SOL     OW29371   5.200   0.295   2.045
 9491SOL    HW129372   5.105   0.263   2.042
 9491SOL    HW229373   5.205   0.379   2.098
 9492SOL     OW29374   4.797   2.782   4.184
 9492SOL    HW129375   4.762   2.765   4.092
 9492SOL    HW229376   4.778   2.703   4.243
 9493SOL     OW29377   2.717   0.086   3.711
 9493SOL    HW129378   2.648   0.061   3.779
 9493SOL    HW229379   2.782   0.150   3.751
 9494SOL     OW29380   4.940   2.500   2.657
 9494SOL    HW129381   4.865   2.566   2.663
 9494SOL    HW229382   4.939   2.456   2.567
 9495SOL     OW29383   6.369   2.477   0.567
 9495SOL    HW129384   6.306   2.523   0.505
 9495SOL    HW229385   6.456   2.460   0.520
 9496SOL     OW29386   6.295   3.249   0.578
 9496SOL    HW129387   6.288   3.151   0.561
 9496SOL    HW229388   6.287   3.267   0.676
 9497SOL     OW29389   6.181   4.779   4.973
 9497SOL    HW129390   6.187   4.875   4.999
 9497SOL    HW229391   6.109   4.734   5.026
 9498SOL     OW29392   1.116   5.947   5.704
 9498SOL    HW129393   1.068   5.971   5.788
 9498SOL    HW229394   1.126   6.028   5.646
 9499SOL     OW29395   5.403   6.106   3.359
 9499SOL    HW129396   5.485   6.113   3.304
 9499SOL    HW229397   5.402   6.180   3.427
 9500SOL     OW29398   2.180   1.631   0.568
 9500SOL    HW129399   2.274   1.629   0.535
 9500SOL    HW229400   2.132   1.709   0.526
 9501SOL     OW29401   1.616   3.015   4.696
 9501SOL    HW129402   1.540   2.975   4.747
 9501SOL    HW229403   1.702   2.990   4.740
 9502SOL     OW29404   5.470   4.529   3.748
 9502SOL    HW129405   5.463   4.477   3.662
 9502SOL    HW229406   5.381   4.569   3.770
 9503SOL     OW29407   6.846   0.529   0.465
 9503SOL    HW129408   6.784   0.597   0.428
 9503SOL    HW229409   6.845   0.534   0.565
 9504SOL     OW29410   5.859   4.614   2.971
 9504SOL    HW129411   5.900   4.671   3.043
 9504SOL    HW229412   5.907   4.629   2.885
 9505SOL     OW29413   4.984   2.996   6.952
 9505SOL    HW129414   5.001   3.033   0.015
 9505SOL    HW229415   5.024   3.056   6.883
 9506SOL     OW29416   3.986   0.479   1.798
 9506SOL    HW129417   3.979   0.575   1.827
 9506SOL    HW229418   3.953   0.420   1.871
 9507SOL     OW29419   6.772   6.072   1.154
 9507SOL    HW129420   6.714   5.997   1.186
 9507SOL    HW229421   6.865   6.038   1.139
 9508SOL     OW29422   4.816   1.983   2.253
 9508SOL    HW129423   4.768   1.936   2.179
 9508SOL    HW229424   4.830   1.918   2.329
 9509SOL     OW29425   5.343   1.484   4.063
 9509SOL    HW129426   5.347   1.574   4.106
 9509SOL    HW229427   5.371   1.414   4.129
 9510SOL     OW29428   1.860   3.372   2.525
 9510SOL    HW129429   1.794   3.437   2.487
 9510SOL    HW229430   1.945   3.376   2.473
 9511SOL     OW29431   0.680   1.306   0.880
 9511SOL    HW129432   0.636   1.216   0.871
 9511SOL    HW229433   0.664   1.359   0.796
 9512SOL     OW29434   6.228   2.541   1.702
 9512SOL    HW129435   6.275   2.629   1.704
 9512SOL    HW229436   6.293   2.469   1.727
 9513SOL     OW29437   5.237   3.548   4.200
 9513SOL    HW129438   5.293   3.630   4.215
 9513SOL    HW229439   5.141   3.569   4.218
 9514SOL     OW29440   3.960   3.135   1.038
 9514SOL    HW129441   4.019   3.057   1.059
 9514SOL    HW229442   3.885   3.138   1.104
 9515SOL     OW29443   6.270   6.596   2.904
 9515SOL    HW129444   6.346   6.536   2.932
 9515SOL    HW229445   6.221   6.554   2.829
 9516SOL     OW29446   1.339   2.341   0.219
 9516SOL    HW129447   1.244   2.330   0.191
 9516SOL    HW229448   1.344   2.403   0.297
 9517SOL     OW29449   0.228   6.335   2.587
 9517SOL    HW129450   0.309   6.383   2.619
 9517SOL    HW229451   0.163   6.401   2.549
 9518SOL     OW29452   6.168   0.243   0.899
 9518SOL    HW129453   6.226   0.244   0.818
 9518SOL    HW229454   6.091   0.305   0.885
 9519SOL     OW29455   1.571   2.897   5.606
 9519SOL    HW129456   1.571   2.801   5.636
 9519SOL    HW229457   1.496   2.946   5.650
 9520SOL     OW29458   3.669   6.557   1.803
 9520SOL    HW129459   3.690   6.533   1.898
 9520SOL    HW229460   3.710   6.645   1.780
 9521SOL     OW29461   5.592   5.324   3.022
 9521SOL    HW129462   5.572   5.421   3.039
 9521SOL    HW229463   5.639   5.286   3.101
 9522SOL     OW29464   3.543   4.838   5.397
 9522SOL    HW129465   3.449   4.866   5.379
 9522SOL    HW229466   3.565   4.857   5.493
 9523SOL     OW29467   1.718   6.998   4.431
 9523SOL    HW129468   1.729   6.927   4.361
 9523SOL    HW229469   1.793   6.992   4.497
 9524SOL     OW29470   6.007   3.348   0.382
 9524SOL    HW129471   5.939   3.378   0.449
 9524SOL    HW229472   5.983   3.256   0.350
 9525SOL     OW29473   4.467   0.601   4.226
 9525SOL    HW129474   4.415   0.579   4.144
 9525SOL    HW229475   4.410   0.589   4.307
 9526SOL     OW29476   4.966   5.569   0.988
 9526SOL    HW129477   4.942   5.478   0.956
 9526SOL    HW229478   4.915   5.637   0.935
 9527SOL     OW29479   0.168   0.962   0.298
 9527SOL    HW129480   0.107   0.897   0.252
 9527SOL    HW229481   0.196   1.033   0.234
 9528SOL     OW29482   5.378   1.147   2.174
 9528SOL    HW129483   5.373   1.060   2.125
 9528SOL    HW229484   5.469   1.157   2.215
 9529SOL     OW29485   1.453   2.393   5.477
 9529SOL    HW129486   1.355   2.413   5.480
 9529SOL    HW229487   1.491   2.427   5.390
 9530SOL     OW29488   2.603   1.513   3.472
 9530SOL    HW129489   2.516   1.523   3.424
 9530SOL    HW229490   2.605   1.574   3.552
 9531SOL     OW29491   2.477   6.324   3.935
 9531SOL    HW129492   2.572   6.302   3.913
 9531SOL    HW229493   2.472   6.363   4.027
 9532SOL     OW29494   3.320   1.158   1.701
 9532SOL    HW129495   3.368   1.235   1.660
 9532SOL    HW229496   3.223   1.162   1.677
 9533SOL     OW29497   0.247   1.569   3.742
 9533SOL    HW129498   0.315   1.495   3.745
 9533SOL    HW229499   0.266   1.628   3.664
 9534SOL     OW29500   4.889   1.598   4.243
 9534SOL    HW129501   4.929   1.689   4.229
 9534SOL    HW229502   4.872   1.584   4.341
 9535SOL     OW29503   3.133   1.700   4.668
 9535SOL    HW129504   3.190   1.754   4.606
 9535SOL    HW229505   3.146   1.732   4.762
 9536SOL     OW29506   2.133   5.795   6.457
 9536SOL    HW129507   2.140   5.774   6.359
 9536SOL    HW229508   2.130   5.709   6.508
 9537SOL     OW29509   2.216   0.202   0.019
 9537SOL    HW129510   2.221   0.149   6.963
 9537SOL    HW229511   2.124   0.196   0.057
 9538SOL     OW29512   5.545   3.980   3.125
 9538SOL    HW129513   5.474   4.024   3.180
 9538SOL    HW229514   5.544   3.882   3.143
 9539SOL     OW29515   1.512   2.606   0.759
 9539SOL    HW129516   1.501   2.592   0.661
 9539SOL    HW229517   1.436   2.661   0.794
 9540SOL     OW29518   6.049   3.558   5.565
 9540SOL    HW129519   5.957   3.590   5.541
 9540SOL    HW229520   6.049   3.458   5.574
 9541SOL     OW29521   6.186   2.447   2.802
 9541SOL    HW129522   6.178   2.498   2.887
 9541SOL    HW229523   6.095   2.433   2.762
 9542SOL     OW29524   4.910   3.829   4.445
 9542SOL    HW129525   4.896   3.749   4.386
 9542SOL    HW229526   4.990   3.880   4.413
 9543SOL     OW29527   4.126   2.377   0.020
 9543SOL    HW129528   4.091   2.335   6.964
 9543SOL    HW229529   4.180   2.310   0.071
 9544SOL     OW29530   5.014   6.770   1.011
 9544SOL    HW129531   5.052   6.749   1.101
 9544SOL    HW229532   5.071   6.840   0.966
 9545SOL     OW29533   1.159   0.493   4.357
 9545SOL    HW129534   1.133   0.460   4.266
 9545SOL    HW229535   1.082   0.479   4.420
 9546SOL     OW29536   3.063   4.331   1.695
 9546SOL    HW129537   3.126   4.396   1.652
 9546SOL    HW229538   2.997   4.380   1.752
 9547SOL     OW29539   5.336   0.193   2.553
 9547SOL    HW129540   5.415   0.178   2.493
 9547SOL    HW229541   5.290   0.107   2.571
 9548SOL     OW29542   6.063   6.608   1.893
 9548SOL    HW129543   6.038   6.534   1.831
 9548SOL    HW229544   5.984   6.668   1.907
 9549SOL     OW29545   2.277   6.182   0.068
 9549SOL    HW129546   2.338   6.247   0.115
 9549SOL    HW229547   2.203   6.156   0.129
 9550SOL     OW29548   1.304   0.996   0.783
 9550SOL    HW129549   1.302   1.062   0.858
 9550SOL    HW229550   1.293   0.903   0.820
 9551SOL     OW29551   1.269   5.752   4.654
 9551SOL    HW129552   1.354   5.754   4.603
 9551SOL    HW229553   1.288   5.749   4.752
 9552SOL     OW29554   6.577   5.638   3.158
 9552SOL    HW129555   6.478   5.642   3.146
 9552SOL    HW229556   6.618   5.586   3.084
 9553SOL     OW29557   4.853   4.900   6.715
 9553SOL    HW129558   4.855   4.962   6.637
 9553SOL    HW229559   4.891   4.946   6.795
 9554SOL     OW29560   1.456   2.992   1.721
 9554SOL    HW129561   1.552   3.003   1.747
 9554SOL    HW229562   1.400   3.058   1.771
 9555SOL     OW29563   0.763   2.333   6.312
 9555SOL    HW129564   0.681   2.375   6.273
 9555SOL    HW229565   0.740   2.294   6.402
 9556SOL     OW29566   5.363   1.686   1.697
 9556SOL    HW129567   5.389   1.724   1.608
 9556SOL    HW229568   5.444   1.681   1.756
 9557SOL     OW29569   4.871   1.974   1.059
 9557SOL    HW129570   4.901   2.065   1.029
 9557SOL    HW229571   4.945   1.931   1.111
 9558SOL     OW29572   6.863   3.784   1.694
 9558SOL    HW129573   6.882   3.826   1.605
 9558SOL    HW229574   6.908   3.694   1.698
 9559SOL     OW29575   0.105   4.668   3.197
 9559SOL    HW129576   0.012   4.690   3.224
 9559SOL    HW229577   0.127   4.574   3.225
 9560SOL     OW29578   3.598   2.363   5.834
 9560SOL    HW129579   3.518   2.421   5.826
 9560SOL    HW229580   3.681   2.418   5.824
 9561SOL     OW29581   3.309   5.095   6.525
 9561SOL    HW129582   3.221   5.060   6.556
 9561SOL    HW229583   3.371   5.019   6.506
 9562SOL     OW29584   6.109   5.823   4.155
 9562SOL    HW129585   6.160   5.787   4.077
 9562SOL    HW229586   6.033   5.880   4.122
 9563SOL     OW29587   0.687   1.407   5.645
 9563SOL    HW129588   0.656   1.501   5.652
 9563SOL    HW229589   0.693   1.380   5.549
 9564SOL     OW29590   6.724   0.223   5.941
 9564SOL    HW129591   6.702   0.160   6.016
 9564SOL    HW229592   6.665   0.203   5.863
 9565SOL     OW29593   2.935   5.431   5.258
 9565SOL    HW129594   2.864   5.493   5.291
 9565SOL    HW229595   2.972   5.379   5.336
 9566SOL     OW29596   2.472   6.036   5.376
 9566SOL    HW129597   2.396   5.996   5.425
 9566SOL    HW229598   2.440   6.114   5.321
 9567SOL     OW29599   5.508   6.059   3.092
 9567SOL    HW129600   5.604   6.085   3.099
 9567SOL    HW229601   5.501   5.965   3.060
 9568SOL     OW29602   6.599   3.476   4.598
 9568SOL    HW129603   6.669   3.426   4.648
 9568SOL    HW229604   6.516   3.482   4.654
 9569SOL     OW29605   5.158   0.308   0.711
 9569SOL    HW129606   5.059   0.296   0.719
 9569SOL    HW229607   5.204   0.243   0.772
 9570SOL     OW29608   0.689   3.736   6.649
 9570SOL    HW129609   0.738   3.724   6.563
 9570SOL    HW229610   0.661   3.832   6.659
 9571SOL     OW29611   3.598   1.892   0.700
 9571SOL    HW129612   3.503   1.898   0.672
 9571SOL    HW229613   3.604   1.843   0.787
 9572SOL     OW29614   0.948   3.609   1.199
 9572SOL    HW129615   1.035   3.585   1.241
 9572SOL    HW229616   0.956   3.603   1.099
 9573SOL     OW29617   4.308   2.057   1.716
 9573SOL    HW129618   4.344   2.012   1.798
 9573SOL    HW229619   4.214   2.027   1.701
 9574SOL     OW29620   1.765   1.455   2.869
 9574SOL    HW129621   1.736   1.364   2.897
 9574SOL    HW229622   1.693   1.521   2.890
 9575SOL     OW29623   2.976   1.559   2.626
 9575SOL    HW129624   2.968   1.652   2.590
 9575SOL    HW229625   3.035   1.560   2.707
 9576SOL     OW29626   4.579   2.797   5.619
 9576SOL    HW129627   4.505   2.748   5.571
 9576SOL    HW229628   4.667   2.766   5.583
 9577SOL     OW29629   0.609   6.035   3.730
 9577SOL    HW129630   0.522   6.064   3.690
 9577SOL    HW229631   0.592   5.980   3.812
 9578SOL     OW29632   6.511   4.156   1.766
 9578SOL    HW129633   6.411   4.151   1.764
 9578SOL    HW229634   6.540   4.252   1.770
 9579SOL     OW29635   1.400   4.796   2.647
 9579SOL    HW129636   1.363   4.741   2.572
 9579SOL    HW229637   1.472   4.856   2.612
 9580SOL     OW29638   3.759   3.762   4.976
 9580SOL    HW129639   3.753   3.860   4.959
 9580SOL    HW229640   3.698   3.737   5.051
 9581SOL     OW29641   0.404   0.068   6.714
 9581SOL    HW129642   0.345   7.015   6.717
 9581SOL    HW229643   0.351   0.149   6.737
 9582SOL     OW29644   4.371   5.228   2.629
 9582SOL    HW129645   4.417   5.229   2.717
 9582SOL    HW229646   4.318   5.143   2.620
 9583SOL     OW29647   1.358   5.138   2.717
 9583SOL    HW129648   1.317   5.147   2.808
 9583SOL    HW229649   1.288   5.116   2.650
 9584SOL     OW29650   5.070   4.729   0.136
 9584SOL    HW129651   5.125   4.809   0.161
 9584SOL    HW229652   5.004   4.710   0.209
 9585SOL     OW29653   5.714   1.879   2.142
 9585SOL    HW129654   5.800   1.930   2.149
 9585SOL    HW229655   5.735   1.781   2.137
 9586SOL     OW29656   3.829   5.055   2.428
 9586SOL    HW129657   3.854   5.080   2.521
 9586SOL    HW229658   3.889   5.102   2.364
 9587SOL     OW29659   4.305   6.546   1.949
 9587SOL    HW129660   4.239   6.611   1.910
 9587SOL    HW229661   4.266   6.503   2.030
 9588SOL     OW29662   5.829   1.646   3.544
 9588SOL    HW129663   5.841   1.625   3.641
 9588SOL    HW229664   5.908   1.611   3.493
 9589SOL     OW29665   4.192   1.896   5.204
 9589SOL    HW129666   4.131   1.975   5.195
 9589SOL    HW229667   4.152   1.817   5.158
 9590SOL     OW29668   6.728   4.999   5.435
 9590SOL    HW129669   6.810   4.980   5.490
 9590SOL    HW229670   6.694   4.914   5.396
 9591SOL     OW29671   0.130   4.124   2.245
 9591SOL    HW129672   0.182   4.042   2.268
 9591SOL    HW229673   0.056   4.100   2.182
 9592SOL     OW29674   3.762   5.426   0.898
 9592SOL    HW129675   3.712   5.485   0.961
 9592SOL    HW229676   3.850   5.401   0.940
 9593SOL     OW29677   2.100   2.812   3.426
 9593SOL    HW129678   2.134   2.808   3.332
 9593SOL    HW229679   2.024   2.747   3.437
 9594SOL     OW29680   5.923   0.360   0.387
 9594SOL    HW129681   5.981   0.304   0.446
 9594SOL    HW229682   5.906   0.311   0.301
 9595SOL     OW29683   1.983   4.344   5.374
 9595SOL    HW129684   2.081   4.360   5.387
 9595SOL    HW229685   1.965   4.327   5.277
 9596SOL     OW29686   5.362   4.426   2.401
 9596SOL    HW129687   5.289   4.449   2.336
 9596SOL    HW229688   5.436   4.491   2.391
 9597SOL     OW29689   1.512   4.039   2.076
 9597SOL    HW129690   1.595   4.084   2.110
 9597SOL    HW229691   1.500   3.951   2.123
 9598SOL     OW29692   0.805   6.294   4.833
 9598SOL    HW129693   0.773   6.202   4.854
 9598SOL    HW229694   0.726   6.353   4.815
 9599SOL     OW29695   4.039   2.238   5.536
 9599SOL    HW129696   3.948   2.254   5.575
 9599SOL    HW229697   4.059   2.307   5.467
 9600SOL     OW29698   1.620   5.344   6.863
 9600SOL    HW129699   1.619   5.444   6.860
 9600SOL    HW229700   1.648   5.314   6.954
 9601SOL     OW29701   1.237   0.454   5.427
 9601SOL    HW129702   1.224   0.356   5.410
 9601SOL    HW229703   1.228   0.472   5.526
 9602SOL     OW29704   0.785   5.798   6.136
 9602SOL    HW129705   0.704   5.851   6.161
 9602SOL    HW229706   0.781   5.776   6.038
 9603SOL     OW29707   1.155   5.224   2.021
 9603SOL    HW129708   1.160   5.149   1.956
 9603SOL    HW229709   1.082   5.206   2.087
 9604SOL     OW29710   6.094   0.300   5.937
 9604SOL    HW129711   6.137   0.380   5.977
 9604SOL    HW229712   5.997   0.318   5.921
 9605SOL     OW29713   3.128   5.135   0.259
 9605SOL    HW129714   3.136   5.181   0.170
 9605SOL    HW229715   3.135   5.203   0.331
 9606SOL     OW29716   6.720   1.560   4.683
 9606SOL    HW129717   6.650   1.615   4.638
 9606SOL    HW229718   6.800   1.616   4.702
 9607SOL     OW29719   6.495   3.744   3.748
 9607SOL    HW129720   6.452   3.834   3.740
 9607SOL    HW229721   6.569   3.749   3.815
 9608SOL     OW29722   6.274   0.974   1.246
 9608SOL    HW129723   6.349   1.018   1.196
 9608SOL    HW229724   6.210   0.934   1.180
 9609SOL     OW29725   0.707   2.116   3.594
 9609SOL    HW129726   0.661   2.205   3.596
 9609SOL    HW229727   0.715   2.085   3.499
 9610SOL     OW29728   5.350   1.264   6.139
 9610SOL    HW129729   5.444   1.292   6.161
 9610SOL    HW229730   5.351   1.174   6.095
 9611SOL     OW29731   5.087   5.079   1.953
 9611SOL    HW129732   5.057   5.100   2.046
 9611SOL    HW229733   5.017   5.108   1.888
 9612SOL     OW29734   4.639   4.232   3.501
 9612SOL    HW129735   4.638   4.293   3.581
 9612SOL    HW229736   4.602   4.143   3.527
 9613SOL     OW29737   4.066   1.400   4.668
 9613SOL    HW129738   3.979   1.357   4.644
 9613SOL    HW229739   4.063   1.497   4.642
 9614SOL     OW29740   3.553   2.726   6.766
 9614SOL    HW129741   3.506   2.649   6.809
 9614SOL    HW229742   3.516   2.739   6.673
 9615SOL     OW29743   6.291   6.445   3.493
 9615SOL    HW129744   6.197   6.477   3.497
 9615SOL    HW229745   6.307   6.399   3.405
 9616SOL     OW29746   0.123   2.080   7.011
 9616SOL    HW129747   0.026   2.096   0.004
 9616SOL    HW229748   0.167   2.033   0.060
 9617SOL     OW29749   1.423   3.545   3.773
 9617SOL    HW129750   1.488   3.567   3.846
 9617SOL    HW229751   1.336   3.516   3.814
 9618SOL     OW29752   5.148   4.209   1.367
 9618SOL    HW129753   5.227   4.256   1.406
 9618SOL    HW229754   5.092   4.170   1.440
 9619SOL     OW29755   1.748   1.458   0.523
 9619SOL    HW129756   1.781   1.379   0.471
 9619SOL    HW229757   1.688   1.513   0.466
 9620SOL     OW29758   3.394   1.350   6.527
 9620SOL    HW129759   3.348   1.380   6.444
 9620SOL    HW229760   3.329   1.301   6.585
 9621SOL     OW29761   0.013   0.310   0.184
 9621SOL    HW129762   0.038   0.287   0.278
 9621SOL    HW229763   6.952   0.270   0.162
 9622SOL     OW29764   6.515   0.100   4.707
 9622SOL    HW129765   6.462   0.051   4.638
 9622SOL    HW229766   6.490   0.068   4.798
 9623SOL     OW29767   2.299   5.667   5.957
 9623SOL    HW129768   2.228   5.617   5.908
 9623SOL    HW229769   2.375   5.604   5.977
 9624SOL     OW29770   4.329   5.447   6.831
 9624SOL    HW129771   4.337   5.405   6.922
 9624SOL    HW229772   4.354   5.380   6.762
 9625SOL     OW29773   5.030   3.675   5.975
 9625SOL    HW129774   5.107   3.637   5.923
 9625SOL    HW229775   4.944   3.640   5.938
 9626SOL     OW29776   2.873   2.509   0.254
 9626SOL    HW129777   2.887   2.555   0.166
 9626SOL    HW229778   2.788   2.540   0.295
 9627SOL     OW29779   0.161   5.201   0.442
 9627SOL    HW129780   0.067   5.201   0.475
 9627SOL    HW229781   0.222   5.177   0.518
 9628SOL     OW29782   6.028   1.828   5.511
 9628SOL    HW129783   5.989   1.736   5.510
 9628SOL    HW229784   5.989   1.881   5.586
 9629SOL     OW29785   0.442   5.928   3.968
 9629SOL    HW129786   0.529   5.916   4.017
 9629SOL    HW229787   0.408   5.839   3.938
 9630SOL     OW29788   6.200   0.359   5.257
 9630SOL    HW129789   6.108   0.335   5.291
 9630SOL    HW229790   6.231   0.442   5.303
 9631SOL     OW29791   4.488   5.699   0.242
 9631SOL    HW129792   4.438   5.613   0.233
 9631SOL    HW229793   4.438   5.759   0.305
 9632SOL     OW29794   2.429   5.404   3.109
 9632SOL    HW129795   2.369   5.425   3.032
 9632SOL    HW229796   2.466   5.312   3.099
 9633SOL     OW29797   2.494   3.052   5.605
 9633SOL    HW129798   2.413   3.016   5.560
 9633SOL    HW229799   2.572   3.050   5.542
 9634SOL     OW29800   5.461   4.697   2.970
 9634SOL    HW129801   5.536   4.762   2.963
 9634SOL    HW229802   5.395   4.729   3.038
 9635SOL     OW29803   0.576   5.309   3.911
 9635SOL    HW129804   0.512   5.370   3.958
 9635SOL    HW229805   0.595   5.346   3.820
 9636SOL     OW29806   4.929   3.644   3.711
 9636SOL    HW129807   4.929   3.552   3.673
 9636SOL    HW229808   5.016   3.689   3.691
 9637SOL     OW29809   3.387   2.556   6.010
 9637SOL    HW129810   3.339   2.549   6.098
 9637SOL    HW229811   3.359   2.481   5.950
 9638SOL     OW29812   1.256   4.156   6.100
 9638SOL    HW129813   1.249   4.088   6.028
 9638SOL    HW229814   1.168   4.165   6.147
 9639SOL     OW29815   5.764   3.048   0.902
 9639SOL    HW129816   5.726   2.957   0.919
 9639SOL    HW229817   5.737   3.079   0.811
 9640SOL     OW29818   2.612   5.790   3.389
 9640SOL    HW129819   2.625   5.757   3.482
 9640SOL    HW229820   2.653   5.725   3.324
 9641SOL     OW29821   0.735   2.595   4.428
 9641SOL    HW129822   0.711   2.529   4.357
 9641SOL    HW229823   0.686   2.573   4.512
 9642SOL     OW29824   0.964   3.077   4.632
 9642SOL    HW129825   0.899   3.005   4.611
 9642SOL    HW229826   1.056   3.047   4.608
 9643SOL     OW29827   6.548   5.775   4.595
 9643SOL    HW129828   6.449   5.771   4.610
 9643SOL    HW229829   6.585   5.682   4.596
 9644SOL     OW29830   0.974   5.058   3.828
 9644SOL    HW129831   0.949   5.034   3.734
 9644SOL    HW229832   0.895   5.046   3.888
 9645SOL     OW29833   0.346   4.728   0.981
 9645SOL    HW129834   0.383   4.821   0.981
 9645SOL    HW229835   0.251   4.730   1.014
 9646SOL     OW29836   2.058   4.703   0.710
 9646SOL    HW129837   2.114   4.701   0.792
 9646SOL    HW229838   2.116   4.717   0.630
 9647SOL     OW29839   4.966   0.323   2.703
 9647SOL    HW129840   4.969   0.231   2.741
 9647SOL    HW229841   4.929   0.386   2.771
 9648SOL     OW29842   4.002   1.664   1.096
 9648SOL    HW129843   4.061   1.599   1.048
 9648SOL    HW229844   4.056   1.720   1.157
 9649SOL     OW29845   0.222   5.390   0.232
 9649SOL    HW129846   0.320   5.369   0.235
 9649SOL    HW229847   0.178   5.350   0.313
 9650SOL     OW29848   7.014   5.277   5.782
 9650SOL    HW129849   0.002   5.205   5.849
 9650SOL    HW229850   6.989   5.237   5.694
 9651SOL     OW29851   4.267   1.151   0.894
 9651SOL    HW129852   4.284   1.201   0.979
 9651SOL    HW229853   4.352   1.140   0.844
 9652SOL     OW29854   0.603   3.900   7.014
 9652SOL    HW129855   0.609   3.904   6.914
 9652SOL    HW229856   0.509   3.917   0.014
 9653SOL     OW29857   5.920   3.550   5.217
 9653SOL    HW129858   5.854   3.545   5.292
 9653SOL    HW229859   5.912   3.639   5.171
 9654SOL     OW29860   3.799   3.420   4.561
 9654SOL    HW129861   3.791   3.465   4.650
 9654SOL    HW229862   3.728   3.350   4.554
 9655SOL     OW29863   4.310   1.058   0.278
 9655SOL    HW129864   4.350   0.975   0.240
 9655SOL    HW229865   4.219   1.073   0.239
 9656SOL     OW29866   5.248   4.676   4.889
 9656SOL    HW129867   5.296   4.760   4.866
 9656SOL    HW229868   5.203   4.639   4.808
 9657SOL     OW29869   5.082   4.641   2.441
 9657SOL    HW129870   5.114   4.595   2.359
 9657SOL    HW229871   5.041   4.575   2.503
 9658SOL     OW29872   4.721   1.374   2.992
 9658SOL    HW129873   4.798   1.313   3.007
 9658SOL    HW229874   4.702   1.426   3.076
 9659SOL     OW29875   4.539   3.084   0.160
 9659SOL    HW129876   4.614   3.020   0.174
 9659SOL    HW229877   4.452   3.040   0.182
 9660SOL     OW29878   2.172   0.341   1.624
 9660SOL    HW129879   2.135   0.279   1.694
 9660SOL    HW229880   2.126   0.430   1.631
 9661SOL     OW29881   3.681   3.432   2.461
 9661SOL    HW129882   3.758   3.447   2.398
 9661SOL    HW229883   3.653   3.519   2.501
 9662SOL     OW29884   4.127   0.676   4.853
 9662SOL    HW129885   4.095   0.750   4.912
 9662SOL    HW229886   4.055   0.653   4.787
 9663SOL     OW29887   1.345   6.019   1.883
 9663SOL    HW129888   1.299   5.997   1.797
 9663SOL    HW229889   1.284   5.999   1.960
 9664SOL     OW29890   1.578   4.537   2.420
 9664SOL    HW129891   1.494   4.592   2.426
 9664SOL    HW229892   1.657   4.596   2.437
 9665SOL     OW29893   6.103   3.573   0.196
 9665SOL    HW129894   6.036   3.506   0.229
 9665SOL    HW229895   6.131   3.548   0.104
 9666SOL     OW29896   5.145   4.448   1.160
 9666SOL    HW129897   5.053   4.457   1.121
 9666SOL    HW229898   5.153   4.359   1.204
 9667SOL     OW29899   5.627   5.845   0.159
 9667SOL    HW129900   5.723   5.827   0.178
 9667SOL    HW229901   5.587   5.898   0.234
 9668SOL     OW29902   1.955   0.683   0.316
 9668SOL    HW129903   1.907   0.706   0.400
 9668SOL    HW229904   1.920   0.739   0.241
 9669SOL     OW29905   3.290   6.949   0.613
 9669SOL    HW129906   3.324   0.011   0.639
 9669SOL    HW229907   3.358   6.902   0.558
 9670SOL     OW29908   0.978   6.936   2.675
 9670SOL    HW129909   0.997   6.847   2.634
 9670SOL    HW229910   1.021   6.940   2.766
 9671SOL     OW29911   1.282   5.393   6.511
 9671SOL    HW129912   1.328   5.482   6.506
 9671SOL    HW229913   1.347   5.325   6.547
 9672SOL     OW29914   0.818   4.239   4.249
 9672SOL    HW129915   0.727   4.263   4.282
 9672SOL    HW229916   0.810   4.195   4.159
 9673SOL     OW29917   2.022   2.896   5.383
 9673SOL    HW129918   2.069   2.901   5.471
 9673SOL    HW229919   2.081   2.852   5.315
 9674SOL     OW29920   1.835   0.662   3.589
 9674SOL    HW129921   1.879   0.575   3.567
 9674SOL    HW229922   1.793   0.700   3.506
 9675SOL     OW29923   6.871   4.023   6.100
 9675SOL    HW129924   6.953   4.065   6.062
 9675SOL    HW229925   6.847   4.069   6.186
 9676SOL     OW29926   0.680   2.877   6.225
 9676SOL    HW129927   0.776   2.903   6.222
 9676SOL    HW229928   0.664   2.817   6.303
 9677SOL     OW29929   0.658   4.892   3.439
 9677SOL    HW129930   0.737   4.904   3.380
 9677SOL    HW229931   0.678   4.823   3.509
 9678SOL     OW29932   4.495   2.716   6.494
 9678SOL    HW129933   4.595   2.709   6.493
 9678SOL    HW229934   4.462   2.743   6.403
 9679SOL     OW29935   1.952   1.080   4.463
 9679SOL    HW129936   2.047   1.055   4.444
 9679SOL    HW229937   1.895   1.062   4.383
 9680SOL     OW29938   4.376   6.532   2.886
 9680SOL    HW129939   4.290   6.499   2.927
 9680SOL    HW229940   4.446   6.461   2.895
 9681SOL     OW29941   0.655   2.424   1.075
 9681SOL    HW129942   0.582   2.393   1.015
 9681SOL    HW229943   0.691   2.345   1.126
 9682SOL     OW29944   3.741   6.461   4.982
 9682SOL    HW129945   3.787   6.495   5.064
 9682SOL    HW229946   3.662   6.406   5.009
 9683SOL     OW29947   3.056   5.654   3.899
 9683SOL    HW129948   3.141   5.682   3.943
 9683SOL    HW229949   3.051   5.554   3.897
 9684SOL     OW29950   1.153   2.596   6.317
 9684SOL    HW129951   1.237   2.545   6.334
 9684SOL    HW229952   1.074   2.538   6.340
 9685SOL     OW29953   3.807   4.791   1.777
 9685SOL    HW129954   3.860   4.714   1.811
 9685SOL    HW229955   3.710   4.771   1.783
 9686SOL     OW29956   1.310   1.748   5.996
 9686SOL    HW129957   1.282   1.659   6.031
 9686SOL    HW229958   1.383   1.736   5.928
 9687SOL     OW29959   5.645   0.317   3.711
 9687SOL    HW129960   5.596   0.272   3.786
 9687SOL    HW229961   5.602   0.293   3.624
 9688SOL     OW29962   1.089   5.186   2.590
 9688SOL    HW129963   1.031   5.142   2.659
 9688SOL    HW229964   1.110   5.120   2.518
 9689SOL     OW29965   1.740   5.954   0.938
 9689SOL    HW129966   1.786   5.866   0.933
 9689SOL    HW229967   1.670   5.952   1.009
 9690SOL     OW29968   6.433   4.776   3.578
 9690SOL    HW129969   6.472   4.684   3.576
 9690SOL    HW229970   6.349   4.776   3.632
 9691SOL     OW29971   4.071   3.757   2.265
 9691SOL    HW129972   4.086   3.704   2.181
 9691SOL    HW229973   4.124   3.842   2.260
 9692SOL     OW29974   6.856   5.429   0.149
 9692SOL    HW129975   6.775   5.384   0.189
 9692SOL    HW229976   6.900   5.368   0.084
 9693SOL     OW29977   4.209   4.001   7.006
 9693SOL    HW129978   4.158   4.082   6.974
 9693SOL    HW229979   4.180   3.978   0.070
 9694SOL     OW29980   2.307   5.687   1.136
 9694SOL    HW129981   2.277   5.595   1.109
 9694SOL    HW229982   2.310   5.693   1.236
 9695SOL     OW29983   1.053   2.908   3.468
 9695SOL    HW129984   1.006   2.861   3.542
 9695SOL    HW229985   1.151   2.908   3.486
 9696SOL     OW29986   4.545   4.414   3.305
 9696SOL    HW129987   4.579   4.336   3.358
 9696SOL    HW229988   4.567   4.401   3.209
 9697SOL     OW29989   6.843   6.971   3.297
 9697SOL    HW129990   6.913   7.020   3.247
 9697SOL    HW229991   6.759   6.968   3.243
 9698SOL     OW29992   0.524   2.613   1.244
 9698SOL    HW129993   0.574   2.678   1.301
 9698SOL    HW229994   0.584   2.575   1.174
 9699SOL     OW29995   1.678   0.256   2.392
 9699SOL    HW129996   1.703   0.159   2.396
 9699SOL    HW229997   1.582   0.266   2.418
 9700SOL     OW29998   6.344   0.582   6.115
 9700SOL    HW129999   6.437   0.593   6.082
 9700SOL    HW230000   6.279   0.601   6.041
 9701SOL     OW30001   5.776   3.665   6.680
 9701SOL    HW130002   5.846   3.598   6.656
 9701SOL    HW230003   5.816   3.757   6.679
 9702SOL     OW30004   2.945   3.684   2.066
 9702SOL    HW130005   3.004   3.745   2.013
 9702SOL    HW230006   2.913   3.732   2.148
 9703SOL     OW30007   6.026   4.941   3.367
 9703SOL    HW130008   5.974   4.863   3.401
 9703SOL    HW230009   6.110   4.951   3.420
 9704SOL     OW30010   0.643   5.429   1.984
 9704SOL    HW130011   0.646   5.401   1.888
 9704SOL    HW230012   0.548   5.431   2.015
 9705SOL     OW30013   0.163   4.166   5.402
 9705SOL    HW130014   0.118   4.235   5.458
 9705SOL    HW230015   0.096   4.103   5.365
 9706SOL     OW30016   6.991   6.806   2.566
 9706SOL    HW130017   0.027   6.876   2.533
 9706SOL    HW230018   6.990   6.806   2.666
 9707SOL     OW30019   1.558   4.570   1.342
 9707SOL    HW130020   1.487   4.527   1.399
 9707SOL    HW230021   1.598   4.501   1.282
 9708SOL     OW30022   2.996   0.503   1.625
 9708SOL    HW130023   3.019   0.426   1.684
 9708SOL    HW230024   3.004   0.589   1.676
 9709SOL     OW30025   3.393   1.889   2.026
 9709SOL    HW130026   3.297   1.883   2.056
 9709SOL    HW230027   3.451   1.909   2.105
 9710SOL     OW30028   5.173   4.757   4.263
 9710SOL    HW130029   5.177   4.795   4.356
 9710SOL    HW230030   5.216   4.667   4.263
 9711SOL     OW30031   3.342   7.001   6.529
 9711SOL    HW130032   3.269   6.932   6.531
 9711SOL    HW230033   3.404   6.981   6.453
 9712SOL     OW30034   5.216   6.451   5.609
 9712SOL    HW130035   5.183   6.358   5.590
 9712SOL    HW230036   5.142   6.505   5.649
 9713SOL     OW30037   0.518   1.063   2.907
 9713SOL    HW130038   0.599   1.089   2.959
 9713SOL    HW230039   0.546   1.019   2.822
 9714SOL     OW30040   2.415   2.678   3.617
 9714SOL    HW130041   2.324   2.636   3.624
 9714SOL    HW230042   2.482   2.608   3.592
 9715SOL     OW30043   0.755   1.829   6.346
 9715SOL    HW130044   0.695   1.751   6.329
 9715SOL    HW230045   0.701   1.910   6.367
 9716SOL     OW30046   1.441   5.912   1.371
 9716SOL    HW130047   1.398   5.995   1.336
 9716SOL    HW230048   1.476   5.929   1.463
 9717SOL     OW30049   4.335   2.025   6.195
 9717SOL    HW130050   4.335   2.001   6.292
 9717SOL    HW230051   4.288   2.113   6.182
 9718SOL     OW30052   2.674   2.822   6.800
 9718SOL    HW130053   2.631   2.904   6.763
 9718SOL    HW230054   2.656   2.816   6.898
 9719SOL     OW30055   4.819   0.228   6.729
 9719SOL    HW130056   4.721   0.232   6.707
 9719SOL    HW230057   4.848   0.133   6.732
 9720SOL     OW30058   1.671   1.989   1.877
 9720SOL    HW130059   1.622   1.921   1.823
 9720SOL    HW230060   1.770   1.973   1.870
 9721SOL     OW30061   0.248   1.340   0.932
 9721SOL    HW130062   0.239   1.300   0.841
 9721SOL    HW230063   0.159   1.375   0.961
 9722SOL     OW30064   3.558   2.940   5.802
 9722SOL    HW130065   3.624   2.880   5.848
 9722SOL    HW230066   3.542   2.906   5.709
 9723SOL     OW30067   5.581   1.469   4.233
 9723SOL    HW130068   5.508   1.431   4.290
 9723SOL    HW230069   5.594   1.565   4.254
 9724SOL     OW30070   1.331   5.106   1.367
 9724SOL    HW130071   1.297   5.024   1.412
 9724SOL    HW230072   1.427   5.121   1.391
 9725SOL     OW30073   5.795   5.303   4.929
 9725SOL    HW130074   5.727   5.348   4.871
 9725SOL    HW230075   5.801   5.349   5.017
 9726SOL     OW30076   6.613   0.185   2.873
 9726SOL    HW130077   6.670   0.255   2.830
 9726SOL    HW230078   6.667   0.103   2.889
 9727SOL     OW30079   6.609   3.225   0.673
 9727SOL    HW130080   6.612   3.249   0.770
 9727SOL    HW230081   6.542   3.284   0.626
 9728SOL     OW30082   4.934   2.559   5.164
 9728SOL    HW130083   5.027   2.588   5.143
 9728SOL    HW230084   4.873   2.639   5.165
 9729SOL     OW30085   7.018   3.199   2.961
 9729SOL    HW130086   7.007   3.164   2.868
 9729SOL    HW230087   6.945   3.264   2.981
 9730SOL     OW30088   0.245   6.805   3.481
 9730SOL    HW130089   0.341   6.809   3.453
 9730SOL    HW230090   0.204   6.896   3.472
 9731SOL     OW30091   6.487   0.835   1.438
 9731SOL    HW130092   6.522   0.923   1.472
 9731SOL    HW230093   6.538   0.810   1.356
 9732SOL     OW30094   6.906   2.616   2.631
 9732SOL    HW130095   6.921   2.696   2.690
 9732SOL    HW230096   6.811   2.586   2.640
 9733SOL     OW30097   4.940   6.136   0.895
 9733SOL    HW130098   4.918   6.052   0.845
 9733SOL    HW230099   4.961   6.209   0.830
 9734SOL     OW30100   3.954   3.409   0.793
 9734SOL    HW130101   4.044   3.393   0.834
 9734SOL    HW230102   3.899   3.326   0.800
 9735SOL     OW30103   0.852   2.528   0.287
 9735SOL    HW130104   0.948   2.547   0.309
 9735SOL    HW230105   0.794   2.560   0.361
 9736SOL     OW30106   6.173   2.845   5.756
 9736SOL    HW130107   6.145   2.924   5.811
 9736SOL    HW230108   6.269   2.824   5.775
 9737SOL     OW30109   5.140   3.685   5.429
 9737SOL    HW130110   5.129   3.633   5.344
 9737SOL    HW230111   5.057   3.738   5.446
 9738SOL     OW30112   2.779   5.961   1.449
 9738SOL    HW130113   2.830   5.997   1.527
 9738SOL    HW230114   2.694   6.012   1.438
 9739SOL     OW30115   5.687   5.867   1.652
 9739SOL    HW130116   5.703   5.836   1.558
 9739SOL    HW230117   5.745   5.946   1.671
 9740SOL     OW30118   6.867   0.117   1.136
 9740SOL    HW130119   6.961   0.089   1.120
 9740SOL    HW230120   6.851   0.207   1.094
 9741SOL     OW30121   2.018   2.404   2.863
 9741SOL    HW130122   2.067   2.487   2.838
 9741SOL    HW230123   2.070   2.324   2.832
 9742SOL     OW30124   5.164   6.721   6.734
 9742SOL    HW130125   5.204   6.710   6.825
 9742SOL    HW230126   5.200   6.804   6.691
 9743SOL     OW30127   5.901   3.977   4.447
 9743SOL    HW130128   5.876   4.056   4.503
 9743SOL    HW230129   5.981   3.932   4.487
 9744SOL     OW30130   1.792   3.003   2.125
 9744SOL    HW130131   1.753   2.915   2.151
 9744SOL    HW230132   1.783   3.067   2.202
 9745SOL     OW30133   1.244   0.112   5.672
 9745SOL    HW130134   1.328   0.120   5.618
 9745SOL    HW230135   1.260   0.143   5.765
 9746SOL     OW30136   3.908   5.405   5.827
 9746SOL    HW130137   3.899   5.306   5.821
 9746SOL    HW230138   3.890   5.445   5.737
 9747SOL     OW30139   4.851   1.714   3.205
 9747SOL    HW130140   4.856   1.755   3.114
 9747SOL    HW230141   4.788   1.767   3.262
 9748SOL     OW30142   0.159   1.682   1.590
 9748SOL    HW130143   0.080   1.622   1.604
 9748SOL    HW230144   0.129   1.777   1.589
 9749SOL     OW30145   6.552   6.850   1.578
 9749SOL    HW130146   6.541   6.915   1.653
 9749SOL    HW230147   6.492   6.875   1.502
 9750SOL     OW30148   5.203   3.227   4.769
 9750SOL    HW130149   5.144   3.277   4.706
 9750SOL    HW230150   5.269   3.290   4.810
 9751SOL     OW30151   3.011   4.950   0.893
 9751SOL    HW130152   3.089   4.887   0.893
 9751SOL    HW230153   3.029   5.025   0.830
 9752SOL     OW30154   4.382   4.552   1.235
 9752SOL    HW130155   4.409   4.633   1.183
 9752SOL    HW230156   4.428   4.553   1.324
 9753SOL     OW30157   5.818   6.303   3.213
 9753SOL    HW130158   5.818   6.205   3.232
 9753SOL    HW230159   5.792   6.352   3.296
 9754SOL     OW30160   3.352   0.939   2.132
 9754SOL    HW130161   3.282   1.009   2.141
 9754SOL    HW230162   3.319   0.853   2.171
 9755SOL     OW30163   3.814   4.258   1.215
 9755SOL    HW130164   3.768   4.253   1.304
 9755SOL    HW230165   3.746   4.276   1.144
 9756SOL     OW30166   4.952   0.493   6.786
 9756SOL    HW130167   5.043   0.523   6.816
 9756SOL    HW230168   4.957   0.398   6.754
 9757SOL     OW30169   5.011   4.003   3.691
 9757SOL    HW130170   5.043   4.096   3.708
 9757SOL    HW230171   4.927   3.986   3.741
 9758SOL     OW30172   2.692   0.401   0.497
 9758SOL    HW130173   2.777   0.452   0.491
 9758SOL    HW230174   2.635   0.440   0.570
 9759SOL     OW30175   6.347   0.683   0.381
 9759SOL    HW130176   6.341   0.584   0.365
 9759SOL    HW230177   6.309   0.731   0.303
 9760SOL     OW30178   4.994   0.435   5.896
 9760SOL    HW130179   4.935   0.480   5.829
 9760SOL    HW230180   4.938   0.391   5.966
 9761SOL     OW30181   0.618   1.943   1.612
 9761SOL    HW130182   0.530   1.896   1.616
 9761SOL    HW230183   0.680   1.893   1.552
 9762SOL     OW30184   3.994   1.596   5.316
 9762SOL    HW130185   3.955   1.653   5.244
 9762SOL    HW230186   4.016   1.653   5.395
 9763SOL     OW30187   6.458   2.010   0.243
 9763SOL    HW130188   6.420   2.061   0.320
 9763SOL    HW230189   6.392   1.942   0.211
 9764SOL     OW30190   6.658   2.585   3.276
 9764SOL    HW130191   6.687   2.632   3.193
 9764SOL    HW230192   6.615   2.652   3.338
 9765SOL     OW30193   7.022   1.949   0.922
 9765SOL    HW130194   6.998   2.041   0.954
 9765SOL    HW230195   6.958   1.882   0.962
 9766SOL     OW30196   0.622   3.049   2.580
 9766SOL    HW130197   0.621   3.149   2.579
 9766SOL    HW230198   0.636   3.014   2.488
 9767SOL     OW30199   3.600   1.075   4.538
 9767SOL    HW130200   3.561   1.164   4.561
 9767SOL    HW230201   3.699   1.084   4.528
 9768SOL     OW30202   4.109   3.627   6.920
 9768SOL    HW130203   4.100   3.671   6.830
 9768SOL    HW230204   4.189   3.665   6.967
 9769SOL     OW30205   2.908   0.690   5.841
 9769SOL    HW130206   2.872   0.745   5.766
 9769SOL    HW230207   2.857   0.604   5.845
 9770SOL     OW30208   1.986   3.104   4.687
 9770SOL    HW130209   2.076   3.073   4.718
 9770SOL    HW230210   1.951   3.174   4.749
 9771SOL     OW30211   3.547   0.161   1.345
 9771SOL    HW130212   3.548   0.258   1.369
 9771SOL    HW230213   3.607   0.111   1.407
 9772SOL     OW30214   0.230   0.456   1.749
 9772SOL    HW130215   0.284   0.540   1.751
 9772SOL    HW230216   0.250   0.406   1.666
 9773SOL     OW30217   4.191   6.332   2.878
 9773SOL    HW130218   4.104   6.312   2.833
 9773SOL    HW230219   4.242   6.247   2.890
 9774SOL     OW30220   1.618   5.128   5.246
 9774SOL    HW130221   1.562   5.196   5.293
 9774SOL    HW230222   1.559   5.057   5.209
 9775SOL     OW30223   1.253   1.598   3.497
 9775SOL    HW130224   1.192   1.625   3.424
 9775SOL    HW230225   1.205   1.601   3.585
 9776SOL     OW30226   0.775   5.689   1.484
 9776SOL    HW130227   0.844   5.645   1.427
 9776SOL    HW230228   0.790   5.665   1.580
 9777SOL     OW30229   5.321   2.788   5.205
 9777SOL    HW130230   5.333   2.767   5.302
 9777SOL    HW230231   5.334   2.886   5.190
 9778SOL     OW30232   1.794   2.796   3.171
 9778SOL    HW130233   1.763   2.738   3.246
 9778SOL    HW230234   1.815   2.887   3.205
 9779SOL     OW30235   1.922   1.132   2.784
 9779SOL    HW130236   1.838   1.177   2.814
 9779SOL    HW230237   1.933   1.045   2.833
 9780SOL     OW30238   1.616   1.954   1.239
 9780SOL    HW130239   1.552   2.024   1.206
 9780SOL    HW230240   1.644   1.976   1.332
 9781SOL     OW30241   0.643   0.970   2.221
 9781SOL    HW130242   0.577   0.896   2.209
 9781SOL    HW230243   0.722   0.954   2.162
 9782SOL     OW30244   0.343   2.477   6.806
 9782SOL    HW130245   0.334   2.434   6.896
 9782SOL    HW230246   0.290   2.425   6.740
 9783SOL     OW30247   5.441   1.429   2.049
 9783SOL    HW130248   5.533   1.430   2.011
 9783SOL    HW230249   5.421   1.338   2.086
 9784SOL     OW30250   2.125   1.224   0.190
 9784SOL    HW130251   2.212   1.244   0.145
 9784SOL    HW230252   2.141   1.196   0.284
 9785SOL     OW30253   1.934   3.555   4.438
 9785SOL    HW130254   1.894   3.622   4.500
 9785SOL    HW230255   1.869   3.533   4.365
 9786SOL     OW30256   2.633   4.424   0.613
 9786SOL    HW130257   2.615   4.508   0.664
 9786SOL    HW230258   2.700   4.369   0.662
 9787SOL     OW30259   2.764   3.280   0.881
 9787SOL    HW130260   2.754   3.377   0.902
 9787SOL    HW230261   2.713   3.259   0.798
 9788SOL     OW30262   2.845   0.243   3.934
 9788SOL    HW130263   2.792   0.182   3.992
 9788SOL    HW230264   2.787   0.317   3.901
 9789SOL     OW30265   4.253   1.802   0.525
 9789SOL    HW130266   4.159   1.792   0.493
 9789SOL    HW230267   4.263   1.887   0.576
 9790SOL     OW30268   4.563   5.593   5.701
 9790SOL    HW130269   4.567   5.673   5.641
 9790SOL    HW230270   4.577   5.622   5.796
 9791SOL     OW30271   0.240   0.746   0.832
 9791SOL    HW130272   0.257   0.761   0.735
 9791SOL    HW230273   0.256   0.830   0.883
 9792SOL     OW30274   2.709   3.622   6.934
 9792SOL    HW130275   2.659   3.560   6.996
 9792SOL    HW230276   2.652   3.640   6.854
 9793SOL     OW30277   5.366   0.667   1.801
 9793SOL    HW130278   5.421   0.750   1.796
 9793SOL    HW230279   5.279   0.688   1.847
 9794SOL     OW30280   4.228   5.753   5.888
 9794SOL    HW130281   4.259   5.721   5.799
 9794SOL    HW230282   4.134   5.788   5.880
 9795SOL     OW30283   1.824   3.968   3.134
 9795SOL    HW130284   1.902   3.926   3.086
 9795SOL    HW230285   1.824   3.938   3.230
 9796SOL     OW30286   3.753   3.397   5.004
 9796SOL    HW130287   3.753   3.497   4.996
 9796SOL    HW230288   3.841   3.367   5.040
 9797SOL     OW30289   3.753   5.223   0.288
 9797SOL    HW130290   3.799   5.145   0.331
 9797SOL    HW230291   3.727   5.290   0.357
 9798SOL     OW30292   0.934   4.366   5.647
 9798SOL    HW130293   1.007   4.361   5.716
 9798SOL    HW230294   0.848   4.390   5.693
 9799SOL     OW30295   3.033   0.351   6.302
 9799SOL    HW130296   2.965   0.354   6.376
 9799SOL    HW230297   2.998   0.296   6.226
 9800SOL     OW30298   0.444   4.807   4.466
 9800SOL    HW130299   0.540   4.788   4.483
 9800SOL    HW230300   0.418   4.772   4.376
 9801SOL     OW30301   3.940   6.351   1.104
 9801SOL    HW130302   3.913   6.271   1.051
 9801SOL    HW230303   3.983   6.418   1.044
 9802SOL     OW30304   4.171   2.499   0.326
 9802SOL    HW130305   4.257   2.448   0.324
 9802SOL    HW230306   4.163   2.556   0.245
 9803SOL     OW30307   2.414   3.554   0.341
 9803SOL    HW130308   2.408   3.454   0.341
 9803SOL    HW230309   2.402   3.588   0.434
 9804SOL     OW30310   0.863   3.743   3.009
 9804SOL    HW130311   0.926   3.804   3.058
 9804SOL    HW230312   0.789   3.716   3.071
 9805SOL     OW30313   0.056   4.492   5.145
 9805SOL    HW130314   0.154   4.506   5.161
 9805SOL    HW230315   0.006   4.512   5.229
 9806SOL     OW30316   3.566   1.079   0.504
 9806SOL    HW130317   3.654   1.033   0.498
 9806SOL    HW230318   3.554   1.138   0.424
 9807SOL     OW30319   3.869   3.206   4.795
 9807SOL    HW130320   3.770   3.200   4.803
 9807SOL    HW230321   3.905   3.262   4.870
 9808SOL     OW30322   2.654   6.809   2.593
 9808SOL    HW130323   2.669   6.711   2.607
 9808SOL    HW230324   2.621   6.826   2.500
 9809SOL     OW30325   0.047   3.923   1.221
 9809SOL    HW130326   0.025   4.011   1.179
 9809SOL    HW230327   6.999   3.894   1.280
 9810SOL     OW30328   4.087   2.878   1.158
 9810SOL    HW130329   4.129   2.789   1.141
 9810SOL    HW230330   4.041   2.877   1.247
 9811SOL     OW30331   5.483   3.575   4.011
 9811SOL    HW130332   5.453   3.582   3.916
 9811SOL    HW230333   5.483   3.479   4.040
 9812SOL     OW30334   3.181   5.504   6.272
 9812SOL    HW130335   3.125   5.498   6.189
 9812SOL    HW230336   3.243   5.582   6.265
 9813SOL     OW30337   4.732   0.525   2.110
 9813SOL    HW130338   4.687   0.447   2.065
 9813SOL    HW230339   4.666   0.574   2.166
 9814SOL     OW30340   6.446   1.476   6.497
 9814SOL    HW130341   6.441   1.513   6.404
 9814SOL    HW230342   6.492   1.542   6.557
 9815SOL     OW30343   5.466   3.037   4.933
 9815SOL    HW130344   5.558   3.053   4.895
 9815SOL    HW230345   5.401   3.023   4.857
 9816SOL     OW30346   3.964   0.649   0.041
 9816SOL    HW130347   3.978   0.682   0.135
 9816SOL    HW230348   3.941   0.552   0.044
 9817SOL     OW30349   6.066   0.295   1.347
 9817SOL    HW130350   6.037   0.207   1.385
 9817SOL    HW230351   6.153   0.283   1.299
 9818SOL     OW30352   4.069   2.114   5.069
 9818SOL    HW130353   4.009   2.075   4.999
 9818SOL    HW230354   4.090   2.209   5.045
 9819SOL     OW30355   2.685   6.981   2.065
 9819SOL    HW130356   2.688   6.910   1.994
 9819SOL    HW230357   2.596   6.980   2.109
 9820SOL     OW30358   4.284   2.624   7.012
 9820SOL    HW130359   4.219   2.554   0.015
 9820SOL    HW230360   4.263   2.711   0.028
 9821SOL     OW30361   0.737   6.226   6.741
 9821SOL    HW130362   0.730   6.127   6.731
 9821SOL    HW230363   0.823   6.258   6.702
 9822SOL     OW30364   6.820   2.218   2.256
 9822SOL    HW130365   6.833   2.220   2.356
 9822SOL    HW230366   6.739   2.164   2.235
 9823SOL     OW30367   2.565   6.304   2.687
 9823SOL    HW130368   2.584   6.221   2.739
 9823SOL    HW230369   2.562   6.283   2.589
 9824SOL     OW30370   2.122   4.061   5.460
 9824SOL    HW130371   2.187   4.050   5.535
 9824SOL    HW230372   2.074   3.974   5.445
 9825SOL     OW30373   4.649   4.308   5.361
 9825SOL    HW130374   4.627   4.256   5.443
 9825SOL    HW230375   4.674   4.244   5.287
 9826SOL     OW30376   6.103   0.189   4.870
 9826SOL    HW130377   6.004   0.205   4.861
 9826SOL    HW230378   6.143   0.261   4.927
 9827SOL     OW30379   1.067   5.771   5.061
 9827SOL    HW130380   1.075   5.870   5.056
 9827SOL    HW230381   1.151   5.728   5.028
 9828SOL     OW30382   2.590   1.457   0.320
 9828SOL    HW130383   2.665   1.476   0.256
 9828SOL    HW230384   2.607   1.369   0.366
 9829SOL     OW30385   3.303   4.763   1.374
 9829SOL    HW130386   3.209   4.797   1.376
 9829SOL    HW230387   3.341   4.765   1.466
 9830SOL     OW30388   6.121   0.835   0.951
 9830SOL    HW130389   6.038   0.879   0.985
 9830SOL    HW230390   6.145   0.759   1.010
 9831SOL     OW30391   0.248   5.928   1.002
 9831SOL    HW130392   0.311   5.868   1.053
 9831SOL    HW230393   0.230   6.010   1.056
 9832SOL     OW30394   2.958   3.887   1.824
 9832SOL    HW130395   3.040   3.933   1.789
 9832SOL    HW230396   2.878   3.944   1.807
 9833SOL     OW30397   5.075   4.246   0.155
 9833SOL    HW130398   4.998   4.237   0.092
 9833SOL    HW230399   5.139   4.314   0.121
 9834SOL     OW30400   2.058   3.314   3.648
 9834SOL    HW130401   1.996   3.372   3.596
 9834SOL    HW230402   2.092   3.241   3.590
 9835SOL     OW30403   5.264   2.947   4.747
 9835SOL    HW130404   5.277   2.896   4.662
 9835SOL    HW230405   5.246   3.043   4.726
 9836SOL     OW30406   5.174   5.008   1.339
 9836SOL    HW130407   5.085   4.993   1.381
 9836SOL    HW230408   5.235   4.932   1.362
 9837SOL     OW30409   1.964   5.144   4.800
 9837SOL    HW130410   1.890   5.083   4.770
 9837SOL    HW230411   2.043   5.089   4.827
 9838SOL     OW30412   6.819   6.534   4.886
 9838SOL    HW130413   6.800   6.617   4.939
 9838SOL    HW230414   6.917   6.527   4.868
 9839SOL     OW30415   6.079   3.048   3.176
 9839SOL    HW130416   5.986   3.082   3.179
 9839SOL    HW230417   6.141   3.114   3.219
 9840SOL     OW30418   6.271   0.008   0.352
 9840SOL    HW130419   6.186   0.056   0.374
 9840SOL    HW230420   6.269   7.006   0.257
 9841SOL     OW30421   1.287   3.013   4.063
 9841SOL    HW130422   1.302   2.930   4.009
 9841SOL    HW230423   1.348   3.086   4.031
 9842SOL     OW30424   2.881   3.386   3.925
 9842SOL    HW130425   2.799   3.411   3.977
 9842SOL    HW230426   2.855   3.357   3.833
 9843SOL     OW30427   5.778   4.478   3.453
 9843SOL    HW130428   5.679   4.479   3.445
 9843SOL    HW230429   5.813   4.387   3.431
 9844SOL     OW30430   4.048   0.188   1.507
 9844SOL    HW130431   4.084   0.280   1.524
 9844SOL    HW230432   3.974   0.193   1.441
 9845SOL     OW30433   1.349   1.677   4.349
 9845SOL    HW130434   1.442   1.641   4.340
 9845SOL    HW230435   1.292   1.641   4.274
 9846SOL     OW30436   2.909   3.572   4.312
 9846SOL    HW130437   2.993   3.613   4.349
 9846SOL    HW230438   2.879   3.498   4.372
 9847SOL     OW30439   2.606   4.567   4.235
 9847SOL    HW130440   2.600   4.494   4.166
 9847SOL    HW230441   2.522   4.568   4.290
 9848SOL     OW30442   0.269   4.585   0.315
 9848SOL    HW130443   0.352   4.599   0.260
 9848SOL    HW230444   0.281   4.629   0.404
 9849SOL     OW30445   0.030   5.856   5.200
 9849SOL    HW130446   0.059   5.869   5.294
 9849SOL    HW230447   0.107   5.822   5.145
 9850SOL     OW30448   5.415   0.266   3.895
 9850SOL    HW130449   5.332   0.293   3.943
 9850SOL    HW230450   5.391   0.226   3.807
 9851SOL     OW30451   5.344   2.596   4.983
 9851SOL    HW130452   5.310   2.687   5.009
 9851SOL    HW230453   5.309   2.529   5.049
 9852SOL     OW30454   5.473   2.308   3.761
 9852SOL    HW130455   5.504   2.322   3.855
 9852SOL    HW230456   5.541   2.253   3.711
 9853SOL     OW30457   0.073   5.348   1.213
 9853SOL    HW130458   0.077   5.430   1.156
 9853SOL    HW230459   0.009   5.363   1.289
 9854SOL     OW30460   3.077   0.216   4.427
 9854SOL    HW130461   3.175   0.213   4.406
 9854SOL    HW230462   3.025   0.222   4.341
 9855SOL     OW30463   2.360   4.204   1.347
 9855SOL    HW130464   2.414   4.124   1.373
 9855SOL    HW230465   2.415   4.287   1.361
 9856SOL     OW30466   3.496   3.342   1.520
 9856SOL    HW130467   3.527   3.331   1.425
 9856SOL    HW230468   3.416   3.286   1.536
 9857SOL     OW30469   5.732   5.249   3.238
 9857SOL    HW130470   5.669   5.176   3.266
 9857SOL    HW230471   5.758   5.303   3.318
 9858SOL     OW30472   3.495   1.057   1.513
 9858SOL    HW130473   3.448   1.089   1.430
 9858SOL    HW230474   3.453   1.099   1.593
 9859SOL     OW30475   0.336   6.571   1.384
 9859SOL    HW130476   0.415   6.611   1.338
 9859SOL    HW230477   0.265   6.640   1.396
 9860SOL     OW30478   0.916   0.970   2.831
 9860SOL    HW130479   0.975   0.918   2.769
 9860SOL    HW230480   0.886   1.054   2.786
 9861SOL     OW30481   2.022   6.122   3.937
 9861SOL    HW130482   2.097   6.056   3.931
 9861SOL    HW230483   2.057   6.213   3.917
 9862SOL     OW30484   0.276   1.774   0.277
 9862SOL    HW130485   0.221   1.690   0.276
 9862SOL    HW230486   0.216   1.853   0.281
 9863SOL     OW30487   5.010   0.570   0.095
 9863SOL    HW130488   5.047   0.663   0.096
 9863SOL    HW230489   4.986   0.542   0.188
 9864SOL     OW30490   4.176   5.430   3.980
 9864SOL    HW130491   4.231   5.443   3.897
 9864SOL    HW230492   4.222   5.364   4.040
 9865SOL     OW30493   2.113   3.715   3.404
 9865SOL    HW130494   2.137   3.676   3.493
 9865SOL    HW230495   2.038   3.663   3.365
 9866SOL     OW30496   2.762   4.775   3.321
 9866SOL    HW130497   2.711   4.841   3.377
 9866SOL    HW230498   2.845   4.818   3.286
 9867SOL     OW30499   3.754   6.430   5.820
 9867SOL    HW130500   3.702   6.498   5.768
 9867SOL    HW230501   3.771   6.465   5.912
 9868SOL     OW30502   1.549   5.335   6.047
 9868SOL    HW130503   1.492   5.376   5.975
 9868SOL    HW230504   1.534   5.384   6.133
 9869SOL     OW30505   0.769   5.191   3.330
 9869SOL    HW130506   0.759   5.232   3.421
 9869SOL    HW230507   0.824   5.251   3.272
 9870SOL     OW30508   4.140   5.802   1.844
 9870SOL    HW130509   4.176   5.734   1.908
 9870SOL    HW230510   4.201   5.809   1.765
 9871SOL     OW30511   2.406   2.735   5.813
 9871SOL    HW130512   2.410   2.705   5.718
 9871SOL    HW230513   2.460   2.673   5.870
 9872SOL     OW30514   1.250   3.524   2.948
 9872SOL    HW130515   1.264   3.602   2.887
 9872SOL    HW230516   1.300   3.445   2.913
 9873SOL     OW30517   1.975   2.263   1.794
 9873SOL    HW130518   2.056   2.311   1.760
 9873SOL    HW230519   1.899   2.327   1.801
 9874SOL     OW30520   1.319   3.758   4.296
 9874SOL    HW130521   1.227   3.761   4.335
 9874SOL    HW230522   1.313   3.733   4.199
 9875SOL     OW30523   1.216   1.311   3.015
 9875SOL    HW130524   1.185   1.241   3.079
 9875SOL    HW230525   1.154   1.315   2.937
 9876SOL     OW30526   6.624   6.062   2.134
 9876SOL    HW130527   6.526   6.044   2.133
 9876SOL    HW230528   6.650   6.111   2.051
 9877SOL     OW30529   4.161   0.018   0.981
 9877SOL    HW130530   4.143   0.114   1.000
 9877SOL    HW230531   4.260   0.000   0.987
 9878SOL     OW30532   6.712   1.658   4.981
 9878SOL    HW130533   6.730   1.565   4.949
 9878SOL    HW230534   6.776   1.680   5.055
 9879SOL     OW30535   5.147   5.258   5.599
 9879SOL    HW130536   5.237   5.277   5.637
 9879SOL    HW230537   5.150   5.174   5.546
 9880SOL     OW30538   1.071   2.466   3.538
 9880SOL    HW130539   1.007   2.405   3.586
 9880SOL    HW230540   1.140   2.411   3.490
 9881SOL     OW30541   0.185   1.741   5.704
 9881SOL    HW130542   0.125   1.665   5.682
 9881SOL    HW230543   0.142   1.827   5.676
 9882SOL     OW30544   1.532   2.299   3.499
 9882SOL    HW130545   1.439   2.290   3.464
 9882SOL    HW230546   1.547   2.233   3.572
 9883SOL     OW30547   3.156   1.328   2.317
 9883SOL    HW130548   3.166   1.351   2.220
 9883SOL    HW230549   3.225   1.260   2.343
 9884SOL     OW30550   3.222   0.723   3.698
 9884SOL    HW130551   3.200   0.698   3.792
 9884SOL    HW230552   3.179   0.810   3.675
 9885SOL     OW30553   6.842   3.400   4.726
 9885SOL    HW130554   6.860   3.498   4.735
 9885SOL    HW230555   6.928   3.352   4.710
 9886SOL     OW30556   7.004   2.643   1.890
 9886SOL    HW130557   0.021   2.650   1.979
 9886SOL    HW230558   6.930   2.710   1.885
 9887SOL     OW30559   4.236   6.073   5.639
 9887SOL    HW130560   4.245   5.974   5.633
 9887SOL    HW230561   4.326   6.114   5.656
 9888SOL     OW30562   6.717   5.410   5.365
 9888SOL    HW130563   6.710   5.335   5.299
 9888SOL    HW230564   6.712   5.373   5.458
 9889SOL     OW30565   0.584   5.692   0.818
 9889SOL    HW130566   0.578   5.629   0.895
 9889SOL    HW230567   0.556   5.783   0.847
 9890SOL     OW30568   0.828   3.048   1.071
 9890SOL    HW130569   0.802   3.100   1.152
 9890SOL    HW230570   0.853   3.110   0.997
 9891SOL     OW30571   4.896   1.616   2.798
 9891SOL    HW130572   4.990   1.643   2.817
 9891SOL    HW230573   4.887   1.517   2.810
 9892SOL     OW30574   1.238   0.018   6.704
 9892SOL    HW130575   1.198   6.956   6.721
 9892SOL    HW230576   1.166   0.087   6.699
 9893SOL     OW30577   1.871   1.606   0.283
 9893SOL    HW130578   1.930   1.530   0.308
 9893SOL    HW230579   1.781   1.572   0.258
 9894SOL     OW30580   2.480   1.181   1.485
 9894SOL    HW130581   2.492   1.239   1.405
 9894SOL    HW230582   2.431   1.231   1.556
 9895SOL     OW30583   4.288   2.676   5.504
 9895SOL    HW130584   4.208   2.663   5.563
 9895SOL    HW230585   4.286   2.769   5.467
 9896SOL     OW30586   6.473   6.651   5.930
 9896SOL    HW130587   6.553   6.596   5.907
 9896SOL    HW230588   6.460   6.650   6.029
 9897SOL     OW30589   5.932   5.057   4.941
 9897SOL    HW130590   5.885   5.144   4.957
 9897SOL    HW230591   6.021   5.059   4.987
 9898SOL     OW30592   2.388   6.923   6.755
 9898SOL    HW130593   2.339   6.974   6.684
 9898SOL    HW230594   2.467   6.976   6.785
 9899SOL     OW30595   0.275   4.732   0.536
 9899SOL    HW130596   0.199   4.792   0.564
 9899SOL    HW230597   0.358   4.786   0.528
 9900SOL     OW30598   2.235   5.184   3.290
 9900SOL    HW130599   2.244   5.204   3.192
 9900SOL    HW230600   2.279   5.096   3.309
 9901SOL     OW30601   2.135   3.296   5.071
 9901SOL    HW130602   2.137   3.196   5.065
 9901SOL    HW230603   2.091   3.324   5.156
 9902SOL     OW30604   2.989   4.604   1.166
 9902SOL    HW130605   2.946   4.674   1.223
 9902SOL    HW230606   3.058   4.555   1.219
 9903SOL     OW30607   5.563   1.275   4.978
 9903SOL    HW130608   5.654   1.241   4.954
 9903SOL    HW230609   5.496   1.202   4.965
 9904SOL     OW30610   6.221   1.505   0.354
 9904SOL    HW130611   6.291   1.534   0.418
 9904SOL    HW230612   6.139   1.560   0.367
 9905SOL     OW30613   5.307   0.059   0.350
 9905SOL    HW130614   5.349   6.996   0.353
 9905SOL    HW230615   5.325   0.101   0.261
 9906SOL     OW30616   2.865   3.535   5.494
 9906SOL    HW130617   2.812   3.587   5.426
 9906SOL    HW230618   2.832   3.441   5.497
 9907SOL     OW30619   1.707   5.869   2.226
 9907SOL    HW130620   1.617   5.826   2.228
 9907SOL    HW230621   1.713   5.938   2.298
 9908SOL     OW30622   5.186   3.309   1.794
 9908SOL    HW130623   5.273   3.357   1.784
 9908SOL    HW230624   5.129   3.357   1.861
 9909SOL     OW30625   1.894   0.288   4.622
 9909SOL    HW130626   1.910   0.387   4.616
 9909SOL    HW230627   1.814   0.263   4.567
 9910SOL     OW30628   0.518   4.695   4.189
 9910SOL    HW130629   0.441   4.639   4.159
 9910SOL    HW230630   0.569   4.646   4.260
 9911SOL     OW30631   2.589   6.551   2.557
 9911SOL    HW130632   2.590   6.472   2.619
 9911SOL    HW230633   2.502   6.552   2.506
 9912SOL     OW30634   5.301   0.711   5.667
 9912SOL    HW130635   5.372   0.778   5.686
 9912SOL    HW230636   5.333   0.620   5.695
 9913SOL     OW30637   5.203   3.140   0.871
 9913SOL    HW130638   5.155   3.067   0.821
 9913SOL    HW230639   5.170   3.143   0.965
 9914SOL     OW30640   0.718   3.524   4.328
 9914SOL    HW130641   0.643   3.481   4.276
 9914SOL    HW230642   0.723   3.483   4.419
 9915SOL     OW30643   4.329   1.329   3.721
 9915SOL    HW130644   4.410   1.315   3.664
 9915SOL    HW230645   4.291   1.420   3.703
 9916SOL     OW30646   1.474   3.291   1.435
 9916SOL    HW130647   1.558   3.264   1.483
 9916SOL    HW230648   1.476   3.253   1.342
 9917SOL     OW30649   6.350   4.814   5.939
 9917SOL    HW130650   6.253   4.829   5.923
 9917SOL    HW230651   6.403   4.849   5.861
 9918SOL     OW30652   4.876   2.902   2.383
 9918SOL    HW130653   4.856   2.848   2.302
 9918SOL    HW230654   4.844   2.996   2.368
 9919SOL     OW30655   5.145   5.882   0.101
 9919SOL    HW130656   5.055   5.848   0.127
 9919SOL    HW230657   5.162   5.861   0.005
 9920SOL     OW30658   4.565   0.896   2.326
 9920SOL    HW130659   4.555   0.799   2.302
 9920SOL    HW230660   4.582   0.950   2.244
 9921SOL     OW30661   4.290   4.778   5.885
 9921SOL    HW130662   4.363   4.711   5.888
 9921SOL    HW230663   4.284   4.818   5.794
 9922SOL     OW30664   6.890   6.373   1.366
 9922SOL    HW130665   6.949   6.346   1.443
 9922SOL    HW230666   6.912   6.466   1.338
 9923SOL     OW30667   6.247   3.759   0.362
 9923SOL    HW130668   6.176   3.733   0.297
 9923SOL    HW230669   6.287   3.847   0.335
 9924SOL     OW30670   1.741   4.761   4.694
 9924SOL    HW130671   1.831   4.785   4.658
 9924SOL    HW230672   1.714   4.827   4.764
 9925SOL     OW30673   4.733   2.606   4.375
 9925SOL    HW130674   4.794   2.529   4.393
 9925SOL    HW230675   4.707   2.649   4.462
 9926SOL     OW30676   2.999   5.247   1.967
 9926SOL    HW130677   3.082   5.197   1.991
 9926SOL    HW230678   2.974   5.228   1.872
 9927SOL     OW30679   5.562   0.765   4.108
 9927SOL    HW130680   5.535   0.672   4.081
 9927SOL    HW230681   5.566   0.771   4.208
 9928SOL     OW30682   5.116   4.033   2.371
 9928SOL    HW130683   5.077   4.097   2.305
 9928SOL    HW230684   5.206   4.003   2.340
 9929SOL     OW30685   0.849   3.934   3.702
 9929SOL    HW130686   0.925   3.893   3.653
 9929SOL    HW230687   0.855   3.911   3.799
 9930SOL     OW30688   5.652   0.933   2.805
 9930SOL    HW130689   5.627   1.007   2.742
 9930SOL    HW230690   5.578   0.865   2.807
 9931SOL     OW30691   1.350   5.498   5.183
 9931SOL    HW130692   1.399   5.433   5.240
 9931SOL    HW230693   1.371   5.591   5.212
 9932SOL     OW30694   0.277   5.952   4.202
 9932SOL    HW130695   0.347   5.882   4.186
 9932SOL    HW230696   0.300   6.004   4.284
 9933SOL     OW30697   6.718   6.775   3.096
 9933SOL    HW130698   6.804   6.738   3.131
 9933SOL    HW230699   6.650   6.702   3.089
 9934SOL     OW30700   0.245   2.825   4.771
 9934SOL    HW130701   0.306   2.824   4.851
 9934SOL    HW230702   0.183   2.747   4.776
 9935SOL     OW30703   1.674   0.029   6.085
 9935SOL    HW130704   1.657   0.047   6.182
 9935SOL    HW230705   1.587   0.016   6.038
 9936SOL     OW30706   1.926   3.953   3.410
 9936SOL    HW130707   2.009   3.914   3.370
 9936SOL    HW230708   1.950   4.014   3.485
 9937SOL     OW30709   6.848   3.435   5.813
 9937SOL    HW130710   6.803   3.376   5.880
 9937SOL    HW230711   6.889   3.514   5.859
 9938SOL     OW30712   6.451   6.036   2.430
 9938SOL    HW130713   6.478   5.952   2.384
 9938SOL    HW230714   6.529   6.073   2.482
 9939SOL     OW30715   3.391   2.898   3.710
 9939SOL    HW130716   3.420   2.862   3.621
 9939SOL    HW230717   3.309   2.954   3.698
 9940SOL     OW30718   0.211   1.229   1.237
 9940SOL    HW130719   0.167   1.184   1.315
 9940SOL    HW230720   0.158   1.210   1.154
 9941SOL     OW30721   3.479   5.627   5.392
 9941SOL    HW130722   3.542   5.576   5.333
 9941SOL    HW230723   3.403   5.568   5.419
 9942SOL     OW30724   2.956   5.936   3.765
 9942SOL    HW130725   2.868   5.952   3.721
 9942SOL    HW230726   2.981   5.840   3.757
 9943SOL     OW30727   0.524   6.322   4.789
 9943SOL    HW130728   0.483   6.332   4.880
 9943SOL    HW230729   0.526   6.411   4.744
 9944SOL     OW30730   1.699   4.472   5.713
 9944SOL    HW130731   1.713   4.373   5.704
 9944SOL    HW230732   1.735   4.518   5.632
 9945SOL     OW30733   0.292   5.566   6.853
 9945SOL    HW130734   0.233   5.525   6.783
 9945SOL    HW230735   0.368   5.613   6.809
 9946SOL     OW30736   5.571   0.745   3.574
 9946SOL    HW130737   5.563   0.660   3.625
 9946SOL    HW230738   5.664   0.781   3.583
 9947SOL     OW30739   6.093   4.468   3.431
 9947SOL    HW130740   6.176   4.431   3.472
 9947SOL    HW230741   6.013   4.431   3.479
 9948SOL     OW30742   5.112   4.292   3.453
 9948SOL    HW130743   5.164   4.234   3.390
 9948SOL    HW230744   5.159   4.296   3.541
 9949SOL     OW30745   5.548   4.902   2.085
 9949SOL    HW130746   5.524   4.842   2.161
 9949SOL    HW230747   5.615   4.856   2.027
 9950SOL     OW30748   3.854   6.658   0.138
 9950SOL    HW130749   3.817   6.566   0.154
 9950SOL    HW230750   3.896   6.693   0.222
 9951SOL     OW30751   6.009   2.967   2.626
 9951SOL    HW130752   5.976   3.043   2.571
 9951SOL    HW230753   5.960   2.965   2.713
 9952SOL     OW30754   0.945   4.710   6.253
 9952SOL    HW130755   0.893   4.690   6.336
 9952SOL    HW230756   0.898   4.781   6.201
 9953SOL     OW30757   5.715   3.758   3.600
 9953SOL    HW130758   5.692   3.671   3.642
 9953SOL    HW230759   5.635   3.795   3.552
 9954SOL     OW30760   5.367   0.799   4.888
 9954SOL    HW130761   5.296   0.808   4.818
 9954SOL    HW230762   5.326   0.765   4.972
 9955SOL     OW30763   0.581   4.863   4.870
 9955SOL    HW130764   0.679   4.879   4.879
 9955SOL    HW230765   0.564   4.807   4.788
 9956SOL     OW30766   0.801   5.809   0.139
 9956SOL    HW130767   0.746   5.761   0.071
 9956SOL    HW230768   0.821   5.901   0.106
 9957SOL     OW30769   6.151   5.871   2.289
 9957SOL    HW130770   6.073   5.930   2.270
 9957SOL    HW230771   6.154   5.851   2.387
 9958SOL     OW30772   2.587   4.570   0.997
 9958SOL    HW130773   2.498   4.545   1.036
 9958SOL    HW230774   2.613   4.661   1.029
 9959SOL     OW30775   3.948   4.079   0.803
 9959SOL    HW130776   3.968   4.097   0.706
 9959SOL    HW230777   3.849   4.081   0.817
 9960SOL     OW30778   0.108   1.102   1.802
 9960SOL    HW130779   0.132   1.111   1.898
 9960SOL    HW230780   0.082   1.007   1.783
 9961SOL     OW30781   1.900   4.361   4.783
 9961SOL    HW130782   1.908   4.278   4.728
 9961SOL    HW230783   1.952   4.349   4.868
 9962SOL     OW30784   6.127   6.640   4.454
 9962SOL    HW130785   6.112   6.716   4.390
 9962SOL    HW230786   6.194   6.577   4.415
 9963SOL     OW30787   3.743   2.345   0.226
 9963SOL    HW130788   3.743   2.280   0.302
 9963SOL    HW230789   3.788   2.430   0.254
 9964SOL     OW30790   5.616   6.097   4.592
 9964SOL    HW130791   5.570   6.132   4.510
 9964SOL    HW230792   5.693   6.156   4.614
 9965SOL     OW30793   4.677   0.200   1.710
 9965SOL    HW130794   4.683   0.115   1.763
 9965SOL    HW230795   4.581   0.225   1.699
 9966SOL     OW30796   6.306   1.500   2.153
 9966SOL    HW130797   6.278   1.415   2.199
 9966SOL    HW230798   6.339   1.480   2.061
 9967SOL     OW30799   1.059   5.435   0.497
 9967SOL    HW130800   1.059   5.352   0.442
 9967SOL    HW230801   1.033   5.513   0.440
 9968SOL     OW30802   3.277   2.919   2.959
 9968SOL    HW130803   3.299   2.878   2.871
 9968SOL    HW230804   3.185   2.957   2.957
 9969SOL     OW30805   1.647   3.019   1.233
 9969SOL    HW130806   1.623   2.995   1.327
 9969SOL    HW230807   1.672   2.935   1.184
 9970SOL     OW30808   6.798   4.259   2.936
 9970SOL    HW130809   6.802   4.213   2.847
 9970SOL    HW230810   6.891   4.272   2.971
 9971SOL     OW30811   3.274   6.592   6.546
 9971SOL    HW130812   3.274   6.518   6.613
 9971SOL    HW230813   3.351   6.579   6.482
 9972SOL     OW30814   0.236   4.816   1.752
 9972SOL    HW130815   0.162   4.766   1.796
 9972SOL    HW230816   0.200   4.899   1.709
 9973SOL     OW30817   5.026   6.764   3.687
 9973SOL    HW130818   5.067   6.697   3.750
 9973SOL    HW230819   5.099   6.815   3.641
 9974SOL     OW30820   2.967   1.038   4.289
 9974SOL    HW130821   2.964   0.938   4.277
 9974SOL    HW230822   2.894   1.065   4.352
 9975SOL     OW30823   6.355   3.465   1.853
 9975SOL    HW130824   6.399   3.436   1.938
 9975SOL    HW230825   6.330   3.562   1.859
 9976SOL     OW30826   3.400   6.638   4.583
 9976SOL    HW130827   3.356   6.727   4.591
 9976SOL    HW230828   3.330   6.566   4.586
 9977SOL     OW30829   0.001   4.859   3.948
 9977SOL    HW130830   7.003   4.827   3.857
 9977SOL    HW230831   6.948   4.885   4.000
 9978SOL     OW30832   0.402   3.195   4.046
 9978SOL    HW130833   0.354   3.207   3.959
 9978SOL    HW230834   0.444   3.104   4.048
 9979SOL     OW30835   0.748   3.175   5.235
 9979SOL    HW130836   0.814   3.142   5.302
 9979SOL    HW230837   0.774   3.267   5.205
 9980SOL     OW30838   3.097   0.063   5.842
 9980SOL    HW130839   3.087   0.163   5.836
 9980SOL    HW230840   3.027   0.020   5.785
 9981SOL     OW30841   3.361   1.489   3.137
 9981SOL    HW130842   3.305   1.564   3.175
 9981SOL    HW230843   3.351   1.408   3.195
 9982SOL     OW30844   5.706   0.243   2.589
 9982SOL    HW130845   5.790   0.279   2.549
 9982SOL    HW230846   5.639   0.316   2.597
 9983SOL     OW30847   6.474   0.488   0.573
 9983SOL    HW130848   6.469   0.588   0.575
 9983SOL    HW230849   6.570   0.460   0.577
 9984SOL     OW30850   3.213   0.725   6.921
 9984SOL    HW130851   3.234   0.711   6.824
 9984SOL    HW230852   3.120   0.694   6.940
 9985SOL     OW30853   1.168   1.827   0.799
 9985SOL    HW130854   1.082   1.878   0.804
 9985SOL    HW230855   1.173   1.764   0.877
 9986SOL     OW30856   5.668   4.225   5.046
 9986SOL    HW130857   5.679   4.323   5.032
 9986SOL    HW230858   5.571   4.202   5.055
 9987SOL     OW30859   0.331   4.498   4.676
 9987SOL    HW130860   0.425   4.474   4.653
 9987SOL    HW230861   0.318   4.492   4.775
 9988SOL     OW30862   5.963   1.365   4.054
 9988SOL    HW130863   5.869   1.393   4.033
 9988SOL    HW230864   5.970   1.265   4.045
 9989SOL     OW30865   1.481   2.626   5.071
 9989SOL    HW130866   1.460   2.651   5.166
 9989SOL    HW230867   1.517   2.533   5.067
 9990SOL     OW30868   1.096   4.699   1.190
 9990SOL    HW130869   1.191   4.731   1.200
 9990SOL    HW230870   1.038   4.777   1.168
 9991SOL     OW30871   3.697   2.147   3.908
 9991SOL    HW130872   3.785   2.149   3.861
 9991SOL    HW230873   3.639   2.076   3.867
 9992SOL     OW30874   6.920   4.698   6.520
 9992SOL    HW130875   6.878   4.725   6.434
 9992SOL    HW230876   6.859   4.720   6.596
 9993SOL     OW30877   1.284   1.417   1.618
 9993SOL    HW130878   1.293   1.418   1.717
 9993SOL    HW230879   1.289   1.510   1.582
 9994SOL     OW30880   5.806   4.209   3.396
 9994SOL    HW130881   5.732   4.202   3.329
 9994SOL    HW230882   5.879   4.145   3.372
 9995SOL     OW30883   5.525   2.078   4.636
 9995SOL    HW130884   5.600   2.028   4.678
 9995SOL    HW230885   5.439   2.049   4.677
 9996SOL     OW30886   3.081   2.899   1.567
 9996SOL    HW130887   3.155   2.857   1.515
 9996SOL    HW230888   3.020   2.827   1.601
 9997SOL     OW30889   3.215   0.807   4.727
 9997SOL    HW130890   3.175   0.716   4.738
 9997SOL    HW230891   3.165   0.857   4.656
 9998SOL     OW30892   6.269   5.736   5.523
 9998SOL    HW130893   6.263   5.833   5.545
 9998SOL    HW230894   6.360   5.702   5.548
 9999SOL     OW30895   0.185   0.895   5.476
 9999SOL    HW130896   0.229   0.889   5.566
 9999SOL    HW230897   0.094   0.934   5.487
10000SOL     OW30898   6.656   4.873   0.763
10000SOL    HW130899   6.593   4.930   0.711
10000SOL    HW230900   6.739   4.857   0.710
10001SOL     OW30901   3.927   0.949   3.923
10001SOL    HW130902   3.845   0.925   3.976
10001SOL    HW230903   3.900   1.005   3.845
10002SOL     OW30904   1.025   1.937   2.028
10002SOL    HW130905   0.995   1.931   1.933
10002SOL    HW230906   1.015   2.031   2.060
10003SOL     OW30907   5.651   3.367   1.371
10003SOL    HW130908   5.693   3.419   1.296
10003SOL    HW230909   5.553   3.386   1.374
10004SOL     OW30910   6.075   3.578   4.163
10004SOL    HW130911   6.042   3.483   4.165
10004SOL    HW230912   6.070   3.617   4.255
10005SOL     OW30913   4.726   0.072   2.910
10005SOL    HW130914   4.629   0.087   2.929
10005SOL    HW230915   4.780   0.092   2.991
10006SOL     OW30916   5.209   3.069   4.069
10006SOL    HW130917   5.248   3.011   3.996
10006SOL    HW230918   5.281   3.128   4.105
10007SOL     OW30919   4.893   6.027   4.114
10007SOL    HW130920   4.889   6.127   4.108
10007SOL    HW230921   4.856   5.987   4.029
10008SOL     OW30922   2.590   6.610   3.905
10008SOL    HW130923   2.680   6.598   3.947
10008SOL    HW230924   2.569   6.529   3.850
10009SOL     OW30925   2.339   4.201   1.803
10009SOL    HW130926   2.345   4.241   1.894
10009SOL    HW230927   2.384   4.262   1.737
10010SOL     OW30928   5.639   0.677   5.163
10010SOL    HW130929   5.627   0.761   5.109
10010SOL    HW230930   5.557   0.660   5.217
10011SOL     OW30931   6.317   6.735   3.330
10011SOL    HW130932   6.391   6.693   3.276
10011SOL    HW230933   6.298   6.826   3.294
10012SOL     OW30934   4.706   2.129   4.941
10012SOL    HW130935   4.792   2.127   4.890
10012SOL    HW230936   4.629   2.113   4.879
10013SOL     OW30937   1.987   0.802   1.024
10013SOL    HW130938   1.969   0.829   1.118
10013SOL    HW230939   2.045   0.870   0.980
10014SOL     OW30940   1.204   5.121   5.668
10014SOL    HW130941   1.186   5.219   5.661
10014SOL    HW230942   1.303   5.106   5.675
10015SOL     OW30943   2.384   6.311   6.196
10015SOL    HW130944   2.400   6.357   6.283
10015SOL    HW230945   2.470   6.304   6.145
10016SOL     OW30946   2.793   1.285   5.448
10016SOL    HW130947   2.769   1.377   5.416
10016SOL    HW230948   2.867   1.291   5.514
10017SOL     OW30949   6.309   2.185   2.813
10017SOL    HW130950   6.235   2.127   2.779
10017SOL    HW230951   6.272   2.275   2.837
10018SOL     OW30952   4.458   0.000   5.287
10018SOL    HW130953   4.496   6.988   5.370
10018SOL    HW230954   4.387   6.968   5.250
10019SOL     OW30955   0.391   0.751   3.677
10019SOL    HW130956   0.315   0.807   3.647
10019SOL    HW230957   0.396   0.668   3.621
10020SOL     OW30958   1.093   3.804   0.585
10020SOL    HW130959   1.023   3.875   0.584
10020SOL    HW230960   1.081   3.744   0.507
10021SOL     OW30961   4.953   2.906   0.718
10021SOL    HW130962   5.037   2.904   0.664
10021SOL    HW230963   4.875   2.915   0.657
10022SOL     OW30964   2.362   1.409   5.833
10022SOL    HW130965   2.441   1.360   5.869
10022SOL    HW230966   2.325   1.359   5.754
10023SOL     OW30967   0.930   3.212   0.649
10023SOL    HW130968   0.965   3.149   0.580
10023SOL    HW230969   0.930   3.305   0.613
10024SOL     OW30970   0.481   3.644   2.470
10024SOL    HW130971   0.393   3.689   2.488
10024SOL    HW230972   0.520   3.681   2.386
10025SOL     OW30973   1.395   1.585   0.535
10025SOL    HW130974   1.443   1.511   0.581
10025SOL    HW230975   1.459   1.633   0.474
10026SOL     OW30976   6.003   0.677   3.769
10026SOL    HW130977   5.943   0.745   3.812
10026SOL    HW230978   6.079   0.723   3.725
10027SOL     OW30979   6.785   3.037   5.606
10027SOL    HW130980   6.862   2.975   5.589
10027SOL    HW230981   6.705   3.005   5.555
10028SOL     OW30982   1.524   1.404   0.704
10028SOL    HW130983   1.620   1.380   0.718
10028SOL    HW230984   1.474   1.393   0.790
10029SOL     OW30985   3.886   1.233   4.939
10029SOL    HW130986   3.863   1.141   4.906
10029SOL    HW230987   3.814   1.265   5.001
10030SOL     OW30988   0.720   0.981   1.671
10030SOL    HW130989   0.782   0.959   1.746
10030SOL    HW230990   0.658   1.054   1.700
10031SOL     OW30991   0.094   5.230   3.124
10031SOL    HW130992   0.164   5.278   3.070
10031SOL    HW230993   0.073   5.283   3.206
10032SOL     OW30994   3.863   2.247   5.225
10032SOL    HW130995   3.906   2.337   5.221
10032SOL    HW230996   3.887   2.195   5.143
10033SOL     OW30997   6.106   2.960   4.324
10033SOL    HW130998   6.200   2.989   4.344
10033SOL    HW230999   6.081   2.885   4.387
10034SOL     OW31000   4.040   6.730   5.534
10034SOL    HW131001   4.049   6.656   5.600
10034SOL    HW231002   4.032   6.692   5.442
10035SOL     OW31003   0.070   5.878   4.058
10035SOL    HW131004   0.158   5.902   4.098
10035SOL    HW231005   7.024   5.905   4.121
10036SOL     OW31006   6.362   6.930   0.101
10036SOL    HW131007   6.458   6.946   0.121
10036SOL    HW231008   6.353   6.892   0.009
10037SOL     OW31009   6.986   0.417   1.661
10037SOL    HW131010   6.970   0.481   1.586
10037SOL    HW231011   0.052   0.426   1.694
10038SOL     OW31012   5.361   6.960   1.643
10038SOL    HW131013   5.397   0.022   1.668
10038SOL    HW231014   5.269   6.971   1.604
10039SOL     OW31015   3.386   0.874   3.158
10039SOL    HW131016   3.337   0.787   3.159
10039SOL    HW231017   3.357   0.930   3.236
10040SOL     OW31018   0.325   1.956   0.665
10040SOL    HW131019   0.320   1.891   0.741
10040SOL    HW231020   0.381   1.917   0.591
10041SOL     OW31021   0.324   6.754   0.175
10041SOL    HW131022   0.318   6.846   0.213
10041SOL    HW231023   0.385   6.755   0.096
10042SOL     OW31024   6.444   1.642   3.760
10042SOL    HW131025   6.391   1.727   3.766
10042SOL    HW231026   6.496   1.641   3.675
10043SOL     OW31027   2.276   3.087   5.386
10043SOL    HW131028   2.185   3.057   5.356
10043SOL    HW231029   2.346   3.039   5.333
10044SOL     OW31030   3.958   0.496   6.261
10044SOL    HW131031   3.861   0.501   6.286
10044SOL    HW231032   3.975   0.552   6.180
10045SOL     OW31033   2.327   6.718   1.222
10045SOL    HW131034   2.376   6.772   1.290
10045SOL    HW231035   2.255   6.664   1.266
10046SOL     OW31036   0.796   6.521   0.358
10046SOL    HW131037   0.740   6.531   0.275
10046SOL    HW231038   0.739   6.489   0.433
10047SOL     OW31039   1.688   3.995   1.084
10047SOL    HW131040   1.647   4.026   1.170
10047SOL    HW231041   1.786   3.982   1.096
10048SOL     OW31042   6.500   2.860   0.984
10048SOL    HW131043   6.426   2.850   1.050
10048SOL    HW231044   6.484   2.801   0.905
10049SOL     OW31045   6.826   2.148   4.580
10049SOL    HW131046   6.821   2.049   4.565
10049SOL    HW231047   6.769   2.195   4.514
10050SOL     OW31048   0.547   1.924   5.854
10050SOL    HW131049   0.628   1.981   5.872
10050SOL    HW231050   0.488   1.970   5.788
10051SOL     OW31051   1.369   0.676   2.397
10051SOL    HW131052   1.371   0.586   2.354
10051SOL    HW231053   1.400   0.668   2.492
10052SOL     OW31054   0.481   0.313   4.326
10052SOL    HW131055   0.392   0.272   4.344
10052SOL    HW231056   0.473   0.378   4.250
10053SOL     OW31057   5.929   5.980   2.095
10053SOL    HW131058   6.008   6.038   2.075
10053SOL    HW231059   5.906   5.926   2.014
10054SOL     OW31060   4.840   4.711   3.295
10054SOL    HW131061   4.810   4.655   3.218
10054SOL    HW231062   4.857   4.653   3.374
10055SOL     OW31063   2.024   1.857   6.922
10055SOL    HW131064   1.939   1.815   6.889
10055SOL    HW231065   2.042   1.941   6.871
10056SOL     OW31066   5.415   3.376   4.861
10056SOL    HW131067   5.456   3.365   4.771
10056SOL    HW231068   5.487   3.375   4.930
10057SOL     OW31069   6.362   4.573   4.824
10057SOL    HW131070   6.310   4.655   4.850
10057SOL    HW231071   6.458   4.587   4.845
10058SOL     OW31072   5.610   3.796   4.112
10058SOL    HW131073   5.700   3.822   4.076
10058SOL    HW231074   5.581   3.710   4.070
10059SOL     OW31075   5.251   6.178   5.832
10059SOL    HW131076   5.228   6.175   5.735
10059SOL    HW231077   5.297   6.093   5.858
10060SOL     OW31078   3.048   1.129   1.613
10060SOL    HW131079   2.961   1.105   1.656
10060SOL    HW231080   3.031   1.191   1.536
10061SOL     OW31081   3.598   0.069   2.979
10061SOL    HW131082   3.531   0.018   3.033
10061SOL    HW231083   3.681   0.083   3.032
10062SOL     OW31084   6.078   6.375   3.925
10062SOL    HW131085   5.983   6.380   3.893
10062SOL    HW231086   6.097   6.454   3.983
10063SOL     OW31087   4.353   2.341   2.638
10063SOL    HW131088   4.386   2.410   2.573
10063SOL    HW231089   4.297   2.274   2.590
10064SOL     OW31090   1.613   6.226   2.644
10064SOL    HW131091   1.664   6.273   2.716
10064SOL    HW231092   1.669   6.218   2.562
10065SOL     OW31093   6.390   2.014   1.292
10065SOL    HW131094   6.294   2.032   1.270
10065SOL    HW231095   6.448   2.047   1.218
10066SOL     OW31096   5.675   4.202   3.780
10066SOL    HW131097   5.678   4.196   3.880
10066SOL    HW231098   5.742   4.270   3.749
10067SOL     OW31099   5.615   3.234   5.248
10067SOL    HW131100   5.566   3.156   5.210
10067SOL    HW231101   5.594   3.242   5.345
10068SOL     OW31102   2.298   4.285   2.874
10068SOL    HW131103   2.298   4.255   2.969
10068SOL    HW231104   2.263   4.379   2.869
10069SOL     OW31105   3.332   5.398   1.091
10069SOL    HW131106   3.365   5.304   1.104
10069SOL    HW231107   3.269   5.400   1.014
10070SOL     OW31108   5.282   0.555   6.648
10070SOL    HW131109   5.217   0.595   6.712
10070SOL    HW231110   5.375   0.566   6.684
10071SOL     OW31111   5.109   1.345   4.400
10071SOL    HW131112   5.084   1.430   4.446
10071SOL    HW231113   5.092   1.354   4.302
10072SOL     OW31114   5.790   2.928   1.392
10072SOL    HW131115   5.815   3.023   1.372
10072SOL    HW231116   5.779   2.917   1.491
10073SOL     OW31117   5.533   5.111   5.092
10073SOL    HW131118   5.480   5.059   5.159
10073SOL    HW231119   5.483   5.193   5.066
10074SOL     OW31120   2.162   4.781   1.789
10074SOL    HW131121   2.097   4.813   1.858
10074SOL    HW231122   2.195   4.690   1.814
10075SOL     OW31123   0.786   3.862   1.273
10075SOL    HW131124   0.846   3.784   1.255
10075SOL    HW231125   0.743   3.892   1.187
10076SOL     OW31126   5.951   4.801   4.059
10076SOL    HW131127   5.974   4.890   4.097
10076SOL    HW231128   5.852   4.795   4.046
10077SOL     OW31129   4.793   4.226   6.658
10077SOL    HW131130   4.841   4.151   6.614
10077SOL    HW231131   4.694   4.208   6.658
10078SOL     OW31132   5.965   6.026   3.811
10078SOL    HW131133   6.023   6.103   3.785
10078SOL    HW231134   5.924   5.986   3.730
10079SOL     OW31135   5.919   5.446   3.897
10079SOL    HW131136   5.931   5.383   3.974
10079SOL    HW231137   6.003   5.450   3.843
10080SOL     OW31138   4.860   3.062   4.249
10080SOL    HW131139   4.860   2.968   4.216
10080SOL    HW231140   4.766   3.090   4.270
10081SOL     OW31141   1.419   5.259   0.490
10081SOL    HW131142   1.448   5.215   0.405
10081SOL    HW231143   1.419   5.359   0.477
10082SOL     OW31144   6.958   3.988   1.827
10082SOL    HW131145   6.914   3.904   1.795
10082SOL    HW231146   6.932   4.005   1.922
10083SOL     OW31147   3.222   5.204   2.934
10083SOL    HW131148   3.314   5.179   2.903
10083SOL    HW231149   3.163   5.124   2.927
10084SOL     OW31150   2.032   3.913   4.289
10084SOL    HW131151   1.968   3.867   4.350
10084SOL    HW231152   2.126   3.887   4.313
10085SOL     OW31153   3.017   6.460   1.564
10085SOL    HW131154   2.977   6.383   1.616
10085SOL    HW231155   3.110   6.477   1.597
10086SOL     OW31156   2.644   0.865   2.684
10086SOL    HW131157   2.570   0.933   2.688
10086SOL    HW231158   2.701   0.874   2.766
10087SOL     OW31159   1.918   5.702   0.198
10087SOL    HW131160   1.827   5.699   0.157
10087SOL    HW231161   1.981   5.647   0.144
10088SOL     OW31162   5.195   1.992   0.815
10088SOL    HW131163   5.207   2.092   0.817
10088SOL    HW231164   5.098   1.970   0.822
10089SOL     OW31165   3.388   0.335   3.661
10089SOL    HW131166   3.420   0.419   3.617
10089SOL    HW231167   3.310   0.355   3.720
10090SOL     OW31168   3.244   6.202   3.468
10090SOL    HW131169   3.316   6.271   3.460
10090SOL    HW231170   3.177   6.216   3.395
10091SOL     OW31171   4.510   6.559   3.192
10091SOL    HW131172   4.569   6.577   3.271
10091SOL    HW231173   4.478   6.645   3.154
10092SOL     OW31174   6.210   0.877   1.856
10092SOL    HW131175   6.256   0.939   1.792
10092SOL    HW231176   6.247   0.785   1.845
10093SOL     OW31177   4.545   4.318   6.407
10093SOL    HW131178   4.463   4.374   6.394
10093SOL    HW231179   4.560   4.262   6.326
10094SOL     OW31180   4.287   3.382   0.306
10094SOL    HW131181   4.264   3.421   0.217
10094SOL    HW231182   4.260   3.445   0.378
10095SOL     OW31183   4.464   2.655   5.198
10095SOL    HW131184   4.372   2.620   5.180
10095SOL    HW231185   4.525   2.578   5.219
10096SOL     OW31186   6.071   4.680   1.766
10096SOL    HW131187   6.027   4.764   1.735
10096SOL    HW231188   6.016   4.601   1.739
10097SOL     OW31189   0.819   0.383   0.912
10097SOL    HW131190   0.870   0.367   0.997
10097SOL    HW231191   0.859   0.328   0.838
10098SOL     OW31192   3.873   4.884   1.178
10098SOL    HW131193   3.832   4.830   1.105
10098SOL    HW231194   3.970   4.861   1.185
10099SOL     OW31195   6.979   6.286   3.069
10099SOL    HW131196   0.051   6.272   3.069
10099SOL    HW231197   6.959   6.383   3.064
10100SOL     OW31198   5.898   5.946   4.064
10100SOL    HW131199   5.926   5.953   3.968
10100SOL    HW231200   5.884   6.038   4.101
10101SOL     OW31201   0.058   2.536   6.128
10101SOL    HW131202   0.059   2.451   6.076
10101SOL    HW231203   0.152   2.569   6.139
10102SOL     OW31204   0.242   5.196   4.468
10102SOL    HW131205   0.178   5.125   4.494
10102SOL    HW231206   0.329   5.182   4.515
10103SOL     OW31207   0.982   0.357   6.795
10103SOL    HW131208   1.048   0.323   6.862
10103SOL    HW231209   0.897   0.305   6.803
10104SOL     OW31210   2.882   1.886   4.435
10104SOL    HW131211   2.977   1.904   4.462
10104SOL    HW231212   2.829   1.858   4.515
10105SOL     OW31213   3.371   1.183   4.433
10105SOL    HW131214   3.351   1.234   4.517
10105SOL    HW231215   3.423   1.101   4.455
10106SOL     OW31216   6.982   3.193   1.771
10106SOL    HW131217   0.005   3.237   1.845
10106SOL    HW231218   6.886   3.181   1.799
10107SOL     OW31219   4.661   5.745   5.081
10107SOL    HW131220   4.630   5.652   5.100
10107SOL    HW231221   4.684   5.790   5.168
10108SOL     OW31222   3.252   2.167   4.516
10108SOL    HW131223   3.191   2.165   4.596
10108SOL    HW231224   3.265   2.261   4.486
10109SOL     OW31225   1.234   2.695   0.885
10109SOL    HW131226   1.317   2.747   0.904
10109SOL    HW231227   1.164   2.758   0.850
10110SOL     OW31228   6.273   6.297   1.812
10110SOL    HW131229   6.274   6.323   1.909
10110SOL    HW231230   6.188   6.327   1.770
10111SOL     OW31231   0.001   2.306   0.691
10111SOL    HW131232   6.940   2.280   0.653
10111SOL    HW231233   0.062   2.333   0.616
10112SOL     OW31234   0.410   3.205   2.998
10112SOL    HW131235   0.374   3.185   2.907
10112SOL    HW231236   0.495   3.154   3.013
10113SOL     OW31237   0.182   6.535   6.057
10113SOL    HW131238   0.251   6.478   6.102
10113SOL    HW231239   0.154   6.609   6.118
10114SOL     OW31240   5.708   4.039   2.010
10114SOL    HW131241   5.647   4.036   1.931
10114SOL    HW231242   5.673   3.979   2.082
10115SOL     OW31243   2.637   1.388   6.677
10115SOL    HW131244   2.640   1.477   6.632
10115SOL    HW231245   2.730   1.360   6.701
10116SOL     OW31246   1.389   0.186   6.195
10116SOL    HW131247   1.346   0.160   6.108
10116SOL    HW231248   1.328   0.164   6.271
10117SOL     OW31249   0.750   4.438   0.815
10117SOL    HW131250   0.666   4.479   0.779
10117SOL    HW231251   0.752   4.449   0.914
10118SOL     OW31252   4.157   5.747   3.176
10118SOL    HW131253   4.128   5.744   3.080
10118SOL    HW231254   4.122   5.667   3.224
10119SOL     OW31255   5.821   5.618   6.980
10119SOL    HW131256   5.778   5.692   6.928
10119SOL    HW231257   5.850   5.652   0.041
10120SOL     OW31258   2.367   2.021   2.403
10120SOL    HW131259   2.399   2.113   2.381
10120SOL    HW231260   2.419   1.986   2.482
10121SOL     OW31261   6.820   6.457   1.794
10121SOL    HW131262   6.752   6.398   1.836
10121SOL    HW231263   6.775   6.541   1.761
10122SOL     OW31264   1.729   7.017   3.693
10122SOL    HW131265   1.808   6.983   3.743
10122SOL    HW231266   1.751   0.077   3.651
10123SOL     OW31267   6.230   6.083   6.651
10123SOL    HW131268   6.308   6.030   6.618
10123SOL    HW231269   6.176   6.116   6.573
10124SOL     OW31270   0.385   4.795   3.495
10124SOL    HW131271   0.313   4.726   3.503
10124SOL    HW231272   0.458   4.776   3.561
10125SOL     OW31273   2.372   2.785   3.907
10125SOL    HW131274   2.421   2.729   3.840
10125SOL    HW231275   2.274   2.769   3.898
10126SOL     OW31276   6.988   6.093   4.363
10126SOL    HW131277   6.897   6.123   4.392
10126SOL    HW231278   7.018   6.018   4.421
10127SOL     OW31279   2.156   0.662   5.583
10127SOL    HW131280   2.199   0.644   5.671
10127SOL    HW231281   2.095   0.740   5.590
10128SOL     OW31282   2.854   0.175   0.481
10128SOL    HW131283   2.799   0.107   0.433
10128SOL    HW231284   2.795   0.252   0.506
10129SOL     OW31285   6.728   2.617   5.706
10129SOL    HW131286   6.754   2.537   5.761
10129SOL    HW231287   6.733   2.699   5.763
10130SOL     OW31288   0.642   2.464   3.339
10130SOL    HW131289   0.561   2.504   3.296
10130SOL    HW231290   0.695   2.415   3.270
10131SOL     OW31291   2.587   0.642   4.974
10131SOL    HW131292   2.683   0.631   5.001
10131SOL    HW231293   2.582   0.700   4.892
10132SOL     OW31294   5.905   1.040   1.516
10132SOL    HW131295   5.898   0.956   1.462
10132SOL    HW231296   6.001   1.068   1.521
10133SOL     OW31297   4.655   5.121   0.849
10133SOL    HW131298   4.673   5.153   0.756
10133SOL    HW231299   4.735   5.074   0.885
10134SOL     OW31300   6.126   1.020   2.645
10134SOL    HW131301   6.056   1.075   2.599
10134SOL    HW231302   6.135   0.932   2.599
10135SOL     OW31303   5.600   6.585   3.287
10135SOL    HW131304   5.555   6.550   3.205
10135SOL    HW231305   5.684   6.633   3.260
10136SOL     OW31306   5.102   0.054   3.254
10136SOL    HW131307   5.089   0.106   3.170
10136SOL    HW231308   5.034   7.008   3.258
10137SOL     OW31309   5.963   6.371   2.117
10137SOL    HW131310   6.005   6.461   2.106
10137SOL    HW231311   5.980   6.337   2.209
10138SOL     OW31312   0.569   1.192   1.778
10138SOL    HW131313   0.527   1.260   1.717
10138SOL    HW231314   0.521   1.192   1.865
10139SOL     OW31315   4.479   2.027   0.414
10139SOL    HW131316   4.435   1.947   0.372
10139SOL    HW231317   4.415   2.070   0.478
10140SOL     OW31318   6.046   6.648   3.337
10140SOL    HW131319   5.989   6.716   3.291
10140SOL    HW231320   6.139   6.684   3.347
10141SOL     OW31321   0.456   2.040   5.372
10141SOL    HW131322   0.467   1.942   5.354
10141SOL    HW231323   0.414   2.054   5.462
10142SOL     OW31324   4.117   5.466   1.364
10142SOL    HW131325   4.205   5.447   1.322
10142SOL    HW231326   4.085   5.386   1.414
10143SOL     OW31327   0.912   3.056   6.441
10143SOL    HW131328   0.949   2.963   6.436
10143SOL    HW231329   0.892   3.078   6.536
10144SOL     OW31330   4.567   0.034   2.582
10144SOL    HW131331   4.658   0.062   2.552
10144SOL    HW231332   4.532   0.101   2.648
10145SOL     OW31333   5.989   0.903   5.043
10145SOL    HW131334   5.911   0.952   5.082
10145SOL    HW231335   6.068   0.964   5.040
10146SOL     OW31336   1.954   0.888   5.588
10146SOL    HW131337   1.860   0.918   5.605
10146SOL    HW231338   2.017   0.962   5.611
10147SOL     OW31339   3.908   4.821   6.689
10147SOL    HW131340   3.883   4.907   6.645
10147SOL    HW231341   3.982   4.836   6.754
10148SOL     OW31342   6.655   5.668   6.268
10148SOL    HW131343   6.587   5.604   6.232
10148SOL    HW231344   6.668   5.650   6.366
10149SOL     OW31345   3.433   3.249   4.617
10149SOL    HW131346   3.381   3.169   4.584
10149SOL    HW231347   3.397   3.332   4.573
10150SOL     OW31348   6.476   4.084   0.084
10150SOL    HW131349   6.440   4.121   0.170
10150SOL    HW231350   6.478   3.984   0.089
10151SOL     OW31351   0.523   0.245   6.992
10151SOL    HW131352   0.596   0.259   6.924
10151SOL    HW231353   0.461   0.324   6.990
10152SOL     OW31354   3.170   6.847   4.162
10152SOL    HW131355   3.236   6.896   4.219
10152SOL    HW231356   3.103   6.911   4.126
10153SOL     OW31357   3.763   4.501   0.441
10153SOL    HW131358   3.748   4.582   0.384
10153SOL    HW231359   3.840   4.448   0.404
10154SOL     OW31360   4.301   4.899   6.368
10154SOL    HW131361   4.271   4.992   6.388
10154SOL    HW231362   4.246   4.862   6.294
10155SOL     OW31363   4.751   2.732   4.633
10155SOL    HW131364   4.740   2.650   4.689
10155SOL    HW231365   4.731   2.813   4.688
10156SOL     OW31366   3.200   2.102   6.634
10156SOL    HW131367   3.222   2.086   6.730
10156SOL    HW231368   3.171   2.016   6.591
10157SOL     OW31369   0.268   5.480   2.731
10157SOL    HW131370   0.215   5.396   2.717
10157SOL    HW231371   0.261   5.538   2.650
10158SOL     OW31372   0.609   5.442   5.997
10158SOL    HW131373   0.521   5.415   6.038
10158SOL    HW231374   0.597   5.457   5.899
10159SOL     OW31375   4.066   2.913   1.717
10159SOL    HW131376   4.092   2.985   1.782
10159SOL    HW231377   4.137   2.842   1.716
10160SOL     OW31378   6.746   4.323   2.634
10160SOL    HW131379   6.827   4.367   2.595
10160SOL    HW231380   6.716   4.248   2.574
10161SOL     OW31381   6.310   2.965   0.069
10161SOL    HW131382   6.278   2.892   0.009
10161SOL    HW231383   6.328   3.047   0.014
10162SOL     OW31384   1.862   1.823   2.719
10162SOL    HW131385   1.807   1.785   2.645
10162SOL    HW231386   1.943   1.868   2.681
10163SOL     OW31387   4.414   5.552   4.503
10163SOL    HW131388   4.375   5.497   4.429
10163SOL    HW231389   4.354   5.548   4.582
10164SOL     OW31390   0.498   1.222   3.943
10164SOL    HW131391   0.491   1.210   4.042
10164SOL    HW231392   0.492   1.133   3.898
10165SOL     OW31393   1.613   2.655   4.002
10165SOL    HW131394   1.560   2.649   3.918
10165SOL    HW231395   1.694   2.597   3.995
10166SOL     OW31396   3.510   6.334   4.005
10166SOL    HW131397   3.587   6.315   3.944
10166SOL    HW231398   3.527   6.417   4.057
10167SOL     OW31399   3.783   2.247   7.000
10167SOL    HW131400   3.862   2.195   6.968
10167SOL    HW231401   3.795   2.270   0.068
10168SOL     OW31402   0.310   0.795   6.229
10168SOL    HW131403   0.256   0.743   6.162
10168SOL    HW231404   0.307   0.748   6.317
10169SOL     OW31405   4.925   4.890   2.526
10169SOL    HW131406   4.956   4.809   2.477
10169SOL    HW231407   4.957   4.886   2.621
10170SOL     OW31408   4.437   0.229   0.182
10170SOL    HW131409   4.372   0.248   0.255
10170SOL    HW231410   4.468   0.134   0.189
10171SOL     OW31411   0.868   4.943   3.278
10171SOL    HW131412   0.833   5.035   3.266
10171SOL    HW231413   0.967   4.944   3.271
10172SOL     OW31414   0.672   0.310   3.650
10172SOL    HW131415   0.651   0.406   3.667
10172SOL    HW231416   0.609   0.252   3.703
10173SOL     OW31417   4.700   2.748   3.929
10173SOL    HW131418   4.604   2.742   3.900
10173SOL    HW231419   4.756   2.779   3.853
10174SOL     OW31420   3.873   5.873   1.113
10174SOL    HW131421   3.934   5.890   1.035
10174SOL    HW231422   3.881   5.777   1.140
10175SOL     OW31423   6.803   6.762   4.998
10175SOL    HW131424   6.801   6.839   4.935
10175SOL    HW231425   6.820   6.795   5.091
10176SOL     OW31426   0.042   1.551   4.977
10176SOL    HW131427   0.090   1.567   4.891
10176SOL    HW231428   7.017   1.633   5.000
10177SOL     OW31429   3.030   0.923   4.552
10177SOL    HW131430   2.950   0.865   4.549
10177SOL    HW231431   3.062   0.941   4.458
10178SOL     OW31432   5.542   1.188   1.384
10178SOL    HW131433   5.572   1.201   1.289
10178SOL    HW231434   5.526   1.277   1.427
10179SOL     OW31435   6.424   5.825   0.810
10179SOL    HW131436   6.363   5.866   0.742
10179SOL    HW231437   6.423   5.725   0.799
10180SOL     OW31438   2.133   0.478   6.151
10180SOL    HW131439   2.189   0.413   6.099
10180SOL    HW231440   2.057   0.509   6.094
10181SOL     OW31441   0.086   4.020   2.659
10181SOL    HW131442   0.134   4.038   2.745
10181SOL    HW231443   0.088   4.101   2.601
10182SOL     OW31444   2.945   6.980   6.746
10182SOL    HW131445   2.866   6.918   6.747
10182SOL    HW231446   3.012   6.948   6.679
10183SOL     OW31447   3.636   6.198   6.163
10183SOL    HW131448   3.594   6.286   6.144
10183SOL    HW231449   3.691   6.204   6.246
10184SOL     OW31450   5.073   2.757   4.174
10184SOL    HW131451   5.106   2.847   4.147
10184SOL    HW231452   4.974   2.752   4.161
10185SOL     OW31453   2.638   4.650   1.779
10185SOL    HW131454   2.717   4.594   1.803
10185SOL    HW231455   2.610   4.704   1.859
10186SOL     OW31456   3.196   3.250   2.321
10186SOL    HW131457   3.263   3.312   2.363
10186SOL    HW231458   3.112   3.300   2.302
10187SOL     OW31459   1.599   3.300   4.733
10187SOL    HW131460   1.533   3.313   4.807
10187SOL    HW231461   1.586   3.210   4.691
10188SOL     OW31462   2.620   6.256   0.536
10188SOL    HW131463   2.719   6.244   0.538
10188SOL    HW231464   2.582   6.209   0.456
10189SOL     OW31465   1.733   0.966   5.799
10189SOL    HW131466   1.762   0.973   5.895
10189SOL    HW231467   1.781   1.035   5.745
10190SOL     OW31468   2.864   4.161   1.252
10190SOL    HW131469   2.893   4.236   1.311
10190SOL    HW231470   2.934   4.144   1.183
10191SOL     OW31471   6.797   0.138   6.408
10191SOL    HW131472   6.704   0.104   6.421
10191SOL    HW231473   6.846   0.135   6.495
10192SOL     OW31474   3.079   1.280   3.510
10192SOL    HW131475   3.026   1.365   3.502
10192SOL    HW231476   3.167   1.299   3.553
10193SOL     OW31477   3.346   2.934   4.301
10193SOL    HW131478   3.419   2.879   4.343
10193SOL    HW231479   3.341   2.914   4.203
10194SOL     OW31480   3.433   5.768   3.471
10194SOL    HW131481   3.411   5.721   3.385
10194SOL    HW231482   3.354   5.823   3.499
10195SOL     OW31483   5.276   6.522   1.674
10195SOL    HW131484   5.354   6.582   1.654
10195SOL    HW231485   5.199   6.577   1.705
10196SOL     OW31486   5.045   4.346   4.794
10196SOL    HW131487   5.046   4.297   4.706
10196SOL    HW231488   5.065   4.442   4.778
10197SOL     OW31489   5.891   2.208   2.389
10197SOL    HW131490   5.910   2.299   2.354
10197SOL    HW231491   5.877   2.145   2.313
10198SOL     OW31492   3.411   1.583   2.307
10198SOL    HW131493   3.355   1.560   2.387
10198SOL    HW231494   3.364   1.553   2.224
10199SOL     OW31495   1.783   1.736   6.909
10199SOL    HW131496   1.746   1.658   6.959
10199SOL    HW231497   1.725   1.755   6.829
10200SOL     OW31498   3.844   6.467   3.365
10200SOL    HW131499   3.932   6.502   3.333
10200SOL    HW231500   3.847   6.367   3.368
10201SOL     OW31501   0.237   4.486   2.348
10201SOL    HW131502   0.259   4.574   2.389
10201SOL    HW231503   0.189   4.501   2.261
10202SOL     OW31504   1.960   2.878   3.810
10202SOL    HW131505   2.045   2.837   3.777
10202SOL    HW231506   1.974   2.976   3.826
10203SOL     OW31507   6.276   2.306   0.981
10203SOL    HW131508   6.182   2.288   0.954
10203SOL    HW231509   6.285   2.299   1.080
10204SOL     OW31510   0.913   5.934   4.378
10204SOL    HW131511   0.844   5.889   4.435
10204SOL    HW231512   0.953   5.867   4.315
10205SOL     OW31513   3.331   6.982   1.584
10205SOL    HW131514   3.352   0.048   1.608
10205SOL    HW231515   3.414   6.927   1.585
10206SOL     OW31516   5.991   5.730   6.688
10206SOL    HW131517   5.924   5.700   6.755
10206SOL    HW231518   6.040   5.810   6.724
10207SOL     OW31519   2.764   1.350   1.508
10207SOL    HW131520   2.728   1.442   1.520
10207SOL    HW231521   2.750   1.322   1.413
10208SOL     OW31522   1.253   2.577   6.061
10208SOL    HW131523   1.306   2.493   6.065
10208SOL    HW231524   1.216   2.598   6.151
10209SOL     OW31525   3.971   6.422   0.803
10209SOL    HW131526   3.940   6.360   0.731
10209SOL    HW231527   4.069   6.410   0.816
10210SOL     OW31528   4.335   5.922   6.735
10210SOL    HW131529   4.251   5.914   6.788
10210SOL    HW231530   4.384   6.004   6.762
10211SOL     OW31531   3.798   5.244   4.967
10211SOL    HW131532   3.821   5.312   4.897
10211SOL    HW231533   3.705   5.259   4.999
10212SOL     OW31534   6.870   5.567   5.674
10212SOL    HW131535   6.963   5.595   5.699
10212SOL    HW231536   6.832   5.510   5.746
10213SOL     OW31537   3.431   0.520   4.844
10213SOL    HW131538   3.353   0.458   4.829
10213SOL    HW231539   3.479   0.535   4.758
10214SOL     OW31540   6.810   0.188   0.119
10214SOL    HW131541   6.737   0.121   0.139
10214SOL    HW231542   6.804   0.216   0.024
10215SOL     OW31543   4.987   2.434   0.024
10215SOL    HW131544   5.005   2.346   0.068
10215SOL    HW231545   5.054   2.450   6.979
10216SOL     OW31546   5.020   0.033   2.794
10216SOL    HW131547   5.019   6.962   2.807
10216SOL    HW231548   5.029   0.078   2.882
10217SOL     OW31549   2.635   1.839   6.667
10217SOL    HW131550   2.714   1.779   6.659
10217SOL    HW231551   2.643   1.894   6.751
10218SOL     OW31552   3.920   0.959   5.831
10218SOL    HW131553   3.832   0.954   5.784
10218SOL    HW231554   3.993   0.966   5.763
10219SOL     OW31555   6.722   5.371   1.093
10219SOL    HW131556   6.759   5.281   1.071
10219SOL    HW231557   6.782   5.417   1.158
10220SOL     OW31558   4.195   2.398   6.495
10220SOL    HW131559   4.132   2.445   6.557
10220SOL    HW231560   4.214   2.307   6.531
10221SOL     OW31561   2.110   0.132   4.543
10221SOL    HW131562   2.030   0.174   4.586
10221SOL    HW231563   2.085   0.095   4.454
10222SOL     OW31564   2.602   5.305   5.455
10222SOL    HW131565   2.508   5.273   5.472
10222SOL    HW231566   2.599   5.395   5.411
10223SOL     OW31567   2.502   5.770   5.716
10223SOL    HW131568   2.464   5.690   5.670
10223SOL    HW231569   2.433   5.809   5.777
10224SOL     OW31570   4.330   5.740   5.302
10224SOL    HW131571   4.268   5.770   5.229
10224SOL    HW231572   4.399   5.811   5.317
10225SOL     OW31573   5.152   0.490   5.506
10225SOL    HW131574   5.060   0.526   5.488
10225SOL    HW231575   5.214   0.565   5.530
10226SOL     OW31576   6.612   2.411   6.543
10226SOL    HW131577   6.707   2.428   6.516
10226SOL    HW231578   6.560   2.496   6.541
10227SOL     OW31579   4.447   4.877   5.352
10227SOL    HW131580   4.495   4.956   5.314
10227SOL    HW231581   4.385   4.839   5.284
10228SOL     OW31582   0.841   2.610   0.990
10228SOL    HW131583   0.893   2.635   1.072
10228SOL    HW231584   0.755   2.567   1.017
10229SOL     OW31585   2.363   0.655   1.646
10229SOL    HW131586   2.447   0.706   1.666
10229SOL    HW231587   2.386   0.561   1.621
10230SOL     OW31588   5.619   0.394   3.426
10230SOL    HW131589   5.699   0.338   3.404
10230SOL    HW231590   5.575   0.423   3.341
10231SOL     OW31591   5.903   0.603   4.773
10231SOL    HW131592   5.932   0.605   4.869
10231SOL    HW231593   5.936   0.520   4.730
10232SOL     OW31594   3.774   2.065   2.639
10232SOL    HW131595   3.724   2.097   2.719
10232SOL    HW231596   3.864   2.031   2.667
10233SOL     OW31597   4.979   6.915   4.823
10233SOL    HW131598   4.953   7.012   4.822
10233SOL    HW231599   4.990   6.885   4.918
10234SOL     OW31600   3.365   4.359   0.983
10234SOL    HW131601   3.268   4.349   1.008
10234SOL    HW231602   3.419   4.379   1.065
10235SOL     OW31603   5.165   6.361   0.144
10235SOL    HW131604   5.105   6.355   0.064
10235SOL    HW231605   5.223   6.280   0.149
10236SOL     OW31606   1.473   4.899   1.041
10236SOL    HW131607   1.432   4.986   1.067
10236SOL    HW231608   1.569   4.913   1.019
10237SOL     OW31609   5.737   1.501   1.928
10237SOL    HW131610   5.772   1.408   1.916
10237SOL    HW231611   5.686   1.528   1.847
10238SOL     OW31612   5.396   4.628   6.403
10238SOL    HW131613   5.430   4.655   6.313
10238SOL    HW231614   5.418   4.700   6.470
10239SOL     OW31615   5.556   4.297   3.254
10239SOL    HW131616   5.477   4.243   3.282
10239SOL    HW231617   5.546   4.325   3.159
10240SOL     OW31618   5.500   3.426   1.929
10240SOL    HW131619   5.517   3.491   1.855
10240SOL    HW231620   5.554   3.452   2.009
10241SOL     OW31621   0.762   2.027   2.746
10241SOL    HW131622   0.736   2.123   2.756
10241SOL    HW231623   0.757   1.982   2.835
10242SOL     OW31624   1.385   5.649   6.440
10242SOL    HW131625   1.291   5.659   6.407
10242SOL    HW231626   1.402   5.715   6.514
10243SOL     OW31627   6.804   6.081   3.606
10243SOL    HW131628   6.784   6.056   3.511
10243SOL    HW231629   6.849   6.004   3.652
10244SOL     OW31630   2.258   6.043   0.887
10244SOL    HW131631   2.249   6.142   0.880
10244SOL    HW231632   2.355   6.018   0.893
10245SOL     OW31633   3.862   3.164   0.786
10245SOL    HW131634   3.808   3.081   0.792
10245SOL    HW231635   3.924   3.170   0.864
10246SOL     OW31636   3.425   3.553   4.859
10246SOL    HW131637   3.500   3.532   4.796
10246SOL    HW231638   3.400   3.649   4.849
10247SOL     OW31639   1.271   5.461   6.192
10247SOL    HW131640   1.331   5.417   6.258
10247SOL    HW231641   1.175   5.449   6.220
10248SOL     OW31642   5.897   0.230   4.049
10248SOL    HW131643   5.887   0.308   3.988
10248SOL    HW231644   5.914   0.148   3.995
10249SOL     OW31645   4.797   1.632   5.917
10249SOL    HW131646   4.802   1.533   5.921
10249SOL    HW231647   4.889   1.670   5.929
10250SOL     OW31648   4.440   5.010   0.758
10250SOL    HW131649   4.361   5.065   0.784
10250SOL    HW231650   4.523   5.048   0.799
10251SOL     OW31651   4.321   4.254   1.120
10251SOL    HW131652   4.365   4.342   1.136
10251SOL    HW231653   4.373   4.203   1.051
10252SOL     OW31654   0.073   4.143   1.001
10252SOL    HW131655   0.013   4.116   0.926
10252SOL    HW231656   0.098   4.239   0.989
10253SOL     OW31657   5.467   3.832   6.945
10253SOL    HW131658   5.415   3.851   0.000
10253SOL    HW231659   5.488   3.918   6.898
10254SOL     OW31660   3.747   1.974   5.903
10254SOL    HW131661   3.761   1.972   5.804
10254SOL    HW231662   3.649   1.965   5.922
10255SOL     OW31663   2.702   4.670   4.573
10255SOL    HW131664   2.697   4.627   4.483
10255SOL    HW231665   2.783   4.727   4.579
10256SOL     OW31666   6.034   4.684   0.033
10256SOL    HW131667   6.109   4.626   0.000
10256SOL    HW231668   6.022   4.761   6.999
10257SOL     OW31669   1.762   4.096   4.966
10257SOL    HW131670   1.783   4.143   4.879
10257SOL    HW231671   1.772   3.998   4.954
10258SOL     OW31672   3.612   1.152   2.179
10258SOL    HW131673   3.658   1.182   2.094
10258SOL    HW231674   3.525   1.110   2.156
10259SOL     OW31675   6.120   3.535   3.378
10259SOL    HW131676   6.059   3.609   3.406
10259SOL    HW231677   6.148   3.483   3.459
10260SOL     OW31678   0.165   6.165   2.796
10260SOL    HW131679   0.226   6.165   2.876
10260SOL    HW231680   0.191   6.239   2.734
10261SOL     OW31681   1.920   0.262   2.562
10261SOL    HW131682   1.994   0.309   2.513
10261SOL    HW231683   1.832   0.284   2.520
10262SOL     OW31684   6.441   6.844   2.961
10262SOL    HW131685   6.409   6.901   2.885
10262SOL    HW231686   6.434   6.748   2.934
10263SOL     OW31687   6.886   3.677   4.783
10263SOL    HW131688   6.863   3.716   4.872
10263SOL    HW231689   6.866   3.743   4.711
10264SOL     OW31690   0.632   0.154   1.452
10264SOL    HW131691   0.682   0.228   1.407
10264SOL    HW231692   0.581   0.101   1.384
10265SOL     OW31693   5.299   2.786   4.502
10265SOL    HW131694   5.328   2.796   4.407
10265SOL    HW231695   5.329   2.698   4.538
10266SOL     OW31696   2.930   3.712   0.010
10266SOL    HW131697   2.842   3.693   6.995
10266SOL    HW231698   2.935   3.664   0.098
10267SOL     OW31699   7.008   0.408   6.120
10267SOL    HW131700   6.947   0.380   6.195
10267SOL    HW231701   6.957   0.411   6.035
10268SOL     OW31702   6.847   4.567   0.491
10268SOL    HW131703   6.818   4.504   0.563
10268SOL    HW231704   6.767   4.599   0.441
10269SOL     OW31705   3.842   1.394   5.794
10269SOL    HW131706   3.760   1.399   5.852
10269SOL    HW231707   3.840   1.467   5.727
10270SOL     OW31708   4.033   6.178   4.188
10270SOL    HW131709   3.941   6.172   4.225
10270SOL    HW231710   4.032   6.151   4.091
10271SOL     OW31711   0.965   4.596   0.807
10271SOL    HW131712   0.884   4.542   0.785
10271SOL    HW231713   1.006   4.562   0.892
10272SOL     OW31714   1.486   3.060   3.687
10272SOL    HW131715   1.494   3.159   3.678
10272SOL    HW231716   1.577   3.019   3.681
10273SOL     OW31717   4.788   0.505   4.436
10273SOL    HW131718   4.756   0.600   4.442
10273SOL    HW231719   4.712   0.443   4.456
10274SOL     OW31720   1.718   4.357   6.852
10274SOL    HW131721   1.641   4.336   6.792
10274SOL    HW231722   1.803   4.336   6.805
10275SOL     OW31723   6.650   6.286   1.949
10275SOL    HW131724   6.570   6.340   1.975
10275SOL    HW231725   6.622   6.213   1.886
10276SOL     OW31726   3.080   6.423   0.199
10276SOL    HW131727   3.006   6.357   0.186
10276SOL    HW231728   3.120   6.411   0.289
10277SOL     OW31729   6.059   6.229   2.346
10277SOL    HW131730   5.973   6.212   2.393
10277SOL    HW231731   6.134   6.187   2.397
10278SOL     OW31732   6.281   1.143   5.160
10278SOL    HW131733   6.225   1.225   5.147
10278SOL    HW231734   6.279   1.088   5.076
10279SOL     OW31735   3.841   6.645   3.786
10279SOL    HW131736   3.804   6.590   3.711
10279SOL    HW231737   3.921   6.695   3.754
10280SOL     OW31738   2.909   2.265   6.834
10280SOL    HW131739   2.863   2.208   6.766
10280SOL    HW231740   2.999   2.290   6.800
10281SOL     OW31741   3.765   1.482   4.619
10281SOL    HW131742   3.840   1.516   4.563
10281SOL    HW231743   3.735   1.554   4.681
10282SOL     OW31744   1.207   3.216   3.769
10282SOL    HW131745   1.166   3.201   3.679
10282SOL    HW231746   1.300   3.178   3.771
10283SOL     OW31747   2.147   6.018   6.628
10283SOL    HW131748   2.130   5.933   6.578
10283SOL    HW231749   2.237   6.054   6.602
10284SOL     OW31750   5.441   2.208   0.681
10284SOL    HW131751   5.376   2.226   0.755
10284SOL    HW231752   5.397   2.228   0.593
10285SOL     OW31753   5.009   1.561   0.198
10285SOL    HW131754   5.058   1.562   0.111
10285SOL    HW231755   4.913   1.584   0.183
10286SOL     OW31756   2.373   6.500   3.130
10286SOL    HW131757   2.290   6.532   3.174
10286SOL    HW231758   2.426   6.444   3.195
10287SOL     OW31759   2.283   4.794   2.292
10287SOL    HW131760   2.382   4.783   2.302
10287SOL    HW231761   2.241   4.704   2.281
10288SOL     OW31762   4.829   6.918   4.308
10288SOL    HW131763   4.800   6.994   4.367
10288SOL    HW231764   4.929   6.923   4.296
10289SOL     OW31765   2.617   1.680   2.607
10289SOL    HW131766   2.559   1.623   2.549
10289SOL    HW231767   2.661   1.750   2.552
10290SOL     OW31768   3.521   3.983   2.837
10290SOL    HW131769   3.458   3.910   2.811
10290SOL    HW231770   3.517   4.056   2.769
10291SOL     OW31771   3.990   0.362   3.320
10291SOL    HW131772   4.034   0.371   3.410
10291SOL    HW231773   3.913   0.298   3.326
10292SOL     OW31774   0.332   3.452   4.473
10292SOL    HW131775   0.399   3.461   4.547
10292SOL    HW231776   0.301   3.543   4.445
10293SOL     OW31777   1.929   5.621   3.477
10293SOL    HW131778   1.990   5.670   3.538
10293SOL    HW231779   1.835   5.627   3.511
10294SOL     OW31780   6.029   1.360   2.886
10294SOL    HW131781   5.987   1.372   2.976
10294SOL    HW231782   5.958   1.361   2.815
10295SOL     OW31783   1.363   4.105   3.057
10295SOL    HW131784   1.448   4.147   3.088
10295SOL    HW231785   1.360   4.009   3.085
10296SOL     OW31786   0.299   3.765   1.209
10296SOL    HW131787   0.271   3.673   1.183
10296SOL    HW231788   0.219   3.818   1.236
10297SOL     OW31789   3.591   4.254   6.409
10297SOL    HW131790   3.671   4.193   6.408
10297SOL    HW231791   3.521   4.217   6.348
10298SOL     OW31792   5.915   3.177   2.916
10298SOL    HW131793   5.918   3.195   2.817
10298SOL    HW231794   5.985   3.232   2.961
10299SOL     OW31795   3.844   5.169   3.110
10299SOL    HW131796   3.938   5.138   3.093
10299SOL    HW231797   3.807   5.120   3.189
10300SOL     OW31798   0.514   5.930   2.407
10300SOL    HW131799   0.466   5.960   2.324
10300SOL    HW231800   0.455   5.946   2.487
10301SOL     OW31801   4.548   0.733   1.821
10301SOL    HW131802   4.553   0.669   1.744
10301SOL    HW231803   4.494   0.693   1.895
10302SOL     OW31804   6.928   4.447   3.157
10302SOL    HW131805   6.883   4.494   3.082
10302SOL    HW231806   6.903   4.490   3.244
10303SOL     OW31807   4.638   3.234   0.579
10303SOL    HW131808   4.728   3.267   0.609
10303SOL    HW231809   4.629   3.246   0.481
10304SOL     OW31810   6.195   6.461   4.770
10304SOL    HW131811   6.258   6.516   4.824
10304SOL    HW231812   6.113   6.514   4.749
10305SOL     OW31813   0.811   5.184   1.091
10305SOL    HW131814   0.856   5.267   1.058
10305SOL    HW231815   0.738   5.209   1.154
10306SOL     OW31816   4.442   3.602   6.542
10306SOL    HW131817   4.508   3.529   6.562
10306SOL    HW231818   4.413   3.596   6.446
10307SOL     OW31819   2.450   2.000   6.112
10307SOL    HW131820   2.469   1.918   6.165
10307SOL    HW231821   2.454   2.081   6.171
10308SOL     OW31822   3.128   4.876   4.109
10308SOL    HW131823   3.051   4.818   4.137
10308SOL    HW231824   3.121   4.965   4.155
10309SOL     OW31825   6.661   6.843   4.112
10309SOL    HW131826   6.687   6.912   4.044
10309SOL    HW231827   6.594   6.882   4.175
10310SOL     OW31828   4.154   3.483   4.579
10310SOL    HW131829   4.112   3.392   4.576
10310SOL    HW231830   4.193   3.504   4.489
10311SOL     OW31831   1.287   1.071   0.324
10311SOL    HW131832   1.338   1.134   0.265
10311SOL    HW231833   1.232   1.123   0.388
10312SOL     OW31834   3.392   4.362   0.663
10312SOL    HW131835   3.327   4.438   0.665
10312SOL    HW231836   3.381   4.307   0.746
10313SOL     OW31837   6.307   5.847   3.186
10313SOL    HW131838   6.344   5.793   3.262
10313SOL    HW231839   6.233   5.797   3.142
10314SOL     OW31840   0.172   5.720   4.968
10314SOL    HW131841   0.099   5.740   4.903
10314SOL    HW231842   0.168   5.624   4.996
10315SOL     OW31843   4.711   4.951   5.146
10315SOL    HW131844   4.759   4.918   5.227
10315SOL    HW231845   4.663   5.035   5.168
10316SOL     OW31846   0.235   2.624   3.503
10316SOL    HW131847   0.288   2.575   3.434
10316SOL    HW231848   0.195   2.558   3.567
10317SOL     OW31849   6.292   3.962   6.162
10317SOL    HW131850   6.257   4.054   6.150
10317SOL    HW231851   6.382   3.953   6.120
10318SOL     OW31852   5.198   4.415   1.859
10318SOL    HW131853   5.130   4.366   1.803
10318SOL    HW231854   5.182   4.394   1.955
10319SOL     OW31855   5.974   6.432   3.464
10319SOL    HW131856   5.875   6.429   3.480
10319SOL    HW231857   5.998   6.521   3.424
10320SOL     OW31858   2.827   6.610   1.699
10320SOL    HW131859   2.832   6.554   1.782
10320SOL    HW231860   2.878   6.566   1.625
10321SOL     OW31861   4.974   6.102   5.861
10321SOL    HW131862   5.069   6.128   5.846
10321SOL    HW231863   4.925   6.179   5.902
10322SOL     OW31864   6.938   1.959   6.174
10322SOL    HW131865   6.956   2.054   6.199
10322SOL    HW231866   6.938   1.950   6.074
10323SOL     OW31867   6.623   1.958   5.680
10323SOL    HW131868   6.601   1.921   5.771
10323SOL    HW231869   6.684   2.036   5.690
10324SOL     OW31870   2.717   3.662   5.291
10324SOL    HW131871   2.755   3.701   5.207
10324SOL    HW231872   2.691   3.737   5.353
10325SOL     OW31873   0.694   2.612   3.747
10325SOL    HW131874   0.602   2.651   3.740
10325SOL    HW231875   0.701   2.558   3.831
10326SOL     OW31876   5.112   0.760   0.951
10326SOL    HW131877   5.024   0.712   0.951
10326SOL    HW231878   5.183   0.699   0.916
10327SOL     OW31879   6.496   2.422   3.682
10327SOL    HW131880   6.461   2.505   3.724
10327SOL    HW231881   6.575   2.389   3.734
10328SOL     OW31882   0.354   3.268   1.609
10328SOL    HW131883   0.366   3.220   1.696
10328SOL    HW231884   0.441   3.311   1.583
10329SOL     OW31885   1.995   5.909   2.460
10329SOL    HW131886   2.031   5.868   2.376
10329SOL    HW231887   1.967   6.003   2.442
10330SOL     OW31888   4.169   3.114   0.389
10330SOL    HW131889   4.150   3.143   0.483
10330SOL    HW231890   4.197   3.193   0.334
10331SOL     OW31891   4.519   1.869   3.648
10331SOL    HW131892   4.534   1.782   3.694
10331SOL    HW231893   4.600   1.926   3.658
10332SOL     OW31894   2.316   3.020   6.420
10332SOL    HW131895   2.273   3.010   6.510
10332SOL    HW231896   2.383   3.095   6.424
10333SOL     OW31897   0.365   4.231   5.829
10333SOL    HW131898   0.430   4.199   5.897
10333SOL    HW231899   0.392   4.197   5.738
10334SOL     OW31900   0.175   5.015   5.565
10334SOL    HW131901   0.223   5.097   5.595
10334SOL    HW231902   0.238   4.957   5.512
10335SOL     OW31903   2.737   5.091   2.970
10335SOL    HW131904   2.698   5.012   2.923
10335SOL    HW231905   2.745   5.167   2.905
10336SOL     OW31906   3.983   0.138   2.604
10336SOL    HW131907   3.913   0.067   2.599
10336SOL    HW231908   4.074   0.095   2.598
10337SOL     OW31909   2.028   2.890   6.541
10337SOL    HW131910   2.031   2.851   6.449
10337SOL    HW231911   2.122   2.908   6.572
10338SOL     OW31912   2.260   4.111   3.375
10338SOL    HW131913   2.239   4.025   3.328
10338SOL    HW231914   2.267   4.185   3.308
10339SOL     OW31915   3.496   6.720   6.679
10339SOL    HW131916   3.501   6.820   6.690
10339SOL    HW231917   3.438   6.682   6.750
10340SOL     OW31918   1.930   6.148   0.967
10340SOL    HW131919   1.843   6.101   0.952
10340SOL    HW231920   2.002   6.080   0.984
10341SOL     OW31921   0.350   2.553   1.946
10341SOL    HW131922   0.386   2.484   2.010
10341SOL    HW231923   0.292   2.508   1.878
10342SOL     OW31924   3.431   4.935   4.125
10342SOL    HW131925   3.447   4.994   4.204
10342SOL    HW231926   3.354   4.874   4.144
10343SOL     OW31927   2.761   2.340   4.825
10343SOL    HW131928   2.662   2.352   4.828
10343SOL    HW231929   2.805   2.426   4.800
10344SOL     OW31930   4.946   4.816   1.160
10344SOL    HW131931   5.043   4.801   1.179
10344SOL    HW231932   4.909   4.737   1.111
10345SOL     OW31933   2.670   1.993   6.447
10345SOL    HW131934   2.639   1.927   6.515
10345SOL    HW231935   2.592   2.026   6.394
10346SOL     OW31936   6.626   5.027   6.481
10346SOL    HW131937   6.530   5.030   6.455
10346SOL    HW231938   6.675   4.961   6.424
10347SOL     OW31939   3.428   6.355   2.531
10347SOL    HW131940   3.379   6.427   2.483
10347SOL    HW231941   3.485   6.305   2.466
10348SOL     OW31942   0.388   2.640   4.058
10348SOL    HW131943   0.481   2.620   4.029
10348SOL    HW231944   0.330   2.559   4.043
10349SOL     OW31945   6.422   1.226   0.102
10349SOL    HW131946   6.471   1.290   0.043
10349SOL    HW231947   6.479   1.202   0.181
10350SOL     OW31948   1.896   5.293   4.236
10350SOL    HW131949   1.846   5.380   4.234
10350SOL    HW231950   1.831   5.218   4.251
10351SOL     OW31951   4.075   5.683   5.519
10351SOL    HW131952   4.168   5.691   5.553
10351SOL    HW231953   4.052   5.766   5.467
10352SOL     OW31954   6.938   1.995   2.068
10352SOL    HW131955   6.849   1.949   2.072
10352SOL    HW231956   6.954   2.045   2.153
10353SOL     OW31957   5.585   3.220   3.441
10353SOL    HW131958   5.617   3.230   3.535
10353SOL    HW231959   5.565   3.123   3.423
10354SOL     OW31960   6.725   2.317   1.957
10354SOL    HW131961   6.725   2.376   1.876
10354SOL    HW231962   6.818   2.285   1.974
10355SOL     OW31963   0.088   1.568   0.577
10355SOL    HW131964   0.080   1.567   0.477
10355SOL    HW231965   0.136   1.486   0.607
10356SOL     OW31966   6.150   3.059   5.947
10356SOL    HW131967   6.196   3.027   6.030
10356SOL    HW231968   6.052   3.066   5.963
10357SOL     OW31969   0.805   6.625   6.624
10357SOL    HW131970   0.727   6.654   6.568
10357SOL    HW231971   0.836   6.535   6.593
10358SOL     OW31972   0.870   3.880   3.963
10358SOL    HW131973   0.933   3.958   3.963
10358SOL    HW231974   0.876   3.833   4.052
10359SOL     OW31975   0.266   2.797   1.828
10359SOL    HW131976   0.283   2.715   1.882
10359SOL    HW231977   0.180   2.839   1.857
10360SOL     OW31978   5.614   4.905   1.455
10360SOL    HW131979   5.693   4.932   1.400
10360SOL    HW231980   5.588   4.980   1.515
10361SOL     OW31981   5.613   2.082   4.107
10361SOL    HW131982   5.564   2.167   4.090
10361SOL    HW231983   5.600   2.054   4.202
10362SOL     OW31984   6.868   5.967   2.271
10362SOL    HW131985   6.780   5.998   2.235
10362SOL    HW231986   6.857   5.876   2.313
10363SOL     OW31987   4.957   5.026   6.935
10363SOL    HW131988   4.890   5.066   6.997
10363SOL    HW231989   5.045   5.070   6.949
10364SOL     OW31990   6.589   5.196   1.610
10364SOL    HW131991   6.683   5.170   1.634
10364SOL    HW231992   6.530   5.115   1.613
10365SOL     OW31993   6.425   5.915   6.553
10365SOL    HW131994   6.423   5.936   6.455
10365SOL    HW231995   6.356   5.846   6.574
10366SOL     OW31996   2.278   0.686   3.365
10366SOL    HW131997   2.346   0.619   3.336
10366SOL    HW231998   2.195   0.637   3.393
10367SOL     OW31999   3.905   6.263   2.782
10367SOL    HW132000   3.926   6.269   2.684
10367SOL    HW232001   3.897   6.355   2.820
10368SOL     OW32002   1.590   6.019   1.998
10368SOL    HW132003   1.597   5.954   2.074
10368SOL    HW232004   1.496   6.019   1.964
10369SOL     OW32005   3.278   1.604   5.134
10369SOL    HW132006   3.184   1.572   5.148
10369SOL    HW232007   3.295   1.682   5.193
10370SOL     OW32008   2.438   1.934   0.022
10370SOL    HW132009   2.407   1.896   0.109
10370SOL    HW232010   2.364   1.929   6.983
10371SOL     OW32011   3.260   5.718   2.410
10371SOL    HW132012   3.292   5.647   2.473
10371SOL    HW232013   3.335   5.782   2.391
10372SOL     OW32014   1.159   6.201   1.005
10372SOL    HW132015   1.135   6.229   1.099
10372SOL    HW232016   1.230   6.131   1.009
10373SOL     OW32017   6.651   0.710   5.262
10373SOL    HW132018   6.588   0.784   5.236
10373SOL    HW232019   6.602   0.623   5.260
10374SOL     OW32020   2.059   5.559   2.028
10374SOL    HW132021   1.989   5.598   2.087
10374SOL    HW232022   2.071   5.462   2.051
10375SOL     OW32023   2.132   5.110   6.535
10375SOL    HW132024   2.076   5.141   6.612
10375SOL    HW232025   2.217   5.070   6.570
10376SOL     OW32026   1.613   5.943   3.650
10376SOL    HW132027   1.659   5.969   3.565
10376SOL    HW232028   1.672   5.881   3.701
10377SOL     OW32029   3.048   1.307   4.085
10377SOL    HW132030   3.009   1.242   4.020
10377SOL    HW232031   3.134   1.344   4.049
10378SOL     OW32032   0.110   6.223   5.220
10378SOL    HW132033   0.120   6.152   5.150
10378SOL    HW232034   0.136   6.312   5.182
10379SOL     OW32035   0.526   5.097   3.551
10379SOL    HW132036   0.598   5.153   3.591
10379SOL    HW232037   0.566   5.032   3.486
10380SOL     OW32038   3.043   1.702   3.533
10380SOL    HW132039   3.137   1.675   3.513
10380SOL    HW232040   3.034   1.801   3.522
10381SOL     OW32041   2.049   6.858   4.152
10381SOL    HW132042   2.137   6.812   4.161
10381SOL    HW232043   1.977   6.801   4.192
10382SOL     OW32044   3.429   5.444   3.076
10382SOL    HW132045   3.486   5.375   3.121
10382SOL    HW232046   3.397   5.409   2.988
10383SOL     OW32047   0.676   6.857   0.551
10383SOL    HW132048   0.758   6.868   0.495
10383SOL    HW232049   0.697   6.876   0.646
10384SOL     OW32050   5.117   5.135   1.057
10384SOL    HW132051   5.127   5.086   1.143
10384SOL    HW232052   5.129   5.233   1.073
10385SOL     OW32053   3.616   4.225   6.870
10385SOL    HW132054   3.651   4.247   6.779
10385SOL    HW232055   3.674   4.155   6.912
10386SOL     OW32056   6.904   0.091   1.514
10386SOL    HW132057   6.855   0.169   1.475
10386SOL    HW232058   6.999   0.093   1.483
10387SOL     OW32059   5.340   0.944   1.990
10387SOL    HW132060   5.260   0.885   2.004
10387SOL    HW232061   5.321   1.009   1.917
10388SOL     OW32062   0.772   6.587   4.927
10388SOL    HW132063   0.790   6.685   4.941
10388SOL    HW232064   0.808   6.535   5.004
10389SOL     OW32065   0.416   3.939   1.053
10389SOL    HW132066   0.516   3.937   1.061
10389SOL    HW232067   0.377   3.865   1.107
10390SOL     OW32068   1.226   2.357   2.154
10390SOL    HW132069   1.302   2.291   2.160
10390SOL    HW232070   1.223   2.411   2.237
10391SOL     OW32071   6.156   0.864   3.239
10391SOL    HW132072   6.197   0.885   3.150
10391SOL    HW232073   6.162   0.944   3.299
10392SOL     OW32074   5.306   3.307   4.266
10392SOL    HW132075   5.293   3.405   4.251
10392SOL    HW232076   5.252   3.279   4.346
10393SOL     OW32077   1.615   2.638   1.404
10393SOL    HW132078   1.520   2.625   1.430
10393SOL    HW232079   1.627   2.614   1.307
10394SOL     OW32080   2.718   5.435   3.896
10394SOL    HW132081   2.789   5.380   3.850
10394SOL    HW232082   2.760   5.517   3.935
10395SOL     OW32083   0.796   1.011   1.368
10395SOL    HW132084   0.864   0.940   1.350
10395SOL    HW232085   0.780   1.018   1.466
10396SOL     OW32086   3.379   2.101   4.977
10396SOL    HW132087   3.409   2.089   5.072
10396SOL    HW232088   3.310   2.173   4.973
10397SOL     OW32089   4.712   1.306   4.026
10397SOL    HW132090   4.647   1.378   4.051
10397SOL    HW232091   4.800   1.324   4.069
10398SOL     OW32092   4.589   2.593   2.900
10398SOL    HW132093   4.595   2.533   2.821
10398SOL    HW232094   4.555   2.542   2.979
10399SOL     OW32095   0.664   2.154   1.756
10399SOL    HW132096   0.664   2.086   1.683
10399SOL    HW232097   0.570   2.182   1.776
10400SOL     OW32098   1.568   6.958   0.003
10400SOL    HW132099   1.562   6.943   0.101
10400SOL    HW232100   1.596   6.872   6.986
10401SOL     OW32101   6.393   1.088   5.389
10401SOL    HW132102   6.426   1.146   5.465
10401SOL    HW232103   6.351   1.146   5.319
10402SOL     OW32104   6.476   4.150   6.380
10402SOL    HW132105   6.570   4.182   6.366
10402SOL    HW232106   6.420   4.178   6.302
10403SOL     OW32107   3.600   0.157   1.706
10403SOL    HW132108   3.531   0.224   1.678
10403SOL    HW232109   3.655   0.131   1.627
10404SOL     OW32110   0.593   5.508   5.754
10404SOL    HW132111   0.580   5.425   5.700
10404SOL    HW232112   0.545   5.584   5.711
10405SOL     OW32113   0.068   1.065   6.906
10405SOL    HW132114   7.007   1.066   6.950
10405SOL    HW232115   0.064   1.116   6.820
10406SOL     OW32116   1.996   5.015   1.612
10406SOL    HW132117   2.075   5.015   1.674
10406SOL    HW232118   1.996   5.099   1.559
10407SOL     OW32119   2.117   6.365   0.976
10407SOL    HW132120   2.050   6.291   0.967
10407SOL    HW232121   2.197   6.332   1.027
10408SOL     OW32122   4.806   0.641   6.091
10408SOL    HW132123   4.731   0.697   6.128
10408SOL    HW232124   4.777   0.599   6.005
10409SOL     OW32125   6.251   3.939   0.712
10409SOL    HW132126   6.229   3.875   0.784
10409SOL    HW232127   6.350   3.945   0.701
10410SOL     OW32128   3.857   0.293   0.565
10410SOL    HW132129   3.790   0.227   0.598
10410SOL    HW232130   3.949   0.258   0.580
10411SOL     OW32131   1.582   4.503   3.635
10411SOL    HW132132   1.626   4.593   3.648
10411SOL    HW232133   1.484   4.512   3.648
10412SOL     OW32134   4.691   1.045   2.127
10412SOL    HW132135   4.652   1.122   2.076
10412SOL    HW232136   4.743   0.988   2.064
10413SOL     OW32137   6.432   3.794   2.544
10413SOL    HW132138   6.443   3.891   2.526
10413SOL    HW232139   6.517   3.757   2.582
10414SOL     OW32140   4.894   3.897   3.475
10414SOL    HW132141   4.950   3.960   3.528
10414SOL    HW232142   4.896   3.807   3.518
10415SOL     OW32143   0.363   1.052   6.587
10415SOL    HW132144   0.356   0.978   6.654
10415SOL    HW232145   0.433   1.028   6.518
10416SOL     OW32146   5.029   2.254   2.680
10416SOL    HW132147   4.987   2.344   2.691
10416SOL    HW232148   5.119   2.264   2.638
10417SOL     OW32149   1.951   4.100   2.356
10417SOL    HW132150   2.048   4.076   2.355
10417SOL    HW232151   1.931   4.154   2.438
10418SOL     OW32152   1.660   5.687   6.097
10418SOL    HW132153   1.694   5.712   6.188
10418SOL    HW232154   1.561   5.669   6.103
10419SOL     OW32155   1.019   1.078   5.920
10419SOL    HW132156   0.971   1.034   5.845
10419SOL    HW232157   1.042   1.172   5.895
10420SOL     OW32158   0.261   3.087   2.155
10420SOL    HW132159   0.204   3.167   2.170
10420SOL    HW232160   0.355   3.107   2.180
10421SOL     OW32161   0.384   2.204   2.739
10421SOL    HW132162   0.359   2.192   2.835
10421SOL    HW232163   0.384   2.301   2.716
10422SOL     OW32164   5.656   2.030   7.002
10422SOL    HW132165   5.679   1.967   6.927
10422SOL    HW232166   5.719   2.108   6.999
10423SOL     OW32167   4.147   5.619   2.716
10423SOL    HW132168   4.134   5.522   2.700
10423SOL    HW232169   4.194   5.660   2.637
10424SOL     OW32170   4.866   1.479   6.187
10424SOL    HW132171   4.825   1.442   6.104
10424SOL    HW232172   4.884   1.405   6.252
10425SOL     OW32173   1.577   6.778   1.799
10425SOL    HW132174   1.571   6.681   1.820
10425SOL    HW232175   1.645   6.821   1.860
10426SOL     OW32176   6.317   4.264   6.623
10426SOL    HW132177   6.299   4.274   6.720
10426SOL    HW232178   6.299   4.170   6.595
10427SOL     OW32179   4.832   0.834   0.439
10427SOL    HW132180   4.898   0.836   0.515
10427SOL    HW232181   4.882   0.824   0.353
10428SOL     OW32182   4.102   2.279   3.801
10428SOL    HW132183   4.196   2.253   3.823
10428SOL    HW232184   4.102   2.341   3.722
10429SOL     OW32185   5.986   5.492   2.444
10429SOL    HW132186   6.009   5.398   2.469
10429SOL    HW232187   5.893   5.495   2.406
10430SOL     OW32188   3.389   6.139   2.911
10430SOL    HW132189   3.326   6.209   2.876
10430SOL    HW232190   3.397   6.150   3.010
10431SOL     OW32191   3.188   1.532   5.706
10431SOL    HW132192   3.221   1.564   5.617
10431SOL    HW232193   3.261   1.542   5.774
10432SOL     OW32194   4.284   0.528   4.412
10432SOL    HW132195   4.231   0.444   4.414
10432SOL    HW232196   4.264   0.582   4.494
10433SOL     OW32197   1.549   5.848   1.141
10433SOL    HW132198   1.642   5.834   1.175
10433SOL    HW232199   1.488   5.868   1.218
10434SOL     OW32200   3.713   2.420   5.389
10434SOL    HW132201   3.767   2.349   5.346
10434SOL    HW232202   3.617   2.410   5.363
10435SOL     OW32203   5.984   4.875   6.854
10435SOL    HW132204   5.997   4.869   6.755
10435SOL    HW232205   5.939   4.962   6.876
10436SOL     OW32206   6.915   2.029   2.991
10436SOL    HW132207   6.961   2.058   3.075
10436SOL    HW232208   6.872   1.940   3.006
10437SOL     OW32209   1.425   2.895   0.867
10437SOL    HW132210   1.375   2.970   0.911
10437SOL    HW232211   1.477   2.931   0.790
10438SOL     OW32212   2.611   7.025   5.826
10438SOL    HW132213   2.519   0.029   5.849
10438SOL    HW232214   2.671   0.075   5.812
10439SOL     OW32215   3.556   0.554   5.854
10439SOL    HW132216   3.485   0.535   5.923
10439SOL    HW232217   3.576   0.651   5.854
10440SOL     OW32218   0.999   5.644   0.218
10440SOL    HW132219   0.956   5.717   0.166
10440SOL    HW232220   1.055   5.588   0.158
10441SOL     OW32221   4.503   6.417   0.775
10441SOL    HW132222   4.547   6.335   0.812
10441SOL    HW232223   4.554   6.450   0.696
10442SOL     OW32224   3.504   6.252   6.498
10442SOL    HW132225   3.459   6.285   6.581
10442SOL    HW232226   3.444   6.188   6.451
10443SOL     OW32227   0.588   3.271   4.555
10443SOL    HW132228   0.572   3.228   4.644
10443SOL    HW232229   0.502   3.270   4.502
10444SOL     OW32230   3.703   4.624   5.336
10444SOL    HW132231   3.642   4.703   5.338
10444SOL    HW232232   3.777   4.636   5.403
10445SOL     OW32233   6.459   6.415   1.572
10445SOL    HW132234   6.451   6.386   1.667
10445SOL    HW232235   6.394   6.489   1.555
10446SOL     OW32236   1.434   6.903   5.695
10446SOL    HW132237   1.532   6.899   5.675
10446SOL    HW232238   1.392   6.978   5.645
10447SOL     OW32239   5.345   2.678   6.611
10447SOL    HW132240   5.347   2.682   6.711
10447SOL    HW232241   5.318   2.767   6.574
10448SOL     OW32242   3.854   3.081   2.163
10448SOL    HW132243   3.892   3.118   2.247
10448SOL    HW232244   3.806   2.995   2.183
10449SOL     OW32245   1.288   5.197   5.193
10449SOL    HW132246   1.287   5.165   5.288
10449SOL    HW232247   1.201   5.243   5.173
10450SOL     OW32248   0.487   3.122   0.327
10450SOL    HW132249   0.439   3.199   0.287
10450SOL    HW232250   0.569   3.154   0.374
10451SOL     OW32251   1.565   4.290   2.584
10451SOL    HW132252   1.642   4.353   2.573
10451SOL    HW232253   1.537   4.287   2.680
10452SOL     OW32254   2.306   2.934   6.179
10452SOL    HW132255   2.313   2.952   6.277
10452SOL    HW232256   2.292   2.836   6.165
10453SOL     OW32257   5.221   0.518   2.188
10453SOL    HW132258   5.126   0.512   2.221
10453SOL    HW232259   5.276   0.567   2.256
10454SOL     OW32260   4.110   5.349   2.678
10454SOL    HW132261   4.040   5.278   2.667
10454SOL    HW232262   4.193   5.321   2.631
10455SOL     OW32263   1.409   4.645   3.410
10455SOL    HW132264   1.321   4.618   3.371
10455SOL    HW232265   1.416   4.609   3.503
10456SOL     OW32266   3.710   6.245   1.270
10456SOL    HW132267   3.755   6.282   1.189
10456SOL    HW232268   3.755   6.160   1.298
10457SOL     OW32269   3.719   2.855   3.638
10457SOL    HW132270   3.788   2.788   3.612
10457SOL    HW232271   3.645   2.856   3.570
10458SOL     OW32272   6.610   6.146   2.597
10458SOL    HW132273   6.570   6.234   2.573
10458SOL    HW232274   6.589   6.125   2.693
10459SOL     OW32275   0.045   5.691   2.001
10459SOL    HW132276   0.068   5.600   2.036
10459SOL    HW232277   6.982   5.689   1.961
10460SOL     OW32278   1.729   4.360   1.232
10460SOL    HW132279   1.721   4.400   1.140
10460SOL    HW232280   1.815   4.390   1.273
10461SOL     OW32281   4.029   0.190   6.254
10461SOL    HW132282   3.932   0.175   6.233
10461SOL    HW232283   4.052   0.285   6.232
10462SOL     OW32284   5.629   6.823   1.009
10462SOL    HW132285   5.653   6.916   1.039
10462SOL    HW232286   5.569   6.781   1.077
10463SOL     OW32287   4.308   2.966   0.194
10463SOL    HW132288   4.262   3.015   0.268
10463SOL    HW232289   4.269   2.874   0.185
10464SOL     OW32290   5.488   6.719   1.626
10464SOL    HW132291   5.447   6.809   1.634
10464SOL    HW232292   5.565   6.722   1.562
10465SOL     OW32293   0.371   4.701   5.981
10465SOL    HW132294   0.471   4.703   5.983
10465SOL    HW232295   0.338   4.766   5.912
10466SOL     OW32296   4.496   5.312   5.624
10466SOL    HW132297   4.458   5.282   5.537
10466SOL    HW232298   4.477   5.409   5.638
10467SOL     OW32299   4.120   1.720   4.434
10467SOL    HW132300   4.130   1.808   4.388
10467SOL    HW232301   4.208   1.692   4.472
10468SOL     OW32302   2.587   5.269   3.342
10468SOL    HW132303   2.620   5.360   3.314
10468SOL    HW232304   2.549   5.275   3.434
10469SOL     OW32305   0.787   5.179   6.015
10469SOL    HW132306   0.853   5.250   5.988
10469SOL    HW232307   0.707   5.185   5.956
10470SOL     OW32308   2.427   2.401   4.195
10470SOL    HW132309   2.515   2.404   4.146
10470SOL    HW232310   2.398   2.495   4.215
10471SOL     OW32311   4.540   3.687   6.775
10471SOL    HW132312   4.508   3.696   6.680
10471SOL    HW232313   4.462   3.696   6.837
10472SOL     OW32314   4.375   1.715   3.202
10472SOL    HW132315   4.401   1.710   3.106
10472SOL    HW232316   4.341   1.626   3.232
10473SOL     OW32317   4.623   4.347   1.052
10473SOL    HW132318   4.592   4.427   1.001
10473SOL    HW232319   4.668   4.376   1.136
10474SOL     OW32320   4.979   1.393   4.079
10474SOL    HW132321   4.947   1.472   4.131
10474SOL    HW232322   5.033   1.425   4.001
10475SOL     OW32323   4.185   6.118   0.912
10475SOL    HW132324   4.155   6.111   0.817
10475SOL    HW232325   4.227   6.207   0.928
10476SOL     OW32326   0.620   4.984   6.763
10476SOL    HW132327   0.534   5.023   6.730
10476SOL    HW232328   0.680   5.058   6.794
10477SOL     OW32329   5.264   4.506   4.350
10477SOL    HW132330   5.338   4.461   4.400
10477SOL    HW232331   5.179   4.495   4.401
10478SOL     OW32332   0.584   0.098   2.661
10478SOL    HW132333   0.518   0.156   2.709
10478SOL    HW232334   0.545   0.068   2.574
10479SOL     OW32335   0.976   3.517   2.910
10479SOL    HW132336   0.926   3.600   2.936
10479SOL    HW232337   1.069   3.522   2.947
10480SOL     OW32338   4.932   1.248   6.314
10480SOL    HW132339   4.867   1.173   6.322
10480SOL    HW232340   5.012   1.218   6.262
10481SOL     OW32341   3.568   1.762   3.415
10481SOL    HW132342   3.654   1.741   3.461
10481SOL    HW232343   3.548   1.691   3.346
10482SOL     OW32344   0.600   6.640   5.738
10482SOL    HW132345   0.648   6.725   5.755
10482SOL    HW232346   0.508   6.645   5.777
10483SOL     OW32347   0.980   6.109   0.389
10483SOL    HW132348   1.041   6.155   0.325
10483SOL    HW232349   0.886   6.140   0.373
10484SOL     OW32350   6.434   1.449   1.845
10484SOL    HW132351   6.433   1.359   1.890
10484SOL    HW232352   6.499   1.448   1.770
10485SOL     OW32353   3.349   3.850   5.255
10485SOL    HW132354   3.333   3.855   5.353
10485SOL    HW232355   3.369   3.941   5.219
10486SOL     OW32356   6.197   4.595   6.308
10486SOL    HW132357   6.216   4.625   6.215
10486SOL    HW232358   6.276   4.543   6.343
10487SOL     OW32359   5.347   3.775   2.521
10487SOL    HW132360   5.354   3.777   2.421
10487SOL    HW232361   5.376   3.864   2.558
10488SOL     OW32362   1.206   2.132   5.338
10488SOL    HW132363   1.257   2.159   5.257
10488SOL    HW232364   1.192   2.212   5.397
10489SOL     OW32365   5.763   5.030   2.672
10489SOL    HW132366   5.766   5.045   2.573
10489SOL    HW232367   5.723   4.940   2.691
10490SOL     OW32368   5.521   6.261   6.535
10490SOL    HW132369   5.571   6.335   6.490
10490SOL    HW232370   5.439   6.299   6.579
10491SOL     OW32371   1.935   1.511   5.588
10491SOL    HW132372   1.859   1.563   5.551
10491SOL    HW232373   1.964   1.441   5.522
10492SOL     OW32374   3.145   0.072   6.893
10492SOL    HW132375   3.140   0.103   6.988
10492SOL    HW232376   3.067   0.013   6.873
10493SOL     OW32377   4.524   7.017   0.285
10493SOL    HW132378   4.609   7.017   0.232
10493SOL    HW232379   4.541   0.027   0.375
10494SOL     OW32380   6.747   5.798   3.658
10494SOL    HW132381   6.681   5.833   3.725
10494SOL    HW232382   6.702   5.786   3.570
10495SOL     OW32383   6.185   6.423   0.467
10495SOL    HW132384   6.165   6.506   0.519
10495SOL    HW232385   6.282   6.422   0.442
10496SOL     OW32386   1.733   3.936   6.365
10496SOL    HW132387   1.771   3.938   6.457
10496SOL    HW232388   1.807   3.930   6.299
10497SOL     OW32389   4.030   0.357   0.144
10497SOL    HW132390   3.938   0.362   0.104
10497SOL    HW232391   4.097   0.384   0.075
10498SOL     OW32392   3.475   4.118   0.273
10498SOL    HW132393   3.400   4.171   0.233
10498SOL    HW232394   3.520   4.172   0.344
10499SOL     OW32395   4.204   4.796   4.103
10499SOL    HW132396   4.271   4.762   4.036
10499SOL    HW232397   4.237   4.776   4.195
10500SOL     OW32398   2.097   2.624   4.818
10500SOL    HW132399   2.075   2.711   4.773
10500SOL    HW232400   2.081   2.548   4.755
10501SOL     OW32401   4.133   4.935   2.830
10501SOL    HW132402   4.147   4.962   2.925
10501SOL    HW232403   4.215   4.890   2.795
10502SOL     OW32404   3.482   3.129   3.423
10502SOL    HW132405   3.571   3.173   3.409
10502SOL    HW232406   3.413   3.198   3.441
10503SOL     OW32407   7.004   6.027   0.964
10503SOL    HW132408   0.073   6.001   0.962
10503SOL    HW232409   6.948   5.947   0.946
10504SOL     OW32410   1.757   2.997   5.397
10504SOL    HW132411   1.821   2.923   5.417
10504SOL    HW232412   1.681   2.994   5.462
10505SOL     OW32413   4.728   6.515   0.890
10505SOL    HW132414   4.823   6.527   0.863
10505SOL    HW232415   4.690   6.433   0.846
10506SOL     OW32416   0.700   5.559   6.257
10506SOL    HW132417   0.691   5.486   6.189
10506SOL    HW232418   0.718   5.646   6.210
10507SOL     OW32419   2.257   6.282   5.556
10507SOL    HW132420   2.213   6.368   5.584
10507SOL    HW232421   2.315   6.249   5.630
10508SOL     OW32422   1.705   6.486   1.338
10508SOL    HW132423   1.692   6.388   1.354
10508SOL    HW232424   1.773   6.521   1.403
10509SOL     OW32425   4.890   3.478   1.799
10509SOL    HW132426   4.917   3.517   1.711
10509SOL    HW232427   4.851   3.387   1.785
10510SOL     OW32428   5.064   6.684   1.735
10510SOL    HW132429   5.015   6.768   1.758
10510SOL    HW232430   5.000   6.618   1.695
10511SOL     OW32431   3.845   1.755   0.879
10511SOL    HW132432   3.883   1.847   0.871
10511SOL    HW232433   3.893   1.705   0.951
10512SOL     OW32434   4.234   0.081   4.763
10512SOL    HW132435   4.281   0.160   4.725
10512SOL    HW232436   4.154   0.060   4.707
10513SOL     OW32437   4.233   3.897   0.738
10513SOL    HW132438   4.133   3.886   0.744
10513SOL    HW232439   4.258   3.987   0.774
10514SOL     OW32440   0.994   4.706   1.552
10514SOL    HW132441   1.006   4.736   1.646
10514SOL    HW232442   0.962   4.783   1.496
10515SOL     OW32443   2.129   3.138   4.360
10515SOL    HW132444   2.158   3.234   4.359
10515SOL    HW232445   2.043   3.128   4.310
10516SOL     OW32446   5.047   1.806   1.212
10516SOL    HW132447   4.983   1.803   1.288
10516SOL    HW232448   5.123   1.744   1.229
10517SOL     OW32449   6.083   1.412   1.875
10517SOL    HW132450   5.992   1.378   1.899
10517SOL    HW232451   6.129   1.345   1.817
10518SOL     OW32452   6.825   5.730   3.122
10518SOL    HW132453   6.732   5.696   3.108
10518SOL    HW232454   6.845   5.801   3.055
10519SOL     OW32455   1.726   7.012   0.660
10519SOL    HW132456   1.718   6.953   0.580
10519SOL    HW232457   1.822   7.022   0.685
10520SOL     OW32458   3.445   2.586   5.751
10520SOL    HW132459   3.451   2.655   5.679
10520SOL    HW232460   3.417   2.630   5.836
10521SOL     OW32461   5.617   1.584   1.263
10521SOL    HW132462   5.701   1.596   1.316
10521SOL    HW232463   5.597   1.669   1.214
10522SOL     OW32464   4.895   1.380   2.620
10522SOL    HW132465   4.893   1.284   2.594
10522SOL    HW232466   4.968   1.427   2.571
10523SOL     OW32467   0.107   3.953   1.592
10523SOL    HW132468   0.070   3.896   1.518
10523SOL    HW232469   0.041   3.956   1.667
10524SOL     OW32470   6.288   6.750   4.674
10524SOL    HW132471   6.228   6.828   4.656
10524SOL    HW232472   6.244   6.666   4.642
10525SOL     OW32473   4.955   2.286   4.328
10525SOL    HW132474   5.036   2.234   4.300
10525SOL    HW232475   4.971   2.328   4.417
10526SOL     OW32476   1.526   6.710   6.248
10526SOL    HW132477   1.443   6.725   6.194
10526SOL    HW232478   1.502   6.670   6.336
10527SOL     OW32479   0.927   6.501   5.125
10527SOL    HW132480   1.014   6.528   5.083
10527SOL    HW232481   0.936   6.408   5.162
10528SOL     OW32482   2.827   5.832   5.052
10528SOL    HW132483   2.829   5.784   4.964
10528SOL    HW232484   2.736   5.870   5.068
10529SOL     OW32485   0.073   5.558   6.652
10529SOL    HW132486   0.014   5.638   6.663
10529SOL    HW232487   0.017   5.478   6.632
10530SOL     OW32488   5.741   0.616   1.498
10530SOL    HW132489   5.800   0.547   1.541
10530SOL    HW232490   5.654   0.620   1.548
10531SOL     OW32491   3.245   0.926   6.710
10531SOL    HW132492   3.240   0.904   6.807
10531SOL    HW232493   3.258   1.025   6.699
10532SOL     OW32494   3.925   5.806   5.818
10532SOL    HW132495   3.923   5.824   5.720
10532SOL    HW232496   3.844   5.847   5.861
10533SOL     OW32497   4.255   6.697   4.273
10533SOL    HW132498   4.232   6.671   4.367
10533SOL    HW232499   4.348   6.667   4.253
10534SOL     OW32500   0.555   6.047   4.667
10534SOL    HW132501   0.528   6.142   4.683
10534SOL    HW232502   0.500   5.987   4.726
10535SOL     OW32503   3.686   1.512   2.093
10535SOL    HW132504   3.650   1.433   2.043
10535SOL    HW232505   3.624   1.535   2.168
10536SOL     OW32506   5.732   3.246   4.349
10536SOL    HW132507   5.644   3.210   4.380
10536SOL    HW232508   5.728   3.345   4.343
10537SOL     OW32509   2.486   1.105   2.185
10537SOL    HW132510   2.569   1.126   2.237
10537SOL    HW232511   2.429   1.187   2.179
10538SOL     OW32512   6.418   2.770   3.686
10538SOL    HW132513   6.430   2.869   3.677
10538SOL    HW232514   6.383   2.748   3.777
10539SOL     OW32515   6.554   0.380   1.494
10539SOL    HW132516   6.495   0.305   1.524
10539SOL    HW232517   6.630   0.343   1.440
10540SOL     OW32518   2.072   2.699   5.899
10540SOL    HW132519   1.991   2.757   5.906
10540SOL    HW232520   2.133   2.716   5.976
10541SOL     OW32521   3.905   2.588   0.040
10541SOL    HW132522   3.917   2.678   7.027
10541SOL    HW232523   3.972   2.524   0.001
10542SOL     OW32524   2.973   5.924   2.876
10542SOL    HW132525   3.041   5.935   2.948
10542SOL    HW232526   2.917   5.843   2.894
10543SOL     OW32527   0.582   2.765   3.402
10543SOL    HW132528   0.680   2.768   3.385
10543SOL    HW232529   0.562   2.697   3.472
10544SOL     OW32530   2.885   2.263   2.370
10544SOL    HW132531   2.810   2.320   2.402
10544SOL    HW232532   2.912   2.293   2.278
10545SOL     OW32533   1.078   3.075   1.542
10545SOL    HW132534   1.002   3.086   1.605
10545SOL    HW232535   1.120   2.985   1.556
10546SOL     OW32536   1.959   0.193   4.869
10546SOL    HW132537   1.914   0.119   4.919
10546SOL    HW232538   1.905   0.217   4.789
10547SOL     OW32539   2.656   5.923   6.297
10547SOL    HW132540   2.694   5.880   6.215
10547SOL    HW232541   2.560   5.895   6.308
10548SOL     OW32542   1.375   5.203   3.345
10548SOL    HW132543   1.453   5.259   3.373
10548SOL    HW232544   1.390   5.108   3.372
10549SOL     OW32545   6.460   1.810   2.498
10549SOL    HW132546   6.409   1.890   2.530
10549SOL    HW232547   6.397   1.748   2.450
10550SOL     OW32548   0.210   4.406   2.832
10550SOL    HW132549   0.136   4.456   2.787
10550SOL    HW232550   0.279   4.380   2.765
10551SOL     OW32551   4.837   1.122   4.705
10551SOL    HW132552   4.857   1.050   4.638
10551SOL    HW232553   4.878   1.098   4.793
10552SOL     OW32554   2.373   7.015   4.144
10552SOL    HW132555   2.451   6.952   4.154
10552SOL    HW232556   2.350   0.024   4.234
10553SOL     OW32557   5.690   5.441   1.826
10553SOL    HW132558   5.750   5.520   1.829
10553SOL    HW232559   5.664   5.422   1.731
10554SOL     OW32560   5.390   5.574   1.808
10554SOL    HW132561   5.368   5.496   1.867
10554SOL    HW232562   5.474   5.618   1.839
10555SOL     OW32563   3.207   3.149   2.682
10555SOL    HW132564   3.157   3.157   2.768
10555SOL    HW232565   3.152   3.187   2.608
10556SOL     OW32566   2.104   1.848   2.199
10556SOL    HW132567   2.132   1.813   2.288
10556SOL    HW232568   2.175   1.909   2.163
10557SOL     OW32569   1.141   4.897   3.244
10557SOL    HW132570   1.224   4.915   3.297
10557SOL    HW232571   1.118   4.800   3.251
10558SOL     OW32572   5.334   5.544   4.612
10558SOL    HW132573   5.295   5.470   4.557
10558SOL    HW232574   5.338   5.516   4.708
10559SOL     OW32575   3.881   6.178   1.800
10559SOL    HW132576   3.812   6.213   1.736
10559SOL    HW232577   3.849   6.092   1.840
10560SOL     OW32578   5.574   6.800   4.299
10560SOL    HW132579   5.639   6.789   4.223
10560SOL    HW232580   5.535   6.711   4.322
10561SOL     OW32581   0.955   5.464   5.621
10561SOL    HW132582   0.896   5.417   5.555
10561SOL    HW232583   0.927   5.560   5.626
10562SOL     OW32584   2.737   1.221   2.659
10562SOL    HW132585   2.752   1.319   2.669
10562SOL    HW232586   2.824   1.176   2.639
10563SOL     OW32587   1.734   5.441   2.366
10563SOL    HW132588   1.709   5.391   2.283
10563SOL    HW232589   1.654   5.452   2.425
10564SOL     OW32590   5.262   5.969   3.705
10564SOL    HW132591   5.287   5.919   3.623
10564SOL    HW232592   5.325   6.046   3.718
10565SOL     OW32593   0.373   1.186   4.532
10565SOL    HW132594   0.403   1.148   4.620
10565SOL    HW232595   0.280   1.156   4.513
10566SOL     OW32596   3.845   1.434   1.453
10566SOL    HW132597   3.853   1.451   1.354
10566SOL    HW232598   3.845   1.336   1.469
10567SOL     OW32599   3.424   1.544   5.911
10567SOL    HW132600   3.369   1.617   5.950
10567SOL    HW232601   3.517   1.549   5.947
10568SOL     OW32602   5.929   1.179   0.313
10568SOL    HW132603   5.936   1.083   0.286
10568SOL    HW232604   6.010   1.229   0.281
10569SOL     OW32605   3.725   0.631   1.379
10569SOL    HW132606   3.746   0.721   1.341
10569SOL    HW232607   3.739   0.632   1.478
10570SOL     OW32608   1.390   3.858   3.168
10570SOL    HW132609   1.370   3.760   3.177
10570SOL    HW232610   1.489   3.872   3.166
10571SOL     OW32611   1.392   4.065   4.768
10571SOL    HW132612   1.373   4.127   4.693
10571SOL    HW232613   1.465   4.002   4.742
10572SOL     OW32614   0.091   5.276   0.712
10572SOL    HW132615   0.000   5.265   0.673
10572SOL    HW232616   0.133   5.186   0.725
10573SOL     OW32617   5.794   2.140   2.810
10573SOL    HW132618   5.694   2.142   2.815
10573SOL    HW232619   5.822   2.107   2.720
10574SOL     OW32620   5.585   3.213   3.149
10574SOL    HW132621   5.581   3.114   3.138
10574SOL    HW232622   5.563   3.236   3.244
10575SOL     OW32623   4.928   6.538   3.225
10575SOL    HW132624   4.870   6.464   3.190
10575SOL    HW232625   4.882   6.626   3.213
10576SOL     OW32626   0.967   3.185   5.046
10576SOL    HW132627   0.979   3.210   4.950
10576SOL    HW232628   0.952   3.269   5.099
10577SOL     OW32629   4.282   5.202   6.665
10577SOL    HW132630   4.366   5.150   6.682
10577SOL    HW232631   4.258   5.197   6.568
10578SOL     OW32632   1.151   2.725   1.941
10578SOL    HW132633   1.245   2.717   1.909
10578SOL    HW232634   1.089   2.711   1.863
10579SOL     OW32635   0.172   3.219   0.543
10579SOL    HW132636   0.176   3.302   0.487
10579SOL    HW232637   0.233   3.150   0.504
10580SOL     OW32638   4.488   6.459   6.276
10580SOL    HW132639   4.526   6.516   6.349
10580SOL    HW232640   4.419   6.398   6.315
10581SOL     OW32641   3.331   0.494   2.878
10581SOL    HW132642   3.424   0.463   2.860
10581SOL    HW232643   3.315   0.495   2.977
10582SOL     OW32644   0.445   3.690   0.233
10582SOL    HW132645   0.432   3.609   0.290
10582SOL    HW232646   0.364   3.705   0.177
10583SOL     OW32647   3.932   2.176   5.987
10583SOL    HW132648   3.851   2.215   6.030
10583SOL    HW232649   3.915   2.081   5.963
10584SOL     OW32650   6.733   0.421   4.017
10584SOL    HW132651   6.731   0.521   4.016
10584SOL    HW232652   6.640   0.386   4.028
10585SOL     OW32653   2.134   0.865   4.351
10585SOL    HW132654   2.185   0.825   4.427
10585SOL    HW232655   2.050   0.813   4.336
10586SOL     OW32656   4.312   3.330   6.298
10586SOL    HW132657   4.355   3.244   6.325
10586SOL    HW232658   4.212   3.323   6.309
10587SOL     OW32659   1.793   5.067   6.280
10587SOL    HW132660   1.754   5.078   6.189
10587SOL    HW232661   1.764   4.980   6.319
10588SOL     OW32662   1.547   4.727   4.496
10588SOL    HW132663   1.628   4.722   4.554
10588SOL    HW232664   1.519   4.822   4.485
10589SOL     OW32665   6.424   0.756   3.466
10589SOL    HW132666   6.379   0.668   3.480
10589SOL    HW232667   6.479   0.753   3.382
10590SOL     OW32668   6.152   6.468   2.687
10590SOL    HW132669   6.148   6.368   2.697
10590SOL    HW232670   6.136   6.492   2.591
10591SOL     OW32671   6.350   4.566   2.545
10591SOL    HW132672   6.378   4.617   2.463
10591SOL    HW232673   6.377   4.470   2.536
10592SOL     OW32674   6.242   3.747   5.671
10592SOL    HW132675   6.324   3.692   5.675
10592SOL    HW232676   6.170   3.697   5.622
10593SOL     OW32677   3.394   5.661   3.229
10593SOL    HW132678   3.417   5.576   3.180
10593SOL    HW232679   3.325   5.711   3.177
10594SOL     OW32680   3.857   6.077   3.115
10594SOL    HW132681   3.785   6.123   3.064
10594SOL    HW232682   3.821   5.995   3.158
10595SOL     OW32683   6.004   5.815   1.593
10595SOL    HW132684   5.997   5.910   1.564
10595SOL    HW232685   6.039   5.759   1.518
10596SOL     OW32686   6.355   2.821   1.219
10596SOL    HW132687   6.265   2.795   1.254
10596SOL    HW232688   6.380   2.912   1.253
10597SOL     OW32689   1.172   6.497   4.947
10597SOL    HW132690   1.153   6.403   4.918
10597SOL    HW232691   1.220   6.545   4.874
10598SOL     OW32692   3.122   1.466   0.648
10598SOL    HW132693   3.163   1.556   0.634
10598SOL    HW232694   3.140   1.435   0.742
10599SOL     OW32695   0.839   1.583   1.260
10599SOL    HW132696   0.864   1.660   1.202
10599SOL    HW232697   0.750   1.601   1.302
10600SOL     OW32698   4.363   1.347   1.919
10600SOL    HW132699   4.339   1.436   1.880
10600SOL    HW232700   4.296   1.321   1.988
10601SOL     OW32701   1.735   2.076   5.302
10601SOL    HW132702   1.757   2.105   5.209
10601SOL    HW232703   1.655   2.016   5.301
10602SOL     OW32704   6.551   6.318   0.657
10602SOL    HW132705   6.569   6.392   0.592
10602SOL    HW232706   6.619   6.320   0.730
10603SOL     OW32707   5.459   0.004   3.145
10603SOL    HW132708   5.449   0.004   3.245
10603SOL    HW232709   5.417   6.949   3.108
10604SOL     OW32710   5.576   2.347   4.644
10604SOL    HW132711   5.627   2.353   4.730
10604SOL    HW232712   5.564   2.251   4.619
10605SOL     OW32713   4.558   1.312   1.652
10605SOL    HW132714   4.520   1.251   1.722
10605SOL    HW232715   4.565   1.404   1.690
10606SOL     OW32716   5.627   1.746   0.857
10606SOL    HW132717   5.553   1.809   0.883
10606SOL    HW232718   5.633   1.741   0.757
10607SOL     OW32719   1.745   4.817   1.401
10607SOL    HW132720   1.842   4.811   1.376
10607SOL    HW232721   1.697   4.734   1.371
10608SOL     OW32722   5.841   3.475   2.573
10608SOL    HW132723   5.826   3.572   2.551
10608SOL    HW232724   5.815   3.458   2.668
10609SOL     OW32725   5.704   5.829   6.803
10609SOL    HW132726   5.730   5.918   6.768
10609SOL    HW232727   5.623   5.796   6.754
10610SOL     OW32728   0.016   2.310   3.730
10610SOL    HW132729   7.011   2.244   3.798
10610SOL    HW232730   6.967   2.363   3.695
10611SOL     OW32731   4.138   5.641   6.806
10611SOL    HW132732   4.217   5.579   6.809
10611SOL    HW232733   4.079   5.615   6.730
10612SOL     OW32734   5.815   2.648   4.273
10612SOL    HW132735   5.802   2.550   4.284
10612SOL    HW232736   5.797   2.673   4.177
10613SOL     OW32737   4.575   5.230   6.246
10613SOL    HW132738   4.482   5.218   6.281
10613SOL    HW232739   4.633   5.155   6.279
10614SOL     OW32740   4.435   1.588   0.522
10614SOL    HW132741   4.481   1.571   0.435
10614SOL    HW232742   4.370   1.663   0.511
10615SOL     OW32743   4.093   3.419   5.859
10615SOL    HW132744   4.174   3.381   5.904
10615SOL    HW232745   4.031   3.456   5.928
10616SOL     OW32746   1.998   5.014   0.143
10616SOL    HW132747   1.916   4.958   0.158
10616SOL    HW232748   2.077   4.969   0.185
10617SOL     OW32749   2.338   3.703   0.570
10617SOL    HW132750   2.249   3.731   0.533
10617SOL    HW232751   2.325   3.656   0.657
10618SOL     OW32752   6.967   5.137   5.559
10618SOL    HW132753   0.001   5.062   5.537
10618SOL    HW232754   6.971   5.206   5.486
10619SOL     OW32755   1.524   1.682   1.154
10619SOL    HW132756   1.542   1.774   1.189
10619SOL    HW232757   1.609   1.630   1.151
10620SOL     OW32758   4.351   1.425   6.017
10620SOL    HW132759   4.383   1.509   6.060
10620SOL    HW232760   4.324   1.444   5.922
10621SOL     OW32761   0.815   5.627   4.577
10621SOL    HW132762   0.913   5.634   4.555
10621SOL    HW232763   0.766   5.704   4.536
10622SOL     OW32764   3.735   2.200   6.258
10622SOL    HW132765   3.784   2.116   6.236
10622SOL    HW232766   3.761   2.231   6.349
10623SOL     OW32767   5.551   4.814   4.449
10623SOL    HW132768   5.597   4.867   4.520
10623SOL    HW232769   5.557   4.717   4.470
10624SOL     OW32770   0.305   1.376   5.452
10624SOL    HW132771   0.238   1.393   5.380
10624SOL    HW232772   0.397   1.397   5.419
10625SOL     OW32773   6.535   5.343   6.764
10625SOL    HW132774   6.464   5.286   6.806
10625SOL    HW232775   6.625   5.307   6.787
10626SOL     OW32776   5.136   3.637   1.435
10626SOL    HW132777   5.138   3.726   1.389
10626SOL    HW232778   5.198   3.638   1.513
10627SOL     OW32779   4.869   5.646   5.429
10627SOL    HW132780   4.780   5.636   5.387
10627SOL    HW232781   4.905   5.556   5.455
10628SOL     OW32782   2.469   6.568   2.188
10628SOL    HW132783   2.469   6.615   2.100
10628SOL    HW232784   2.516   6.480   2.179
10629SOL     OW32785   4.690   5.848   4.230
10629SOL    HW132786   4.750   5.924   4.208
10629SOL    HW232787   4.599   5.864   4.191
10630SOL     OW32788   4.331   0.887   1.661
10630SOL    HW132789   4.352   0.911   1.566
10630SOL    HW232790   4.401   0.825   1.696
10631SOL     OW32791   3.431   6.024   2.036
10631SOL    HW132792   3.462   5.934   2.006
10631SOL    HW232793   3.401   6.019   2.131
10632SOL     OW32794   5.923   0.652   5.037
10632SOL    HW132795   5.973   0.737   5.020
10632SOL    HW232796   5.832   0.673   5.073
10633SOL     OW32797   2.591   3.719   0.223
10633SOL    HW132798   2.689   3.706   0.237
10633SOL    HW232799   2.541   3.643   0.263
10634SOL     OW32800   0.951   4.263   1.148
10634SOL    HW132801   0.885   4.332   1.120
10634SOL    HW232802   1.004   4.233   1.069
10635SOL     OW32803   3.067   5.164   0.720
10635SOL    HW132804   3.003   5.202   0.653
10635SOL    HW232805   3.160   5.192   0.696
10636SOL     OW32806   0.484   2.849   0.611
10636SOL    HW132807   0.538   2.932   0.597
10636SOL    HW232808   0.400   2.854   0.556
10637SOL     OW32809   1.756   6.695   5.489
10637SOL    HW132810   1.764   6.618   5.552
10637SOL    HW232811   1.717   6.773   5.537
10638SOL     OW32812   5.263   4.189   6.853
10638SOL    HW132813   5.335   4.138   6.806
10638SOL    HW232814   5.288   4.286   6.856
10639SOL     OW32815   0.310   5.342   6.645
10639SOL    HW132816   0.236   5.387   6.595
10639SOL    HW232817   0.394   5.396   6.638
10640SOL     OW32818   4.572   5.485   5.217
10640SOL    HW132819   4.652   5.437   5.251
10640SOL    HW232820   4.515   5.513   5.295
10641SOL     OW32821   1.148   1.081   3.178
10641SOL    HW132822   1.159   1.039   3.088
10641SOL    HW232823   1.112   1.014   3.242
10642SOL     OW32824   6.408   2.530   6.300
10642SOL    HW132825   6.436   2.584   6.221
10642SOL    HW232826   6.369   2.443   6.268
10643SOL     OW32827   3.629   5.541   5.157
10643SOL    HW132828   3.617   5.444   5.174
10643SOL    HW232829   3.565   5.571   5.086
10644SOL     OW32830   2.412   4.406   3.762
10644SOL    HW132831   2.422   4.390   3.860
10644SOL    HW232832   2.501   4.427   3.722
10645SOL     OW32833   1.812   3.050   3.261
10645SOL    HW132834   1.838   3.077   3.353
10645SOL    HW232835   1.874   3.092   3.194
10646SOL     OW32836   5.244   1.751   3.639
10646SOL    HW132837   5.180   1.753   3.716
10646SOL    HW232838   5.199   1.711   3.559
10647SOL     OW32839   4.950   6.095   4.661
10647SOL    HW132840   4.865   6.147   4.653
10647SOL    HW232841   5.018   6.149   4.710
10648SOL     OW32842   4.594   3.069   5.660
10648SOL    HW132843   4.694   3.072   5.650
10648SOL    HW232844   4.561   2.979   5.633
10649SOL     OW32845   6.319   3.818   3.440
10649SOL    HW132846   6.262   3.830   3.359
10649SOL    HW232847   6.352   3.907   3.471
10650SOL     OW32848   0.248   0.856   2.307
10650SOL    HW132849   0.165   0.817   2.347
10650SOL    HW232850   0.270   0.942   2.353
10651SOL     OW32851   2.721   5.735   4.821
10651SOL    HW132852   2.744   5.738   4.724
10651SOL    HW232853   2.689   5.644   4.845
10652SOL     OW32854   3.997   0.268   6.852
10652SOL    HW132855   3.989   0.295   6.756
10652SOL    HW232856   3.906   0.259   6.892
10653SOL     OW32857   6.081   5.896   4.905
10653SOL    HW132858   6.109   5.814   4.955
10653SOL    HW232859   6.163   5.942   4.871
10654SOL     OW32860   6.637   2.163   3.960
10654SOL    HW132861   6.697   2.129   4.033
10654SOL    HW232862   6.550   2.194   4.000
10655SOL     OW32863   6.246   4.748   0.824
10655SOL    HW132864   6.213   4.792   0.741
10655SOL    HW232865   6.194   4.782   0.903
10656SOL     OW32866   5.673   0.572   5.586
10656SOL    HW132867   5.682   0.672   5.586
10656SOL    HW232868   5.596   0.546   5.646
10657SOL     OW32869   5.247   0.325   5.785
10657SOL    HW132870   5.160   0.367   5.810
10657SOL    HW232871   5.233   0.229   5.760
10658SOL     OW32872   1.092   1.121   5.079
10658SOL    HW132873   1.184   1.156   5.059
10658SOL    HW232874   1.097   1.056   5.155
10659SOL     OW32875   0.496   5.695   6.693
10659SOL    HW132876   0.448   5.722   6.610
10659SOL    HW232877   0.595   5.701   6.678
10660SOL     OW32878   6.545   3.000   5.881
10660SOL    HW132879   6.503   3.090   5.884
10660SOL    HW232880   6.525   2.957   5.792
10661SOL     OW32881   3.808   5.979   6.171
10661SOL    HW132882   3.719   6.006   6.134
10661SOL    HW232883   3.861   5.932   6.101
10662SOL     OW32884   3.253   1.577   1.234
10662SOL    HW132885   3.272   1.667   1.273
10662SOL    HW232886   3.293   1.572   1.143
10663SOL     OW32887   6.724   3.494   3.893
10663SOL    HW132888   6.811   3.512   3.939
10663SOL    HW232889   6.685   3.581   3.862
10664SOL     OW32890   0.598   6.353   3.983
10664SOL    HW132891   0.641   6.419   4.044
10664SOL    HW232892   0.561   6.277   4.037
10665SOL     OW32893   4.512   3.543   0.987
10665SOL    HW132894   4.441   3.571   0.922
10665SOL    HW232895   4.557   3.461   0.954
10666SOL     OW32896   5.237   3.664   1.676
10666SOL    HW132897   5.240   3.635   1.771
10666SOL    HW232898   5.169   3.736   1.665
10667SOL     OW32899   5.511   3.088   4.496
10667SOL    HW132900   5.594   3.043   4.527
10667SOL    HW232901   5.459   3.026   4.437
10668SOL     OW32902   2.972   3.500   5.856
10668SOL    HW132903   2.950   3.597   5.863
10668SOL    HW232904   2.914   3.449   5.920
10669SOL     OW32905   6.826   2.379   1.581
10669SOL    HW132906   6.874   2.466   1.577
10669SOL    HW232907   6.819   2.340   1.489
10670SOL     OW32908   4.915   4.693   4.178
10670SOL    HW132909   4.841   4.741   4.224
10670SOL    HW232910   5.001   4.740   4.195
10671SOL     OW32911   1.688   3.170   4.111
10671SOL    HW132912   1.724   3.080   4.087
10671SOL    HW232913   1.605   3.158   4.167
10672SOL     OW32914   6.282   5.154   1.766
10672SOL    HW132915   6.349   5.097   1.719
10672SOL    HW232916   6.207   5.096   1.800
10673SOL     OW32917   3.337   0.731   1.707
10673SOL    HW132918   3.411   0.741   1.641
10673SOL    HW232919   3.337   0.808   1.770
10674SOL     OW32920   3.861   3.275   3.914
10674SOL    HW132921   3.836   3.370   3.892
10674SOL    HW232922   3.821   3.214   3.846
10675SOL     OW32923   3.826   6.230   5.466
10675SOL    HW132924   3.857   6.202   5.556
10675SOL    HW232925   3.775   6.316   5.474
10676SOL     OW32926   1.354   1.546   4.863
10676SOL    HW132927   1.255   1.549   4.864
10676SOL    HW232928   1.390   1.634   4.830
10677SOL     OW32929   0.192   1.289   6.459
10677SOL    HW132930   0.242   1.202   6.463
10677SOL    HW232931   0.255   1.364   6.479
10678SOL     OW32932   3.424   4.897   2.647
10678SOL    HW132933   3.405   4.850   2.733
10678SOL    HW232934   3.521   4.886   2.623
10679SOL     OW32935   5.523   4.082   6.805
10679SOL    HW132936   5.619   4.081   6.834
10679SOL    HW232937   5.517   4.056   6.709
10680SOL     OW32938   3.910   1.720   4.866
10680SOL    HW132939   3.828   1.664   4.878
10680SOL    HW232940   3.927   1.735   4.769
10681SOL     OW32941   2.436   3.322   5.917
10681SOL    HW132942   2.405   3.226   5.917
10681SOL    HW232943   2.389   3.372   5.989
10682SOL     OW32944   5.162   3.140   6.222
10682SOL    HW132945   5.200   3.100   6.139
10682SOL    HW232946   5.137   3.236   6.205
10683SOL     OW32947   1.689   6.538   3.404
10683SOL    HW132948   1.761   6.475   3.431
10683SOL    HW232949   1.656   6.514   3.312
10684SOL     OW32950   5.161   3.609   1.043
10684SOL    HW132951   5.182   3.531   1.102
10684SOL    HW232952   5.068   3.641   1.061
10685SOL     OW32953   0.262   0.704   2.577
10685SOL    HW132954   0.360   0.685   2.570
10685SOL    HW232955   0.247   0.788   2.629
10686SOL     OW32956   2.328   2.299   6.924
10686SOL    HW132957   2.308   2.284   6.827
10686SOL    HW232958   2.245   2.286   6.978
10687SOL     OW32959   0.656   3.351   3.433
10687SOL    HW132960   0.580   3.406   3.399
10687SOL    HW232961   0.621   3.267   3.474
10688SOL     OW32962   5.011   1.442   3.372
10688SOL    HW132963   4.918   1.415   3.347
10688SOL    HW232964   5.039   1.391   3.454
10689SOL     OW32965   1.424   0.886   2.776
10689SOL    HW132966   1.492   0.899   2.704
10689SOL    HW232967   1.394   0.976   2.810
10690SOL     OW32968   1.408   5.942   4.927
10690SOL    HW132969   1.355   5.944   5.012
10690SOL    HW232970   1.346   5.956   4.849
10691SOL     OW32971   3.639   6.880   1.194
10691SOL    HW132972   3.556   6.832   1.222
10691SOL    HW232973   3.712   6.861   1.259
10692SOL     OW32974   2.916   2.297   3.966
10692SOL    HW132975   2.981   2.270   3.895
10692SOL    HW232976   2.962   2.300   4.054
10693SOL     OW32977   1.179   4.073   0.149
10693SOL    HW132978   1.203   3.991   0.202
10693SOL    HW232979   1.087   4.062   0.112
10694SOL     OW32980   4.698   2.508   5.611
10694SOL    HW132981   4.727   2.520   5.706
10694SOL    HW232982   4.600   2.490   5.608
10695SOL     OW32983   4.535   4.773   1.592
10695SOL    HW132984   4.462   4.775   1.660
10695SOL    HW232985   4.560   4.678   1.573
10696SOL     OW32986   6.668   4.953   4.508
10696SOL    HW132987   6.637   4.909   4.593
10696SOL    HW232988   6.696   4.882   4.443
10697SOL     OW32989   2.583   5.204   4.862
10697SOL    HW132990   2.585   5.211   4.961
10697SOL    HW232991   2.512   5.140   4.834
10698SOL     OW32992   4.181   4.707   6.803
10698SOL    HW132993   4.180   4.712   6.903
10698SOL    HW232994   4.268   4.670   6.772
10699SOL     OW32995   4.771   3.724   1.384
10699SOL    HW132996   4.830   3.665   1.439
10699SOL    HW232997   4.778   3.698   1.288
10700SOL     OW32998   4.843   0.277   1.275
10700SOL    HW132999   4.887   0.350   1.222
10700SOL    HW233000   4.770   0.317   1.331
10701SOL     OW33001   3.427   6.963   5.936
10701SOL    HW133002   3.416   0.008   6.004
10701SOL    HW233003   3.421   7.002   5.844
10702SOL     OW33004   5.809   2.902   1.945
10702SOL    HW133005   5.722   2.916   1.993
10702SOL    HW233006   5.807   2.813   1.899
10703SOL     OW33007   0.619   2.240   5.397
10703SOL    HW133008   0.710   2.211   5.369
10703SOL    HW233009   0.559   2.161   5.403
10704SOL     OW33010   5.340   6.896   2.039
10704SOL    HW133011   5.373   6.816   1.990
10704SOL    HW233012   5.356   6.884   2.137
10705SOL     OW33013   4.875   3.356   1.153
10705SOL    HW133014   4.938   3.331   1.226
10705SOL    HW233015   4.803   3.286   1.146
10706SOL     OW33016   2.830   1.105   1.779
10706SOL    HW133017   2.730   1.115   1.783
10706SOL    HW233018   2.855   1.015   1.814
10707SOL     OW33019   3.627   6.966   3.735
10707SOL    HW133020   3.697   6.984   3.665
10707SOL    HW233021   3.663   6.901   3.802
10708SOL     OW33022   4.034   1.245   1.132
10708SOL    HW133023   4.078   1.321   1.083
10708SOL    HW233024   4.067   1.158   1.094
10709SOL     OW33025   5.809   4.386   3.103
10709SOL    HW133026   5.724   4.377   3.155
10709SOL    HW233027   5.805   4.470   3.048
10710SOL     OW33028   4.381   1.612   2.947
10710SOL    HW133029   4.300   1.555   2.960
10710SOL    HW233030   4.416   1.601   2.854
10711SOL     OW33031   2.479   6.727   2.960
10711SOL    HW133032   2.494   6.631   2.983
10711SOL    HW233033   2.405   6.735   2.893
10712SOL     OW33034   5.389   1.351   3.468
10712SOL    HW133035   5.291   1.369   3.461
10712SOL    HW233036   5.407   1.296   3.550
10713SOL     OW33037   1.186   4.444   1.262
10713SOL    HW133038   1.105   4.394   1.233
10713SOL    HW233039   1.175   4.541   1.239
10714SOL     OW33040   3.081   4.063   4.953
10714SOL    HW133041   3.007   4.121   4.920
10714SOL    HW233042   3.096   4.080   5.050
10715SOL     OW33043   6.788   0.368   1.816
10715SOL    HW133044   6.779   0.269   1.823
10715SOL    HW233045   6.856   0.391   1.747
10716SOL     OW33046   4.922   0.553   2.878
10716SOL    HW133047   4.896   0.490   2.951
10716SOL    HW233048   4.980   0.626   2.915
10717SOL     OW33049   3.435   3.042   0.291
10717SOL    HW133050   3.363   2.987   0.334
10717SOL    HW233051   3.518   2.986   0.280
10718SOL     OW33052   1.457   4.858   6.309
10718SOL    HW133053   1.434   4.936   6.250
10718SOL    HW233054   1.372   4.811   6.335
10719SOL     OW33055   0.119   4.528   5.526
10719SOL    HW133056   0.023   4.528   5.498
10719SOL    HW233057   0.139   4.447   5.580
10720SOL     OW33058   6.683   5.508   2.957
10720SOL    HW133059   6.763   5.447   2.961
10720SOL    HW233060   6.616   5.470   2.894
10721SOL     OW33061   4.778   2.716   6.462
10721SOL    HW133062   4.854   2.732   6.525
10721SOL    HW233063   4.800   2.639   6.402
10722SOL     OW33064   0.313   3.902   5.938
10722SOL    HW133065   0.372   3.958   5.996
10722SOL    HW233066   0.303   3.811   5.979
10723SOL     OW33067   5.801   6.112   1.667
10723SOL    HW133068   5.752   6.164   1.596
10723SOL    HW233069   5.899   6.112   1.647
10724SOL     OW33070   0.438   6.436   6.143
10724SOL    HW133071   0.503   6.499   6.101
10724SOL    HW233072   0.424   6.461   6.239
10725SOL     OW33073   2.446   0.324   6.286
10725SOL    HW133074   2.534   0.316   6.238
10725SOL    HW233075   2.385   0.251   6.255
10726SOL     OW33076   3.761   0.655   4.135
10726SOL    HW133077   3.749   0.755   4.138
10726SOL    HW233078   3.812   0.630   4.053
10727SOL     OW33079   2.158   6.455   6.881
10727SOL    HW133080   2.154   6.488   6.786
10727SOL    HW233081   2.161   6.355   6.882
10728SOL     OW33082   5.402   6.419   2.057
10728SOL    HW133083   5.333   6.445   2.125
10728SOL    HW233084   5.424   6.498   2.000
10729SOL     OW33085   6.469   1.565   0.219
10729SOL    HW133086   6.512   1.518   0.296
10729SOL    HW233087   6.370   1.572   0.235
10730SOL     OW33088   5.032   0.218   3.016
10730SOL    HW133089   5.113   0.245   2.963
10730SOL    HW233090   4.989   0.300   3.054
10731SOL     OW33091   2.967   6.578   0.660
10731SOL    HW133092   3.060   6.544   0.670
10731SOL    HW233093   2.970   6.671   0.623
10732SOL     OW33094   0.494   3.311   5.978
10732SOL    HW133095   0.479   3.256   5.896
10732SOL    HW233096   0.554   3.387   5.957
10733SOL     OW33097   6.472   0.155   6.944
10733SOL    HW133098   6.469   0.241   6.994
10733SOL    HW233099   6.382   0.111   6.947
10734SOL     OW33100   5.525   2.801   1.775
10734SOL    HW133101   5.443   2.858   1.767
10734SOL    HW233102   5.503   2.719   1.828
10735SOL     OW33103   6.969   5.497   2.416
10735SOL    HW133104   6.927   5.501   2.326
10735SOL    HW233105   6.906   5.456   2.481
10736SOL     OW33106   2.265   1.515   5.406
10736SOL    HW133107   2.176   1.555   5.382
10736SOL    HW233108   2.326   1.587   5.440
10737SOL     OW33109   0.356   1.454   6.032
10737SOL    HW133110   0.387   1.538   6.077
10737SOL    HW233111   0.285   1.477   5.966
10738SOL     OW33112   3.946   6.878   4.234
10738SOL    HW133113   4.034   6.922   4.215
10738SOL    HW233114   3.880   6.946   4.265
10739SOL     OW33115   1.331   1.196   1.919
10739SOL    HW133116   1.276   1.132   1.866
10739SOL    HW233117   1.272   1.258   1.970
10740SOL     OW33118   4.176   6.217   3.816
10740SOL    HW133119   4.090   6.205   3.866
10740SOL    HW233120   4.248   6.163   3.859
10741SOL     OW33121   2.094   0.646   2.592
10741SOL    HW133122   2.103   0.622   2.496
10741SOL    HW233123   2.153   0.724   2.613
10742SOL     OW33124   6.494   5.639   0.257
10742SOL    HW133125   6.424   5.653   0.187
10742SOL    HW233126   6.560   5.570   0.226
10743SOL     OW33127   3.487   1.051   5.011
10743SOL    HW133128   3.468   1.038   4.914
10743SOL    HW233129   3.585   1.043   5.028
10744SOL     OW33130   5.504   1.169   0.588
10744SOL    HW133131   5.538   1.084   0.630
10744SOL    HW233132   5.541   1.247   0.637
10745SOL     OW33133   6.477   6.014   6.275
10745SOL    HW133134   6.546   6.087   6.272
10745SOL    HW233135   6.484   5.959   6.192
10746SOL     OW33136   1.726   4.086   5.370
10746SOL    HW133137   1.739   3.997   5.328
10746SOL    HW233138   1.782   4.092   5.453
10747SOL     OW33139   2.858   2.122   5.215
10747SOL    HW133140   2.921   2.192   5.249
10747SOL    HW233141   2.847   2.133   5.116
10748SOL     OW33142   5.455   1.508   2.776
10748SOL    HW133143   5.459   1.574   2.700
10748SOL    HW233144   5.399   1.430   2.749
10749SOL     OW33145   3.759   0.408   0.071
10749SOL    HW133146   3.709   0.321   0.070
10749SOL    HW233147   3.725   0.467   7.026
10750SOL     OW33148   4.730   5.979   6.751
10750SOL    HW133149   4.631   5.974   6.758
10750SOL    HW233150   4.755   6.044   6.679
10751SOL     OW33151   2.505   6.022   2.794
10751SOL    HW133152   2.450   6.011   2.877
10751SOL    HW233153   2.453   5.989   2.715
10752SOL     OW33154   4.802   5.599   4.256
10752SOL    HW133155   4.780   5.694   4.233
10752SOL    HW233156   4.838   5.596   4.350
10753SOL     OW33157   5.585   4.041   4.464
10753SOL    HW133158   5.658   4.109   4.468
10753SOL    HW233159   5.511   4.075   4.406
10754SOL     OW33160   1.200   6.771   2.469
10754SOL    HW133161   1.243   6.681   2.478
10754SOL    HW233162   1.146   6.774   2.385
10755SOL     OW33163   6.068   6.099   1.610
10755SOL    HW133164   6.115   6.172   1.560
10755SOL    HW233165   6.121   6.075   1.692
10756SOL     OW33166   6.808   6.992   4.846
10756SOL    HW133167   6.874   0.016   4.900
10756SOL    HW233168   6.737   0.026   4.812
10757SOL     OW33169   2.668   2.644   1.712
10757SOL    HW133170   2.647   2.570   1.776
10757SOL    HW233171   2.583   2.686   1.681
10758SOL     OW33172   6.762   5.308   4.200
10758SOL    HW133173   6.678   5.262   4.172
10758SOL    HW233174   6.802   5.260   4.279
10759SOL     OW33175   6.629   0.511   6.534
10759SOL    HW133176   6.688   0.453   6.478
10759SOL    HW233177   6.663   0.605   6.532
10760SOL     OW33178   5.665   2.101   4.396
10760SOL    HW133179   5.751   2.050   4.408
10760SOL    HW233180   5.608   2.089   4.477
10761SOL     OW33181   3.869   5.503   5.571
10761SOL    HW133182   3.793   5.559   5.602
10761SOL    HW233183   3.947   5.562   5.550
10762SOL     OW33184   3.392   0.675   6.499
10762SOL    HW133185   3.367   0.585   6.535
10762SOL    HW233186   3.335   0.745   6.542
10763SOL     OW33187   4.725   5.229   4.145
10763SOL    HW133188   4.700   5.281   4.227
10763SOL    HW233189   4.682   5.138   4.148
10764SOL     OW33190   5.235   0.557   4.474
10764SOL    HW133191   5.148   0.521   4.509
10764SOL    HW233192   5.309   0.529   4.535
10765SOL     OW33193   0.123   3.950   0.021
10765SOL    HW133194   0.039   3.916   7.009
10765SOL    HW233195   0.107   3.979   0.116
10766SOL     OW33196   2.883   3.709   2.348
10766SOL    HW133197   2.908   3.648   2.424
10766SOL    HW233198   2.792   3.684   2.315
10767SOL     OW33199   4.461   2.131   2.108
10767SOL    HW133200   4.517   2.206   2.072
10767SOL    HW233201   4.379   2.122   2.052
10768SOL     OW33202   5.943   4.700   6.411
10768SOL    HW133203   6.039   4.675   6.401
10768SOL    HW233204   5.886   4.632   6.365
10769SOL     OW33205   2.162   3.405   4.323
10769SOL    HW133206   2.093   3.470   4.355
10769SOL    HW233207   2.159   3.399   4.223
10770SOL     OW33208   4.444   5.921   3.890
10770SOL    HW133209   4.469   6.010   3.928
10770SOL    HW233210   4.439   5.928   3.790
10771SOL     OW33211   2.665   2.246   3.710
10771SOL    HW133212   2.624   2.201   3.790
10771SOL    HW233213   2.672   2.180   3.635
10772SOL     OW33214   4.973   6.027   3.680
10772SOL    HW133215   4.973   6.121   3.647
10772SOL    HW233216   5.064   6.002   3.712
10773SOL     OW33217   5.891   5.417   2.911
10773SOL    HW133218   5.880   5.378   3.003
10773SOL    HW233219   5.818   5.383   2.852
10774SOL     OW33220   0.136   0.028   3.468
10774SOL    HW133221   0.179   0.094   3.407
10774SOL    HW233222   0.039   0.019   3.445
10775SOL     OW33223   0.245   2.507   1.036
10775SOL    HW133224   0.265   2.535   1.130
10775SOL    HW233225   0.181   2.572   0.995
10776SOL     OW33226   2.262   0.447   5.409
10776SOL    HW133227   2.243   0.497   5.493
10776SOL    HW233228   2.204   0.482   5.335
10777SOL     OW33229   3.433   5.750   1.833
10777SOL    HW133230   3.420   5.654   1.807
10777SOL    HW233231   3.432   5.807   1.751
10778SOL     OW33232   5.598   5.738   1.880
10778SOL    HW133233   5.541   5.819   1.894
10778SOL    HW233234   5.649   5.747   1.795
10779SOL     OW33235   4.934   3.077   3.659
10779SOL    HW133236   4.916   3.086   3.757
10779SOL    HW233237   4.910   2.984   3.629
10780SOL     OW33238   6.793   0.354   2.191
10780SOL    HW133239   6.785   0.446   2.230
10780SOL    HW233240   6.703   0.313   2.184
10781SOL     OW33241   3.028   0.526   4.151
10781SOL    HW133242   3.105   0.545   4.090
10781SOL    HW233243   2.943   0.555   4.107
10782SOL     OW33244   0.069   5.799   3.326
10782SOL    HW133245   7.005   5.785   3.290
10782SOL    HW233246   0.123   5.852   3.261
10783SOL     OW33247   6.519   2.910   2.654
10783SOL    HW133248   6.494   2.941   2.746
10783SOL    HW233249   6.440   2.920   2.593
10784SOL     OW33250   1.764   1.644   5.026
10784SOL    HW133251   1.754   1.731   5.074
10784SOL    HW233252   1.739   1.569   5.087
10785SOL     OW33253   1.646   3.400   6.043
10785SOL    HW133254   1.594   3.335   6.099
10785SOL    HW233255   1.604   3.490   6.048
10786SOL     OW33256   6.783   4.662   4.631
10786SOL    HW133257   6.880   4.642   4.628
10786SOL    HW233258   6.735   4.612   4.559
10787SOL     OW33259   1.849   2.154   5.806
10787SOL    HW133260   1.908   2.177   5.883
10787SOL    HW233261   1.882   2.199   5.723
10788SOL     OW33262   5.710   3.861   6.228
10788SOL    HW133263   5.640   3.852   6.157
10788SOL    HW233264   5.683   3.807   6.308
10789SOL     OW33265   4.623   0.747   6.255
10789SOL    HW133266   4.556   0.729   6.327
10789SOL    HW233267   4.643   0.845   6.251
10790SOL     OW33268   5.410   6.912   2.327
10790SOL    HW133269   5.412   6.819   2.365
10790SOL    HW233270   5.473   6.971   2.378
10791SOL     OW33271   0.771   5.742   2.804
10791SOL    HW133272   0.781   5.670   2.735
10791SOL    HW233273   0.741   5.827   2.760
10792SOL     OW33274   4.532   4.749   6.425
10792SOL    HW133275   4.443   4.792   6.413
10792SOL    HW233276   4.522   4.649   6.427
10793SOL     OW33277   5.457   4.353   4.498
10793SOL    HW133278   5.456   4.328   4.595
10793SOL    HW233279   5.429   4.275   4.443
10794SOL     OW33280   3.412   3.396   4.356
10794SOL    HW133281   3.463   3.449   4.288
10794SOL    HW233282   3.445   3.301   4.356
10795SOL     OW33283   0.006   4.574   2.764
10795SOL    HW133284   6.960   4.544   2.825
10795SOL    HW233285   0.001   4.673   2.752
10796SOL     OW33286   0.956   6.635   5.546
10796SOL    HW133287   1.049   6.619   5.579
10796SOL    HW233288   0.956   6.712   5.482
10797SOL     OW33289   3.603   2.726   0.311
10797SOL    HW133290   3.687   2.682   0.278
10797SOL    HW233291   3.533   2.724   0.240
10798SOL     OW33292   5.827   1.324   0.813
10798SOL    HW133293   5.893   1.308   0.739
10798SOL    HW233294   5.741   1.356   0.774
10799SOL     OW33295   5.276   1.643   1.250
10799SOL    HW133296   5.307   1.552   1.278
10799SOL    HW233297   5.266   1.645   1.150
10800SOL     OW33298   6.247   6.603   1.600
10800SOL    HW133299   6.202   6.668   1.662
10800SOL    HW233300   6.234   6.633   1.506
10801SOL     OW33301   2.369   0.772   1.281
10801SOL    HW133302   2.312   0.691   1.291
10801SOL    HW233303   2.463   0.750   1.310
10802SOL     OW33304   5.147   1.475   3.855
10802SOL    HW133305   5.124   1.572   3.857
10802SOL    HW233306   5.219   1.456   3.922
10803SOL     OW33307   2.395   5.007   4.826
10803SOL    HW133308   2.386   4.915   4.789
10803SOL    HW233309   2.343   5.071   4.770
10804SOL     OW33310   6.050   3.315   4.225
10804SOL    HW133311   6.149   3.313   4.207
10804SOL    HW233312   6.014   3.222   4.219
10805SOL     OW33313   6.877   6.652   6.502
10805SOL    HW133314   6.855   6.677   6.408
10805SOL    HW233315   6.928   6.726   6.545
10806SOL     OW33316   2.098   5.173   1.311
10806SOL    HW133317   2.075   5.240   1.382
10806SOL    HW233318   2.078   5.211   1.221
10807SOL     OW33319   3.150   5.094   5.114
10807SOL    HW133320   3.211   5.165   5.148
10807SOL    HW233321   3.064   5.135   5.084
10808SOL     OW33322   1.968   3.036   0.310
10808SOL    HW133323   1.904   3.016   0.235
10808SOL    HW233324   1.919   3.084   0.383
10809SOL     OW33325   1.519   1.020   4.854
10809SOL    HW133326   1.518   1.118   4.836
10809SOL    HW233327   1.480   1.002   4.944
10810SOL     OW33328   0.125   0.229   3.270
10810SOL    HW133329   0.162   0.320   3.252
10810SOL    HW233330   0.032   0.237   3.307
10811SOL     OW33331   4.972   5.681   4.881
10811SOL    HW133332   4.975   5.718   4.788
10811SOL    HW233333   4.989   5.755   4.946
10812SOL     OW33334   0.594   2.890   1.066
10812SOL    HW133335   0.562   2.835   0.989
10812SOL    HW233336   0.681   2.933   1.042
10813SOL     OW33337   1.240   3.586   6.551
10813SOL    HW133338   1.324   3.532   6.563
10813SOL    HW233339   1.161   3.526   6.557
10814SOL     OW33340   3.193   1.898   2.463
10814SOL    HW133341   3.276   1.899   2.519
10814SOL    HW233342   3.179   1.989   2.422
10815SOL     OW33343   5.475   1.093   4.415
10815SOL    HW133344   5.486   1.153   4.494
10815SOL    HW233345   5.378   1.089   4.389
10816SOL     OW33346   3.146   2.845   5.729
10816SOL    HW133347   3.176   2.768   5.786
10816SOL    HW233348   3.079   2.899   5.780
10817SOL     OW33349   1.904   6.429   4.939
10817SOL    HW133350   1.913   6.376   4.854
10817SOL    HW233351   1.807   6.443   4.959
10818SOL     OW33352   4.994   3.898   0.707
10818SOL    HW133353   5.070   3.880   0.770
10818SOL    HW233354   4.908   3.866   0.748
10819SOL     OW33355   6.521   5.639   5.565
10819SOL    HW133356   6.580   5.613   5.641
10819SOL    HW233357   6.575   5.684   5.494
10820SOL     OW33358   1.528   4.879   5.932
10820SOL    HW133359   1.512   4.843   5.840
10820SOL    HW233360   1.554   4.804   5.993
10821SOL     OW33361   4.330   5.660   4.124
10821SOL    HW133362   4.340   5.632   4.028
10821SOL    HW233363   4.302   5.756   4.127
10822SOL     OW33364   5.394   0.141   2.919
10822SOL    HW133365   5.422   0.095   3.002
10822SOL    HW233366   5.445   0.104   2.841
10823SOL     OW33367   5.810   6.463   2.546
10823SOL    HW133368   5.822   6.364   2.547
10823SOL    HW233369   5.769   6.492   2.460
10824SOL     OW33370   1.929   1.911   3.920
10824SOL    HW133371   1.960   2.006   3.919
10824SOL    HW233372   2.007   1.850   3.908
10825SOL     OW33373   0.036   1.345   0.055
10825SOL    HW133374   6.993   1.328   0.124
10825SOL    HW233375   7.021   1.356   6.993
10826SOL     OW33376   6.628   3.605   2.941
10826SOL    HW133377   6.544   3.562   2.908
10826SOL    HW233378   6.620   3.704   2.931
10827SOL     OW33379   0.403   2.892   3.221
10827SOL    HW133380   0.442   2.856   3.306
10827SOL    HW233381   0.469   2.953   3.178
10828SOL     OW33382   0.037   4.199   5.007
10828SOL    HW133383   0.117   4.204   5.068
10828SOL    HW233384   0.068   4.179   4.914
10829SOL     OW33385   3.989   2.879   5.425
10829SOL    HW133386   3.909   2.920   5.383
10829SOL    HW233387   3.981   2.779   5.423
10830SOL     OW33388   5.231   2.076   3.851
10830SOL    HW133389   5.287   1.994   3.844
10830SOL    HW233390   5.282   2.155   3.818
10831SOL     OW33391   4.192   0.197   2.984
10831SOL    HW133392   4.235   0.255   3.054
10831SOL    HW233393   4.139   0.254   2.922
10832SOL     OW33394   6.948   3.672   6.361
10832SOL    HW133395   6.895   3.660   6.445
10832SOL    HW233396   6.987   3.763   6.359
10833SOL     OW33397   0.943   0.936   6.433
10833SOL    HW133398   0.950   0.981   6.344
10833SOL    HW233399   0.897   0.998   6.498
10834SOL     OW33400   6.831   6.347   2.273
10834SOL    HW133401   6.796   6.263   2.231
10834SOL    HW233402   6.899   6.324   2.343
10835SOL     OW33403   7.006   2.572   5.597
10835SOL    HW133404   0.046   2.558   5.669
10835SOL    HW233405   6.915   2.582   5.638
10836SOL     OW33406   6.554   2.128   3.323
10836SOL    HW133407   6.605   2.105   3.240
10836SOL    HW233408   6.561   2.226   3.340
10837SOL     OW33409   0.540   3.097   3.450
10837SOL    HW133410   0.574   3.052   3.367
10837SOL    HW233411   0.559   3.040   3.530
10838SOL     OW33412   7.022   6.493   2.531
10838SOL    HW133413   6.992   6.419   2.590
10838SOL    HW233414   6.959   6.570   2.540
10839SOL     OW33415   4.708   2.496   7.025
10839SOL    HW133416   4.801   2.477   0.030
10839SOL    HW233417   4.694   2.594   7.020
10840SOL     OW33418   3.097   0.548   2.050
10840SOL    HW133419   3.003   0.525   2.026
10840SOL    HW233420   3.145   0.465   2.079
10841SOL     OW33421   2.387   5.643   4.158
10841SOL    HW133422   2.474   5.681   4.190
10841SOL    HW233423   2.404   5.560   4.105
10842SOL     OW33424   6.851   4.666   1.940
10842SOL    HW133425   6.920   4.606   1.982
10842SOL    HW233426   6.843   4.750   1.993
10843SOL     OW33427   2.537   1.434   1.039
10843SOL    HW133428   2.457   1.405   1.092
10843SOL    HW233429   2.510   1.504   0.973
10844SOL     OW33430   1.723   5.520   4.336
10844SOL    HW133431   1.725   5.589   4.264
10844SOL    HW233432   1.628   5.493   4.354
10845SOL     OW33433   3.901   0.658   4.445
10845SOL    HW133434   3.968   0.718   4.401
10845SOL    HW233435   3.811   0.701   4.441
10846SOL     OW33436   5.621   6.784   6.066
10846SOL    HW133437   5.531   6.754   6.035
10846SOL    HW233438   5.614   6.870   6.115
10847SOL     OW33439   3.357   0.178   6.727
10847SOL    HW133440   3.352   0.108   6.655
10847SOL    HW233441   3.309   0.145   6.809
10848SOL     OW33442   1.644   2.801   2.187
10848SOL    HW133443   1.586   2.838   2.259
10848SOL    HW233444   1.653   2.702   2.198
10849SOL     OW33445   1.035   6.685   3.446
10849SOL    HW133446   1.042   6.586   3.441
10849SOL    HW233447   1.038   6.714   3.542
10850SOL     OW33448   4.835   4.200   0.010
10850SOL    HW133449   4.888   4.121   7.008
10850SOL    HW233450   4.787   4.240   6.960
10851SOL     OW33451   1.303   4.454   0.917
10851SOL    HW133452   1.363   4.428   0.993
10851SOL    HW233453   1.353   4.443   0.831
10852SOL     OW33454   2.890   0.787   1.437
10852SOL    HW133455   2.956   0.799   1.511
10852SOL    HW233456   2.855   0.877   1.410
10853SOL     OW33457   3.075   0.645   6.280
10853SOL    HW133458   3.000   0.662   6.344
10853SOL    HW233459   3.093   0.547   6.275
10854SOL     OW33460   2.854   6.451   5.896
10854SOL    HW133461   2.785   6.386   5.865
10854SOL    HW233462   2.914   6.406   5.962
10855SOL     OW33463   4.419   0.763   6.460
10855SOL    HW133464   4.422   0.851   6.507
10855SOL    HW233465   4.349   0.705   6.502
10856SOL     OW33466   0.497   0.469   0.730
10856SOL    HW133467   0.508   0.402   0.803
10856SOL    HW233468   0.581   0.522   0.719
10857SOL     OW33469   5.912   1.400   1.223
10857SOL    HW133470   5.885   1.466   1.153
10857SOL    HW233471   5.844   1.399   1.296
10858SOL     OW33472   2.235   6.394   1.938
10858SOL    HW133473   2.303   6.414   1.867
10858SOL    HW233474   2.183   6.477   1.959
10859SOL     OW33475   2.021   4.778   3.801
10859SOL    HW133476   1.947   4.715   3.823
10859SOL    HW233477   2.090   4.731   3.747
10860SOL     OW33478   0.799   3.306   2.921
10860SOL    HW133479   0.754   3.300   3.010
10860SOL    HW233480   0.860   3.385   2.920
10861SOL     OW33481   4.394   3.408   5.328
10861SOL    HW133482   4.352   3.467   5.259
10861SOL    HW233483   4.375   3.312   5.305
10862SOL     OW33484   1.191   0.515   5.681
10862SOL    HW133485   1.286   0.519   5.712
10862SOL    HW233486   1.142   0.596   5.714
10863SOL     OW33487   1.683   6.794   4.232
10863SOL    HW133488   1.656   6.801   4.136
10863SOL    HW233489   1.756   6.726   4.242
10864SOL     OW33490   3.023   7.027   4.009
10864SOL    HW133491   2.954   0.014   3.939
10864SOL    HW233492   3.113   0.022   3.972
10865SOL     OW33493   6.580   0.608   5.973
10865SOL    HW133494   6.600   0.696   6.015
10865SOL    HW233495   6.537   0.623   5.883
10866SOL     OW33496   6.584   4.998   6.902
10866SOL    HW133497   6.558   4.920   6.959
10866SOL    HW233498   6.672   4.979   6.858
10867SOL     OW33499   3.113   1.583   0.170
10867SOL    HW133500   3.138   1.516   0.240
10867SOL    HW233501   3.140   1.675   0.201
10868SOL     OW33502   1.930   2.346   3.726
10868SOL    HW133503   1.954   2.315   3.634
10868SOL    HW233504   1.839   2.387   3.724
10869NA      NA33505   6.681   2.382   5.223
10870NA      NA33506   4.518   4.492   5.154
10871NA      NA33507   2.016   3.384   1.950
10872NA      NA33508   4.941   3.493   4.836
10873NA      NA33509   4.320   2.338   5.196
10874NA      NA33510   3.810   4.882   2.076
10875NA      NA33511   6.627   6.416   4.840
10876NA      NA33512   3.529   3.294   5.064
10877NA      NA33513   4.801   6.178   6.190
10878NA      NA33514   2.810   6.749   4.749
10879NA      NA33515   0.414   4.903   3.290
10880NA      NA33516   1.991   0.607   1.968
10881NA      NA33517   4.086   4.198   1.153
10882NA      NA33518   3.862   3.338   3.241
   7.02807   7.02807   7.02807
