Generated by trjconv : CNT in water t= 109.00000
33518
    1C        C    1   2.838   2.766   4.746
    1C        C    2   2.896   2.711   4.862
    1C        C    3   2.840   2.765   4.979
    1C        C    4   2.845   2.771   4.258
    1C        C    5   2.899   2.725   4.380
    1C        C    6   2.847   2.769   4.503
    1C        C    7   3.012   2.638   4.623
    1C        C    8   2.897   2.720   4.626
    1C        C    9   3.074   2.597   4.743
    1C        C   10   3.008   2.624   4.864
    1C        C   11   3.181   2.491   4.976
    1C        C   12   3.059   2.559   4.977
    1C        C   13   2.854   2.771   3.770
    1C        C   14   2.900   2.719   3.893
    1C        C   15   2.845   2.769   4.013
    1C        C   16   3.015   2.644   4.136
    1C        C   17   2.902   2.729   4.136
    1C        C   18   3.078   2.613   4.258
    1C        C   19   3.017   2.648   4.381
    1C        C   20   3.209   2.554   4.503
    1C        C   21   3.077   2.605   4.502
    1C        C   22   3.276   2.531   4.625
    1C        C   23   3.206   2.546   4.747
    1C        C   24   3.413   2.485   4.863
    1C        C   25   3.271   2.501   4.865
    1C        C   26   3.487   2.469   4.981
    1C        C   27   2.847   2.764   3.278
    1C        C   28   2.899   2.721   3.401
    1C        C   29   2.847   2.766   3.524
    1C        C   30   3.018   2.640   3.646
    1C        C   31   2.903   2.722   3.647
    1C        C   32   3.077   2.603   3.768
    1C        C   33   3.016   2.638   3.891
    1C        C   34   3.205   2.550   4.017
    1C        C   35   3.073   2.601   4.014
    1C        C   36   3.273   2.528   4.139
    1C        C   37   3.207   2.557   4.260
    1C        C   38   3.416   2.510   4.381
    1C        C   39   3.277   2.531   4.381
    1C        C   40   3.487   2.503   4.504
    1C        C   41   3.414   2.503   4.625
    1C        C   42   3.632   2.479   4.742
    1C        C   43   3.489   2.482   4.743
    1C        C   44   3.707   2.480   4.862
    1C        C   45   3.626   2.474   4.976
    1C        C   46   2.837   2.754   2.791
    1C        C   47   2.894   2.710   2.912
    1C        C   48   2.844   2.758   3.035
    1C        C   49   3.017   2.634   3.158
    1C        C   50   2.899   2.712   3.157
    1C        C   51   3.077   2.600   3.282
    1C        C   52   3.015   2.640   3.402
    1C        C   53   3.209   2.549   3.525
    1C        C   54   3.079   2.604   3.524
    1C        C   55   3.275   2.531   3.649
    1C        C   56   3.207   2.548   3.772
    1C        C   57   3.413   2.508   3.894
    1C        C   58   3.274   2.529   3.895
    1C        C   59   3.486   2.507   4.016
    1C        C   60   3.412   2.506   4.136
    1C        C   61   3.626   2.503   4.258
    1C        C   62   3.485   2.504   4.258
    1C        C   63   3.700   2.504   4.378
    1C        C   64   3.628   2.495   4.499
    1C        C   65   3.835   2.543   4.620
    1C        C   66   3.700   2.501   4.621
    1C        C   67   3.902   2.561   4.743
    1C        C   68   3.841   2.524   4.864
    1C        C   69   4.046   2.590   4.980
    1C        C   70   3.922   2.524   4.978
    1C        C   71   2.825   2.734   2.305
    1C        C   72   2.878   2.690   2.429
    1C        C   73   2.826   2.744   2.549
    1C        C   74   3.003   2.621   2.669
    1C        C   75   2.886   2.700   2.669
    1C        C   76   3.068   2.592   2.791
    1C        C   77   3.008   2.626   2.915
    1C        C   78   3.205   2.542   3.037
    1C        C   79   3.073   2.592   3.036
    1C        C   80   3.274   2.526   3.158
    1C        C   81   3.206   2.543   3.281
    1C        C   82   3.412   2.493   3.402
    1C        C   83   3.274   2.521   3.403
    1C        C   84   3.483   2.491   3.525
    1C        C   85   3.414   2.504   3.647
    1C        C   86   3.623   2.504   3.767
    1C        C   87   3.482   2.500   3.771
    1C        C   88   3.693   2.511   3.890
    1C        C   89   3.627   2.503   4.014
    1C        C   90   3.832   2.551   4.134
    1C        C   91   3.697   2.512   4.136
    1C        C   92   3.902   2.572   4.255
    1C        C   93   3.837   2.540   4.376
    1C        C   94   4.026   2.633   4.498
    1C        C   95   3.903   2.563   4.498
    1C        C   96   4.088   2.669   4.620
    1C        C   97   4.032   2.619   4.739
    1C        C   98   4.186   2.763   4.863
    1C        C   99   4.096   2.652   4.862
    1C        C  100   4.210   2.843   4.976
    1C        C  101   2.818   2.726   2.069
    1C        C  102   2.992   2.593   2.187
    1C        C  103   2.874   2.674   2.186
    1C        C  104   3.062   2.574   2.309
    1C        C  105   2.997   2.613   2.428
    1C        C  106   3.197   2.533   2.550
    1C        C  107   3.065   2.583   2.548
    1C        C  108   3.267   2.519   2.671
    1C        C  109   3.201   2.544   2.793
    1C        C  110   3.410   2.499   2.915
    1C        C  111   3.271   2.520   2.914
    1C        C  112   3.483   2.491   3.036
    1C        C  113   3.413   2.499   3.159
    1C        C  114   3.625   2.499   3.279
    1C        C  115   3.484   2.490   3.281
    1C        C  116   3.695   2.512   3.401
    1C        C  117   3.623   2.502   3.522
    1C        C  118   3.831   2.543   3.646
    1C        C  119   3.693   2.511   3.645
    1C        C  120   3.899   2.566   3.767
    1C        C  121   3.830   2.545   3.889
    1C        C  122   4.020   2.641   4.010
    1C        C  123   3.897   2.572   4.010
    1C        C  124   4.086   2.673   4.131
    1C        C  125   4.029   2.634   4.254
    1C        C  126   4.197   2.761   4.376
    1C        C  127   4.089   2.670   4.377
    1C        C  128   4.242   2.816   4.498
    1C        C  129   4.194   2.762   4.619
    1C        C  130   4.323   2.930   4.740
    1C        C  131   4.240   2.814   4.742
    1C        C  132   4.354   3.000   4.858
    1C        C  133   4.282   2.961   4.972
    1C        C  134   3.169   2.463   2.082
    1C        C  135   3.036   2.506   2.082
    1C        C  136   3.257   2.476   2.190
    1C        C  137   3.193   2.520   2.309
    1C        C  138   3.404   2.479   2.428
    1C        C  139   3.265   2.504   2.429
    1C        C  140   3.476   2.483   2.550
    1C        C  141   3.407   2.497   2.672
    1C        C  142   3.622   2.496   2.792
    1C        C  143   3.480   2.497   2.793
    1C        C  144   3.694   2.502   2.913
    1C        C  145   3.624   2.493   3.036
    1C        C  146   3.833   2.538   3.155
    1C        C  147   3.696   2.501   3.157
    1C        C  148   3.901   2.560   3.276
    1C        C  149   3.834   2.539   3.399
    1C        C  150   4.027   2.618   3.521
    1C        C  151   3.899   2.558   3.523
    1C        C  152   4.087   2.658   3.642
    1C        C  153   4.026   2.629   3.766
    1C        C  154   4.193   2.762   3.884
    1C        C  155   4.082   2.674   3.888
    1C        C  156   4.247   2.807   4.007
    1C        C  157   4.197   2.760   4.130
    1C        C  158   4.336   2.920   4.252
    1C        C  159   4.247   2.810   4.253
    1C        C  160   4.373   2.981   4.373
    1C        C  161   4.326   2.930   4.497
    1C        C  162   4.434   3.113   4.612
    1C        C  163   4.365   2.990   4.619
    1C        C  164   4.464   3.178   4.734
    1C        C  165   4.430   3.119   4.858
    1C        C  166   4.511   3.318   4.967
    1C        C  167   4.469   3.185   4.975
    1C        C  168   3.473   2.437   2.072
    1C        C  169   3.396   2.453   2.187
    1C        C  170   3.614   2.466   2.309
    1C        C  171   3.472   2.461   2.306
    1C        C  172   3.690   2.489   2.426
    1C        C  173   3.617   2.490   2.546
    1C        C  174   3.825   2.539   2.666
    1C        C  175   3.688   2.508   2.667
    1C        C  176   3.894   2.559   2.788
    1C        C  177   3.831   2.535   2.912
    1C        C  178   4.028   2.620   3.030
    1C        C  179   3.899   2.563   3.032
    1C        C  180   4.088   2.657   3.153
    1C        C  181   4.028   2.622   3.276
    1C        C  182   4.196   2.747   3.396
    1C        C  183   4.089   2.655   3.400
    1C        C  184   4.245   2.801   3.517
    1C        C  185   4.194   2.750   3.639
    1C        C  186   4.339   2.909   3.763
    1C        C  187   4.245   2.804   3.760
    1C        C  188   4.381   2.969   3.884
    1C        C  189   4.340   2.913   4.007
    1C        C  190   4.436   3.104   4.126
    1C        C  191   4.376   2.976   4.128
    1C        C  192   4.460   3.170   4.249
    1C        C  193   4.439   3.106   4.373
    1C        C  194   4.504   3.313   4.489
    1C        C  195   4.468   3.177   4.491
    1C        C  196   4.522   3.384   4.610
    1C        C  197   4.510   3.313   4.731
    1C        C  198   4.550   3.532   4.847
    1C        C  199   4.525   3.391   4.849
    1C        C  200   4.581   3.616   4.959
    1C        C  201   3.613   2.426   2.073
    1C        C  202   3.823   2.516   2.183
    1C        C  203   3.687   2.470   2.187
    1C        C  204   3.899   2.536   2.301
    1C        C  205   3.828   2.520   2.422
    1C        C  206   4.019   2.617   2.543
    1C        C  207   3.892   2.557   2.543
    1C        C  208   4.084   2.652   2.663
    1C        C  209   4.019   2.624   2.786
    1C        C  210   4.199   2.741   2.905
    1C        C  211   4.083   2.661   2.907
    1C        C  212   4.253   2.788   3.027
    1C        C  213   4.201   2.740   3.150
    1C        C  214   4.333   2.905   3.271
    1C        C  215   4.244   2.796   3.272
    1C        C  216   4.367   2.967   3.393
    1C        C  217   4.331   2.913   3.518
    1C        C  218   4.435   3.098   3.638
    1C        C  219   4.370   2.972   3.641
    1C        C  220   4.463   3.163   3.760
    1C        C  221   4.439   3.098   3.883
    1C        C  222   4.499   3.305   4.003
    1C        C  223   4.464   3.168   4.004
    1C        C  224   4.511   3.377   4.124
    1C        C  225   4.499   3.306   4.245
    1C        C  226   4.522   3.521   4.363
    1C        C  227   4.513   3.380   4.365
    1C        C  228   4.521   3.594   4.484
    1C        C  229   4.531   3.525   4.607
    1C        C  230   4.498   3.742   4.725
    1C        C  231   4.530   3.603   4.725
    1C        C  232   4.494   3.819   4.843
    1C        C  233   4.539   3.749   4.955
    1C        C  234   4.022   2.603   2.063
    1C        C  235   3.899   2.539   2.067
    1C        C  236   4.087   2.643   2.181
    1C        C  237   4.026   2.600   2.301
    1C        C  238   4.201   2.725   2.419
    1C        C  239   4.088   2.639   2.421
    1C        C  240   4.253   2.778   2.539
    1C        C  241   4.200   2.733   2.663
    1C        C  242   4.337   2.900   2.783
    1C        C  243   4.252   2.787   2.782
    1C        C  244   4.377   2.957   2.906
    1C        C  245   4.342   2.897   3.029
    1C        C  246   4.438   3.088   3.148
    1C        C  247   4.383   2.958   3.150
    1C        C  248   4.454   3.158   3.270
    1C        C  249   4.426   3.096   3.393
    1C        C  250   4.489   3.300   3.512
    1C        C  251   4.455   3.163   3.514
    1C        C  252   4.501   3.369   3.634
    1C        C  253   4.495   3.300   3.757
    1C        C  254   4.518   3.512   3.875
    1C        C  255   4.510   3.371   3.879
    1C        C  256   4.509   3.586   3.995
    1C        C  257   4.510   3.518   4.119
    1C        C  258   4.487   3.729   4.239
    1C        C  259   4.509   3.590   4.240
    1C        C  260   4.471   3.800   4.360
    1C        C  261   4.487   3.730   4.482
    1C        C  262   4.420   3.936   4.599
    1C        C  263   4.470   3.804   4.601
    1C        C  264   4.396   4.005   4.720
    1C        C  265   4.434   3.947   4.843
    1C        C  266   4.316   4.127   4.954
    1C        C  267   4.392   4.011   4.961
    1C        C  268   4.259   2.772   2.059
    1C        C  269   4.199   2.729   2.178
    1C        C  270   4.346   2.885   2.295
    1C        C  271   4.255   2.776   2.299
    1C        C  272   4.380   2.949   2.416
    1C        C  273   4.339   2.890   2.538
    1C        C  274   4.444   3.078   2.658
    1C        C  275   4.377   2.954   2.658
    1C        C  276   4.469   3.145   2.779
    1C        C  277   4.441   3.083   2.903
    1C        C  278   4.495   3.289   3.025
    1C        C  279   4.464   3.152   3.024
    1C        C  280   4.507   3.362   3.145
    1C        C  281   4.494   3.294   3.268
    1C        C  282   4.512   3.508   3.387
    1C        C  283   4.504   3.367   3.388
    1C        C  284   4.509   3.580   3.509
    1C        C  285   4.503   3.511   3.632
    1C        C  286   4.484   3.722   3.752
    1C        C  287   4.508   3.583   3.753
    1C        C  288   4.470   3.794   3.873
    1C        C  289   4.486   3.726   3.995
    1C        C  290   4.423   3.931   4.114
    1C        C  291   4.466   3.796   4.116
    1C        C  292   4.398   4.000   4.234
    1C        C  293   4.426   3.934   4.356
    1C        C  294   4.324   4.124   4.476
    1C        C  295   4.394   4.001   4.477
    1C        C  296   4.280   4.182   4.596
    1C        C  297   4.317   4.123   4.719
    1C        C  298   4.195   4.310   4.835
    1C        C  299   4.278   4.193   4.836
    1C        C  300   4.163   4.399   4.942
    1C        C  301   4.348   2.879   2.060
    1C        C  302   4.469   3.065   2.175
    1C        C  303   4.395   2.942   2.175
    1C        C  304   4.479   3.140   2.295
    1C        C  305   4.447   3.074   2.416
    1C        C  306   4.500   3.282   2.535
    1C        C  307   4.474   3.143   2.536
    1C        C  308   4.504   3.354   2.657
    1C        C  309   4.496   3.284   2.780
    1C        C  310   4.514   3.497   2.899
    1C        C  311   4.506   3.356   2.901
    1C        C  312   4.514   3.571   3.019
    1C        C  313   4.513   3.503   3.143
    1C        C  314   4.483   3.716   3.262
    1C        C  315   4.508   3.577   3.264
    1C        C  316   4.465   3.785   3.384
    1C        C  317   4.484   3.719   3.507
    1C        C  318   4.421   3.923   3.628
    1C        C  319   4.467   3.789   3.629
    1C        C  320   4.392   3.990   3.749
    1C        C  321   4.423   3.927   3.872
    1C        C  322   4.319   4.115   3.990
    1C        C  323   4.394   3.996   3.992
    1C        C  324   4.279   4.175   4.112
    1C        C  325   4.322   4.119   4.235
    1C        C  326   4.187   4.288   4.353
    1C        C  327   4.282   4.183   4.355
    1C        C  328   4.140   4.344   4.474
    1C        C  329   4.192   4.292   4.595
    1C        C  330   4.022   4.434   4.713
    1C        C  331   4.136   4.349   4.711
    1C        C  332   3.968   4.492   4.830
    1C        C  333   4.047   4.477   4.945
    1C        C  334   4.549   3.263   2.060
    1C        C  335   4.535   3.123   2.062
    1C        C  336   4.539   3.348   2.171
    1C        C  337   4.510   3.279   2.290
    1C        C  338   4.516   3.491   2.411
    1C        C  339   4.516   3.349   2.412
    1C        C  340   4.506   3.562   2.532
    1C        C  341   4.509   3.495   2.656
    1C        C  342   4.485   3.707   2.771
    1C        C  343   4.510   3.568   2.777
    1C        C  344   4.466   3.777   2.892
    1C        C  345   4.486   3.710   3.015
    1C        C  346   4.416   3.911   3.137
    1C        C  347   4.462   3.778   3.137
    1C        C  348   4.387   3.980   3.257
    1C        C  349   4.415   3.917   3.380
    1C        C  350   4.314   4.101   3.501
    1C        C  351   4.390   3.982   3.503
    1C        C  352   4.271   4.160   3.622
    1C        C  353   4.313   4.107   3.745
    1C        C  354   4.177   4.271   3.865
    1C        C  355   4.272   4.166   3.867
    1C        C  356   4.122   4.317   3.987
    1C        C  357   4.176   4.271   4.110
    1C        C  358   4.011   4.405   4.228
    1C        C  359   4.129   4.326   4.231
    1C        C  360   3.949   4.442   4.350
    1C        C  361   4.021   4.419   4.469
    1C        C  362   3.828   4.515   4.591
    1C        C  363   3.957   4.457   4.589
    1C        C  364   3.762   4.554   4.710
    1C        C  365   3.838   4.546   4.829
    1C        C  366   3.627   4.588   4.947
    1C        C  367   3.766   4.580   4.944
    1C        C  368   4.512   3.561   2.050
    1C        C  369   4.524   3.488   2.169
    1C        C  370   4.502   3.703   2.288
    1C        C  371   4.514   3.563   2.289
    1C        C  372   4.483   3.775   2.408
    1C        C  373   4.495   3.703   2.529
    1C        C  374   4.425   3.908   2.646
    1C        C  375   4.472   3.775   2.648
    1C        C  376   4.394   3.973   2.768
    1C        C  377   4.418   3.909   2.892
    1C        C  378   4.319   4.096   3.009
    1C        C  379   4.391   3.975   3.014
    1C        C  380   4.275   4.156   3.129
    1C        C  381   4.313   4.100   3.254
    1C        C  382   4.177   4.260   3.377
    1C        C  383   4.272   4.155   3.377
    1C        C  384   4.125   4.313   3.497
    1C        C  385   4.176   4.265   3.620
    1C        C  386   4.007   4.393   3.741
    1C        C  387   4.123   4.313   3.742
    1C        C  388   3.946   4.434   3.862
    1C        C  389   4.008   4.400   3.984
    1C        C  390   3.819   4.494   4.104
    1C        C  391   3.950   4.441   4.106
    1C        C  392   3.752   4.514   4.227
    1C        C  393   3.821   4.502   4.349
    1C        C  394   3.616   4.550   4.475
    1C        C  395   3.757   4.532   4.471
    1C        C  396   3.544   4.567   4.595
    1C        C  397   3.622   4.572   4.713
    1C        C  398   3.409   4.549   4.836
    1C        C  399   3.548   4.571   4.833
    1C        C  400   3.339   4.511   4.952
    1C        C  401   4.499   3.700   2.052
    1C        C  402   4.457   3.914   2.167
    1C        C  403   4.493   3.777   2.168
    1C        C  404   4.414   3.980   2.284
    1C        C  405   4.433   3.907   2.404
    1C        C  406   4.324   4.094   2.524
    1C        C  407   4.398   3.973   2.524
    1C        C  408   4.279   4.151   2.645
    1C        C  409   4.319   4.093   2.767
    1C        C  410   4.175   4.253   2.885
    1C        C  411   4.269   4.148   2.887
    1C        C  412   4.122   4.299   3.007
    1C        C  413   4.175   4.256   3.131
    1C        C  414   4.002   4.376   3.253
    1C        C  415   4.121   4.300   3.254
    1C        C  416   3.944   4.417   3.375
    1C        C  417   4.006   4.391   3.499
    1C        C  418   3.812   4.481   3.617
    1C        C  419   3.944   4.429   3.620
    1C        C  420   3.747   4.503   3.740
    1C        C  421   3.815   4.487   3.863
    1C        C  422   3.608   4.538   3.986
    1C        C  423   3.747   4.511   3.984
    1C        C  424   3.540   4.540   4.109
    1C        C  425   3.612   4.535   4.230
    1C        C  426   3.404   4.542   4.355
    1C        C  427   3.545   4.550   4.353
    1C        C  428   3.330   4.542   4.476
    1C        C  429   3.404   4.555   4.595
    1C        C  430   3.194   4.516   4.719
    1C        C  431   3.334   4.540   4.717
    1C        C  432   3.125   4.495   4.842
    1C        C  433   3.202   4.488   4.958
    1C        C  434   4.386   4.120   2.050
    1C        C  435   4.449   3.995   2.053
    1C        C  436   4.308   4.163   2.162
    1C        C  437   4.334   4.098   2.286
    1C        C  438   4.178   4.251   2.400
    1C        C  439   4.281   4.154   2.404
    1C        C  440   4.121   4.295   2.522
    1C        C  441   4.176   4.247   2.643
    1C        C  442   4.003   4.376   2.764
    1C        C  443   4.122   4.301   2.762
    1C        C  444   3.944   4.415   2.886
    1C        C  445   4.006   4.380   3.008
    1C        C  446   3.812   4.467   3.130
    1C        C  447   3.943   4.413   3.131
    1C        C  448   3.745   4.494   3.251
    1C        C  449   3.814   4.474   3.373
    1C        C  450   3.606   4.523   3.494
    1C        C  451   3.746   4.499   3.494
    1C        C  452   3.539   4.532   3.618
    1C        C  453   3.607   4.526   3.742
    1C        C  454   3.396   4.536   3.865
    1C        C  455   3.537   4.539   3.864
    1C        C  456   3.329   4.529   3.989
    1C        C  457   3.399   4.532   4.112
    1C        C  458   3.191   4.505   4.237
    1C        C  459   3.330   4.534   4.235
    1C        C  460   3.123   4.483   4.359
    1C        C  461   3.192   4.509   4.479
    1C        C  462   2.992   4.436   4.603
    1C        C  463   3.122   4.492   4.600
    1C        C  464   2.930   4.399   4.724
    1C        C  465   2.992   4.442   4.845
    1C        C  466   2.804   4.339   4.960
    1C        C  467   2.908   4.433   4.961
    1C        C  468   4.124   4.284   2.042
    1C        C  469   4.193   4.248   2.158
    1C        C  470   4.008   4.371   2.275
    1C        C  471   4.131   4.298   2.276
    1C        C  472   3.943   4.402   2.396
    1C        C  473   4.003   4.373   2.520
    1C        C  474   3.813   4.470   2.643
    1C        C  475   3.941   4.410   2.642
    1C        C  476   3.747   4.496   2.765
    1C        C  477   3.814   4.471   2.887
    1C        C  478   3.606   4.517   3.009
    1C        C  479   3.744   4.489   3.008
    1C        C  480   3.533   4.527   3.130
    1C        C  481   3.607   4.520   3.250
    1C        C  482   3.394   4.529   3.377
    1C        C  483   3.536   4.531   3.372
    1C        C  484   3.325   4.526   3.501
    1C        C  485   3.398   4.536   3.622
    1C        C  486   3.187   4.500   3.745
    1C        C  487   3.325   4.530   3.743
    1C        C  488   3.122   4.477   3.869
    1C        C  489   3.191   4.498   3.990
    1C        C  490   3.003   4.411   4.114
    1C        C  491   3.127   4.479   4.114
    1C        C  492   2.941   4.379   4.237
    1C        C  493   2.997   4.419   4.360
    1C        C  494   2.823   4.301   4.482
    1C        C  495   2.932   4.391   4.483
    1C        C  496   2.769   4.257   4.604
    1C        C  497   2.819   4.311   4.725
    1C        C  498   2.667   4.163   4.846
    1C        C  499   2.762   4.267   4.847
    1C        C  500   2.594   4.116   4.956
    1C        C  501   4.003   4.353   2.039
    1C        C  502   3.814   4.463   2.157
    1C        C  503   3.940   4.400   2.155
    1C        C  504   3.746   4.487   2.278
    1C        C  505   3.813   4.457   2.399
    1C        C  506   3.605   4.507   2.520
    1C        C  507   3.745   4.484   2.520
    1C        C  508   3.535   4.513   2.642
    1C        C  509   3.607   4.516   2.764
    1C        C  510   3.395   4.527   2.886
    1C        C  511   3.537   4.527   2.886
    1C        C  512   3.322   4.525   3.006
    1C        C  513   3.392   4.534   3.129
    1C        C  514   3.190   4.487   3.253
    1C        C  515   3.326   4.523   3.254
    1C        C  516   3.124   4.466   3.376
    1C        C  517   3.187   4.496   3.499
    1C        C  518   2.998   4.407   3.622
    1C        C  519   3.123   4.472   3.622
    1C        C  520   2.940   4.370   3.745
    1C        C  521   2.998   4.409   3.868
    1C        C  522   2.835   4.280   3.995
    1C        C  523   2.943   4.372   3.992
    1C        C  524   2.784   4.233   4.118
    1C        C  525   2.834   4.287   4.239
    1C        C  526   2.692   4.131   4.364
    1C        C  527   2.779   4.243   4.361
    1C        C  528   2.650   4.075   4.486
    1C        C  529   2.684   4.144   4.605
    1C        C  530   2.583   3.960   4.731
    1C        C  531   2.640   4.090   4.728
    1C        C  532   2.537   3.899   4.851
    1C        C  533   2.524   3.995   4.957
    1C        C  534   3.621   4.559   2.041
    1C        C  535   3.752   4.510   2.040
    1C        C  536   3.537   4.531   2.154
    1C        C  537   3.606   4.511   2.276
    1C        C  538   3.393   4.519   2.400
    1C        C  539   3.534   4.517   2.398
    1C        C  540   3.321   4.511   2.521
    1C        C  541   3.394   4.508   2.642
    1C        C  542   3.187   4.482   2.764
    1C        C  543   3.324   4.514   2.764
    1C        C  544   3.120   4.461   2.887
    1C        C  545   3.187   4.485   3.009
    1C        C  546   2.995   4.397   3.132
    1C        C  547   3.122   4.459   3.132
    1C        C  548   2.940   4.358   3.255
    1C        C  549   2.999   4.400   3.377
    1C        C  550   2.828   4.279   3.504
    1C        C  551   2.937   4.369   3.500
    1C        C  552   2.779   4.231   3.627
    1C        C  553   2.830   4.281   3.749
    1C        C  554   2.701   4.116   3.875
    1C        C  555   2.787   4.229   3.873
    1C        C  556   2.658   4.062   3.998
    1C        C  557   2.693   4.125   4.120
    1C        C  558   2.595   3.940   4.247
    1C        C  559   2.653   4.069   4.243
    1C        C  560   2.566   3.876   4.369
    1C        C  561   2.589   3.948   4.488
    1C        C  562   2.525   3.749   4.613
    1C        C  563   2.562   3.886   4.612
    1C        C  564   2.514   3.680   4.736
    1C        C  565   2.520   3.757   4.855
    1C        C  566   2.533   3.547   4.977
    1C        C  567   2.524   3.686   4.976
    1C        C  568   3.329   4.469   2.043
    1C        C  569   3.396   4.513   2.158
    1C        C  570   3.184   4.472   2.279
    1C        C  571   3.321   4.511   2.279
    1C        C  572   3.118   4.448   2.401
    1C        C  573   3.184   4.474   2.523
    1C        C  574   2.986   4.400   2.644
    1C        C  575   3.116   4.454   2.645
    1C        C  576   2.928   4.362   2.768
    1C        C  577   2.993   4.398   2.888
    1C        C  578   2.825   4.270   3.016
    1C        C  579   2.933   4.360   3.010
    1C        C  580   2.776   4.221   3.139
    1C        C  581   2.829   4.271   3.260
    1C        C  582   2.689   4.115   3.385
    1C        C  583   2.778   4.224   3.383
    1C        C  584   2.652   4.059   3.509
    1C        C  585   2.693   4.119   3.631
    1C        C  586   2.588   3.936   3.757
    1C        C  587   2.656   4.060   3.754
    1C        C  588   2.561   3.871   3.879
    1C        C  589   2.596   3.935   4.000
    1C        C  590   2.531   3.738   4.128
    1C        C  591   2.573   3.873   4.124
    1C        C  592   2.516   3.669   4.251
    1C        C  593   2.532   3.739   4.373
    1C        C  594   2.510   3.530   4.496
    1C        C  595   2.516   3.671   4.496
    1C        C  596   2.521   3.466   4.621
    1C        C  597   2.515   3.538   4.743
    1C        C  598   2.534   3.325   4.864
    1C        C  599   2.525   3.465   4.864
    1C        C  600   2.523   3.242   4.977
    1C        C  601   3.196   4.432   2.042
    1C        C  602   2.985   4.390   2.157
    1C        C  603   3.117   4.445   2.157
    1C        C  604   2.929   4.351   2.281
    1C        C  605   2.988   4.393   2.403
    1C        C  606   2.819   4.266   2.525
    1C        C  607   2.922   4.362   2.524
    1C        C  608   2.778   4.212   2.649
    1C        C  609   2.826   4.265   2.771
    1C        C  610   2.686   4.108   2.895
    1C        C  611   2.772   4.220   2.894
    1C        C  612   2.650   4.054   3.020
    1C        C  613   2.684   4.114   3.144
    1C        C  614   2.582   3.928   3.264
    1C        C  615   2.640   4.057   3.265
    1C        C  616   2.563   3.866   3.390
    1C        C  617   2.589   3.933   3.512
    1C        C  618   2.526   3.732   3.638
    1C        C  619   2.564   3.868   3.635
    1C        C  620   2.515   3.664   3.762
    1C        C  621   2.525   3.734   3.884
    1C        C  622   2.506   3.525   4.009
    1C        C  623   2.521   3.666   4.007
    1C        C  624   2.509   3.456   4.132
    1C        C  625   2.507   3.528   4.254
    1C        C  626   2.543   3.320   4.379
    1C        C  627   2.508   3.457   4.376
    1C        C  628   2.558   3.252   4.502
    1C        C  629   2.539   3.326   4.621
    1C        C  630   2.603   3.121   4.743
    1C        C  631   2.558   3.256   4.743
    1C        C  632   2.622   3.050   4.865
    1C        C  633   2.567   3.110   4.983
    1C        C  634   2.777   4.305   2.053
    1C        C  635   2.889   4.389   2.050
    1C        C  636   2.743   4.232   2.167
    1C        C  637   2.809   4.274   2.284
    1C        C  638   2.675   4.109   2.410
    1C        C  639   2.758   4.223   2.405
    1C        C  640   2.638   4.049   2.532
    1C        C  641   2.681   4.109   2.653
    1C        C  642   2.582   3.921   2.776
    1C        C  643   2.640   4.050   2.774
    1C        C  644   2.557   3.859   2.901
    1C        C  645   2.585   3.929   3.020
    1C        C  646   2.525   3.724   3.149
    1C        C  647   2.562   3.860   3.142
    1C        C  648   2.511   3.659   3.273
    1C        C  649   2.533   3.728   3.395
    1C        C  650   2.513   3.518   3.517
    1C        C  651   2.519   3.659   3.517
    1C        C  652   2.513   3.452   3.642
    1C        C  653   2.508   3.523   3.764
    1C        C  654   2.540   3.315   3.889
    1C        C  655   2.512   3.453   3.887
    1C        C  656   2.557   3.247   4.012
    1C        C  657   2.540   3.318   4.133
    1C        C  658   2.612   3.121   4.257
    1C        C  659   2.561   3.253   4.256
    1C        C  660   2.635   3.055   4.379
    1C        C  661   2.604   3.119   4.501
    1C        C  662   2.706   2.932   4.623
    1C        C  663   2.632   3.053   4.623
    1C        C  664   2.743   2.872   4.745
    1C        C  665   2.693   2.926   4.867
    1C        C  666   2.748   2.870   4.983
    1C        C  667   2.683   4.023   2.054
    1C        C  668   2.682   4.104   2.169
    1C        C  669   2.587   3.912   2.290
    1C        C  670   2.640   4.044   2.289
    1C        C  671   2.561   3.849   2.413
    1C        C  672   2.581   3.920   2.533
    1C        C  673   2.518   3.718   2.661
    1C        C  674   2.552   3.855   2.655
    1C        C  675   2.513   3.647   2.784
    1C        C  676   2.525   3.721   2.903
    1C        C  677   2.506   3.512   3.030
    1C        C  678   2.517   3.653   3.027
    1C        C  679   2.512   3.445   3.154
    1C        C  680   2.504   3.518   3.275
    1C        C  681   2.532   3.307   3.401
    1C        C  682   2.508   3.446   3.396
    1C        C  683   2.553   3.241   3.525
    1C        C  684   2.533   3.312   3.645
    1C        C  685   2.606   3.113   3.767
    1C        C  686   2.558   3.245   3.767
    1C        C  687   2.636   3.050   3.890
    1C        C  688   2.605   3.114   4.012
    1C        C  689   2.711   2.933   4.137
    1C        C  690   2.638   3.054   4.135
    1C        C  691   2.750   2.876   4.260
    1C        C  692   2.707   2.933   4.382
    1C        C  693   2.754   2.876   4.503
    1C        C  694   2.628   3.894   2.053
    1C        C  695   2.523   3.708   2.174
    1C        C  696   2.574   3.839   2.170
    1C        C  697   2.503   3.641   2.297
    1C        C  698   2.522   3.713   2.417
    1C        C  699   2.496   3.506   2.541
    1C        C  700   2.504   3.646   2.540
    1C        C  701   2.504   3.436   2.664
    1C        C  702   2.504   3.506   2.787
    1C        C  703   2.527   3.298   2.911
    1C        C  704   2.505   3.438   2.910
    1C        C  705   2.546   3.232   3.034
    1C        C  706   2.536   3.305   3.155
    1C        C  707   2.600   3.107   3.277
    1C        C  708   2.554   3.240   3.279
    1C        C  709   2.630   3.043   3.399
    1C        C  710   2.602   3.109   3.521
    1C        C  711   2.711   2.929   3.647
    1C        C  712   2.632   3.047   3.645
    1C        C  713   2.762   2.878   3.769
    1C        C  714   2.716   2.934   3.890
    1C        C  715   2.758   2.880   4.015
    1C        C  716   2.449   3.499   2.062
    1C        C  717   2.490   3.633   2.060
    1C        C  718   2.466   3.423   2.182
    1C        C  719   2.479   3.501   2.301
    1C        C  720   2.511   3.289   2.423
    1C        C  721   2.494   3.430   2.422
    1C        C  722   2.533   3.223   2.546
    1C        C  723   2.525   3.297   2.666
    1C        C  724   2.592   3.096   2.791
    1C        C  725   2.545   3.229   2.789
    1C        C  726   2.625   3.034   2.913
    1C        C  727   2.598   3.101   3.034
    1C        C  728   2.704   2.917   3.158
    1C        C  729   2.633   3.039   3.157
    1C        C  730   2.748   2.864   3.282
    1C        C  731   2.706   2.924   3.403
    1C        C  732   2.752   2.871   3.525
    1C        C  733   2.486   3.197   2.070
    1C        C  734   2.481   3.281   2.182
    1C        C  735   2.582   3.088   2.303
    1C        C  736   2.522   3.217   2.302
    1C        C  737   2.612   3.023   2.424
    1C        C  738   2.587   3.093   2.545
    1C        C  739   2.694   2.912   2.670
    1C        C  740   2.617   3.031   2.668
    1C        C  741   2.742   2.858   2.792
    1C        C  742   2.703   2.916   2.914
    1C        C  743   2.746   2.860   3.036
    1C        C  744   2.541   3.070   2.074
    1C        C  745   2.688   2.899   2.187
    1C        C  746   2.609   3.016   2.184
    1C        C  747   2.732   2.842   2.308
    1C        C  748   2.689   2.904   2.427
    1C        C  749   2.735   2.851   2.550
    1C        C  750   2.741   2.842   2.070
    1C        C  751   3.665   2.312   1.994
    1C        O  752   3.630   2.192   2.015
    1C        O  753   3.708   2.324   1.861
    1C        C  754   4.641   3.045   1.995
    1C        O  755   4.616   3.009   1.877
    1C        O  756   4.778   3.042   2.026
    1C        C  757   4.470   4.223   1.985
    1C        O  758   4.562   4.290   2.040
    1C        O  759   4.455   4.228   1.846
    1C        C  760   3.631   4.704   2.013
    1C        O  761   3.646   4.794   2.100
    1C        O  762   3.545   4.750   1.913
    1C        C  763   2.881   4.487   1.939
    1C        O  764   2.887   4.445   1.820
    1C        O  765   2.800   4.600   1.954
    1C        C  766   2.326   3.476   1.983
    1C        O  767   2.335   3.413   1.875
    1C        O  768   2.196   3.513   2.019
    1C        C  769   4.700   3.588   5.043
    1C        O  770   4.691   3.550   5.162
    1C        O  771   4.829   3.640   5.024
    1C        C  772   4.262   4.438   5.045
    1C        O  773   4.263   4.395   5.163
    1C        O  774   4.393   4.472   5.009
    1C        C  775   4.141   2.525   5.073
    1C        O  776   4.237   2.454   5.031
    1C        O  777   4.164   2.588   5.196
    1C        C  778   2.883   4.556   5.039
    1C        O  779   2.849   4.669   4.995
    1C        O  780   2.867   4.549   5.178
    1C        C  781   2.497   3.033   5.088
    1C        O  782   2.402   2.958   5.051
    1C        O  783   2.512   3.076   5.219
    1C        C  784   2.410   3.984   5.051
    1C        O  785   2.298   4.018   5.005
    1C        O  786   2.423   3.980   5.190
    1C        C  787   2.947   2.398   2.033
    1C        O  788   2.896   2.415   1.919
    1C        O  789   2.909   2.285   2.105
    1C        C  790   3.177   2.363   5.052
    1C        O  791   3.207   2.249   5.008
    1C        O  792   3.136   2.354   5.186
    1C        H  793   4.274   3.028   5.056
    1C        H  794   4.167   2.818   5.071
    1C        H  795   4.478   3.136   5.070
    1C        H  796   4.577   3.345   5.046
    1C        H  797   4.591   3.811   5.025
    1C        H  798   4.408   3.961   5.055
    1C        H  799   4.285   4.166   5.048
    1C        H  800   4.009   4.507   5.041
    1C        H  801   3.824   4.615   5.027
    1C        H  802   3.579   4.603   5.042
    1C        H  803   3.397   4.481   5.037
    1C        H  804   3.162   4.442   5.046
    1C        H  805   3.895   2.460   5.059
    1C        H  806   3.677   2.473   5.070
    1C        H  807   3.001   2.558   5.067
    1C        H  808   3.433   2.477   5.073
    1C        H  809   2.849   2.716   5.073
    1C        H  810   2.746   2.931   5.071
    1C        H  811   2.449   3.276   5.047
    1C        H  812   2.562   3.501   5.069
    1C        H  813   2.497   3.733   5.068
    1C        H  814   2.559   4.190   5.025
    1C        H  815   2.766   4.314   5.056
    1C        H  816   2.715   2.890   1.978
    1C        H  817   2.869   2.707   1.977
    1C        H  818   3.206   2.433   1.986
    1C        H  819   3.432   2.486   1.986
    1C        H  820   3.885   2.462   1.994
    1C        H  821   4.063   2.619   1.965
    1C        H  822   4.277   2.697   1.985
    1C        H  823   4.389   2.908   1.966
    1C        H  824   4.574   3.307   1.966
    1C        H  825   4.542   3.516   1.958
    1C        H  826   4.471   3.744   1.959
    1C        H  827   3.778   4.471   1.944
    1C        H  828   3.937   4.313   1.965
    1C        H  829   4.184   4.303   1.955
    1C        H  830   4.532   3.987   1.986
    1C        H  831   2.687   3.830   1.991
    1C        H  832   2.737   4.058   1.968
    1C        H  833   2.699   4.326   1.983
    1C        H  834   3.386   4.452   1.954
    1C        H  835   3.144   4.446   1.949
    1C        H  836   2.526   3.001   1.994
    1C        H  837   2.405   3.208   2.000
    1C        H  838   2.497   3.678   1.963
    2V3OU   H29  839   2.805   3.544   1.527
    2V3OU   C27  840   2.783   3.499   1.627
    2V3OU   H27  841   2.721   3.566   1.691
    2V3OU   H28  842   2.728   3.402   1.613
    2V3OU   O11  843   2.907   3.475   1.694
    2V3OU   C15  844   2.919   3.394   1.805
    2V3OU   C13  845   3.050   3.375   1.855
    2V3OU   C14  846   3.076   3.272   1.946
    2V3OU   C16  847   2.971   3.190   1.984
    2V3OU    H6  848   2.989   3.102   2.047
    2V3OU   C12  849   3.213   3.226   1.980
    2V3OU    O2  850   3.239   3.126   2.050
    2V3OU   C10  851   3.322   3.308   1.928
    2V3OU    C8  852   3.454   3.272   1.955
    2V3OU   O10  853   3.486   3.159   2.023
    2V3OU   H26  854   3.401   3.116   2.040
    2V3OU    C6  855   3.564   3.348   1.903
    2V3OU    C5  856   3.537   3.464   1.831
    2V3OU    C4  857   3.701   3.293   1.917
    2V3OU    H4  858   3.726   3.228   2.006
    2V3OU    H5  859   3.704   3.224   1.828
    2V3OU    C2  860   3.813   3.396   1.898
    2V3OU    O6  861   3.811   3.472   2.019
    2V3OU   H21  862   3.764   3.555   1.998
    2V3OU    C3  863   3.778   3.491   1.783
    2V3OU    H2  864   3.854   3.574   1.779
    2V3OU    H3  865   3.782   3.437   1.685
    2V3OU   C25  866   3.947   3.324   1.880
    2V3OU    O7  867   3.993   3.294   1.770
    2V3OU   C26  868   4.029   3.288   2.003
    2V3OU   H22  869   4.064   3.383   2.052
    2V3OU   H23  870   4.113   3.220   1.974
    2V3OU    O8  871   3.962   3.208   2.097
    2V3OU   H24  872   3.926   3.268   2.164
    2V3OU    C1  873   3.645   3.563   1.797
    2V3OU    H1  874   3.623   3.615   1.699
    2V3OU    O3  875   3.659   3.659   1.902
    2V3OU   C19  876   3.615   3.794   1.886
    2V3OU    H9  877   3.520   3.803   1.826
    2V3OU    O4  878   3.716   3.845   1.801
    2V3OU   C20  879   3.845   3.873   1.857
    2V3OU   H10  880   3.901   3.776   1.873
    2V3OU   C24  881   3.606   3.857   2.025
    2V3OU   H16  882   3.536   3.792   2.084
    2V3OU   H17  883   3.564   3.959   2.009
    2V3OU   C23  884   3.746   3.876   2.084
    2V3OU   H15  885   3.785   3.771   2.107
    2V3OU    N1  886   3.732   3.957   2.203
    2V3OU   H19  887   3.806   3.928   2.264
    2V3OU   H20  888   3.643   3.943   2.248
    2V3OU   C21  889   3.848   3.947   1.990
    2V3OU   H11  890   3.951   3.927   2.032
    2V3OU    O5  891   3.831   4.088   1.990
    2V3OU   H18  892   3.780   4.104   2.072
    2V3OU   C22  893   3.916   3.946   1.744
    2V3OU   H12  894   3.870   4.047   1.731
    2V3OU   H13  895   3.909   3.884   1.650
    2V3OU   H14  896   4.024   3.957   1.770
    2V3OU   C11  897   3.157   3.467   1.816
    2V3OU    O1  898   3.129   3.582   1.775
    2V3OU    C9  899   3.295   3.423   1.849
    2V3OU    C7  900   3.401   3.502   1.808
    2V3OU    O9  901   3.389   3.620   1.737
    2V3OU   H25  902   3.293   3.633   1.726
    2V3OU   C17  903   2.815   3.315   1.857
    2V3OU    H7  904   2.714   3.351   1.840
    2V3OU   C18  905   2.839   3.209   1.944
    2V3OU    H8  906   2.751   3.142   1.948
    3SOL     OW  907   1.736   3.925   1.306
    3SOL    HW1  908   1.747   3.942   1.404
    3SOL    HW2  909   1.755   4.009   1.255
    4SOL     OW  910   6.274   0.713   1.885
    4SOL    HW1  911   6.186   0.667   1.884
    4SOL    HW2  912   6.293   0.749   1.976
    5SOL     OW  913   4.129   1.055   0.868
    5SOL    HW1  914   4.191   1.125   0.905
    5SOL    HW2  915   4.056   1.038   0.935
    6SOL     OW  916   3.061   2.160   2.282
    6SOL    HW1  917   3.008   2.118   2.356
    6SOL    HW2  918   3.000   2.212   2.223
    7SOL     OW  919   6.012   2.351   2.355
    7SOL    HW1  920   5.943   2.302   2.301
    7SOL    HW2  921   5.976   2.366   2.448
    8SOL     OW  922   2.457   6.859   4.280
    8SOL    HW1  923   2.453   6.760   4.295
    8SOL    HW2  924   2.406   6.882   4.197
    9SOL     OW  925   1.659   5.512   5.902
    9SOL    HW1  926   1.619   5.492   5.812
    9SOL    HW2  927   1.595   5.566   5.956
   10SOL     OW  928   0.750   4.800   6.003
   10SOL    HW1  929   0.825   4.759   6.056
   10SOL    HW2  930   0.777   4.892   5.974
   11SOL     OW  931   3.619   6.810   0.197
   11SOL    HW1  932   3.693   6.747   0.220
   11SOL    HW2  933   3.534   6.759   0.182
   12SOL     OW  934   5.010   5.385   3.264
   12SOL    HW1  935   5.090   5.366   3.207
   12SOL    HW2  936   4.927   5.366   3.213
   13SOL     OW  937   2.811   6.386   3.863
   13SOL    HW1  938   2.713   6.367   3.867
   13SOL    HW2  939   2.835   6.452   3.933
   14SOL     OW  940   3.609   5.972   6.904
   14SOL    HW1  941   3.639   5.978   7.000
   14SOL    HW2  942   3.536   6.039   6.889
   15SOL     OW  943   1.136   6.193   6.907
   15SOL    HW1  944   1.117   6.225   7.000
   15SOL    HW2  945   1.192   6.262   6.859
   16SOL     OW  946   6.659   2.326   5.950
   16SOL    HW1  947   6.680   2.373   6.036
   16SOL    HW2  948   6.694   2.381   5.873
   17SOL     OW  949   5.095   6.736   4.094
   17SOL    HW1  950   5.074   6.726   3.997
   17SOL    HW2  951   5.054   6.821   4.129
   18SOL     OW  952   2.196   1.994   5.728
   18SOL    HW1  953   2.275   2.053   5.715
   18SOL    HW2  954   2.135   2.002   5.649
   19SOL     OW  955   0.076   0.382   2.586
   19SOL    HW1  956   0.081   0.477   2.615
   19SOL    HW2  957   0.142   0.328   2.638
   20SOL     OW  958   3.549   1.264   4.359
   20SOL    HW1  959   3.606   1.228   4.286
   20SOL    HW2  960   3.453   1.251   4.336
   21SOL     OW  961   2.912   1.609   1.823
   21SOL    HW1  962   2.863   1.566   1.747
   21SOL    HW2  963   2.854   1.680   1.864
   22SOL     OW  964   2.300   6.540   6.447
   22SOL    HW1  965   2.316   6.445   6.421
   22SOL    HW2  966   2.256   6.588   6.370
   23SOL     OW  967   4.456   6.379   3.698
   23SOL    HW1  968   4.533   6.315   3.696
   23SOL    HW2  969   4.491   6.473   3.699
   24SOL     OW  970   5.184   0.901   4.862
   24SOL    HW1  971   5.122   0.831   4.897
   24SOL    HW2  972   5.240   0.936   4.937
   25SOL     OW  973   3.019   5.377   0.707
   25SOL    HW1  974   3.107   5.353   0.748
   25SOL    HW2  975   3.027   5.463   0.658
   26SOL     OW  976   6.315   1.615   1.784
   26SOL    HW1  977   6.384   1.664   1.839
   26SOL    HW2  978   6.352   1.597   1.693
   27SOL     OW  979   6.315   6.996   2.039
   27SOL    HW1  980   6.267   0.039   1.979
   27SOL    HW2  981   6.386   0.024   2.090
   28SOL     OW  982   4.593   0.641   6.991
   28SOL    HW1  983   4.511   0.641   0.028
   28SOL    HW2  984   4.579   0.700   6.911
   29SOL     OW  985   5.030   2.499   1.826
   29SOL    HW1  986   5.110   2.501   1.766
   29SOL    HW2  987   4.958   2.445   1.783
   30SOL     OW  988   3.156   0.079   5.269
   30SOL    HW1  989   3.171   7.011   5.312
   30SOL    HW2  990   3.150   0.150   5.340
   31SOL     OW  991   0.972   1.062   5.294
   31SOL    HW1  992   0.947   1.159   5.287
   31SOL    HW2  993   1.068   1.054   5.320
   32SOL     OW  994   0.839   1.975   2.287
   32SOL    HW1  995   0.765   2.001   2.349
   32SOL    HW2  996   0.903   1.915   2.335
   33SOL     OW  997   1.868   2.563   5.875
   33SOL    HW1  998   1.936   2.512   5.822
   33SOL    HW2  999   1.896   2.659   5.882
   34SOL     OW 1000   2.063   0.240   4.760
   34SOL    HW1 1001   1.987   0.190   4.720
   34SOL    HW2 1002   2.058   0.236   4.860
   35SOL     OW 1003   4.579   1.259   0.283
   35SOL    HW1 1004   4.542   1.245   0.191
   35SOL    HW2 1005   4.607   1.171   0.321
   36SOL     OW 1006   1.576   0.669   6.088
   36SOL    HW1 1007   1.603   0.761   6.060
   36SOL    HW2 1008   1.528   0.624   6.012
   37SOL     OW 1009   2.502   6.543   1.358
   37SOL    HW1 1010   2.434   6.616   1.363
   37SOL    HW2 1011   2.547   6.545   1.268
   38SOL     OW 1012   6.957   6.125   3.153
   38SOL    HW1 1013   6.983   6.180   3.232
   38SOL    HW2 1014   0.013   6.066   3.127
   39SOL     OW 1015   6.598   3.453   5.624
   39SOL    HW1 1016   6.648   3.430   5.708
   39SOL    HW2 1017   6.527   3.383   5.607
   40SOL     OW 1018   6.338   1.233   2.507
   40SOL    HW1 1019   6.292   1.317   2.480
   40SOL    HW2 1020   6.407   1.253   2.577
   41SOL     OW 1021   1.746   6.817   4.524
   41SOL    HW1 1022   1.758   6.750   4.598
   41SOL    HW2 1023   1.813   6.800   4.452
   42SOL     OW 1024   3.633   0.190   6.263
   42SOL    HW1 1025   3.554   0.185   6.202
   42SOL    HW2 1026   3.607   0.164   6.355
   43SOL     OW 1027   5.512   6.400   5.864
   43SOL    HW1 1028   5.606   6.369   5.848
   43SOL    HW2 1029   5.487   6.468   5.796
   44SOL     OW 1030   0.432   2.851   6.458
   44SOL    HW1 1031   0.428   2.842   6.558
   44SOL    HW2 1032   0.342   2.876   6.423
   45SOL     OW 1033   3.195   0.831   2.029
   45SOL    HW1 1034   3.111   0.885   2.026
   45SOL    HW2 1035   3.274   0.892   2.025
   46SOL     OW 1036   1.531   3.559   4.003
   46SOL    HW1 1037   1.436   3.533   4.013
   46SOL    HW2 1038   1.590   3.482   4.029
   47SOL     OW 1039   6.127   4.262   3.363
   47SOL    HW1 1040   6.061   4.271   3.288
   47SOL    HW2 1041   6.078   4.241   3.448
   48SOL     OW 1042   0.087   2.658   4.783
   48SOL    HW1 1043   0.012   2.597   4.806
   48SOL    HW2 1044   0.060   2.753   4.800
   49SOL     OW 1045   4.528   4.207   0.687
   49SOL    HW1 1046   4.554   4.245   0.598
   49SOL    HW2 1047   4.549   4.109   0.689
   50SOL     OW 1048   6.632   3.492   4.961
   50SOL    HW1 1049   6.614   3.585   4.929
   50SOL    HW2 1050   6.606   3.484   5.057
   51SOL     OW 1051   3.367   4.926   2.732
   51SOL    HW1 1052   3.272   4.913   2.762
   51SOL    HW2 1053   3.425   4.940   2.812
   52SOL     OW 1054   2.831   1.442   2.586
   52SOL    HW1 1055   2.924   1.463   2.616
   52SOL    HW2 1056   2.831   1.429   2.486
   53SOL     OW 1057   4.938   6.845   3.824
   53SOL    HW1 1058   4.912   6.901   3.903
   53SOL    HW2 1059   4.893   6.756   3.830
   54SOL     OW 1060   2.928   4.986   5.891
   54SOL    HW1 1061   2.989   4.936   5.830
   54SOL    HW2 1062   2.981   5.038   5.958
   55SOL     OW 1063   3.700   1.497   5.842
   55SOL    HW1 1064   3.692   1.486   5.743
   55SOL    HW2 1065   3.772   1.563   5.863
   56SOL     OW 1066   1.512   0.814   2.268
   56SOL    HW1 1067   1.502   0.715   2.257
   56SOL    HW2 1068   1.488   0.840   2.361
   57SOL     OW 1069   4.913   0.954   0.631
   57SOL    HW1 1070   4.928   0.872   0.686
   57SOL    HW2 1071   4.999   1.002   0.618
   58SOL     OW 1072   0.455   6.513   6.783
   58SOL    HW1 1073   0.371   6.556   6.750
   58SOL    HW2 1074   0.492   6.566   6.860
   59SOL     OW 1075   1.762   0.529   5.850
   59SOL    HW1 1076   1.810   0.611   5.819
   59SOL    HW2 1077   1.826   0.471   5.902
   60SOL     OW 1078   4.335   0.117   5.439
   60SOL    HW1 1079   4.274   0.038   5.444
   60SOL    HW2 1080   4.371   0.136   5.531
   61SOL     OW 1081   5.096   0.049   4.077
   61SOL    HW1 1082   5.047   0.102   4.007
   61SOL    HW2 1083   5.076   0.088   4.167
   62SOL     OW 1084   1.421   0.465   4.097
   62SOL    HW1 1085   1.412   0.436   4.002
   62SOL    HW2 1086   1.359   0.542   4.114
   63SOL     OW 1087   6.558   2.490   3.362
   63SOL    HW1 1088   6.577   2.487   3.460
   63SOL    HW2 1089   6.472   2.442   3.343
   64SOL     OW 1090   6.629   3.628   6.511
   64SOL    HW1 1091   6.557   3.653   6.575
   64SOL    HW2 1092   6.683   3.709   6.488
   65SOL     OW 1093   6.629   4.730   5.052
   65SOL    HW1 1094   6.622   4.738   4.953
   65SOL    HW2 1095   6.621   4.821   5.094
   66SOL     OW 1096   3.439   0.791   6.491
   66SOL    HW1 1097   3.429   0.762   6.396
   66SOL    HW2 1098   3.473   0.714   6.546
   67SOL     OW 1099   5.677   6.358   5.302
   67SOL    HW1 1100   5.684   6.308   5.389
   67SOL    HW2 1101   5.709   6.452   5.315
   68SOL     OW 1102   5.919   1.643   6.530
   68SOL    HW1 1103   5.881   1.574   6.592
   68SOL    HW2 1104   5.873   1.730   6.545
   69SOL     OW 1105   2.499   4.481   6.059
   69SOL    HW1 1106   2.469   4.555   5.999
   69SOL    HW2 1107   2.597   4.468   6.050
   70SOL     OW 1108   6.874   5.553   2.834
   70SOL    HW1 1109   6.818   5.556   2.917
   70SOL    HW2 1110   6.865   5.463   2.792
   71SOL     OW 1111   2.479   2.593   3.230
   71SOL    HW1 1112   2.454   2.507   3.273
   71SOL    HW2 1113   2.577   2.608   3.242
   72SOL     OW 1114   3.270   5.800   4.105
   72SOL    HW1 1115   3.230   5.814   4.015
   72SOL    HW2 1116   3.341   5.730   4.099
   73SOL     OW 1117   3.226   1.782   6.894
   73SOL    HW1 1118   3.245   1.825   6.982
   73SOL    HW2 1119   3.217   1.852   6.823
   74SOL     OW 1120   5.336   6.671   6.717
   74SOL    HW1 1121   5.373   6.749   6.666
   74SOL    HW2 1122   5.411   6.621   6.761
   75SOL     OW 1123   3.372   5.782   5.355
   75SOL    HW1 1124   3.399   5.697   5.401
   75SOL    HW2 1125   3.435   5.856   5.381
   76SOL     OW 1126   2.281   2.350   1.269
   76SOL    HW1 1127   2.202   2.306   1.224
   76SOL    HW2 1128   2.278   2.332   1.367
   77SOL     OW 1129   5.293   5.259   5.188
   77SOL    HW1 1130   5.211   5.203   5.198
   77SOL    HW2 1131   5.360   5.232   5.257
   78SOL     OW 1132   6.546   6.122   6.026
   78SOL    HW1 1133   6.449   6.106   6.010
   78SOL    HW2 1134   6.599   6.084   5.951
   79SOL     OW 1135   3.217   6.914   0.873
   79SOL    HW1 1136   3.276   6.992   0.855
   79SOL    HW2 1137   3.186   6.875   0.786
   80SOL     OW 1138   6.363   0.767   5.241
   80SOL    HW1 1139   6.407   0.778   5.151
   80SOL    HW2 1140   6.343   0.857   5.279
   81SOL     OW 1141   2.214   0.947   2.937
   81SOL    HW1 1142   2.243   0.933   2.843
   81SOL    HW2 1143   2.287   0.920   2.999
   82SOL     OW 1144   6.767   4.859   6.866
   82SOL    HW1 1145   6.733   4.908   6.786
   82SOL    HW2 1146   6.844   4.909   6.906
   83SOL     OW 1147   6.965   6.480   0.689
   83SOL    HW1 1148   6.965   6.428   0.774
   83SOL    HW2 1149   0.007   6.436   0.624
   84SOL     OW 1150   5.261   3.909   2.165
   84SOL    HW1 1151   5.205   3.962   2.229
   84SOL    HW2 1152   5.212   3.826   2.138
   85SOL     OW 1153   0.750   1.535   5.092
   85SOL    HW1 1154   0.793   1.463   5.147
   85SOL    HW2 1155   0.780   1.624   5.126
   86SOL     OW 1156   0.521   0.421   5.898
   86SOL    HW1 1157   0.614   0.455   5.886
   86SOL    HW2 1158   0.457   0.497   5.892
   87SOL     OW 1159   5.104   3.067   0.285
   87SOL    HW1 1160   5.140   2.975   0.300
   87SOL    HW2 1161   5.097   3.085   0.187
   88SOL     OW 1162   5.036   1.658   0.291
   88SOL    HW1 1163   4.966   1.686   0.225
   88SOL    HW2 1164   5.017   1.565   0.322
   89SOL     OW 1165   1.559   2.784   6.645
   89SOL    HW1 1166   1.629   2.854   6.655
   89SOL    HW2 1167   1.492   2.794   6.719
   90SOL     OW 1168   5.842   6.735   3.382
   90SOL    HW1 1169   5.777   6.785   3.325
   90SOL    HW2 1170   5.926   6.719   3.330
   91SOL     OW 1171   4.790   4.351   3.870
   91SOL    HW1 1172   4.845   4.359   3.787
   91SOL    HW2 1173   4.794   4.258   3.904
   92SOL     OW 1174   3.287   5.289   0.749
   92SOL    HW1 1175   3.255   5.261   0.659
   92SOL    HW2 1176   3.308   5.209   0.804
   93SOL     OW 1177   3.323   4.719   5.933
   93SOL    HW1 1178   3.297   4.711   6.029
   93SOL    HW2 1179   3.317   4.815   5.904
   94SOL     OW 1180   3.206   5.322   0.093
   94SOL    HW1 1181   3.181   5.260   0.167
   94SOL    HW2 1182   3.244   5.406   0.132
   95SOL     OW 1183   0.511   1.039   3.465
   95SOL    HW1 1184   0.454   0.983   3.405
   95SOL    HW2 1185   0.604   1.002   3.467
   96SOL     OW 1186   2.417   0.087   5.380
   96SOL    HW1 1187   2.413   0.069   5.478
   96SOL    HW2 1188   2.507   0.120   5.355
   97SOL     OW 1189   6.181   3.931   4.191
   97SOL    HW1 1190   6.118   3.948   4.267
   97SOL    HW2 1191   6.209   3.835   4.192
   98SOL     OW 1192   5.585   2.764   6.454
   98SOL    HW1 1193   5.513   2.736   6.517
   98SOL    HW2 1194   5.660   2.806   6.505
   99SOL     OW 1195   4.241   2.762   0.920
   99SOL    HW1 1196   4.198   2.725   1.003
   99SOL    HW2 1197   4.217   2.859   0.910
  100SOL     OW 1198   0.600   6.711   6.587
  100SOL    HW1 1199   0.526   6.772   6.613
  100SOL    HW2 1200   0.564   6.619   6.572
  101SOL     OW 1201   0.566   5.886   3.209
  101SOL    HW1 1202   0.501   5.934   3.267
  101SOL    HW2 1203   0.640   5.948   3.181
  102SOL     OW 1204   4.186   0.184   3.190
  102SOL    HW1 1205   4.124   0.157   3.117
  102SOL    HW2 1206   4.185   0.116   3.263
  103SOL     OW 1207   3.849   1.645   1.685
  103SOL    HW1 1208   3.811   1.736   1.668
  103SOL    HW2 1209   3.942   1.640   1.648
  104SOL     OW 1210   6.334   5.551   2.651
  104SOL    HW1 1211   6.241   5.586   2.650
  104SOL    HW2 1212   6.364   5.538   2.745
  105SOL     OW 1213   6.857   1.252   6.797
  105SOL    HW1 1214   6.910   1.293   6.872
  105SOL    HW2 1215   6.819   1.164   6.827
  106SOL     OW 1216   2.269   6.273   6.311
  106SOL    HW1 1217   2.170   6.287   6.313
  106SOL    HW2 1218   2.288   6.176   6.293
  107SOL     OW 1219   1.464   2.497   1.340
  107SOL    HW1 1220   1.421   2.455   1.261
  107SOL    HW2 1221   1.517   2.429   1.391
  108SOL     OW 1222   4.765   4.724   6.888
  108SOL    HW1 1223   4.761   4.819   6.918
  108SOL    HW2 1224   4.690   4.706   6.825
  109SOL     OW 1225   0.483   0.310   1.044
  109SOL    HW1 1226   0.577   0.337   1.024
  109SOL    HW2 1227   0.430   0.307   0.958
  110SOL     OW 1228   3.741   5.859   5.750
  110SOL    HW1 1229   3.707   5.767   5.727
  110SOL    HW2 1230   3.773   5.859   5.845
  111SOL     OW 1231   3.771   0.511   3.956
  111SOL    HW1 1232   3.815   0.597   3.932
  111SOL    HW2 1233   3.836   0.451   4.003
  112SOL     OW 1234   5.639   6.045   5.759
  112SOL    HW1 1235   5.587   6.045   5.673
  112SOL    HW2 1236   5.627   5.958   5.806
  113SOL     OW 1237   6.666   4.801   3.637
  113SOL    HW1 1238   6.657   4.843   3.727
  113SOL    HW2 1239   6.588   4.739   3.621
  114SOL     OW 1240   0.262   6.589   0.567
  114SOL    HW1 1241   0.340   6.641   0.603
  114SOL    HW2 1242   0.181   6.609   0.621
  115SOL     OW 1243   5.189   1.026   4.122
  115SOL    HW1 1244   5.108   1.067   4.164
  115SOL    HW2 1245   5.236   1.095   4.067
  116SOL     OW 1246   6.069   4.482   2.356
  116SOL    HW1 1247   6.007   4.556   2.383
  116SOL    HW2 1248   6.150   4.520   2.313
  117SOL     OW 1249   0.800   0.781   6.396
  117SOL    HW1 1250   0.768   0.860   6.449
  117SOL    HW2 1251   0.897   0.767   6.413
  118SOL     OW 1252   0.549   1.446   1.688
  118SOL    HW1 1253   0.590   1.362   1.652
  118SOL    HW2 1254   0.459   1.425   1.726
  119SOL     OW 1255   6.966   2.310   6.228
  119SOL    HW1 1256   6.905   2.231   6.239
  119SOL    HW2 1257   6.912   2.391   6.203
  120SOL     OW 1258   5.934   0.399   0.729
  120SOL    HW1 1259   5.996   0.323   0.711
  120SOL    HW2 1260   5.954   0.438   0.819
  121SOL     OW 1261   2.438   3.449   6.585
  121SOL    HW1 1262   2.397   3.379   6.643
  121SOL    HW2 1263   2.450   3.413   6.493
  122SOL     OW 1264   1.536   3.953   4.902
  122SOL    HW1 1265   1.576   3.962   4.811
  122SOL    HW2 1266   1.514   4.044   4.938
  123SOL     OW 1267   6.997   2.093   1.175
  123SOL    HW1 1268   6.939   2.080   1.255
  123SOL    HW2 1269   0.050   2.158   1.195
  124SOL     OW 1270   4.887   3.677   0.309
  124SOL    HW1 1271   4.816   3.609   0.295
  124SOL    HW2 1272   4.969   3.633   0.346
  125SOL     OW 1273   1.737   1.656   2.459
  125SOL    HW1 1274   1.705   1.584   2.521
  125SOL    HW2 1275   1.832   1.679   2.480
  126SOL     OW 1276   2.825   4.218   1.049
  126SOL    HW1 1277   2.794   4.239   1.141
  126SOL    HW2 1278   2.755   4.244   0.983
  127SOL     OW 1279   6.625   4.858   6.133
  127SOL    HW1 1280   6.717   4.864   6.094
  127SOL    HW2 1281   6.579   4.776   6.099
  128SOL     OW 1282   4.424   2.711   1.605
  128SOL    HW1 1283   4.448   2.719   1.701
  128SOL    HW2 1284   4.424   2.802   1.563
  129SOL     OW 1285   3.528   3.390   6.401
  129SOL    HW1 1286   3.509   3.406   6.498
  129SOL    HW2 1287   3.526   3.478   6.353
  130SOL     OW 1288   1.431   0.829   4.367
  130SOL    HW1 1289   1.450   0.782   4.453
  130SOL    HW2 1290   1.402   0.923   4.386
  131SOL     OW 1291   5.109   1.294   3.538
  131SOL    HW1 1292   5.176   1.362   3.508
  131SOL    HW2 1293   5.066   1.252   3.459
  132SOL     OW 1294   1.521   3.043   1.284
  132SOL    HW1 1295   1.548   2.978   1.213
  132SOL    HW2 1296   1.449   3.104   1.248
  133SOL     OW 1297   5.589   6.636   2.753
  133SOL    HW1 1298   5.505   6.636   2.806
  133SOL    HW2 1299   5.660   6.686   2.803
  134SOL     OW 1300   6.240   2.700   3.366
  134SOL    HW1 1301   6.154   2.657   3.393
  134SOL    HW2 1302   6.314   2.664   3.422
  135SOL     OW 1303   5.313   1.950   3.415
  135SOL    HW1 1304   5.357   1.870   3.457
  135SOL    HW2 1305   5.371   1.986   3.342
  136SOL     OW 1306   5.321   4.441   5.645
  136SOL    HW1 1307   5.394   4.482   5.592
  136SOL    HW2 1308   5.320   4.481   5.737
  137SOL     OW 1309   4.894   6.680   5.375
  137SOL    HW1 1310   4.974   6.647   5.424
  137SOL    HW2 1311   4.824   6.609   5.373
  138SOL     OW 1312   0.464   5.230   4.300
  138SOL    HW1 1313   0.433   5.219   4.394
  138SOL    HW2 1314   0.405   5.179   4.238
  139SOL     OW 1315   2.415   5.475   4.957
  139SOL    HW1 1316   2.322   5.487   4.925
  139SOL    HW2 1317   2.421   5.500   5.054
  140SOL     OW 1318   5.970   5.261   4.245
  140SOL    HW1 1319   5.942   5.302   4.332
  140SOL    HW2 1320   6.069   5.257   4.240
  141SOL     OW 1321   0.815   1.838   5.105
  141SOL    HW1 1322   0.874   1.805   5.178
  141SOL    HW2 1323   0.781   1.929   5.128
  142SOL     OW 1324   1.635   6.189   1.893
  142SOL    HW1 1325   1.703   6.227   1.956
  142SOL    HW2 1326   1.675   6.179   1.802
  143SOL     OW 1327   5.419   4.459   2.016
  143SOL    HW1 1328   5.519   4.447   2.015
  143SOL    HW2 1329   5.393   4.511   2.097
  144SOL     OW 1330   1.204   6.633   6.317
  144SOL    HW1 1331   1.214   6.551   6.260
  144SOL    HW2 1332   1.128   6.621   6.380
  145SOL     OW 1333   0.882   5.756   0.551
  145SOL    HW1 1334   0.974   5.785   0.526
  145SOL    HW2 1335   0.817   5.791   0.484
  146SOL     OW 1336   5.023   6.764   0.066
  146SOL    HW1 1337   5.104   6.800   0.019
  146SOL    HW2 1338   5.040   6.761   0.164
  147SOL     OW 1339   6.469   2.895   0.595
  147SOL    HW1 1340   6.421   2.849   0.521
  147SOL    HW2 1341   6.565   2.866   0.597
  148SOL     OW 1342   0.473   5.378   4.918
  148SOL    HW1 1343   0.394   5.438   4.904
  148SOL    HW2 1344   0.462   5.327   5.003
  149SOL     OW 1345   3.340   1.134   4.084
  149SOL    HW1 1346   3.249   1.127   4.043
  149SOL    HW2 1347   3.339   1.204   4.154
  150SOL     OW 1348   0.064   4.950   6.408
  150SOL    HW1 1349   0.039   4.864   6.364
  150SOL    HW2 1350   0.052   5.026   6.343
  151SOL     OW 1351   3.367   1.628   1.452
  151SOL    HW1 1352   3.411   1.618   1.541
  151SOL    HW2 1353   3.437   1.629   1.380
  152SOL     OW 1354   2.574   0.721   4.666
  152SOL    HW1 1355   2.648   0.787   4.676
  152SOL    HW2 1356   2.488   0.762   4.695
  153SOL     OW 1357   2.324   0.164   2.079
  153SOL    HW1 1358   2.321   0.166   1.979
  153SOL    HW2 1359   2.232   0.176   2.115
  154SOL     OW 1360   0.061   3.005   1.699
  154SOL    HW1 1361   0.151   2.965   1.716
  154SOL    HW2 1362   0.061   3.054   1.612
  155SOL     OW 1363   0.482   1.319   3.434
  155SOL    HW1 1364   0.511   1.354   3.345
  155SOL    HW2 1365   0.480   1.219   3.432
  156SOL     OW 1366   6.142   1.729   1.325
  156SOL    HW1 1367   6.053   1.742   1.370
  156SOL    HW2 1368   6.186   1.818   1.313
  157SOL     OW 1369   6.169   3.057   2.353
  157SOL    HW1 1370   6.118   3.010   2.281
  157SOL    HW2 1371   6.117   3.054   2.439
  158SOL     OW 1372   3.182   0.768   2.787
  158SOL    HW1 1373   3.246   0.836   2.752
  158SOL    HW2 1374   3.129   0.807   2.862
  159SOL     OW 1375   4.856   4.490   1.728
  159SOL    HW1 1376   4.908   4.563   1.682
  159SOL    HW2 1377   4.765   4.524   1.751
  160SOL     OW 1378   6.901   4.555   6.528
  160SOL    HW1 1379   6.918   4.605   6.613
  160SOL    HW2 1380   6.894   4.620   6.452
  161SOL     OW 1381   2.170   4.759   4.999
  161SOL    HW1 1382   2.117   4.676   4.981
  161SOL    HW2 1383   2.108   4.835   5.016
  162SOL     OW 1384   4.361   5.975   0.350
  162SOL    HW1 1385   4.265   5.991   0.327
  162SOL    HW2 1386   4.416   6.054   0.321
  163SOL     OW 1387   4.061   6.270   1.666
  163SOL    HW1 1388   4.000   6.344   1.638
  163SOL    HW2 1389   4.152   6.307   1.685
  164SOL     OW 1390   6.623   4.026   1.238
  164SOL    HW1 1391   6.685   4.094   1.276
  164SOL    HW2 1392   6.641   3.937   1.279
  165SOL     OW 1393   4.782   3.447   6.916
  165SOL    HW1 1394   4.729   3.365   6.938
  165SOL    HW2 1395   4.722   3.526   6.917
  166SOL     OW 1396   0.392   6.064   3.401
  166SOL    HW1 1397   0.467   6.113   3.444
  166SOL    HW2 1398   0.309   6.075   3.457
  167SOL     OW 1399   6.082   2.584   0.079
  167SOL    HW1 1400   6.013   2.576   0.150
  167SOL    HW2 1401   6.049   2.542   7.015
  168SOL     OW 1402   2.589   4.227   0.899
  168SOL    HW1 1403   2.562   4.148   0.953
  168SOL    HW2 1404   2.524   4.302   0.914
  169SOL     OW 1405   3.135   0.138   1.874
  169SOL    HW1 1406   3.137   0.235   1.850
  169SOL    HW2 1407   3.042   0.104   1.867
  170SOL     OW 1408   6.982   1.992   3.801
  170SOL    HW1 1409   0.060   1.976   3.791
  170SOL    HW2 1410   6.954   1.970   3.894
  171SOL     OW 1411   3.524   3.649   0.600
  171SOL    HW1 1412   3.529   3.734   0.548
  171SOL    HW2 1413   3.446   3.595   0.568
  172SOL     OW 1414   6.700   1.891   5.134
  172SOL    HW1 1415   6.792   1.858   5.151
  172SOL    HW2 1416   6.704   1.982   5.094
  173SOL     OW 1417   6.960   6.762   4.547
  173SOL    HW1 1418   6.870   6.805   4.553
  173SOL    HW2 1419   6.972   6.723   4.456
  174SOL     OW 1420   2.459   5.419   3.591
  174SOL    HW1 1421   2.506   5.375   3.668
  174SOL    HW2 1422   2.522   5.423   3.513
  175SOL     OW 1423   1.892   6.516   1.955
  175SOL    HW1 1424   1.804   6.562   1.943
  175SOL    HW2 1425   1.914   6.464   1.873
  176SOL     OW 1426   2.013   4.087   1.355
  176SOL    HW1 1427   2.097   4.140   1.342
  176SOL    HW2 1428   1.957   4.093   1.273
  177SOL     OW 1429   5.460   2.427   3.522
  177SOL    HW1 1430   5.538   2.488   3.505
  177SOL    HW2 1431   5.443   2.371   3.441
  178SOL     OW 1432   4.950   4.293   6.392
  178SOL    HW1 1433   4.937   4.335   6.303
  178SOL    HW2 1434   4.935   4.361   6.464
  179SOL     OW 1435   2.579   0.640   0.529
  179SOL    HW1 1436   2.639   0.604   0.457
  179SOL    HW2 1437   2.594   0.590   0.614
  180SOL     OW 1438   0.878   1.179   7.005
  180SOL    HW1 1439   0.803   1.210   6.946
  180SOL    HW2 1440   0.896   1.083   6.988
  181SOL     OW 1441   3.425   1.870   6.489
  181SOL    HW1 1442   3.461   1.958   6.460
  181SOL    HW2 1443   3.501   1.806   6.505
  182SOL     OW 1444   4.318   2.099   4.309
  182SOL    HW1 1445   4.412   2.133   4.314
  182SOL    HW2 1446   4.263   2.145   4.378
  183SOL     OW 1447   4.197   1.037   1.851
  183SOL    HW1 1448   4.105   1.008   1.823
  183SOL    HW2 1449   4.259   1.027   1.773
  184SOL     OW 1450   1.380   5.503   3.581
  184SOL    HW1 1451   1.358   5.599   3.598
  184SOL    HW2 1452   1.468   5.497   3.534
  185SOL     OW 1453   1.405   3.624   6.742
  185SOL    HW1 1454   1.387   3.633   6.840
  185SOL    HW2 1455   1.329   3.662   6.691
  186SOL     OW 1456   6.113   0.215   3.368
  186SOL    HW1 1457   6.044   0.253   3.306
  186SOL    HW2 1458   6.198   0.266   3.359
  187SOL     OW 1459   5.860   1.083   4.348
  187SOL    HW1 1460   5.762   1.106   4.341
  187SOL    HW2 1461   5.905   1.149   4.408
  188SOL     OW 1462   5.660   2.142   3.503
  188SOL    HW1 1463   5.731   2.203   3.468
  188SOL    HW2 1464   5.578   2.195   3.524
  189SOL     OW 1465   2.404   5.751   2.584
  189SOL    HW1 1466   2.336   5.822   2.568
  189SOL    HW2 1467   2.452   5.770   2.670
  190SOL     OW 1468   3.870   1.279   5.215
  190SOL    HW1 1469   3.958   1.302   5.173
  190SOL    HW2 1470   3.880   1.198   5.271
  191SOL     OW 1471   6.095   5.914   6.086
  191SOL    HW1 1472   6.129   5.880   5.999
  191SOL    HW2 1473   6.166   5.903   6.156
  192SOL     OW 1474   6.444   6.803   2.195
  192SOL    HW1 1475   6.520   6.749   2.159
  192SOL    HW2 1476   6.409   6.862   2.122
  193SOL     OW 1477   4.864   3.008   6.464
  193SOL    HW1 1478   4.784   2.959   6.430
  193SOL    HW2 1479   4.875   2.990   6.562
  194SOL     OW 1480   3.521   0.666   3.056
  194SOL    HW1 1481   3.559   0.686   3.146
  194SOL    HW2 1482   3.508   0.752   3.006
  195SOL     OW 1483   1.931   5.293   3.668
  195SOL    HW1 1484   2.012   5.238   3.645
  195SOL    HW2 1485   1.851   5.234   3.672
  196SOL     OW 1486   1.582   2.086   6.880
  196SOL    HW1 1487   1.500   2.128   6.917
  196SOL    HW2 1488   1.588   2.103   6.781
  197SOL     OW 1489   2.182   1.467   1.238
  197SOL    HW1 1490   2.158   1.560   1.210
  197SOL    HW2 1491   2.262   1.469   1.297
  198SOL     OW 1492   4.484   1.078   3.268
  198SOL    HW1 1493   4.451   1.053   3.359
  198SOL    HW2 1494   4.522   1.170   3.271
  199SOL     OW 1495   1.319   2.702   4.508
  199SOL    HW1 1496   1.298   2.615   4.462
  199SOL    HW2 1497   1.348   2.683   4.603
  200SOL     OW 1498   0.291   2.547   0.626
  200SOL    HW1 1499   0.305   2.456   0.666
  200SOL    HW2 1500   0.256   2.538   0.533
  201SOL     OW 1501   0.788   0.465   5.777
  201SOL    HW1 1502   0.866   0.490   5.721
  201SOL    HW2 1503   0.779   0.529   5.853
  202SOL     OW 1504   4.577   0.153   6.066
  202SOL    HW1 1505   4.512   0.190   6.133
  202SOL    HW2 1506   4.640   0.090   6.112
  203SOL     OW 1507   5.708   2.985   5.212
  203SOL    HW1 1508   5.738   3.054   5.146
  203SOL    HW2 1509   5.743   2.895   5.185
  204SOL     OW 1510   0.456   0.162   5.796
  204SOL    HW1 1511   0.470   0.247   5.847
  204SOL    HW2 1512   0.542   0.133   5.756
  205SOL     OW 1513   1.173   2.490   2.082
  205SOL    HW1 1514   1.212   2.564   2.027
  205SOL    HW2 1515   1.080   2.472   2.050
  206SOL     OW 1516   0.294   3.191   1.242
  206SOL    HW1 1517   0.270   3.285   1.216
  206SOL    HW2 1518   0.338   3.145   1.165
  207SOL     OW 1519   4.789   2.039   3.294
  207SOL    HW1 1520   4.880   2.019   3.330
  207SOL    HW2 1521   4.796   2.102   3.216
  208SOL     OW 1522   0.904   3.970   5.221
  208SOL    HW1 1523   0.833   3.996   5.156
  208SOL    HW2 1524   0.862   3.943   5.308
  209SOL     OW 1525   6.446   4.224   2.636
  209SOL    HW1 1526   6.380   4.295   2.663
  209SOL    HW2 1527   6.490   4.187   2.718
  210SOL     OW 1528   4.611   2.471   0.357
  210SOL    HW1 1529   4.686   2.495   0.419
  210SOL    HW2 1530   4.621   2.522   0.271
  211SOL     OW 1531   1.775   0.446   3.251
  211SOL    HW1 1532   1.751   0.518   3.317
  211SOL    HW2 1533   1.768   0.357   3.295
  212SOL     OW 1534   1.251   3.471   3.006
  212SOL    HW1 1535   1.227   3.567   3.018
  212SOL    HW2 1536   1.341   3.464   2.963
  213SOL     OW 1537   1.544   5.314   1.298
  213SOL    HW1 1538   1.508   5.272   1.214
  213SOL    HW2 1539   1.598   5.247   1.348
  214SOL     OW 1540   4.278   5.566   2.466
  214SOL    HW1 1541   4.316   5.475   2.455
  214SOL    HW2 1542   4.267   5.587   2.563
  215SOL     OW 1543   2.077   5.043   2.003
  215SOL    HW1 1544   2.070   4.958   1.950
  215SOL    HW2 1545   2.034   5.118   1.952
  216SOL     OW 1546   1.588   0.260   2.591
  216SOL    HW1 1547   1.686   0.278   2.591
  216SOL    HW2 1548   1.538   0.347   2.588
  217SOL     OW 1549   1.259   3.409   5.867
  217SOL    HW1 1550   1.284   3.506   5.869
  217SOL    HW2 1551   1.243   3.377   5.960
  218SOL     OW 1552   0.950   2.282   5.462
  218SOL    HW1 1553   0.863   2.328   5.442
  218SOL    HW2 1554   0.972   2.219   5.388
  219SOL     OW 1555   3.482   0.593   0.216
  219SOL    HW1 1556   3.517   0.665   0.276
  219SOL    HW2 1557   3.557   0.533   0.188
  220SOL     OW 1558   3.303   0.133   1.129
  220SOL    HW1 1559   3.259   0.158   1.043
  220SOL    HW2 1560   3.245   0.068   1.179
  221SOL     OW 1561   5.543   5.599   1.027
  221SOL    HW1 1562   5.635   5.627   1.051
  221SOL    HW2 1563   5.525   5.508   1.064
  222SOL     OW 1564   1.987   4.417   6.595
  222SOL    HW1 1565   1.971   4.502   6.644
  222SOL    HW2 1566   2.067   4.427   6.536
  223SOL     OW 1567   6.845   2.594   5.079
  223SOL    HW1 1568   6.781   2.667   5.059
  223SOL    HW2 1569   6.796   2.507   5.085
  224SOL     OW 1570   2.462   1.912   5.905
  224SOL    HW1 1571   2.471   2.012   5.896
  224SOL    HW2 1572   2.436   1.873   5.817
  225SOL     OW 1573   4.889   3.789   6.016
  225SOL    HW1 1574   4.983   3.821   6.008
  225SOL    HW2 1575   4.837   3.850   6.076
  226SOL     OW 1576   1.117   1.657   6.553
  226SOL    HW1 1577   1.050   1.730   6.573
  226SOL    HW2 1578   1.108   1.629   6.458
  227SOL     OW 1579   2.076   4.105   2.441
  227SOL    HW1 1580   2.086   4.023   2.385
  227SOL    HW2 1581   2.044   4.079   2.532
  228SOL     OW 1582   1.365   0.688   2.742
  228SOL    HW1 1583   1.376   0.748   2.663
  228SOL    HW2 1584   1.437   0.708   2.809
  229SOL     OW 1585   5.290   4.800   6.670
  229SOL    HW1 1586   5.378   4.774   6.630
  229SOL    HW2 1587   5.278   4.754   6.758
  230SOL     OW 1588   4.245   6.076   4.626
  230SOL    HW1 1589   4.202   5.998   4.581
  230SOL    HW2 1590   4.290   6.046   4.710
  231SOL     OW 1591   5.081   1.471   0.051
  231SOL    HW1 1592   5.048   1.423   6.990
  231SOL    HW2 1593   5.116   1.406   0.117
  232SOL     OW 1594   0.690   2.682   6.069
  232SOL    HW1 1595   0.674   2.584   6.064
  232SOL    HW2 1596   0.698   2.711   6.164
  233SOL     OW 1597   3.114   1.403   3.633
  233SOL    HW1 1598   3.198   1.363   3.671
  233SOL    HW2 1599   3.137   1.470   3.563
  234SOL     OW 1600   5.815   1.310   6.276
  234SOL    HW1 1601   5.730   1.337   6.232
  234SOL    HW2 1602   5.815   1.211   6.291
  235SOL     OW 1603   4.894   3.406   2.336
  235SOL    HW1 1604   4.893   3.315   2.295
  235SOL    HW2 1605   4.926   3.400   2.430
  236SOL     OW 1606   4.417   3.323   6.792
  236SOL    HW1 1607   4.463   3.406   6.760
  236SOL    HW2 1608   4.332   3.310   6.741
  237SOL     OW 1609   6.410   3.897   2.802
  237SOL    HW1 1610   6.468   3.978   2.808
  237SOL    HW2 1611   6.458   3.826   2.751
  238SOL     OW 1612   6.302   1.750   0.203
  238SOL    HW1 1613   6.244   1.770   0.125
  238SOL    HW2 1614   6.248   1.707   0.275
  239SOL     OW 1615   1.239   4.159   0.606
  239SOL    HW1 1616   1.250   4.227   0.533
  239SOL    HW2 1617   1.327   4.145   0.651
  240SOL     OW 1618   6.577   3.587   2.955
  240SOL    HW1 1619   6.510   3.521   2.986
  240SOL    HW2 1620   6.598   3.651   3.029
  241SOL     OW 1621   2.686   1.608   4.161
  241SOL    HW1 1622   2.613   1.568   4.105
  241SOL    HW2 1623   2.763   1.632   4.102
  242SOL     OW 1624   3.325   3.813   3.389
  242SOL    HW1 1625   3.326   3.713   3.394
  242SOL    HW2 1626   3.396   3.844   3.327
  243SOL     OW 1627   4.820   2.533   6.802
  243SOL    HW1 1628   4.811   2.629   6.829
  243SOL    HW2 1629   4.767   2.516   6.719
  244SOL     OW 1630   6.057   3.372   6.521
  244SOL    HW1 1631   6.023   3.457   6.562
  244SOL    HW2 1632   6.019   3.294   6.570
  245SOL     OW 1633   3.397   1.686   3.579
  245SOL    HW1 1634   3.315   1.711   3.630
  245SOL    HW2 1635   3.371   1.632   3.498
  246SOL     OW 1636   5.840   1.555   3.459
  246SOL    HW1 1637   5.830   1.653   3.443
  246SOL    HW2 1638   5.858   1.538   3.556
  247SOL     OW 1639   2.186   2.130   0.737
  247SOL    HW1 1640   2.264   2.075   0.708
  247SOL    HW2 1641   2.217   2.222   0.762
  248SOL     OW 1642   2.408   1.339   2.474
  248SOL    HW1 1643   2.462   1.423   2.478
  248SOL    HW2 1644   2.425   1.284   2.556
  249SOL     OW 1645   5.417   6.909   5.025
  249SOL    HW1 1646   5.465   6.994   5.006
  249SOL    HW2 1647   5.377   6.914   5.117
  250SOL     OW 1648   3.587   2.709   0.826
  250SOL    HW1 1649   3.675   2.688   0.784
  250SOL    HW2 1650   3.514   2.691   0.759
  251SOL     OW 1651   4.505   3.445   5.540
  251SOL    HW1 1652   4.478   3.453   5.444
  251SOL    HW2 1653   4.602   3.419   5.545
  252SOL     OW 1654   6.189   6.611   5.740
  252SOL    HW1 1655   6.146   6.695   5.708
  252SOL    HW2 1656   6.147   6.532   5.695
  253SOL     OW 1657   4.145   4.868   5.548
  253SOL    HW1 1658   4.136   4.946   5.487
  253SOL    HW2 1659   4.139   4.783   5.495
  254SOL     OW 1660   6.714   2.966   4.271
  254SOL    HW1 1661   6.748   2.883   4.228
  254SOL    HW2 1662   6.698   3.037   4.202
  255SOL     OW 1663   1.520   4.564   5.964
  255SOL    HW1 1664   1.532   4.464   5.966
  255SOL    HW2 1665   1.610   4.607   5.958
  256SOL     OW 1666   4.721   2.950   6.148
  256SOL    HW1 1667   4.706   2.986   6.240
  256SOL    HW2 1668   4.767   3.019   6.092
  257SOL     OW 1669   5.097   6.283   2.714
  257SOL    HW1 1670   5.108   6.226   2.633
  257SOL    HW2 1671   5.044   6.233   2.783
  258SOL     OW 1672   2.744   4.123   5.898
  258SOL    HW1 1673   2.747   4.219   5.872
  258SOL    HW2 1674   2.711   4.069   5.821
  259SOL     OW 1675   4.424   0.588   2.469
  259SOL    HW1 1676   4.492   0.599   2.397
  259SOL    HW2 1677   4.466   0.546   2.549
  260SOL     OW 1678   4.049   4.855   3.247
  260SOL    HW1 1679   4.009   4.892   3.164
  260SOL    HW2 1680   4.051   4.755   3.242
  261SOL     OW 1681   5.207   5.009   1.064
  261SOL    HW1 1682   5.125   5.064   1.081
  261SOL    HW2 1683   5.180   4.923   1.020
  262SOL     OW 1684   2.118   3.600   1.175
  262SOL    HW1 1685   2.128   3.596   1.274
  262SOL    HW2 1686   2.185   3.665   1.137
  263SOL     OW 1687   1.092   0.081   3.926
  263SOL    HW1 1688   1.043   0.111   3.845
  263SOL    HW2 1689   1.185   0.117   3.924
  264SOL     OW 1690   6.738   2.836   0.258
  264SOL    HW1 1691   6.710   2.869   0.348
  264SOL    HW2 1692   6.803   2.761   0.268
  265SOL     OW 1693   6.207   6.714   3.622
  265SOL    HW1 1694   6.232   6.799   3.575
  265SOL    HW2 1695   6.121   6.726   3.670
  266SOL     OW 1696   5.240   2.302   5.931
  266SOL    HW1 1697   5.161   2.297   5.870
  266SOL    HW2 1698   5.296   2.220   5.918
  267SOL     OW 1699   1.071   0.777   5.150
  267SOL    HW1 1700   1.121   0.792   5.236
  267SOL    HW2 1701   1.051   0.866   5.108
  268SOL     OW 1702   4.148   1.272   6.612
  268SOL    HW1 1703   4.130   1.185   6.567
  268SOL    HW2 1704   4.065   1.328   6.610
  269SOL     OW 1705   3.026   1.952   0.100
  269SOL    HW1 1706   3.015   2.052   0.096
  269SOL    HW2 1707   3.123   1.930   0.110
  270SOL     OW 1708   0.649   6.675   0.029
  270SOL    HW1 1709   0.725   6.614   0.007
  270SOL    HW2 1710   0.660   6.762   7.000
  271SOL     OW 1711   0.516   1.535   6.296
  271SOL    HW1 1712   0.499   1.534   6.197
  271SOL    HW2 1713   0.463   1.462   6.340
  272SOL     OW 1714   3.437   5.828   4.358
  272SOL    HW1 1715   3.529   5.816   4.319
  272SOL    HW2 1716   3.377   5.870   4.289
  273SOL     OW 1717   1.595   4.856   5.791
  273SOL    HW1 1718   1.596   4.787   5.719
  273SOL    HW2 1719   1.616   4.946   5.751
  274SOL     OW 1720   3.852   0.944   4.011
  274SOL    HW1 1721   3.931   0.999   3.985
  274SOL    HW2 1722   3.847   0.863   3.953
  275SOL     OW 1723   0.136   6.719   2.732
  275SOL    HW1 1724   0.129   6.795   2.796
  275SOL    HW2 1725   0.156   6.755   2.640
  276SOL     OW 1726   0.469   0.171   4.243
  276SOL    HW1 1727   0.470   0.083   4.195
  276SOL    HW2 1728   0.506   0.159   4.335
  277SOL     OW 1729   2.186   3.000   0.619
  277SOL    HW1 1730   2.184   2.990   0.719
  277SOL    HW2 1731   2.131   3.079   0.592
  278SOL     OW 1732   0.167   3.061   3.046
  278SOL    HW1 1733   0.113   3.145   3.048
  278SOL    HW2 1734   0.197   3.043   2.952
  279SOL     OW 1735   5.647   2.668   4.768
  279SOL    HW1 1736   5.634   2.765   4.788
  279SOL    HW2 1737   5.745   2.647   4.767
  280SOL     OW 1738   1.827   5.358   1.706
  280SOL    HW1 1739   1.873   5.439   1.744
  280SOL    HW2 1740   1.729   5.365   1.723
  281SOL     OW 1741   2.253   3.889   1.693
  281SOL    HW1 1742   2.172   3.867   1.638
  281SOL    HW2 1743   2.226   3.935   1.777
  282SOL     OW 1744   3.233   1.696   5.883
  282SOL    HW1 1745   3.137   1.687   5.859
  282SOL    HW2 1746   3.286   1.624   5.838
  283SOL     OW 1747   5.368   2.729   6.650
  283SOL    HW1 1748   5.359   2.633   6.622
  283SOL    HW2 1749   5.279   2.765   6.676
  284SOL     OW 1750   0.767   3.632   3.586
  284SOL    HW1 1751   0.682   3.639   3.534
  284SOL    HW2 1752   0.762   3.553   3.647
  285SOL     OW 1753   5.667   4.450   3.903
  285SOL    HW1 1754   5.578   4.428   3.862
  285SOL    HW2 1755   5.740   4.423   3.840
  286SOL     OW 1756   3.278   3.707   6.952
  286SOL    HW1 1757   3.367   3.691   6.908
  286SOL    HW2 1758   3.213   3.637   6.923
  287SOL     OW 1759   1.591   3.669   0.443
  287SOL    HW1 1760   1.594   3.613   0.360
  287SOL    HW2 1761   1.657   3.744   0.434
  288SOL     OW 1762   4.412   1.533   6.965
  288SOL    HW1 1763   4.495   1.512   7.016
  288SOL    HW2 1764   4.427   1.516   6.868
  289SOL     OW 1765   1.958   4.948   5.932
  289SOL    HW1 1766   1.952   4.984   5.839
  289SOL    HW2 1767   1.969   5.024   5.996
  290SOL     OW 1768   0.144   2.272   5.583
  290SOL    HW1 1769   0.218   2.210   5.558
  290SOL    HW2 1770   0.181   2.362   5.604
  291SOL     OW 1771   0.558   1.410   3.176
  291SOL    HW1 1772   0.590   1.501   3.203
  291SOL    HW2 1773   0.475   1.420   3.120
  292SOL     OW 1774   2.397   0.546   3.459
  292SOL    HW1 1775   2.366   0.639   3.480
  292SOL    HW2 1776   2.455   0.548   3.377
  293SOL     OW 1777   4.573   5.359   4.037
  293SOL    HW1 1778   4.672   5.343   4.037
  293SOL    HW2 1779   4.527   5.287   3.983
  294SOL     OW 1780   5.562   6.569   6.383
  294SOL    HW1 1781   5.508   6.588   6.301
  294SOL    HW2 1782   5.625   6.494   6.364
  295SOL     OW 1783   5.303   0.562   4.028
  295SOL    HW1 1784   5.222   0.565   3.969
  295SOL    HW2 1785   5.279   0.595   4.119
  296SOL     OW 1786   3.112   1.446   2.663
  296SOL    HW1 1787   3.192   1.388   2.648
  296SOL    HW2 1788   3.108   1.473   2.760
  297SOL     OW 1789   1.670   3.676   3.227
  297SOL    HW1 1790   1.676   3.727   3.141
  297SOL    HW2 1791   1.701   3.734   3.302
  298SOL     OW 1792   6.256   5.540   0.799
  298SOL    HW1 1793   6.225   5.635   0.810
  298SOL    HW2 1794   6.312   5.514   0.877
  299SOL     OW 1795   6.214   2.797   5.089
  299SOL    HW1 1796   6.162   2.882   5.092
  299SOL    HW2 1797   6.298   2.812   5.037
  300SOL     OW 1798   6.120   0.805   3.247
  300SOL    HW1 1799   6.093   0.895   3.212
  300SOL    HW2 1800   6.219   0.802   3.258
  301SOL     OW 1801   5.604   3.455   6.574
  301SOL    HW1 1802   5.654   3.488   6.655
  301SOL    HW2 1803   5.604   3.526   6.504
  302SOL     OW 1804   0.826   0.244   3.940
  302SOL    HW1 1805   0.848   0.211   3.848
  302SOL    HW2 1806   0.773   0.175   3.989
  303SOL     OW 1807   5.192   0.887   3.389
  303SOL    HW1 1808   5.118   0.831   3.351
  303SOL    HW2 1809   5.249   0.831   3.450
  304SOL     OW 1810   2.197   0.057   3.547
  304SOL    HW1 1811   2.239   7.001   3.497
  304SOL    HW2 1812   2.254   0.080   3.626
  305SOL     OW 1813   1.177   3.891   0.371
  305SOL    HW1 1814   1.201   3.846   0.458
  305SOL    HW2 1815   1.143   3.983   0.390
  306SOL     OW 1816   2.241   1.186   4.115
  306SOL    HW1 1817   2.336   1.172   4.146
  306SOL    HW2 1818   2.178   1.151   4.185
  307SOL     OW 1819   4.147   0.057   1.037
  307SOL    HW1 1820   4.239   0.088   1.013
  307SOL    HW2 1821   4.116   0.104   1.120
  308SOL     OW 1822   0.813   6.032   3.170
  308SOL    HW1 1823   0.890   6.071   3.120
  308SOL    HW2 1824   0.847   5.981   3.249
  309SOL     OW 1825   3.659   4.722   5.348
  309SOL    HW1 1826   3.747   4.736   5.304
  309SOL    HW2 1827   3.586   4.751   5.286
  310SOL     OW 1828   6.929   6.502   5.518
  310SOL    HW1 1829   6.840   6.480   5.558
  310SOL    HW2 1830   6.951   6.435   5.447
  311SOL     OW 1831   0.673   6.232   1.716
  311SOL    HW1 1832   0.671   6.136   1.743
  311SOL    HW2 1833   0.597   6.281   1.760
  312SOL     OW 1834   4.987   1.870   5.218
  312SOL    HW1 1835   4.924   1.799   5.185
  312SOL    HW2 1836   4.936   1.941   5.266
  313SOL     OW 1837   1.781   3.886   1.893
  313SOL    HW1 1838   1.820   3.969   1.855
  313SOL    HW2 1839   1.812   3.875   1.988
  314SOL     OW 1840   3.537   5.763   0.340
  314SOL    HW1 1841   3.472   5.783   0.267
  314SOL    HW2 1842   3.489   5.765   0.428
  315SOL     OW 1843   0.714   2.270   3.491
  315SOL    HW1 1844   0.699   2.364   3.462
  315SOL    HW2 1845   0.754   2.269   3.582
  316SOL     OW 1846   2.371   2.807   3.786
  316SOL    HW1 1847   2.371   2.822   3.884
  316SOL    HW2 1848   2.436   2.734   3.763
  317SOL     OW 1849   6.839   1.918   6.952
  317SOL    HW1 1850   6.747   1.957   6.954
  317SOL    HW2 1851   6.867   1.893   0.024
  318SOL     OW 1852   2.245   3.901   1.136
  318SOL    HW1 1853   2.194   3.984   1.112
  318SOL    HW2 1854   2.278   3.909   1.230
  319SOL     OW 1855   1.754   6.166   0.805
  319SOL    HW1 1856   1.700   6.245   0.777
  319SOL    HW2 1857   1.701   6.083   0.791
  320SOL     OW 1858   6.315   3.123   0.617
  320SOL    HW1 1859   6.373   3.200   0.592
  320SOL    HW2 1860   6.371   3.039   0.618
  321SOL     OW 1861   2.218   2.872   1.337
  321SOL    HW1 1862   2.286   2.874   1.263
  321SOL    HW2 1863   2.153   2.947   1.324
  322SOL     OW 1864   3.652   3.085   5.386
  322SOL    HW1 1865   3.676   3.173   5.343
  322SOL    HW2 1866   3.601   3.029   5.320
  323SOL     OW 1867   6.932   4.330   0.998
  323SOL    HW1 1868   6.947   4.331   1.097
  323SOL    HW2 1869   6.996   4.393   0.954
  324SOL     OW 1870   1.128   3.020   4.826
  324SOL    HW1 1871   1.140   2.954   4.752
  324SOL    HW2 1872   1.218   3.043   4.865
  325SOL     OW 1873   2.127   2.963   2.104
  325SOL    HW1 1874   2.135   2.882   2.045
  325SOL    HW2 1875   2.155   3.044   2.053
  326SOL     OW 1876   1.624   5.456   6.254
  326SOL    HW1 1877   1.667   5.532   6.301
  326SOL    HW2 1878   1.693   5.387   6.232
  327SOL     OW 1879   6.557   4.630   5.992
  327SOL    HW1 1880   6.505   4.555   5.952
  327SOL    HW2 1881   6.633   4.654   5.931
  328SOL     OW 1882   4.007   4.961   2.421
  328SOL    HW1 1883   3.968   5.044   2.460
  328SOL    HW2 1884   3.943   4.921   2.355
  329SOL     OW 1885   3.534   3.560   3.224
  329SOL    HW1 1886   3.604   3.514   3.278
  329SOL    HW2 1887   3.573   3.643   3.185
  330SOL     OW 1888   3.496   6.790   1.841
  330SOL    HW1 1889   3.420   6.743   1.796
  330SOL    HW2 1890   3.545   6.846   1.774
  331SOL     OW 1891   4.940   5.104   5.726
  331SOL    HW1 1892   4.846   5.088   5.696
  331SOL    HW2 1893   5.003   5.060   5.662
  332SOL     OW 1894   3.383   2.064   3.295
  332SOL    HW1 1895   3.284   2.051   3.293
  332SOL    HW2 1896   3.421   2.018   3.375
  333SOL     OW 1897   4.011   5.582   6.327
  333SOL    HW1 1898   3.941   5.652   6.343
  333SOL    HW2 1899   4.085   5.621   6.273
  334SOL     OW 1900   4.091   0.310   2.398
  334SOL    HW1 1901   4.022   0.261   2.346
  334SOL    HW2 1902   4.161   0.246   2.431
  335SOL     OW 1903   3.044   6.603   3.529
  335SOL    HW1 1904   3.134   6.560   3.533
  335SOL    HW2 1905   3.009   6.599   3.436
  336SOL     OW 1906   3.448   0.956   3.900
  336SOL    HW1 1907   3.380   1.026   3.921
  336SOL    HW2 1908   3.532   1.000   3.867
  337SOL     OW 1909   6.833   4.198   1.395
  337SOL    HW1 1910   6.801   4.205   1.490
  337SOL    HW2 1911   6.916   4.141   1.393
  338SOL     OW 1912   3.122   2.541   1.476
  338SOL    HW1 1913   3.135   2.468   1.542
  338SOL    HW2 1914   3.211   2.578   1.449
  339SOL     OW 1915   4.590   6.354   2.734
  339SOL    HW1 1916   4.632   6.293   2.668
  339SOL    HW2 1917   4.565   6.303   2.816
  340SOL     OW 1918   5.008   3.750   4.617
  340SOL    HW1 1919   4.976   3.671   4.670
  340SOL    HW2 1920   5.107   3.746   4.608
  341SOL     OW 1921   5.157   5.781   4.451
  341SOL    HW1 1922   5.152   5.796   4.550
  341SOL    HW2 1923   5.064   5.782   4.412
  342SOL     OW 1924   5.848   4.926   0.907
  342SOL    HW1 1925   5.887   4.981   0.980
  342SOL    HW2 1926   5.872   4.967   0.818
  343SOL     OW 1927   3.455   0.235   2.057
  343SOL    HW1 1928   3.551   0.224   2.084
  343SOL    HW2 1929   3.423   0.326   2.083
  344SOL     OW 1930   2.484   4.621   0.755
  344SOL    HW1 1931   2.506   4.528   0.782
  344SOL    HW2 1932   2.566   4.678   0.763
  345SOL     OW 1933   0.897   0.504   4.852
  345SOL    HW1 1934   0.817   0.550   4.812
  345SOL    HW2 1935   0.872   0.411   4.876
  346SOL     OW 1936   1.136   0.213   3.058
  346SOL    HW1 1937   1.178   0.161   2.983
  346SOL    HW2 1938   1.114   0.305   3.026
  347SOL     OW 1939   5.114   0.047   6.300
  347SOL    HW1 1940   5.092   0.056   6.397
  347SOL    HW2 1941   5.057   0.110   6.247
  348SOL     OW 1942   3.532   5.318   1.394
  348SOL    HW1 1943   3.588   5.400   1.394
  348SOL    HW2 1944   3.435   5.344   1.388
  349SOL     OW 1945   0.732   4.979   2.361
  349SOL    HW1 1946   0.645   4.940   2.389
  349SOL    HW2 1947   0.792   4.989   2.441
  350SOL     OW 1948   4.280   3.327   1.477
  350SOL    HW1 1949   4.199   3.383   1.463
  350SOL    HW2 1950   4.333   3.362   1.554
  351SOL     OW 1951   2.939   1.731   0.296
  351SOL    HW1 1952   2.865   1.677   0.256
  351SOL    HW2 1953   2.957   1.811   0.237
  352SOL     OW 1954   3.089   1.040   6.268
  352SOL    HW1 1955   3.017   1.108   6.283
  352SOL    HW2 1956   3.165   1.083   6.219
  353SOL     OW 1957   2.026   6.182   0.751
  353SOL    HW1 1958   1.926   6.175   0.750
  353SOL    HW2 1959   2.064   6.109   0.807
  354SOL     OW 1960   4.348   1.485   0.697
  354SOL    HW1 1961   4.350   1.415   0.625
  354SOL    HW2 1962   4.413   1.557   0.673
  355SOL     OW 1963   6.818   3.183   2.795
  355SOL    HW1 1964   6.842   3.148   2.885
  355SOL    HW2 1965   6.723   3.215   2.796
  356SOL     OW 1966   4.278   5.268   3.406
  356SOL    HW1 1967   4.259   5.247   3.310
  356SOL    HW2 1968   4.339   5.347   3.411
  357SOL     OW 1969   6.903   5.788   5.068
  357SOL    HW1 1970   6.909   5.720   5.141
  357SOL    HW2 1971   6.872   5.875   5.106
  358SOL     OW 1972   5.208   0.454   1.520
  358SOL    HW1 1973   5.208   0.483   1.425
  358SOL    HW2 1974   5.207   0.354   1.525
  359SOL     OW 1975   1.361   1.736   2.021
  359SOL    HW1 1976   1.431   1.783   2.075
  359SOL    HW2 1977   1.271   1.752   2.061
  360SOL     OW 1978   4.028   6.923   0.063
  360SOL    HW1 1979   3.973   6.953   7.006
  360SOL    HW2 1980   4.043   7.000   0.125
  361SOL     OW 1981   4.512   6.743   2.275
  361SOL    HW1 1982   4.533   6.834   2.241
  361SOL    HW2 1983   4.465   6.750   2.363
  362SOL     OW 1984   3.253   3.286   0.607
  362SOL    HW1 1985   3.339   3.248   0.642
  362SOL    HW2 1986   3.190   3.300   0.684
  363SOL     OW 1987   4.455   4.621   4.257
  363SOL    HW1 1988   4.361   4.651   4.271
  363SOL    HW2 1989   4.471   4.537   4.309
  364SOL     OW 1990   0.964   5.584   5.822
  364SOL    HW1 1991   0.933   5.572   5.728
  364SOL    HW2 1992   0.989   5.680   5.837
  365SOL     OW 1993   4.713   6.745   1.764
  365SOL    HW1 1994   4.716   6.814   1.837
  365SOL    HW2 1995   4.799   6.746   1.714
  366SOL     OW 1996   5.756   0.801   6.899
  366SOL    HW1 1997   5.779   0.853   6.816
  366SOL    HW2 1998   5.734   0.707   6.874
  367SOL     OW 1999   5.300   2.606   1.748
  367SOL    HW1 2000   5.310   2.644   1.656
  367SOL    HW2 2001   5.337   2.513   1.750
  368SOL     OW 2002   0.957   4.892   5.061
  368SOL    HW1 2003   1.028   4.938   5.008
  368SOL    HW2 2004   0.870   4.939   5.048
  369SOL     OW 2005   0.883   3.937   1.691
  369SOL    HW1 2006   0.976   3.952   1.658
  369SOL    HW2 2007   0.818   3.983   1.630
  370SOL     OW 2008   3.241   1.426   5.664
  370SOL    HW1 2009   3.147   1.443   5.634
  370SOL    HW2 2010   3.286   1.363   5.601
  371SOL     OW 2011   3.515   2.647   0.274
  371SOL    HW1 2012   3.424   2.608   0.261
  371SOL    HW2 2013   3.576   2.613   0.202
  372SOL     OW 2014   0.284   6.201   6.353
  372SOL    HW1 2015   0.378   6.187   6.322
  372SOL    HW2 2016   0.222   6.141   6.302
  373SOL     OW 2017   6.914   6.869   0.326
  373SOL    HW1 2018   6.908   6.895   0.230
  373SOL    HW2 2019   6.829   6.892   0.372
  374SOL     OW 2020   3.405   0.596   1.558
  374SOL    HW1 2021   3.373   0.684   1.594
  374SOL    HW2 2022   3.439   0.540   1.633
  375SOL     OW 2023   6.652   4.696   3.158
  375SOL    HW1 2024   6.695   4.773   3.112
  375SOL    HW2 2025   6.722   4.634   3.193
  376SOL     OW 2026   2.061   2.807   3.915
  376SOL    HW1 2027   2.119   2.889   3.911
  376SOL    HW2 2028   1.998   2.815   3.992
  377SOL     OW 2029   5.037   1.998   3.398
  377SOL    HW1 2030   5.137   1.993   3.409
  377SOL    HW2 2031   4.997   2.041   3.479
  378SOL     OW 2032   5.103   2.964   4.907
  378SOL    HW1 2033   5.017   2.986   4.953
  378SOL    HW2 2034   5.086   2.949   4.810
  379SOL     OW 2035   6.334   3.449   0.976
  379SOL    HW1 2036   6.343   3.377   1.045
  379SOL    HW2 2037   6.386   3.530   1.006
  380SOL     OW 2038   1.221   1.893   1.246
  380SOL    HW1 2039   1.166   1.977   1.243
  380SOL    HW2 2040   1.318   1.917   1.254
  381SOL     OW 2041   3.839   3.345   1.440
  381SOL    HW1 2042   3.759   3.404   1.451
  381SOL    HW2 2043   3.811   3.255   1.408
  382SOL     OW 2044   2.789   5.802   0.469
  382SOL    HW1 2045   2.822   5.728   0.528
  382SOL    HW2 2046   2.825   5.889   0.502
  383SOL     OW 2047   6.366   2.629   0.129
  383SOL    HW1 2048   6.377   2.725   0.104
  383SOL    HW2 2049   6.277   2.597   0.097
  384SOL     OW 2050   1.575   5.606   4.904
  384SOL    HW1 2051   1.611   5.551   4.979
  384SOL    HW2 2052   1.491   5.652   4.935
  385SOL     OW 2053   4.853   5.864   0.681
  385SOL    HW1 2054   4.883   5.829   0.769
  385SOL    HW2 2055   4.754   5.869   0.679
  386SOL     OW 2056   3.274   6.235   5.997
  386SOL    HW1 2057   3.177   6.246   5.972
  386SOL    HW2 2058   3.315   6.326   6.010
  387SOL     OW 2059   0.163   0.689   5.413
  387SOL    HW1 2060   0.226   0.612   5.421
  387SOL    HW2 2061   0.111   0.680   5.328
  388SOL     OW 2062   6.282   2.517   5.181
  388SOL    HW1 2063   6.269   2.602   5.130
  388SOL    HW2 2064   6.230   2.443   5.138
  389SOL     OW 2065   4.247   4.711   1.401
  389SOL    HW1 2066   4.227   4.803   1.367
  389SOL    HW2 2067   4.343   4.689   1.384
  390SOL     OW 2068   3.298   1.695   0.381
  390SOL    HW1 2069   3.278   1.617   0.440
  390SOL    HW2 2070   3.392   1.687   0.347
  391SOL     OW 2071   3.301   4.552   5.594
  391SOL    HW1 2072   3.219   4.495   5.602
  391SOL    HW2 2073   3.310   4.608   5.676
  392SOL     OW 2074   1.339   3.715   1.911
  392SOL    HW1 2075   1.251   3.732   1.866
  392SOL    HW2 2076   1.413   3.732   1.846
  393SOL     OW 2077   0.876   4.427   1.681
  393SOL    HW1 2078   0.952   4.420   1.745
  393SOL    HW2 2079   0.892   4.367   1.603
  394SOL     OW 2080   0.090   1.104   6.436
  394SOL    HW1 2081   0.068   1.196   6.469
  394SOL    HW2 2082   0.110   1.045   6.515
  395SOL     OW 2083   5.421   4.673   1.430
  395SOL    HW1 2084   5.518   4.662   1.451
  395SOL    HW2 2085   5.409   4.750   1.366
  396SOL     OW 2086   2.058   0.805   1.826
  396SOL    HW1 2087   2.070   0.896   1.786
  396SOL    HW2 2088   2.021   0.813   1.918
  397SOL     OW 2089   4.549   1.763   5.115
  397SOL    HW1 2090   4.559   1.848   5.063
  397SOL    HW2 2091   4.629   1.705   5.099
  398SOL     OW 2092   1.789   1.245   4.271
  398SOL    HW1 2093   1.720   1.183   4.232
  398SOL    HW2 2094   1.835   1.293   4.198
  399SOL     OW 2095   5.961   6.189   3.956
  399SOL    HW1 2096   5.946   6.284   3.983
  399SOL    HW2 2097   5.883   6.133   3.984
  400SOL     OW 2098   6.348   0.455   4.607
  400SOL    HW1 2099   6.277   0.524   4.620
  400SOL    HW2 2100   6.376   0.418   4.695
  401SOL     OW 2101   6.902   5.150   6.001
  401SOL    HW1 2102   6.980   5.191   5.954
  401SOL    HW2 2103   6.828   5.136   5.935
  402SOL     OW 2104   6.398   0.376   2.586
  402SOL    HW1 2105   6.416   0.292   2.638
  402SOL    HW2 2106   6.306   0.409   2.607
  403SOL     OW 2107   2.372   1.286   5.281
  403SOL    HW1 2108   2.345   1.382   5.292
  403SOL    HW2 2109   2.290   1.229   5.279
  404SOL     OW 2110   4.124   5.597   3.601
  404SOL    HW1 2111   4.075   5.616   3.516
  404SOL    HW2 2112   4.217   5.633   3.594
  405SOL     OW 2113   2.565   4.767   4.212
  405SOL    HW1 2114   2.501   4.708   4.262
  405SOL    HW2 2115   2.633   4.804   4.275
  406SOL     OW 2116   0.626   5.607   5.676
  406SOL    HW1 2117   0.570   5.527   5.699
  406SOL    HW2 2118   0.634   5.666   5.756
  407SOL     OW 2119   1.922   3.164   4.557
  407SOL    HW1 2120   1.984   3.119   4.622
  407SOL    HW2 2121   1.831   3.172   4.598
  408SOL     OW 2122   2.636   1.508   3.443
  408SOL    HW1 2123   2.683   1.437   3.496
  408SOL    HW2 2124   2.549   1.529   3.486
  409SOL     OW 2125   0.596   3.688   2.806
  409SOL    HW1 2126   0.685   3.706   2.765
  409SOL    HW2 2127   0.593   3.595   2.841
  410SOL     OW 2128   1.826   1.497   1.653
  410SOL    HW1 2129   1.854   1.481   1.558
  410SOL    HW2 2130   1.728   1.477   1.662
  411SOL     OW 2131   0.776   3.050   1.385
  411SOL    HW1 2132   0.747   3.092   1.471
  411SOL    HW2 2133   0.874   3.030   1.389
  412SOL     OW 2134   1.853   5.550   2.125
  412SOL    HW1 2135   1.795   5.625   2.157
  412SOL    HW2 2136   1.847   5.473   2.190
  413SOL     OW 2137   5.527   5.810   2.292
  413SOL    HW1 2138   5.489   5.886   2.343
  413SOL    HW2 2139   5.508   5.724   2.341
  414SOL     OW 2140   2.155   6.316   3.412
  414SOL    HW1 2141   2.206   6.399   3.390
  414SOL    HW2 2142   2.112   6.280   3.330
  415SOL     OW 2143   6.216   1.078   0.293
  415SOL    HW1 2144   6.134   1.103   0.242
  415SOL    HW2 2145   6.275   1.157   0.303
  416SOL     OW 2146   5.061   3.106   4.621
  416SOL    HW1 2147   5.024   3.013   4.610
  416SOL    HW2 2148   5.152   3.111   4.582
  417SOL     OW 2149   2.110   2.035   6.200
  417SOL    HW1 2150   2.104   1.958   6.136
  417SOL    HW2 2151   2.020   2.078   6.209
  418SOL     OW 2152   3.951   6.527   4.627
  418SOL    HW1 2153   4.013   6.449   4.638
  418SOL    HW2 2154   3.934   6.544   4.530
  419SOL     OW 2155   0.341   0.305   0.820
  419SOL    HW1 2156   0.354   0.208   0.799
  419SOL    HW2 2157   0.248   0.320   0.852
  420SOL     OW 2158   4.804   1.044   6.608
  420SOL    HW1 2159   4.789   0.945   6.600
  420SOL    HW2 2160   4.715   1.090   6.618
  421SOL     OW 2161   5.435   3.303   2.617
  421SOL    HW1 2162   5.389   3.386   2.587
  421SOL    HW2 2163   5.420   3.290   2.714
  422SOL     OW 2164   4.907   3.217   1.858
  422SOL    HW1 2165   4.972   3.155   1.815
  422SOL    HW2 2166   4.854   3.168   1.927
  423SOL     OW 2167   3.636   1.187   6.404
  423SOL    HW1 2168   3.565   1.246   6.441
  423SOL    HW2 2169   3.637   1.100   6.454
  424SOL     OW 2170   0.922   3.463   3.377
  424SOL    HW1 2171   1.002   3.505   3.421
  424SOL    HW2 2172   0.839   3.502   3.415
  425SOL     OW 2173   2.940   0.725   5.931
  425SOL    HW1 2174   2.911   0.774   5.848
  425SOL    HW2 2175   2.922   0.628   5.920
  426SOL     OW 2176   2.660   2.134   4.166
  426SOL    HW1 2177   2.682   2.074   4.242
  426SOL    HW2 2178   2.665   2.229   4.195
  427SOL     OW 2179   3.855   1.983   3.233
  427SOL    HW1 2180   3.870   2.050   3.160
  427SOL    HW2 2181   3.765   1.940   3.221
  428SOL     OW 2182   2.815   2.194   5.866
  428SOL    HW1 2183   2.750   2.224   5.935
  428SOL    HW2 2184   2.769   2.133   5.801
  429SOL     OW 2185   0.735   5.746   4.325
  429SOL    HW1 2186   0.829   5.765   4.353
  429SOL    HW2 2187   0.735   5.710   4.231
  430SOL     OW 2188   1.371   0.144   4.001
  430SOL    HW1 2189   1.456   0.167   3.953
  430SOL    HW2 2190   1.388   0.141   4.099
  431SOL     OW 2191   2.654   2.026   1.511
  431SOL    HW1 2192   2.653   1.940   1.561
  431SOL    HW2 2193   2.590   2.090   1.552
  432SOL     OW 2194   4.788   2.361   2.345
  432SOL    HW1 2195   4.700   2.333   2.307
  432SOL    HW2 2196   4.786   2.459   2.364
  433SOL     OW 2197   2.149   5.114   0.808
  433SOL    HW1 2198   2.119   5.080   0.897
  433SOL    HW2 2199   2.199   5.041   0.760
  434SOL     OW 2200   4.257   5.842   3.783
  434SOL    HW1 2201   4.258   5.799   3.874
  434SOL    HW2 2202   4.322   5.794   3.724
  435SOL     OW 2203   3.550   1.697   5.957
  435SOL    HW1 2204   3.464   1.727   5.917
  435SOL    HW2 2205   3.579   1.612   5.913
  436SOL     OW 2206   4.548   0.236   2.813
  436SOL    HW1 2207   4.477   0.220   2.882
  436SOL    HW2 2208   4.539   0.169   2.740
  437SOL     OW 2209   6.496   0.856   5.026
  437SOL    HW1 2210   6.543   0.942   5.044
  437SOL    HW2 2211   6.552   0.798   4.967
  438SOL     OW 2212   0.308   4.312   2.793
  438SOL    HW1 2213   0.215   4.281   2.815
  438SOL    HW2 2214   0.327   4.294   2.696
  439SOL     OW 2215   6.964   0.341   4.530
  439SOL    HW1 2216   0.031   0.341   4.481
  439SOL    HW2 2217   6.916   0.428   4.514
  440SOL     OW 2218   4.057   1.217   0.649
  440SOL    HW1 2219   4.051   1.167   0.736
  440SOL    HW2 2220   4.125   1.175   0.591
  441SOL     OW 2221   0.233   3.920   2.553
  441SOL    HW1 2222   0.216   3.866   2.470
  441SOL    HW2 2223   0.317   3.888   2.597
  442SOL     OW 2224   5.280   3.071   5.584
  442SOL    HW1 2225   5.310   2.977   5.602
  442SOL    HW2 2226   5.352   3.135   5.610
  443SOL     OW 2227   4.921   3.486   2.026
  443SOL    HW1 2228   4.911   3.407   1.965
  443SOL    HW2 2229   4.918   3.456   2.121
  444SOL     OW 2230   3.998   0.676   1.756
  444SOL    HW1 2231   3.919   0.616   1.747
  444SOL    HW2 2232   3.977   0.765   1.715
  445SOL     OW 2233   1.612   5.929   2.355
  445SOL    HW1 2234   1.610   5.936   2.454
  445SOL    HW2 2235   1.585   5.837   2.326
  446SOL     OW 2236   5.293   0.020   1.549
  446SOL    HW1 2237   5.193   0.023   1.548
  446SOL    HW2 2238   5.328   0.096   1.494
  447SOL     OW 2239   5.742   4.871   1.388
  447SOL    HW1 2240   5.802   4.945   1.358
  447SOL    HW2 2241   5.758   4.852   1.485
  448SOL     OW 2242   2.421   0.349   3.089
  448SOL    HW1 2243   2.429   0.251   3.107
  448SOL    HW2 2244   2.470   0.401   3.160
  449SOL     OW 2245   1.863   4.218   4.631
  449SOL    HW1 2246   1.953   4.252   4.604
  449SOL    HW2 2247   1.874   4.138   4.690
  450SOL     OW 2248   0.690   4.658   3.699
  450SOL    HW1 2249   0.604   4.647   3.749
  450SOL    HW2 2250   0.691   4.599   3.618
  451SOL     OW 2251   0.727   1.871   2.045
  451SOL    HW1 2252   0.769   1.781   2.034
  451SOL    HW2 2253   0.763   1.915   2.127
  452SOL     OW 2254   4.499   5.520   2.075
  452SOL    HW1 2255   4.440   5.485   2.003
  452SOL    HW2 2256   4.585   5.552   2.035
  453SOL     OW 2257   3.262   0.578   5.971
  453SOL    HW1 2258   3.223   0.660   6.013
  453SOL    HW2 2259   3.340   0.546   6.025
  454SOL     OW 2260   6.608   3.092   6.374
  454SOL    HW1 2261   6.594   3.083   6.275
  454SOL    HW2 2262   6.573   3.011   6.420
  455SOL     OW 2263   6.182   4.654   6.095
  455SOL    HW1 2264   6.209   4.686   6.004
  455SOL    HW2 2265   6.223   4.712   6.165
  456SOL     OW 2266   2.672   0.815   2.684
  456SOL    HW1 2267   2.741   0.884   2.660
  456SOL    HW2 2268   2.638   0.832   2.776
  457SOL     OW 2269   2.811   6.983   0.498
  457SOL    HW1 2270   2.828   0.057   0.469
  457SOL    HW2 2271   2.770   6.931   0.422
  458SOL     OW 2272   3.187   1.578   3.426
  458SOL    HW1 2273   3.216   1.553   3.334
  458SOL    HW2 2274   3.110   1.642   3.421
  459SOL     OW 2275   3.520   6.707   3.697
  459SOL    HW1 2276   3.578   6.683   3.620
  459SOL    HW2 2277   3.497   6.805   3.693
  460SOL     OW 2278   1.014   1.346   6.198
  460SOL    HW1 2279   1.083   1.279   6.171
  460SOL    HW2 2280   0.947   1.357   6.125
  461SOL     OW 2281   0.841   4.878   5.305
  461SOL    HW1 2282   0.916   4.855   5.367
  461SOL    HW2 2283   0.870   4.863   5.210
  462SOL     OW 2284   3.369   4.187   4.569
  462SOL    HW1 2285   3.393   4.205   4.474
  462SOL    HW2 2286   3.309   4.106   4.573
  463SOL     OW 2287   5.284   6.597   3.240
  463SOL    HW1 2288   5.343   6.519   3.263
  463SOL    HW2 2289   5.212   6.606   3.309
  464SOL     OW 2290   4.054   4.906   6.376
  464SOL    HW1 2291   3.954   4.894   6.381
  464SOL    HW2 2292   4.082   4.979   6.438
  465SOL     OW 2293   0.657   3.781   1.422
  465SOL    HW1 2294   0.588   3.730   1.474
  465SOL    HW2 2295   0.672   3.737   1.334
  466SOL     OW 2296   3.964   5.644   4.647
  466SOL    HW1 2297   3.896   5.667   4.577
  466SOL    HW2 2298   3.938   5.685   4.734
  467SOL     OW 2299   5.881   6.883   1.759
  467SOL    HW1 2300   5.888   6.978   1.788
  467SOL    HW2 2301   5.784   6.860   1.746
  468SOL     OW 2302   3.076   6.712   6.503
  468SOL    HW1 2303   3.020   6.659   6.566
  468SOL    HW2 2304   3.144   6.653   6.460
  469SOL     OW 2305   3.530   5.156   5.080
  469SOL    HW1 2306   3.496   5.090   5.014
  469SOL    HW2 2307   3.455   5.184   5.141
  470SOL     OW 2308   2.300   4.427   2.627
  470SOL    HW1 2309   2.329   4.360   2.695
  470SOL    HW2 2310   2.208   4.460   2.650
  471SOL     OW 2311   1.440   2.226   4.307
  471SOL    HW1 2312   1.369   2.199   4.242
  471SOL    HW2 2313   1.530   2.209   4.267
  472SOL     OW 2314   5.667   3.628   6.356
  472SOL    HW1 2315   5.646   3.720   6.388
  472SOL    HW2 2316   5.743   3.631   6.292
  473SOL     OW 2317   6.198   2.823   2.148
  473SOL    HW1 2318   6.147   2.899   2.108
  473SOL    HW2 2319   6.279   2.804   2.092
  474SOL     OW 2320   4.581   6.584   4.033
  474SOL    HW1 2321   4.607   6.583   4.129
  474SOL    HW2 2322   4.483   6.604   4.025
  475SOL     OW 2323   5.846   1.724   0.337
  475SOL    HW1 2324   5.817   1.786   0.409
  475SOL    HW2 2325   5.807   1.753   0.249
  476SOL     OW 2326   1.313   4.681   1.367
  476SOL    HW1 2327   1.310   4.780   1.376
  476SOL    HW2 2328   1.238   4.641   1.420
  477SOL     OW 2329   1.132   4.579   3.526
  477SOL    HW1 2330   1.115   4.532   3.613
  477SOL    HW2 2331   1.167   4.513   3.460
  478SOL     OW 2332   5.030   5.632   2.246
  478SOL    HW1 2333   5.112   5.606   2.298
  478SOL    HW2 2334   4.964   5.557   2.250
  479SOL     OW 2335   3.027   3.874   3.697
  479SOL    HW1 2336   3.032   3.895   3.599
  479SOL    HW2 2337   3.003   3.778   3.709
  480SOL     OW 2338   1.231   0.753   3.027
  480SOL    HW1 2339   1.135   0.726   3.037
  480SOL    HW2 2340   1.290   0.673   3.035
  481SOL     OW 2341   0.038   6.954   0.717
  481SOL    HW1 2342   0.020   6.880   0.652
  481SOL    HW2 2343   0.133   6.983   0.709
  482SOL     OW 2344   3.928   4.959   1.761
  482SOL    HW1 2345   3.831   4.947   1.781
  482SOL    HW2 2346   3.961   4.881   1.708
  483SOL     OW 2347   5.727   2.153   4.244
  483SOL    HW1 2348   5.686   2.240   4.270
  483SOL    HW2 2349   5.706   2.134   4.148
  484SOL     OW 2350   2.425   4.443   4.053
  484SOL    HW1 2351   2.406   4.347   4.076
  484SOL    HW2 2352   2.431   4.452   3.954
  485SOL     OW 2353   5.692   3.303   1.444
  485SOL    HW1 2354   5.775   3.253   1.418
  485SOL    HW2 2355   5.632   3.313   1.364
  486SOL     OW 2356   5.928   6.222   6.038
  486SOL    HW1 2357   5.865   6.187   6.107
  486SOL    HW2 2358   6.007   6.263   6.083
  487SOL     OW 2359   6.915   6.650   5.882
  487SOL    HW1 2360   6.903   6.553   5.902
  487SOL    HW2 2361   7.013   6.672   5.883
  488SOL     OW 2362   1.987   5.611   3.195
  488SOL    HW1 2363   2.064   5.675   3.194
  488SOL    HW2 2364   1.963   5.590   3.290
  489SOL     OW 2365   1.320   5.822   6.374
  489SOL    HW1 2366   1.308   5.911   6.417
  489SOL    HW2 2367   1.251   5.809   6.304
  490SOL     OW 2368   0.983   4.250   4.184
  490SOL    HW1 2369   0.958   4.201   4.100
  490SOL    HW2 2370   1.044   4.193   4.239
  491SOL     OW 2371   0.292   2.836   0.758
  491SOL    HW1 2372   0.305   2.809   0.854
  491SOL    HW2 2373   0.310   2.757   0.699
  492SOL     OW 2374   1.145   2.456   5.557
  492SOL    HW1 2375   1.064   2.402   5.532
  492SOL    HW2 2376   1.153   2.460   5.656
  493SOL     OW 2377   2.285   5.586   4.449
  493SOL    HW1 2378   2.345   5.599   4.370
  493SOL    HW2 2379   2.191   5.611   4.424
  494SOL     OW 2380   2.517   6.731   4.638
  494SOL    HW1 2381   2.501   6.732   4.539
  494SOL    HW2 2382   2.614   6.716   4.656
  495SOL     OW 2383   3.788   3.966   6.142
  495SOL    HW1 2384   3.870   4.022   6.134
  495SOL    HW2 2385   3.750   3.951   6.051
  496SOL     OW 2386   5.010   1.387   3.216
  496SOL    HW1 2387   5.076   1.316   3.242
  496SOL    HW2 2388   5.059   1.468   3.186
  497SOL     OW 2389   4.788   1.704   0.087
  497SOL    HW1 2390   4.749   1.759   0.162
  497SOL    HW2 2391   4.786   1.758   0.003
  498SOL     OW 2392   0.622   6.980   1.506
  498SOL    HW1 2393   0.645   6.990   1.603
  498SOL    HW2 2394   0.535   0.006   1.488
  499SOL     OW 2395   2.718   5.736   0.204
  499SOL    HW1 2396   2.736   5.770   0.296
  499SOL    HW2 2397   2.802   5.697   0.166
  500SOL     OW 2398   5.572   2.383   0.325
  500SOL    HW1 2399   5.633   2.333   0.263
  500SOL    HW2 2400   5.585   2.481   0.313
  501SOL     OW 2401   1.292   1.393   4.686
  501SOL    HW1 2402   1.225   1.326   4.653
  501SOL    HW2 2403   1.260   1.433   4.771
  502SOL     OW 2404   2.239   4.948   6.886
  502SOL    HW1 2405   2.281   5.000   6.812
  502SOL    HW2 2406   2.309   4.917   6.949
  503SOL     OW 2407   4.341   4.874   0.513
  503SOL    HW1 2408   4.245   4.853   0.529
  503SOL    HW2 2409   4.382   4.802   0.456
  504SOL     OW 2410   6.218   6.109   1.934
  504SOL    HW1 2411   6.182   6.015   1.935
  504SOL    HW2 2412   6.178   6.159   1.857
  505SOL     OW 2413   4.780   5.926   5.059
  505SOL    HW1 2414   4.727   6.007   5.087
  505SOL    HW2 2415   4.806   5.935   4.962
  506SOL     OW 2416   4.144   5.341   2.056
  506SOL    HW1 2417   4.058   5.299   2.028
  506SOL    HW2 2418   4.142   5.439   2.036
  507SOL     OW 2419   2.551   1.007   0.968
  507SOL    HW1 2420   2.621   0.976   1.032
  507SOL    HW2 2421   2.470   1.037   1.018
  508SOL     OW 2422   6.979   4.014   3.548
  508SOL    HW1 2423   6.973   4.113   3.554
  508SOL    HW2 2424   0.005   3.978   3.630
  509SOL     OW 2425   4.803   0.065   6.207
  509SOL    HW1 2426   4.864   0.142   6.189
  509SOL    HW2 2427   4.783   0.060   6.305
  510SOL     OW 2428   6.558   3.839   6.804
  510SOL    HW1 2429   6.603   3.804   6.886
  510SOL    HW2 2430   6.538   3.936   6.817
  511SOL     OW 2431   0.609   2.416   0.502
  511SOL    HW1 2432   0.583   2.320   0.505
  511SOL    HW2 2433   0.587   2.459   0.590
  512SOL     OW 2434   0.020   2.043   4.639
  512SOL    HW1 2435   0.027   2.091   4.726
  512SOL    HW2 2436   0.073   1.958   4.643
  513SOL     OW 2437   5.207   1.180   2.939
  513SOL    HW1 2438   5.110   1.203   2.943
  513SOL    HW2 2439   5.219   1.093   2.891
  514SOL     OW 2440   6.109   0.273   4.735
  514SOL    HW1 2441   6.149   0.359   4.766
  514SOL    HW2 2442   6.112   0.269   4.635
  515SOL     OW 2443   3.826   0.211   5.698
  515SOL    HW1 2444   3.771   0.294   5.685
  515SOL    HW2 2445   3.782   0.135   5.651
  516SOL     OW 2446   2.526   5.858   2.821
  516SOL    HW1 2447   2.609   5.901   2.857
  516SOL    HW2 2448   2.447   5.888   2.874
  517SOL     OW 2449   3.563   5.871   1.466
  517SOL    HW1 2450   3.586   5.774   1.464
  517SOL    HW2 2451   3.494   5.890   1.396
  518SOL     OW 2452   2.145   3.817   3.968
  518SOL    HW1 2453   2.113   3.725   3.992
  518SOL    HW2 2454   2.193   3.813   3.880
  519SOL     OW 2455   0.220   0.033   1.885
  519SOL    HW1 2456   0.187   6.996   1.960
  519SOL    HW2 2457   0.315   0.057   1.901
  520SOL     OW 2458   1.783   4.144   0.817
  520SOL    HW1 2459   1.758   4.200   0.896
  520SOL    HW2 2460   1.839   4.067   0.847
  521SOL     OW 2461   6.492   6.458   4.937
  521SOL    HW1 2462   6.477   6.359   4.936
  521SOL    HW2 2463   6.526   6.487   4.848
  522SOL     OW 2464   3.945   4.366   1.498
  522SOL    HW1 2465   4.044   4.360   1.484
  522SOL    HW2 2466   3.914   4.459   1.477
  523SOL     OW 2467   0.877   6.939   0.865
  523SOL    HW1 2468   0.935   7.010   0.826
  523SOL    HW2 2469   0.914   6.849   0.842
  524SOL     OW 2470   0.093   2.479   1.450
  524SOL    HW1 2471   0.101   2.429   1.364
  524SOL    HW2 2472   0.033   2.558   1.438
  525SOL     OW 2473   0.788   3.560   5.385
  525SOL    HW1 2474   0.887   3.572   5.398
  525SOL    HW2 2475   0.758   3.477   5.431
  526SOL     OW 2476   3.173   0.176   3.693
  526SOL    HW1 2477   3.160   0.084   3.656
  526SOL    HW2 2478   3.256   0.178   3.748
  527SOL     OW 2479   0.139   0.884   0.457
  527SOL    HW1 2480   0.154   0.939   0.539
  527SOL    HW2 2481   0.214   0.819   0.446
  528SOL     OW 2482   0.071   3.344   4.009
  528SOL    HW1 2483   0.129   3.328   4.089
  528SOL    HW2 2484   0.120   3.317   3.926
  529SOL     OW 2485   1.614   0.645   0.306
  529SOL    HW1 2486   1.541   0.704   0.338
  529SOL    HW2 2487   1.702   0.677   0.342
  530SOL     OW 2488   3.619   4.029   1.211
  530SOL    HW1 2489   3.632   4.052   1.115
  530SOL    HW2 2490   3.697   4.060   1.264
  531SOL     OW 2491   0.890   0.267   0.751
  531SOL    HW1 2492   0.909   0.363   0.730
  531SOL    HW2 2493   0.882   0.215   0.667
  532SOL     OW 2494   1.258   2.159   6.696
  532SOL    HW1 2495   1.166   2.120   6.682
  532SOL    HW2 2496   1.292   2.131   6.786
  533SOL     OW 2497   3.688   0.045   4.552
  533SOL    HW1 2498   3.778   0.008   4.575
  533SOL    HW2 2499   3.685   0.143   4.574
  534SOL     OW 2500   1.912   4.953   1.500
  534SOL    HW1 2501   1.902   4.904   1.586
  534SOL    HW2 2502   1.938   5.048   1.519
  535SOL     OW 2503   5.030   3.286   3.972
  535SOL    HW1 2504   4.959   3.290   4.042
  535SOL    HW2 2505   5.037   3.193   3.937
  536SOL     OW 2506   6.864   0.242   1.875
  536SOL    HW1 2507   6.869   0.252   1.975
  536SOL    HW2 2508   6.784   0.291   1.841
  537SOL     OW 2509   3.806   2.112   4.163
  537SOL    HW1 2510   3.720   2.093   4.211
  537SOL    HW2 2511   3.867   2.163   4.224
  538SOL     OW 2512   3.479   4.842   5.169
  538SOL    HW1 2513   3.503   4.891   5.085
  538SOL    HW2 2514   3.379   4.837   5.177
  539SOL     OW 2515   1.108   6.638   0.190
  539SOL    HW1 2516   1.018   6.606   0.218
  539SOL    HW2 2517   1.097   6.722   0.137
  540SOL     OW 2518   0.689   0.036   4.048
  540SOL    HW1 2519   0.690   6.981   3.983
  540SOL    HW2 2520   0.692   7.020   4.141
  541SOL     OW 2521   4.356   6.206   3.982
  541SOL    HW1 2522   4.307   6.133   3.935
  541SOL    HW2 2523   4.325   6.295   3.948
  542SOL     OW 2524   3.441   0.375   5.634
  542SOL    HW1 2525   3.449   0.413   5.541
  542SOL    HW2 2526   3.362   0.415   5.679
  543SOL     OW 2527   6.306   2.150   4.230
  543SOL    HW1 2528   6.406   2.147   4.222
  543SOL    HW2 2529   6.270   2.226   4.175
  544SOL     OW 2530   1.853   3.663   1.202
  544SOL    HW1 2531   1.949   3.651   1.179
  544SOL    HW2 2532   1.840   3.749   1.250
  545SOL     OW 2533   5.385   0.492   1.099
  545SOL    HW1 2534   5.466   0.456   1.146
  545SOL    HW2 2535   5.383   0.592   1.108
  546SOL     OW 2536   0.061   4.176   2.858
  546SOL    HW1 2537   0.020   4.130   2.937
  546SOL    HW2 2538   7.011   4.198   2.791
  547SOL     OW 2539   5.442   0.747   6.067
  547SOL    HW1 2540   5.535   0.781   6.057
  547SOL    HW2 2541   5.442   0.663   6.121
  548SOL     OW 2542   3.681   2.107   6.812
  548SOL    HW1 2543   3.586   2.078   6.822
  548SOL    HW2 2544   3.704   2.173   6.883
  549SOL     OW 2545   5.810   1.463   1.924
  549SOL    HW1 2546   5.783   1.552   1.888
  549SOL    HW2 2547   5.907   1.447   1.904
  550SOL     OW 2548   0.050   5.498   3.232
  550SOL    HW1 2549   0.022   5.425   3.295
  550SOL    HW2 2550   7.015   5.580   3.250
  551SOL     OW 2551   6.346   0.996   0.800
  551SOL    HW1 2552   6.366   1.037   0.889
  551SOL    HW2 2553   6.249   0.972   0.797
  552SOL     OW 2554   6.882   5.211   5.724
  552SOL    HW1 2555   6.796   5.257   5.748
  552SOL    HW2 2556   6.958   5.273   5.742
  553SOL     OW 2557   2.439   1.266   0.142
  553SOL    HW1 2558   2.372   1.322   0.192
  553SOL    HW2 2559   2.522   1.320   0.129
  554SOL     OW 2560   5.296   6.257   1.323
  554SOL    HW1 2561   5.317   6.261   1.225
  554SOL    HW2 2562   5.366   6.204   1.370
  555SOL     OW 2563   1.278   4.025   5.754
  555SOL    HW1 2564   1.340   4.025   5.832
  555SOL    HW2 2565   1.329   4.053   5.672
  556SOL     OW 2566   5.359   0.235   4.410
  556SOL    HW1 2567   5.428   0.210   4.342
  556SOL    HW2 2568   5.310   0.153   4.440
  557SOL     OW 2569   6.754   4.328   6.583
  557SOL    HW1 2570   6.801   4.413   6.561
  557SOL    HW2 2571   6.657   4.347   6.600
  558SOL     OW 2572   3.058   3.855   2.329
  558SOL    HW1 2573   3.031   3.911   2.251
  558SOL    HW2 2574   3.150   3.818   2.313
  559SOL     OW 2575   6.406   6.780   5.513
  559SOL    HW1 2576   6.386   6.705   5.577
  559SOL    HW2 2577   6.324   6.800   5.459
  560SOL     OW 2578   6.063   3.074   3.914
  560SOL    HW1 2579   6.129   3.103   3.983
  560SOL    HW2 2580   6.015   3.154   3.879
  561SOL     OW 2581   0.904   3.079   0.291
  561SOL    HW1 2582   0.992   3.033   0.280
  561SOL    HW2 2583   0.849   3.066   0.209
  562SOL     OW 2584   4.131   6.752   5.331
  562SOL    HW1 2585   4.138   6.819   5.257
  562SOL    HW2 2586   4.106   6.797   5.416
  563SOL     OW 2587   1.738   1.395   4.571
  563SOL    HW1 2588   1.832   1.423   4.592
  563SOL    HW2 2589   1.736   1.340   4.488
  564SOL     OW 2590   6.961   1.618   5.498
  564SOL    HW1 2591   6.997   1.710   5.482
  564SOL    HW2 2592   6.873   1.608   5.450
  565SOL     OW 2593   3.584   3.393   3.602
  565SOL    HW1 2594   3.634   3.373   3.518
  565SOL    HW2 2595   3.575   3.492   3.614
  566SOL     OW 2596   3.378   0.133   3.251
  566SOL    HW1 2597   3.353   0.177   3.338
  566SOL    HW2 2598   3.473   0.104   3.255
  567SOL     OW 2599   2.201   2.877   5.898
  567SOL    HW1 2600   2.270   2.809   5.921
  567SOL    HW2 2601   2.245   2.963   5.875
  568SOL     OW 2602   6.864   6.666   0.106
  568SOL    HW1 2603   6.925   6.664   0.026
  568SOL    HW2 2604   6.919   6.678   0.189
  569SOL     OW 2605   6.112   2.266   0.461
  569SOL    HW1 2606   6.151   2.351   0.425
  569SOL    HW2 2607   6.057   2.286   0.541
  570SOL     OW 2608   2.427   0.214   6.061
  570SOL    HW1 2609   2.445   0.266   5.978
  570SOL    HW2 2610   2.398   0.276   6.134
  571SOL     OW 2611   2.277   5.034   2.209
  571SOL    HW1 2612   2.332   5.091   2.270
  571SOL    HW2 2613   2.195   5.085   2.181
  572SOL     OW 2614   2.912   0.122   4.033
  572SOL    HW1 2615   2.901   0.151   3.938
  572SOL    HW2 2616   2.850   0.175   4.091
  573SOL     OW 2617   0.036   1.010   5.177
  573SOL    HW1 2618   0.100   0.955   5.231
  573SOL    HW2 2619   0.071   1.103   5.169
  574SOL     OW 2620   2.359   2.508   5.727
  574SOL    HW1 2621   2.324   2.602   5.721
  574SOL    HW2 2622   2.379   2.487   5.823
  575SOL     OW 2623   3.807   2.739   0.167
  575SOL    HW1 2624   3.847   2.818   0.214
  575SOL    HW2 2625   3.769   2.768   0.080
  576SOL     OW 2626   2.281   2.919   3.211
  576SOL    HW1 2627   2.277   2.904   3.112
  576SOL    HW2 2628   2.366   2.880   3.247
  577SOL     OW 2629   1.062   1.487   1.889
  577SOL    HW1 2630   1.139   1.472   1.951
  577SOL    HW2 2631   1.032   1.399   1.851
  578SOL     OW 2632   2.211   6.306   6.823
  578SOL    HW1 2633   2.210   6.305   6.923
  578SOL    HW2 2634   2.300   6.274   6.790
  579SOL     OW 2635   2.196   4.389   1.867
  579SOL    HW1 2636   2.264   4.393   1.940
  579SOL    HW2 2637   2.227   4.327   1.795
  580SOL     OW 2638   4.450   5.645   4.591
  580SOL    HW1 2639   4.434   5.673   4.496
  580SOL    HW2 2640   4.428   5.548   4.601
  581SOL     OW 2641   1.844   2.624   4.529
  581SOL    HW1 2642   1.768   2.639   4.591
  581SOL    HW2 2643   1.920   2.685   4.554
  582SOL     OW 2644   5.543   5.729   3.860
  582SOL    HW1 2645   5.480   5.771   3.925
  582SOL    HW2 2646   5.492   5.674   3.794
  583SOL     OW 2647   4.556   5.707   5.727
  583SOL    HW1 2648   4.590   5.799   5.706
  583SOL    HW2 2649   4.554   5.694   5.826
  584SOL     OW 2650   4.769   0.971   5.284
  584SOL    HW1 2651   4.720   1.052   5.315
  584SOL    HW2 2652   4.705   0.907   5.242
  585SOL     OW 2653   3.222   0.669   1.829
  585SOL    HW1 2654   3.223   0.733   1.753
  585SOL    HW2 2655   3.192   0.716   1.913
  586SOL     OW 2656   4.799   6.903   0.656
  586SOL    HW1 2657   4.819   6.846   0.736
  586SOL    HW2 2658   4.705   6.938   0.664
  587SOL     OW 2659   4.725   1.965   1.645
  587SOL    HW1 2660   4.670   1.911   1.709
  587SOL    HW2 2661   4.783   1.904   1.591
  588SOL     OW 2662   1.760   5.264   2.593
  588SOL    HW1 2663   1.671   5.263   2.638
  588SOL    HW2 2664   1.826   5.312   2.650
  589SOL     OW 2665   2.956   5.938   0.880
  589SOL    HW1 2666   2.963   5.867   0.949
  589SOL    HW2 2667   3.032   6.002   0.890
  590SOL     OW 2668   4.759   1.900   0.566
  590SOL    HW1 2669   4.701   1.879   0.645
  590SOL    HW2 2670   4.755   1.998   0.547
  591SOL     OW 2671   3.456   6.023   4.709
  591SOL    HW1 2672   3.369   6.037   4.755
  591SOL    HW2 2673   3.445   5.960   4.633
  592SOL     OW 2674   3.988   1.921   4.165
  592SOL    HW1 2675   4.053   1.947   4.236
  592SOL    HW2 2676   3.926   1.997   4.148
  593SOL     OW 2677   2.727   1.272   6.429
  593SOL    HW1 2678   2.813   1.301   6.388
  593SOL    HW2 2679   2.655   1.338   6.405
  594SOL     OW 2680   4.926   1.043   1.913
  594SOL    HW1 2681   4.833   1.061   1.946
  594SOL    HW2 2682   4.957   0.955   1.948
  595SOL     OW 2683   5.612   5.712   2.665
  595SOL    HW1 2684   5.704   5.696   2.700
  595SOL    HW2 2685   5.601   5.809   2.643
  596SOL     OW 2686   6.454   5.040   4.311
  596SOL    HW1 2687   6.432   4.989   4.228
  596SOL    HW2 2688   6.442   4.981   4.390
  597SOL     OW 2689   2.592   0.489   6.501
  597SOL    HW1 2690   2.649   0.543   6.562
  597SOL    HW2 2691   2.496   0.507   6.520
  598SOL     OW 2692   2.869   3.513   4.381
  598SOL    HW1 2693   2.779   3.552   4.361
  598SOL    HW2 2694   2.887   3.437   4.320
  599SOL     OW 2695   1.379   5.010   1.559
  599SOL    HW1 2696   1.451   4.942   1.546
  599SOL    HW2 2697   1.318   4.981   1.632
  600SOL     OW 2698   6.916   3.807   4.827
  600SOL    HW1 2699   6.973   3.726   4.841
  600SOL    HW2 2700   6.963   3.871   4.766
  601SOL     OW 2701   2.186   6.764   4.801
  601SOL    HW1 2702   2.248   6.801   4.872
  601SOL    HW2 2703   2.094   6.799   4.817
  602SOL     OW 2704   2.131   6.440   3.714
  602SOL    HW1 2705   2.140   6.361   3.773
  602SOL    HW2 2706   2.221   6.466   3.678
  603SOL     OW 2707   1.753   1.203   5.673
  603SOL    HW1 2708   1.786   1.125   5.620
  603SOL    HW2 2709   1.655   1.216   5.655
  604SOL     OW 2710   6.600   2.360   1.684
  604SOL    HW1 2711   6.683   2.378   1.631
  604SOL    HW2 2712   6.547   2.444   1.692
  605SOL     OW 2713   6.798   6.130   2.389
  605SOL    HW1 2714   6.894   6.117   2.416
  605SOL    HW2 2715   6.738   6.090   2.458
  606SOL     OW 2716   3.483   6.515   4.518
  606SOL    HW1 2717   3.565   6.483   4.566
  606SOL    HW2 2718   3.419   6.553   4.584
  607SOL     OW 2719   0.944   4.340   6.028
  607SOL    HW1 2720   0.973   4.269   5.964
  607SOL    HW2 2721   0.897   4.413   5.978
  608SOL     OW 2722   2.694   1.437   5.556
  608SOL    HW1 2723   2.734   1.459   5.467
  608SOL    HW2 2724   2.671   1.339   5.558
  609SOL     OW 2725   3.219   2.932   2.225
  609SOL    HW1 2726   3.129   2.922   2.268
  609SOL    HW2 2727   3.217   3.012   2.165
  610SOL     OW 2728   4.815   3.741   1.022
  610SOL    HW1 2729   4.843   3.776   1.112
  610SOL    HW2 2730   4.745   3.670   1.035
  611SOL     OW 2731   3.393   0.360   2.594
  611SOL    HW1 2732   3.333   0.363   2.674
  611SOL    HW2 2733   3.421   0.453   2.569
  612SOL     OW 2734   4.059   4.588   5.569
  612SOL    HW1 2735   3.991   4.619   5.635
  612SOL    HW2 2736   4.150   4.592   5.610
  613SOL     OW 2737   4.661   5.022   5.836
  613SOL    HW1 2738   4.624   5.024   5.929
  613SOL    HW2 2739   4.585   5.026   5.770
  614SOL     OW 2740   4.092   5.174   5.864
  614SOL    HW1 2741   4.123   5.081   5.844
  614SOL    HW2 2742   4.078   5.224   5.779
  615SOL     OW 2743   0.646   4.832   1.954
  615SOL    HW1 2744   0.607   4.746   1.921
  615SOL    HW2 2745   0.573   4.893   1.984
  616SOL     OW 2746   5.957   3.419   3.210
  616SOL    HW1 2747   5.982   3.436   3.305
  616SOL    HW2 2748   5.976   3.324   3.187
  617SOL     OW 2749   3.285   5.218   6.312
  617SOL    HW1 2750   3.230   5.296   6.280
  617SOL    HW2 2751   3.367   5.253   6.358
  618SOL     OW 2752   1.721   1.053   2.408
  618SOL    HW1 2753   1.702   0.963   2.447
  618SOL    HW2 2754   1.772   1.042   2.323
  619SOL     OW 2755   0.744   1.051   6.768
  619SOL    HW1 2756   0.749   0.965   6.819
  619SOL    HW2 2757   0.761   1.033   6.671
  620SOL     OW 2758   4.355   3.756   0.855
  620SOL    HW1 2759   4.440   3.807   0.868
  620SOL    HW2 2760   4.287   3.788   0.920
  621SOL     OW 2761   0.286   4.615   1.872
  621SOL    HW1 2762   0.271   4.549   1.945
  621SOL    HW2 2763   0.202   4.668   1.858
  622SOL     OW 2764   1.371   0.698   6.933
  622SOL    HW1 2765   1.402   0.753   7.010
  622SOL    HW2 2766   1.300   0.748   6.883
  623SOL     OW 2767   1.016   4.671   6.568
  623SOL    HW1 2768   0.975   4.616   6.496
  623SOL    HW2 2769   0.961   4.753   6.583
  624SOL     OW 2770   0.639   2.614   2.135
  624SOL    HW1 2771   0.541   2.625   2.149
  624SOL    HW2 2772   0.679   2.701   2.107
  625SOL     OW 2773   2.287   1.285   2.000
  625SOL    HW1 2774   2.192   1.285   2.034
  625SOL    HW2 2775   2.301   1.365   1.941
  626SOL     OW 2776   2.818   6.351   4.749
  626SOL    HW1 2777   2.746   6.332   4.684
  626SOL    HW2 2778   2.778   6.372   4.839
  627SOL     OW 2779   5.197   0.790   0.365
  627SOL    HW1 2780   5.170   0.730   0.440
  627SOL    HW2 2781   5.251   0.866   0.401
  628SOL     OW 2782   4.891   3.826   3.602
  628SOL    HW1 2783   4.948   3.811   3.522
  628SOL    HW2 2784   4.881   3.924   3.619
  629SOL     OW 2785   1.277   6.680   0.877
  629SOL    HW1 2786   1.184   6.680   0.912
  629SOL    HW2 2787   1.302   6.773   0.849
  630SOL     OW 2788   3.921   1.971   1.175
  630SOL    HW1 2789   3.997   1.958   1.111
  630SOL    HW2 2790   3.933   2.058   1.223
  631SOL     OW 2791   2.376   6.835   5.271
  631SOL    HW1 2792   2.353   6.930   5.293
  631SOL    HW2 2793   2.476   6.824   5.273
  632SOL     OW 2794   2.172   1.201   1.140
  632SOL    HW1 2795   2.176   1.226   1.043
  632SOL    HW2 2796   2.161   1.284   1.195
  633SOL     OW 2797   2.472   6.782   6.113
  633SOL    HW1 2798   2.400   6.713   6.115
  633SOL    HW2 2799   2.546   6.755   6.174
  634SOL     OW 2800   3.701   5.980   0.161
  634SOL    HW1 2801   3.720   5.882   0.156
  634SOL    HW2 2802   3.602   5.996   0.161
  635SOL     OW 2803   2.625   0.580   2.549
  635SOL    HW1 2804   2.620   0.669   2.594
  635SOL    HW2 2805   2.714   0.571   2.504
  636SOL     OW 2806   5.348   5.323   7.016
  636SOL    HW1 2807   5.261   5.371   7.007
  636SOL    HW2 2808   5.331   5.229   0.024
  637SOL     OW 2809   4.571   4.453   0.804
  637SOL    HW1 2810   4.548   4.364   0.766
  637SOL    HW2 2811   4.613   4.510   0.733
  638SOL     OW 2812   5.100   1.052   2.667
  638SOL    HW1 2813   5.156   1.011   2.596
  638SOL    HW2 2814   5.073   1.144   2.640
  639SOL     OW 2815   4.268   4.586   1.941
  639SOL    HW1 2816   4.328   4.572   2.019
  639SOL    HW2 2817   4.182   4.626   1.973
  640SOL     OW 2818   2.751   4.354   5.530
  640SOL    HW1 2819   2.746   4.259   5.500
  640SOL    HW2 2820   2.715   4.413   5.458
  641SOL     OW 2821   0.016   6.021   4.625
  641SOL    HW1 2822   0.104   6.059   4.595
  641SOL    HW2 2823   7.006   6.070   4.707
  642SOL     OW 2824   1.260   5.417   5.081
  642SOL    HW1 2825   1.172   5.432   5.126
  642SOL    HW2 2826   1.331   5.470   5.127
  643SOL     OW 2827   5.506   5.990   5.116
  643SOL    HW1 2828   5.565   5.929   5.064
  643SOL    HW2 2829   5.545   6.082   5.116
  644SOL     OW 2830   1.495   6.509   2.106
  644SOL    HW1 2831   1.556   6.470   2.175
  644SOL    HW2 2832   1.547   6.570   2.046
  645SOL     OW 2833   5.748   2.653   3.971
  645SOL    HW1 2834   5.809   2.717   4.017
  645SOL    HW2 2835   5.654   2.669   4.001
  646SOL     OW 2836   1.682   1.974   4.618
  646SOL    HW1 2837   1.604   2.034   4.634
  646SOL    HW2 2838   1.767   2.025   4.635
  647SOL     OW 2839   5.709   3.489   0.368
  647SOL    HW1 2840   5.755   3.432   0.436
  647SOL    HW2 2841   5.694   3.435   0.285
  648SOL     OW 2842   5.946   3.103   1.671
  648SOL    HW1 2843   5.849   3.092   1.693
  648SOL    HW2 2844   5.998   3.025   1.708
  649SOL     OW 2845   4.007   4.614   1.215
  649SOL    HW1 2846   4.065   4.686   1.177
  649SOL    HW2 2847   4.028   4.604   1.313
  650SOL     OW 2848   5.010   4.730   0.738
  650SOL    HW1 2849   5.049   4.766   0.823
  650SOL    HW2 2850   5.083   4.690   0.682
  651SOL     OW 2851   0.825   5.796   6.568
  651SOL    HW1 2852   0.867   5.880   6.534
  651SOL    HW2 2853   0.873   5.717   6.529
  652SOL     OW 2854   4.241   1.257   2.833
  652SOL    HW1 2855   4.173   1.279   2.764
  652SOL    HW2 2856   4.315   1.205   2.792
  653SOL     OW 2857   3.823   4.847   3.672
  653SOL    HW1 2858   3.733   4.859   3.713
  653SOL    HW2 2859   3.891   4.834   3.744
  654SOL     OW 2860   6.362   4.605   0.732
  654SOL    HW1 2861   6.357   4.542   0.810
  654SOL    HW2 2862   6.380   4.698   0.766
  655SOL     OW 2863   0.605   0.964   0.596
  655SOL    HW1 2864   0.552   1.025   0.537
  655SOL    HW2 2865   0.652   0.896   0.540
  656SOL     OW 2866   2.692   6.473   2.248
  656SOL    HW1 2867   2.719   6.444   2.340
  656SOL    HW2 2868   2.757   6.540   2.213
  657SOL     OW 2869   2.927   1.652   6.832
  657SOL    HW1 2870   2.848   1.709   6.853
  657SOL    HW2 2871   3.010   1.693   6.871
  658SOL     OW 2872   3.578   4.793   5.863
  658SOL    HW1 2873   3.490   4.758   5.894
  658SOL    HW2 2874   3.575   4.812   5.765
  659SOL     OW 2875   2.771   0.232   6.829
  659SOL    HW1 2876   2.739   0.326   6.828
  659SOL    HW2 2877   2.707   0.174   6.779
  660SOL     OW 2878   3.761   5.187   3.166
  660SOL    HW1 2879   3.824   5.227   3.099
  660SOL    HW2 2880   3.807   5.178   3.254
  661SOL     OW 2881   5.204   5.348   3.067
  661SOL    HW1 2882   5.302   5.330   3.067
  661SOL    HW2 2883   5.180   5.402   2.986
  662SOL     OW 2884   3.025   1.215   6.977
  662SOL    HW1 2885   2.955   1.163   0.006
  662SOL    HW2 2886   3.059   1.288   0.016
  663SOL     OW 2887   2.369   4.470   5.271
  663SOL    HW1 2888   2.466   4.477   5.251
  663SOL    HW2 2889   2.331   4.388   5.228
  664SOL     OW 2890   6.512   0.886   6.954
  664SOL    HW1 2891   6.461   0.805   6.925
  664SOL    HW2 2892   6.538   0.877   0.030
  665SOL     OW 2893   2.310   5.403   3.263
  665SOL    HW1 2894   2.378   5.444   3.324
  665SOL    HW2 2895   2.232   5.465   3.254
  666SOL     OW 2896   4.090   1.128   2.172
  666SOL    HW1 2897   4.180   1.088   2.156
  666SOL    HW2 2898   4.043   1.140   2.084
  667SOL     OW 2899   1.136   6.855   2.585
  667SOL    HW1 2900   1.058   6.900   2.629
  667SOL    HW2 2901   1.155   6.899   2.497
  668SOL     OW 2902   5.286   3.758   0.492
  668SOL    HW1 2903   5.355   3.734   0.423
  668SOL    HW2 2904   5.210   3.694   0.485
  669SOL     OW 2905   5.162   1.883   3.060
  669SOL    HW1 2906   5.139   1.979   3.073
  669SOL    HW2 2907   5.118   1.850   2.976
  670SOL     OW 2908   2.202   1.898   3.363
  670SOL    HW1 2909   2.207   1.798   3.366
  670SOL    HW2 2910   2.259   1.937   3.435
  671SOL     OW 2911   3.365   6.125   2.076
  671SOL    HW1 2912   3.301   6.135   1.999
  671SOL    HW2 2913   3.361   6.206   2.133
  672SOL     OW 2914   1.346   6.683   2.494
  672SOL    HW1 2915   1.271   6.733   2.537
  672SOL    HW2 2916   1.428   6.740   2.493
  673SOL     OW 2917   5.732   6.713   0.178
  673SOL    HW1 2918   5.828   6.687   0.170
  673SOL    HW2 2919   5.702   6.755   0.092
  674SOL     OW 2920   0.146   1.204   4.236
  674SOL    HW1 2921   0.206   1.147   4.180
  674SOL    HW2 2922   0.077   1.147   4.281
  675SOL     OW 2923   6.100   2.972   2.618
  675SOL    HW1 2924   6.134   2.896   2.563
  675SOL    HW2 2925   6.060   2.936   2.703
  676SOL     OW 2926   1.749   5.972   6.107
  676SOL    HW1 2927   1.815   5.932   6.171
  676SOL    HW2 2928   1.767   6.070   6.099
  677SOL     OW 2929   4.794   1.414   0.916
  677SOL    HW1 2930   4.822   1.474   0.991
  677SOL    HW2 2931   4.822   1.454   0.829
  678SOL     OW 2932   2.115   5.027   4.631
  678SOL    HW1 2933   2.205   4.989   4.611
  678SOL    HW2 2934   2.075   4.978   4.710
  679SOL     OW 2935   5.430   1.757   5.482
  679SOL    HW1 2936   5.437   1.699   5.563
  679SOL    HW2 2937   5.334   1.780   5.464
  680SOL     OW 2938   4.585   0.249   4.310
  680SOL    HW1 2939   4.534   0.329   4.278
  680SOL    HW2 2940   4.546   0.166   4.269
  681SOL     OW 2941   4.423   4.918   2.185
  681SOL    HW1 2942   4.414   4.820   2.164
  681SOL    HW2 2943   4.362   4.941   2.261
  682SOL     OW 2944   0.876   1.029   3.733
  682SOL    HW1 2945   0.961   0.990   3.699
  682SOL    HW2 2946   0.890   1.125   3.756
  683SOL     OW 2947   4.180   3.601   1.222
  683SOL    HW1 2948   4.242   3.524   1.208
  683SOL    HW2 2949   4.208   3.652   1.303
  684SOL     OW 2950   6.547   1.265   5.956
  684SOL    HW1 2951   6.502   1.300   6.038
  684SOL    HW2 2952   6.645   1.254   5.974
  685SOL     OW 2953   3.727   0.448   3.116
  685SOL    HW1 2954   3.687   0.452   3.208
  685SOL    HW2 2955   3.655   0.431   3.049
  686SOL     OW 2956   4.637   0.295   5.080
  686SOL    HW1 2957   4.590   0.378   5.052
  686SOL    HW2 2958   4.582   0.247   5.148
  687SOL     OW 2959   1.219   2.147   4.193
  687SOL    HW1 2960   1.165   2.223   4.229
  687SOL    HW2 2961   1.185   2.122   4.102
  688SOL     OW 2962   6.532   1.345   6.662
  688SOL    HW1 2963   6.583   1.352   6.748
  688SOL    HW2 2964   6.527   1.435   6.618
  689SOL     OW 2965   1.343   4.861   5.924
  689SOL    HW1 2966   1.430   4.825   5.891
  689SOL    HW2 2967   1.334   4.957   5.896
  690SOL     OW 2968   5.721   3.350   2.481
  690SOL    HW1 2969   5.765   3.272   2.526
  690SOL    HW2 2970   5.626   3.358   2.512
  691SOL     OW 2971   5.174   1.358   0.632
  691SOL    HW1 2972   5.165   1.452   0.664
  691SOL    HW2 2973   5.108   1.341   0.559
  692SOL     OW 2974   2.663   0.896   5.080
  692SOL    HW1 2975   2.630   0.914   4.988
  692SOL    HW2 2976   2.597   0.930   5.147
  693SOL     OW 2977   5.373   5.927   3.931
  693SOL    HW1 2978   5.326   5.897   4.014
  693SOL    HW2 2979   5.305   5.949   3.861
  694SOL     OW 2980   4.601   5.783   5.232
  694SOL    HW1 2981   4.575   5.686   5.231
  694SOL    HW2 2982   4.688   5.795   5.185
  695SOL     OW 2983   3.162   0.209   4.098
  695SOL    HW1 2984   3.075   0.194   4.050
  695SOL    HW2 2985   3.156   0.169   4.190
  696SOL     OW 2986   4.742   4.583   3.155
  696SOL    HW1 2987   4.701   4.513   3.098
  696SOL    HW2 2988   4.683   4.600   3.234
  697SOL     OW 2989   0.275   5.270   2.069
  697SOL    HW1 2990   0.370   5.252   2.094
  697SOL    HW2 2991   0.249   5.211   1.992
  698SOL     OW 2992   5.916   6.765   0.558
  698SOL    HW1 2993   5.898   6.672   0.588
  698SOL    HW2 2994   5.836   6.822   0.576
  699SOL     OW 2995   2.541   2.343   1.160
  699SOL    HW1 2996   2.450   2.346   1.201
  699SOL    HW2 2997   2.606   2.306   1.226
  700SOL     OW 2998   3.591   0.158   3.008
  700SOL    HW1 2999   3.493   0.180   3.013
  700SOL    HW2 3000   3.624   0.132   3.099
  701SOL     OW 3001   6.035   5.342   1.264
  701SOL    HW1 3002   6.029   5.442   1.269
  701SOL    HW2 3003   6.103   5.316   1.196
  702SOL     OW 3004   3.479   0.919   4.284
  702SOL    HW1 3005   3.536   0.985   4.235
  702SOL    HW2 3006   3.512   0.910   4.378
  703SOL     OW 3007   2.766   2.284   6.299
  703SOL    HW1 3008   2.729   2.288   6.206
  703SOL    HW2 3009   2.742   2.367   6.349
  704SOL     OW 3010   1.365   2.623   5.783
  704SOL    HW1 3011   1.299   2.685   5.741
  704SOL    HW2 3012   1.437   2.601   5.717
  705SOL     OW 3013   6.915   6.160   4.838
  705SOL    HW1 3014   6.832   6.106   4.827
  705SOL    HW2 3015   6.914   6.204   4.928
  706SOL     OW 3016   4.576   0.892   5.061
  706SOL    HW1 3017   4.624   0.978   5.040
  706SOL    HW2 3018   4.484   0.913   5.094
  707SOL     OW 3019   3.645   5.195   3.949
  707SOL    HW1 3020   3.605   5.117   3.998
  707SOL    HW2 3021   3.740   5.173   3.925
  708SOL     OW 3022   3.451   0.242   3.497
  708SOL    HW1 3023   3.506   0.265   3.577
  708SOL    HW2 3024   3.372   0.304   3.492
  709SOL     OW 3025   2.326   0.134   1.527
  709SOL    HW1 3026   2.362   0.046   1.497
  709SOL    HW2 3027   2.255   0.165   1.462
  710SOL     OW 3028   4.587   2.713   1.822
  710SOL    HW1 3029   4.675   2.671   1.849
  710SOL    HW2 3030   4.583   2.806   1.857
  711SOL     OW 3031   0.249   2.171   5.905
  711SOL    HW1 3032   0.226   2.183   6.002
  711SOL    HW2 3033   0.215   2.249   5.853
  712SOL     OW 3034   5.170   4.153   0.570
  712SOL    HW1 3035   5.188   4.062   0.609
  712SOL    HW2 3036   5.071   4.164   0.560
  713SOL     OW 3037   4.018   2.770   5.301
  713SOL    HW1 3038   3.936   2.772   5.245
  713SOL    HW2 3039   4.091   2.723   5.252
  714SOL     OW 3040   5.258   5.176   3.687
  714SOL    HW1 3041   5.174   5.202   3.735
  714SOL    HW2 3042   5.236   5.106   3.619
  715SOL     OW 3043   6.586   5.196   5.554
  715SOL    HW1 3044   6.508   5.257   5.555
  715SOL    HW2 3045   6.573   5.123   5.621
  716SOL     OW 3046   2.299   1.603   2.643
  716SOL    HW1 3047   2.392   1.611   2.608
  716SOL    HW2 3048   2.279   1.507   2.664
  717SOL     OW 3049   5.256   5.034   4.396
  717SOL    HW1 3050   5.281   5.093   4.319
  717SOL    HW2 3051   5.205   4.955   4.363
  718SOL     OW 3052   5.745   1.985   4.534
  718SOL    HW1 3053   5.790   1.935   4.460
  718SOL    HW2 3054   5.646   1.977   4.525
  719SOL     OW 3055   5.528   0.226   3.452
  719SOL    HW1 3056   5.600   0.189   3.510
  719SOL    HW2 3057   5.549   0.207   3.356
  720SOL     OW 3058   2.097   1.388   6.861
  720SOL    HW1 3059   2.100   1.292   6.832
  720SOL    HW2 3060   2.089   1.392   6.961
  721SOL     OW 3061   0.259   1.840   3.412
  721SOL    HW1 3062   0.168   1.858   3.376
  721SOL    HW2 3063   0.276   1.742   3.416
  722SOL     OW 3064   4.138   6.717   0.215
  722SOL    HW1 3065   4.094   6.794   0.169
  722SOL    HW2 3066   4.078   6.637   0.211
  723SOL     OW 3067   2.424   5.774   3.565
  723SOL    HW1 3068   2.363   5.696   3.555
  723SOL    HW2 3069   2.518   5.742   3.581
  724SOL     OW 3070   1.305   1.192   3.687
  724SOL    HW1 3071   1.322   1.132   3.608
  724SOL    HW2 3072   1.305   1.288   3.656
  725SOL     OW 3073   1.214   4.104   2.508
  725SOL    HW1 3074   1.135   4.154   2.545
  725SOL    HW2 3075   1.250   4.042   2.578
  726SOL     OW 3076   1.950   4.128   0.593
  726SOL    HW1 3077   1.989   4.037   0.602
  726SOL    HW2 3078   1.893   4.148   0.673
  727SOL     OW 3079   4.318   5.472   5.350
  727SOL    HW1 3080   4.365   5.452   5.436
  727SOL    HW2 3081   4.233   5.419   5.346
  728SOL     OW 3082   6.498   3.357   4.020
  728SOL    HW1 3083   6.549   3.342   4.104
  728SOL    HW2 3084   6.541   3.431   3.968
  729SOL     OW 3085   0.162   3.966   1.601
  729SOL    HW1 3086   0.125   3.936   1.689
  729SOL    HW2 3087   0.256   3.934   1.592
  730SOL     OW 3088   5.283   0.550   3.311
  730SOL    HW1 3089   5.251   0.487   3.381
  730SOL    HW2 3090   5.265   0.511   3.220
  731SOL     OW 3091   4.365   4.559   6.334
  731SOL    HW1 3092   4.372   4.656   6.359
  731SOL    HW2 3093   4.278   4.543   6.288
  732SOL     OW 3094   4.916   1.573   4.429
  732SOL    HW1 3095   4.958   1.492   4.388
  732SOL    HW2 3096   4.939   1.654   4.375
  733SOL     OW 3097   6.024   6.701   3.164
  733SOL    HW1 3098   5.937   6.726   3.120
  733SOL    HW2 3099   6.024   6.603   3.184
  734SOL     OW 3100   5.734   6.407   2.672
  734SOL    HW1 3101   5.803   6.385   2.740
  734SOL    HW2 3102   5.693   6.496   2.695
  735SOL     OW 3103   4.842   0.731   2.352
  735SOL    HW1 3104   4.846   0.812   2.293
  735SOL    HW2 3105   4.833   0.760   2.448
  736SOL     OW 3106   1.306   1.697   4.553
  736SOL    HW1 3107   1.283   1.751   4.472
  736SOL    HW2 3108   1.376   1.629   4.529
  737SOL     OW 3109   5.620   0.737   6.549
  737SOL    HW1 3110   5.713   0.753   6.515
  737SOL    HW2 3111   5.577   0.825   6.569
  738SOL     OW 3112   2.515   4.227   1.313
  738SOL    HW1 3113   2.593   4.278   1.277
  738SOL    HW2 3114   2.532   4.204   1.409
  739SOL     OW 3115   2.796   6.639   4.745
  739SOL    HW1 3116   2.836   6.548   4.734
  739SOL    HW2 3117   2.810   6.671   4.839
  740SOL     OW 3118   5.384   3.316   2.875
  740SOL    HW1 3119   5.471   3.343   2.917
  740SOL    HW2 3120   5.309   3.334   2.939
  741SOL     OW 3121   2.633   0.668   2.962
  741SOL    HW1 3122   2.566   0.608   2.918
  741SOL    HW2 3123   2.723   0.652   2.921
  742SOL     OW 3124   1.788   6.661   1.471
  742SOL    HW1 3125   1.759   6.573   1.509
  742SOL    HW2 3126   1.842   6.710   1.539
  743SOL     OW 3127   0.634   6.549   3.170
  743SOL    HW1 3128   0.674   6.539   3.079
  743SOL    HW2 3129   0.564   6.621   3.169
  744SOL     OW 3130   4.958   2.180   0.263
  744SOL    HW1 3131   4.859   2.193   0.272
  744SOL    HW2 3132   4.983   2.187   0.166
  745SOL     OW 3133   2.934   6.413   5.078
  745SOL    HW1 3134   2.935   6.502   5.031
  745SOL    HW2 3135   2.970   6.343   5.017
  746SOL     OW 3136   6.665   4.499   5.535
  746SOL    HW1 3137   6.748   4.476   5.586
  746SOL    HW2 3138   6.689   4.560   5.459
  747SOL     OW 3139   5.029   5.800   3.037
  747SOL    HW1 3140   4.936   5.838   3.037
  747SOL    HW2 3141   5.089   5.859   2.982
  748SOL     OW 3142   5.695   5.461   2.391
  748SOL    HW1 3143   5.685   5.369   2.429
  748SOL    HW2 3144   5.607   5.508   2.393
  749SOL     OW 3145   4.978   3.433   3.761
  749SOL    HW1 3146   4.983   3.355   3.699
  749SOL    HW2 3147   5.001   3.403   3.854
  750SOL     OW 3148   2.104   2.143   1.838
  750SOL    HW1 3149   2.057   2.203   1.773
  750SOL    HW2 3150   2.143   2.198   1.911
  751SOL     OW 3151   4.682   0.334   0.367
  751SOL    HW1 3152   4.653   0.430   0.369
  751SOL    HW2 3153   4.603   0.276   0.347
  752SOL     OW 3154   3.680   2.480   5.500
  752SOL    HW1 3155   3.696   2.577   5.480
  752SOL    HW2 3156   3.589   2.454   5.468
  753SOL     OW 3157   3.952   3.684   4.644
  753SOL    HW1 3158   3.924   3.602   4.694
  753SOL    HW2 3159   4.027   3.660   4.582
  754SOL     OW 3160   5.754   0.319   6.992
  754SOL    HW1 3161   5.661   0.295   0.002
  754SOL    HW2 3162   5.780   0.260   6.916
  755SOL     OW 3163   4.154   4.570   5.303
  755SOL    HW1 3164   4.208   4.490   5.276
  755SOL    HW2 3165   4.111   4.551   5.392
  756SOL     OW 3166   2.219   5.247   5.906
  756SOL    HW1 3167   2.221   5.274   5.810
  756SOL    HW2 3168   2.312   5.249   5.943
  757SOL     OW 3169   2.809   6.836   2.493
  757SOL    HW1 3170   2.876   6.808   2.424
  757SOL    HW2 3171   2.783   6.931   2.478
  758SOL     OW 3172   3.417   1.484   3.942
  758SOL    HW1 3173   3.480   1.541   3.889
  758SOL    HW2 3174   3.362   1.543   4.001
  759SOL     OW 3175   0.725   2.725   4.482
  759SOL    HW1 3176   0.773   2.760   4.403
  759SOL    HW2 3177   0.628   2.752   4.477
  760SOL     OW 3178   6.649   5.666   3.510
  760SOL    HW1 3179   6.573   5.650   3.447
  760SOL    HW2 3180   6.641   5.757   3.549
  761SOL     OW 3181   4.397   3.209   6.302
  761SOL    HW1 3182   4.373   3.210   6.205
  761SOL    HW2 3183   4.494   3.187   6.312
  762SOL     OW 3184   3.405   5.586   4.486
  762SOL    HW1 3185   3.417   5.674   4.439
  762SOL    HW2 3186   3.437   5.512   4.426
  763SOL     OW 3187   5.890   0.579   0.297
  763SOL    HW1 3188   5.793   0.596   0.284
  763SOL    HW2 3189   5.905   0.481   0.309
  764SOL     OW 3190   5.750   0.065   5.232
  764SOL    HW1 3191   5.792   0.019   5.153
  764SOL    HW2 3192   5.809   0.141   5.261
  765SOL     OW 3193   6.717   6.550   1.213
  765SOL    HW1 3194   6.764   6.513   1.133
  765SOL    HW2 3195   6.644   6.488   1.240
  766SOL     OW 3196   2.256   2.149   5.283
  766SOL    HW1 3197   2.292   2.240   5.261
  766SOL    HW2 3198   2.179   2.158   5.346
  767SOL     OW 3199   0.260   6.176   4.608
  767SOL    HW1 3200   0.253   6.232   4.691
  767SOL    HW2 3201   0.355   6.171   4.579
  768SOL     OW 3202   2.241   5.657   1.802
  768SOL    HW1 3203   2.176   5.670   1.876
  768SOL    HW2 3204   2.328   5.624   1.839
  769SOL     OW 3205   2.852   2.143   4.874
  769SOL    HW1 3206   2.896   2.165   4.961
  769SOL    HW2 3207   2.753   2.154   4.883
  770SOL     OW 3208   1.902   4.625   5.302
  770SOL    HW1 3209   1.923   4.697   5.367
  770SOL    HW2 3210   1.830   4.656   5.239
  771SOL     OW 3211   1.170   5.890   2.847
  771SOL    HW1 3212   1.126   5.955   2.908
  771SOL    HW2 3213   1.241   5.839   2.897
  772SOL     OW 3214   5.890   4.409   0.657
  772SOL    HW1 3215   5.821   4.381   0.590
  772SOL    HW2 3216   5.852   4.402   0.749
  773SOL     OW 3217   0.342   3.603   3.262
  773SOL    HW1 3218   0.254   3.609   3.309
  773SOL    HW2 3219   0.350   3.678   3.196
  774SOL     OW 3220   2.036   0.732   2.924
  774SOL    HW1 3221   2.041   0.680   3.009
  774SOL    HW2 3222   2.080   0.821   2.936
  775SOL     OW 3223   2.041   4.934   2.933
  775SOL    HW1 3224   1.973   4.926   2.861
  775SOL    HW2 3225   2.089   5.021   2.924
  776SOL     OW 3226   2.395   5.059   6.658
  776SOL    HW1 3227   2.461   5.105   6.717
  776SOL    HW2 3228   2.443   5.018   6.580
  777SOL     OW 3229   2.261   3.742   0.270
  777SOL    HW1 3230   2.182   3.687   0.298
  777SOL    HW2 3231   2.239   3.839   0.277
  778SOL     OW 3232   2.730   6.850   1.390
  778SOL    HW1 3233   2.805   6.917   1.389
  778SOL    HW2 3234   2.683   6.852   1.302
  779SOL     OW 3235   0.093   2.228   3.524
  779SOL    HW1 3236   0.161   2.155   3.538
  779SOL    HW2 3237   0.002   2.188   3.522
  780SOL     OW 3238   0.911   1.756   4.273
  780SOL    HW1 3239   0.879   1.662   4.285
  780SOL    HW2 3240   0.977   1.760   4.199
  781SOL     OW 3241   0.684   4.362   0.377
  781SOL    HW1 3242   0.695   4.287   0.312
  781SOL    HW2 3243   0.706   4.331   0.469
  782SOL     OW 3244   1.975   3.403   5.189
  782SOL    HW1 3245   2.048   3.342   5.157
  782SOL    HW2 3246   1.973   3.485   5.131
  783SOL     OW 3247   6.442   5.044   6.362
  783SOL    HW1 3248   6.526   5.001   6.393
  783SOL    HW2 3249   6.416   5.117   6.426
  784SOL     OW 3250   3.180   6.113   0.535
  784SOL    HW1 3251   3.152   6.122   0.440
  784SOL    HW2 3252   3.099   6.099   0.592
  785SOL     OW 3253   1.302   6.410   4.615
  785SOL    HW1 3254   1.310   6.497   4.664
  785SOL    HW2 3255   1.237   6.351   4.662
  786SOL     OW 3256   6.713   1.050   3.193
  786SOL    HW1 3257   6.707   1.137   3.241
  786SOL    HW2 3258   6.622   1.010   3.185
  787SOL     OW 3259   2.809   0.203   0.856
  787SOL    HW1 3260   2.867   0.142   0.910
  787SOL    HW2 3261   2.867   0.267   0.805
  788SOL     OW 3262   2.972   2.594   1.204
  788SOL    HW1 3263   3.020   2.512   1.234
  788SOL    HW2 3264   2.890   2.608   1.261
  789SOL     OW 3265   4.216   5.132   1.650
  789SOL    HW1 3266   4.241   5.047   1.696
  789SOL    HW2 3267   4.285   5.154   1.581
  790SOL     OW 3268   0.777   2.442   2.622
  790SOL    HW1 3269   0.734   2.501   2.554
  790SOL    HW2 3270   0.740   2.462   2.713
  791SOL     OW 3271   3.068   5.213   4.764
  791SOL    HW1 3272   3.078   5.264   4.849
  791SOL    HW2 3273   2.980   5.165   4.763
  792SOL     OW 3274   1.346   0.568   0.826
  792SOL    HW1 3275   1.414   0.561   0.754
  792SOL    HW2 3276   1.297   0.654   0.817
  793SOL     OW 3277   3.003   5.790   4.259
  793SOL    HW1 3278   3.043   5.852   4.327
  793SOL    HW2 3279   3.071   5.768   4.189
  794SOL     OW 3280   3.728   3.217   3.131
  794SOL    HW1 3281   3.802   3.155   3.106
  794SOL    HW2 3282   3.658   3.215   3.059
  795SOL     OW 3283   3.849   0.368   6.311
  795SOL    HW1 3284   3.887   0.460   6.303
  795SOL    HW2 3285   3.769   0.360   6.252
  796SOL     OW 3286   1.137   3.087   6.724
  796SOL    HW1 3287   1.160   3.086   6.821
  796SOL    HW2 3288   1.041   3.063   6.712
  797SOL     OW 3289   5.096   6.872   0.721
  797SOL    HW1 3290   5.185   6.890   0.763
  797SOL    HW2 3291   5.095   6.910   0.628
  798SOL     OW 3292   3.931   6.353   1.044
  798SOL    HW1 3293   4.023   6.315   1.037
  798SOL    HW2 3294   3.935   6.440   1.093
  799SOL     OW 3295   1.519   2.561   5.585
  799SOL    HW1 3296   1.481   2.500   5.516
  799SOL    HW2 3297   1.609   2.593   5.557
  800SOL     OW 3298   5.815   2.845   1.947
  800SOL    HW1 3299   5.818   2.802   2.037
  800SOL    HW2 3300   5.722   2.838   1.910
  801SOL     OW 3301   1.957   5.482   5.702
  801SOL    HW1 3302   1.918   5.574   5.695
  801SOL    HW2 3303   1.920   5.436   5.782
  802SOL     OW 3304   5.571   3.022   6.258
  802SOL    HW1 3305   5.599   3.054   6.348
  802SOL    HW2 3306   5.591   2.925   6.249
  803SOL     OW 3307   2.740   1.572   5.275
  803SOL    HW1 3308   2.687   1.656   5.260
  803SOL    HW2 3309   2.688   1.494   5.241
  804SOL     OW 3310   6.009   0.796   2.491
  804SOL    HW1 3311   6.060   0.875   2.525
  804SOL    HW2 3312   5.911   0.820   2.486
  805SOL     OW 3313   3.880   0.404   3.421
  805SOL    HW1 3314   3.960   0.449   3.382
  805SOL    HW2 3315   3.867   0.436   3.515
  806SOL     OW 3316   2.130   6.152   5.830
  806SOL    HW1 3317   2.107   6.211   5.752
  806SOL    HW2 3318   2.117   6.057   5.804
  807SOL     OW 3319   0.526   6.168   6.286
  807SOL    HW1 3320   0.526   6.071   6.263
  807SOL    HW2 3321   0.619   6.205   6.276
  808SOL     OW 3322   5.421   2.990   0.130
  808SOL    HW1 3323   5.369   3.048   0.068
  808SOL    HW2 3324   5.465   2.916   0.079
  809SOL     OW 3325   2.305   4.495   0.466
  809SOL    HW1 3326   2.297   4.446   0.553
  809SOL    HW2 3327   2.327   4.431   0.393
  810SOL     OW 3328   3.855   3.108   0.158
  810SOL    HW1 3329   3.855   3.061   0.070
  810SOL    HW2 3330   3.887   3.045   0.230
  811SOL     OW 3331   5.307   5.193   4.178
  811SOL    HW1 3332   5.308   5.293   4.176
  811SOL    HW2 3333   5.392   5.157   4.139
  812SOL     OW 3334   0.542   2.929   2.234
  812SOL    HW1 3335   0.540   2.959   2.329
  812SOL    HW2 3336   0.492   2.994   2.177
  813SOL     OW 3337   0.945   1.934   4.543
  813SOL    HW1 3338   0.887   1.853   4.531
  813SOL    HW2 3339   0.894   2.015   4.514
  814SOL     OW 3340   0.800   5.023   3.029
  814SOL    HW1 3341   0.778   4.960   2.954
  814SOL    HW2 3342   0.896   5.014   3.054
  815SOL     OW 3343   4.953   1.758   4.209
  815SOL    HW1 3344   5.022   1.817   4.251
  815SOL    HW2 3345   4.965   1.757   4.110
  816SOL     OW 3346   5.535   4.790   6.543
  816SOL    HW1 3347   5.484   4.797   6.456
  816SOL    HW2 3348   5.595   4.710   6.540
  817SOL     OW 3349   0.916   4.339   6.980
  817SOL    HW1 3350   0.901   4.425   6.931
  817SOL    HW2 3351   0.944   4.359   0.054
  818SOL     OW 3352   6.186   2.723   4.799
  818SOL    HW1 3353   6.149   2.789   4.863
  818SOL    HW2 3354   6.113   2.690   4.739
  819SOL     OW 3355   5.139   2.548   2.085
  819SOL    HW1 3356   5.107   2.542   1.991
  819SOL    HW2 3357   5.195   2.468   2.106
  820SOL     OW 3358   2.053   1.907   4.734
  820SOL    HW1 3359   2.111   1.943   4.807
  820SOL    HW2 3360   1.987   1.977   4.707
  821SOL     OW 3361   5.975   3.364   5.429
  821SOL    HW1 3362   5.911   3.314   5.371
  821SOL    HW2 3363   5.960   3.339   5.525
  822SOL     OW 3364   0.653   4.188   3.381
  822SOL    HW1 3365   0.659   4.095   3.344
  822SOL    HW2 3366   0.714   4.196   3.460
  823SOL     OW 3367   1.023   3.850   5.794
  823SOL    HW1 3368   0.996   3.799   5.712
  823SOL    HW2 3369   1.113   3.892   5.780
  824SOL     OW 3370   5.679   1.420   5.559
  824SOL    HW1 3371   5.738   1.438   5.638
  824SOL    HW2 3372   5.693   1.492   5.490
  825SOL     OW 3373   6.005   5.937   0.899
  825SOL    HW1 3374   5.906   5.924   0.901
  825SOL    HW2 3375   6.032   6.001   0.971
  826SOL     OW 3376   3.590   1.555   6.406
  826SOL    HW1 3377   3.506   1.500   6.406
  826SOL    HW2 3378   3.578   1.633   6.467
  827SOL     OW 3379   3.732   3.894   4.785
  827SOL    HW1 3380   3.692   3.980   4.751
  827SOL    HW2 3381   3.668   3.819   4.769
  828SOL     OW 3382   6.373   5.951   5.215
  828SOL    HW1 3383   6.465   5.923   5.240
  828SOL    HW2 3384   6.335   5.887   5.148
  829SOL     OW 3385   3.310   3.123   2.763
  829SOL    HW1 3386   3.220   3.164   2.749
  829SOL    HW2 3387   3.304   3.052   2.833
  830SOL     OW 3388   6.596   4.351   0.206
  830SOL    HW1 3389   6.588   4.363   0.305
  830SOL    HW2 3390   6.646   4.266   0.187
  831SOL     OW 3391   4.634   6.767   1.351
  831SOL    HW1 3392   4.671   6.675   1.339
  831SOL    HW2 3393   4.698   6.834   1.311
  832SOL     OW 3394   3.171   1.985   4.500
  832SOL    HW1 3395   3.126   2.048   4.563
  832SOL    HW2 3396   3.127   1.895   4.506
  833SOL     OW 3397   2.613   2.791   6.871
  833SOL    HW1 3398   2.603   2.872   6.813
  833SOL    HW2 3399   2.526   2.769   6.914
  834SOL     OW 3400   5.372   3.455   6.995
  834SOL    HW1 3401   5.434   3.532   6.982
  834SOL    HW2 3402   5.403   3.400   0.053
  835SOL     OW 3403   0.488   6.645   4.430
  835SOL    HW1 3404   0.415   6.605   4.374
  835SOL    HW2 3405   0.577   6.622   4.389
  836SOL     OW 3406   3.665   1.096   4.632
  836SOL    HW1 3407   3.681   1.177   4.575
  836SOL    HW2 3408   3.594   1.115   4.699
  837SOL     OW 3409   1.790   0.949   0.573
  837SOL    HW1 3410   1.842   0.937   0.658
  837SOL    HW2 3411   1.692   0.947   0.593
  838SOL     OW 3412   1.825   5.234   3.303
  838SOL    HW1 3413   1.884   5.315   3.307
  838SOL    HW2 3414   1.883   5.152   3.306
  839SOL     OW 3415   0.785   2.124   0.376
  839SOL    HW1 3416   0.875   2.149   0.412
  839SOL    HW2 3417   0.788   2.124   0.276
  840SOL     OW 3418   5.198   5.536   6.743
  840SOL    HW1 3419   5.192   5.577   6.653
  840SOL    HW2 3420   5.185   5.437   6.736
  841SOL     OW 3421   3.724   4.426   6.705
  841SOL    HW1 3422   3.715   4.508   6.648
  841SOL    HW2 3423   3.747   4.348   6.647
  842SOL     OW 3424   3.251   6.509   6.398
  842SOL    HW1 3425   3.287   6.495   6.490
  842SOL    HW2 3426   3.207   6.425   6.365
  843SOL     OW 3427   1.382   1.128   2.508
  843SOL    HW1 3428   1.422   1.208   2.463
  843SOL    HW2 3429   1.396   1.135   2.607
  844SOL     OW 3430   6.228   0.303   1.660
  844SOL    HW1 3431   6.279   0.390   1.657
  844SOL    HW2 3432   6.176   0.292   1.576
  845SOL     OW 3433   3.816   1.358   2.508
  845SOL    HW1 3434   3.860   1.290   2.449
  845SOL    HW2 3435   3.733   1.391   2.464
  846SOL     OW 3436   2.664   2.036   0.564
  846SOL    HW1 3437   2.717   2.031   0.649
  846SOL    HW2 3438   2.714   1.991   0.490
  847SOL     OW 3439   2.263   4.227   1.647
  847SOL    HW1 3440   2.188   4.229   1.582
  847SOL    HW2 3441   2.316   4.143   1.636
  848SOL     OW 3442   0.052   5.741   0.581
  848SOL    HW1 3443   0.129   5.724   0.519
  848SOL    HW2 3444   0.039   5.662   0.640
  849SOL     OW 3445   6.178   3.523   6.807
  849SOL    HW1 3446   6.257   3.583   6.797
  849SOL    HW2 3447   6.097   3.578   6.830
  850SOL     OW 3448   0.623   0.695   5.058
  850SOL    HW1 3449   0.626   0.711   4.959
  850SOL    HW2 3450   0.676   0.765   5.105
  851SOL     OW 3451   6.761   3.438   5.878
  851SOL    HW1 3452   6.674   3.429   5.926
  851SOL    HW2 3453   6.776   3.357   5.821
  852SOL     OW 3454   0.864   4.090   2.451
  852SOL    HW1 3455   0.852   4.095   2.352
  852SOL    HW2 3456   0.791   4.033   2.490
  853SOL     OW 3457   2.724   3.402   6.837
  853SOL    HW1 3458   2.677   3.483   6.803
  853SOL    HW2 3459   2.746   3.342   6.761
  854SOL     OW 3460   5.657   6.755   6.561
  854SOL    HW1 3461   5.627   6.704   6.481
  854SOL    HW2 3462   5.581   6.807   6.598
  855SOL     OW 3463   5.870   1.244   6.991
  855SOL    HW1 3464   5.948   1.227   6.931
  855SOL    HW2 3465   5.887   1.327   0.024
  856SOL     OW 3466   2.337   5.890   0.751
  856SOL    HW1 3467   2.321   5.858   0.658
  856SOL    HW2 3468   2.252   5.881   0.804
  857SOL     OW 3469   5.935   5.269   5.782
  857SOL    HW1 3470   5.916   5.286   5.685
  857SOL    HW2 3471   5.973   5.178   5.793
  858SOL     OW 3472   4.046   3.190   0.407
  858SOL    HW1 3473   3.992   3.158   0.485
  858SOL    HW2 3474   4.014   3.280   0.379
  859SOL     OW 3475   4.133   6.504   5.623
  859SOL    HW1 3476   4.116   6.467   5.532
  859SOL    HW2 3477   4.047   6.538   5.662
  860SOL     OW 3478   5.091   3.097   5.775
  860SOL    HW1 3479   4.992   3.088   5.760
  860SOL    HW2 3480   5.140   3.061   5.696
  861SOL     OW 3481   2.536   6.122   2.587
  861SOL    HW1 3482   2.493   6.212   2.579
  861SOL    HW2 3483   2.475   6.059   2.634
  862SOL     OW 3484   0.909   4.324   3.450
  862SOL    HW1 3485   0.983   4.373   3.497
  862SOL    HW2 3486   0.927   4.225   3.455
  863SOL     OW 3487   0.125   0.597   0.318
  863SOL    HW1 3488   0.200   0.662   0.333
  863SOL    HW2 3489   0.115   0.538   0.398
  864SOL     OW 3490   5.928   0.084   4.823
  864SOL    HW1 3491   5.839   0.122   4.800
  864SOL    HW2 3492   5.998   0.123   4.762
  865SOL     OW 3493   2.139   6.467   4.397
  865SOL    HW1 3494   2.131   6.399   4.470
  865SOL    HW2 3495   2.158   6.422   4.310
  866SOL     OW 3496   3.571   6.454   2.323
  866SOL    HW1 3497   3.486   6.496   2.290
  866SOL    HW2 3498   3.593   6.375   2.266
  867SOL     OW 3499   5.914   2.230   0.016
  867SOL    HW1 3500   5.822   2.233   0.056
  867SOL    HW2 3501   5.978   2.195   0.084
  868SOL     OW 3502   6.866   1.861   2.464
  868SOL    HW1 3503   6.870   1.928   2.390
  868SOL    HW2 3504   6.918   1.896   2.542
  869SOL     OW 3505   6.608   3.755   3.162
  869SOL    HW1 3506   6.682   3.746   3.228
  869SOL    HW2 3507   6.521   3.757   3.210
  870SOL     OW 3508   3.462   5.323   2.121
  870SOL    HW1 3509   3.477   5.224   2.115
  870SOL    HW2 3510   3.451   5.349   2.217
  871SOL     OW 3511   4.626   1.432   3.542
  871SOL    HW1 3512   4.590   1.356   3.595
  871SOL    HW2 3513   4.566   1.511   3.551
  872SOL     OW 3514   6.931   3.435   5.127
  872SOL    HW1 3515   6.952   3.531   5.107
  872SOL    HW2 3516   6.977   3.376   5.062
  873SOL     OW 3517   5.018   6.793   6.237
  873SOL    HW1 3518   5.083   6.749   6.300
  873SOL    HW2 3519   5.022   6.892   6.250
  874SOL     OW 3520   5.111   4.461   0.264
  874SOL    HW1 3521   5.191   4.517   0.281
  874SOL    HW2 3522   5.047   4.510   0.205
  875SOL     OW 3523   4.826   5.380   0.407
  875SOL    HW1 3524   4.909   5.431   0.383
  875SOL    HW2 3525   4.850   5.287   0.432
  876SOL     OW 3526   6.957   6.303   1.335
  876SOL    HW1 3527   0.028   6.263   1.351
  876SOL    HW2 3528   6.967   6.395   1.299
  877SOL     OW 3529   2.831   3.535   6.608
  877SOL    HW1 3530   2.741   3.567   6.639
  877SOL    HW2 3531   2.829   3.435   6.599
  878SOL     OW 3532   3.913   6.770   4.423
  878SOL    HW1 3533   3.931   6.793   4.519
  878SOL    HW2 3534   3.817   6.744   4.412
  879SOL     OW 3535   5.831   0.805   0.965
  879SOL    HW1 3536   5.809   0.762   0.877
  879SOL    HW2 3537   5.859   0.900   0.950
  880SOL     OW 3538   2.945   3.425   2.638
  880SOL    HW1 3539   2.951   3.511   2.587
  880SOL    HW2 3540   2.927   3.444   2.735
  881SOL     OW 3541   4.361   1.960   6.732
  881SOL    HW1 3542   4.442   1.985   6.679
  881SOL    HW2 3543   4.290   1.928   6.670
  882SOL     OW 3544   1.164   3.283   3.950
  882SOL    HW1 3545   1.111   3.308   4.030
  882SOL    HW2 3546   1.209   3.195   3.965
  883SOL     OW 3547   2.999   0.100   2.670
  883SOL    HW1 3548   3.049   0.039   2.608
  883SOL    HW2 3549   2.965   0.179   2.619
  884SOL     OW 3550   4.865   3.080   5.002
  884SOL    HW1 3551   4.867   3.150   5.073
  884SOL    HW2 3552   4.839   2.992   5.042
  885SOL     OW 3553   3.749   1.937   6.146
  885SOL    HW1 3554   3.730   1.840   6.161
  885SOL    HW2 3555   3.668   1.981   6.105
  886SOL     OW 3556   3.169   0.223   0.086
  886SOL    HW1 3557   3.121   0.310   0.099
  886SOL    HW2 3558   3.107   0.156   0.045
  887SOL     OW 3559   4.355   1.040   4.228
  887SOL    HW1 3560   4.333   0.945   4.250
  887SOL    HW2 3561   4.351   1.095   4.311
  888SOL     OW 3562   0.085   0.189   3.215
  888SOL    HW1 3563   0.101   0.234   3.127
  888SOL    HW2 3564   0.121   0.096   3.212
  889SOL     OW 3565   0.607   3.806   0.067
  889SOL    HW1 3566   0.648   3.725   0.109
  889SOL    HW2 3567   0.668   3.841   7.017
  890SOL     OW 3568   2.442   5.601   3.991
  890SOL    HW1 3569   2.421   5.665   3.918
  890SOL    HW2 3570   2.463   5.511   3.952
  891SOL     OW 3571   5.657   5.815   0.621
  891SOL    HW1 3572   5.739   5.840   0.570
  891SOL    HW2 3573   5.643   5.716   0.614
  892SOL     OW 3574   2.776   4.408   6.067
  892SOL    HW1 3575   2.787   4.381   5.971
  892SOL    HW2 3576   2.805   4.334   6.127
  893SOL     OW 3577   2.731   6.940   2.991
  893SOL    HW1 3578   2.795   6.990   3.050
  893SOL    HW2 3579   2.638   6.970   3.010
  894SOL     OW 3580   1.331   4.054   1.334
  894SOL    HW1 3581   1.398   3.992   1.292
  894SOL    HW2 3582   1.253   4.066   1.271
  895SOL     OW 3583   0.200   6.108   3.603
  895SOL    HW1 3584   0.196   6.060   3.690
  895SOL    HW2 3585   0.215   6.205   3.619
  896SOL     OW 3586   6.432   6.070   5.620
  896SOL    HW1 3587   6.450   6.160   5.659
  896SOL    HW2 3588   6.348   6.073   5.566
  897SOL     OW 3589   5.225   0.739   6.321
  897SOL    HW1 3590   5.226   0.731   6.221
  897SOL    HW2 3591   5.273   0.661   6.361
  898SOL     OW 3592   3.634   6.296   3.036
  898SOL    HW1 3593   3.725   6.257   3.021
  898SOL    HW2 3594   3.577   6.230   3.084
  899SOL     OW 3595   0.274   4.851   6.580
  899SOL    HW1 3596   0.211   4.887   6.511
  899SOL    HW2 3597   0.351   4.915   6.591
  900SOL     OW 3598   5.571   6.315   0.774
  900SOL    HW1 3599   5.551   6.312   0.676
  900SOL    HW2 3600   5.603   6.226   0.804
  901SOL     OW 3601   1.370   1.123   2.084
  901SOL    HW1 3602   1.436   1.064   2.131
  901SOL    HW2 3603   1.278   1.088   2.097
  902SOL     OW 3604   6.304   4.134   1.141
  902SOL    HW1 3605   6.359   4.091   1.068
  902SOL    HW2 3606   6.281   4.066   1.210
  903SOL     OW 3607   6.513   2.182   0.249
  903SOL    HW1 3608   6.545   2.179   0.154
  903SOL    HW2 3609   6.486   2.090   0.277
  904SOL     OW 3610   3.451   2.018   3.045
  904SOL    HW1 3611   3.385   1.949   3.015
  904SOL    HW2 3612   3.424   2.055   3.134
  905SOL     OW 3613   6.017   2.798   6.906
  905SOL    HW1 3614   6.104   2.824   6.865
  905SOL    HW2 3615   6.034   2.737   6.983
  906SOL     OW 3616   6.790   3.121   5.966
  906SOL    HW1 3617   6.832   3.100   6.054
  906SOL    HW2 3618   6.698   3.158   5.981
  907SOL     OW 3619   4.944   3.597   6.740
  907SOL    HW1 3620   5.035   3.557   6.749
  907SOL    HW2 3621   4.879   3.545   6.796
  908SOL     OW 3622   2.944   4.775   2.570
  908SOL    HW1 3623   2.853   4.798   2.603
  908SOL    HW2 3624   2.943   4.683   2.530
  909SOL     OW 3625   5.344   5.278   6.098
  909SOL    HW1 3626   5.428   5.303   6.147
  909SOL    HW2 3627   5.357   5.290   6.000
  910SOL     OW 3628   2.896   2.960   1.693
  910SOL    HW1 3629   2.911   2.877   1.640
  910SOL    HW2 3630   2.965   2.967   1.765
  911SOL     OW 3631   1.391   5.245   6.300
  911SOL    HW1 3632   1.481   5.259   6.257
  911SOL    HW2 3633   1.330   5.319   6.272
  912SOL     OW 3634   4.597   2.241   3.271
  912SOL    HW1 3635   4.624   2.191   3.353
  912SOL    HW2 3636   4.561   2.177   3.203
  913SOL     OW 3637   5.379   0.156   3.021
  913SOL    HW1 3638   5.327   0.073   3.044
  913SOL    HW2 3639   5.363   0.180   2.925
  914SOL     OW 3640   2.704   0.084   0.179
  914SOL    HW1 3641   2.634   0.134   0.128
  914SOL    HW2 3642   2.663   0.005   0.224
  915SOL     OW 3643   5.990   6.144   0.703
  915SOL    HW1 3644   6.015   6.135   0.607
  915SOL    HW2 3645   6.019   6.062   0.753
  916SOL     OW 3646   0.737   2.401   1.939
  916SOL    HW1 3647   0.700   2.453   2.015
  916SOL    HW2 3648   0.818   2.350   1.969
  917SOL     OW 3649   6.934   0.135   0.837
  917SOL    HW1 3650   6.840   0.153   0.809
  917SOL    HW2 3651   6.976   0.070   0.773
  918SOL     OW 3652   1.658   5.604   0.659
  918SOL    HW1 3653   1.603   5.655   0.725
  918SOL    HW2 3654   1.642   5.639   0.567
  919SOL     OW 3655   5.647   1.501   4.327
  919SOL    HW1 3656   5.743   1.529   4.328
  919SOL    HW2 3657   5.589   1.582   4.325
  920SOL     OW 3658   2.687   4.745   2.186
  920SOL    HW1 3659   2.650   4.838   2.187
  920SOL    HW2 3660   2.741   4.732   2.103
  921SOL     OW 3661   4.797   5.660   4.721
  921SOL    HW1 3662   4.716   5.709   4.689
  921SOL    HW2 3663   4.809   5.578   4.665
  922SOL     OW 3664   4.123   3.467   3.634
  922SOL    HW1 3665   4.110   3.565   3.619
  922SOL    HW2 3666   4.181   3.454   3.715
  923SOL     OW 3667   2.312   3.224   5.580
  923SOL    HW1 3668   2.260   3.263   5.656
  923SOL    HW2 3669   2.374   3.154   5.615
  924SOL     OW 3670   0.049   3.603   2.444
  924SOL    HW1 3671   7.006   3.640   2.512
  924SOL    HW2 3672   0.140   3.595   2.485
  925SOL     OW 3673   5.805   2.012   0.186
  925SOL    HW1 3674   5.712   1.974   0.188
  925SOL    HW2 3675   5.858   1.966   0.115
  926SOL     OW 3676   0.791   0.857   1.950
  926SOL    HW1 3677   0.697   0.826   1.961
  926SOL    HW2 3678   0.854   0.780   1.966
  927SOL     OW 3679   5.286   4.024   3.682
  927SOL    HW1 3680   5.285   4.028   3.781
  927SOL    HW2 3681   5.376   3.994   3.650
  928SOL     OW 3682   2.968   5.662   6.948
  928SOL    HW1 3683   3.050   5.609   6.924
  928SOL    HW2 3684   2.904   5.662   6.871
  929SOL     OW 3685   6.770   1.439   5.212
  929SOL    HW1 3686   6.722   1.509   5.265
  929SOL    HW2 3687   6.707   1.365   5.189
  930SOL     OW 3688   5.547   5.472   6.257
  930SOL    HW1 3689   5.642   5.485   6.284
  930SOL    HW2 3690   5.493   5.445   6.336
  931SOL     OW 3691   6.589   2.982   2.944
  931SOL    HW1 3692   6.501   3.010   2.906
  931SOL    HW2 3693   6.575   2.901   3.003
  932SOL     OW 3694   3.496   0.501   3.980
  932SOL    HW1 3695   3.596   0.508   3.984
  932SOL    HW2 3696   3.471   0.441   3.903
  933SOL     OW 3697   1.248   5.203   2.209
  933SOL    HW1 3698   1.192   5.277   2.170
  933SOL    HW2 3699   1.213   5.115   2.178
  934SOL     OW 3700   1.821   4.618   6.284
  934SOL    HW1 3701   1.738   4.577   6.321
  934SOL    HW2 3702   1.867   4.553   6.223
  935SOL     OW 3703   5.448   3.103   3.471
  935SOL    HW1 3704   5.478   3.193   3.503
  935SOL    HW2 3705   5.496   3.080   3.387
  936SOL     OW 3706   1.598   0.119   6.615
  936SOL    HW1 3707   1.647   0.158   6.693
  936SOL    HW2 3708   1.616   0.021   6.609
  937SOL     OW 3709   5.205   1.332   5.587
  937SOL    HW1 3710   5.163   1.369   5.504
  937SOL    HW2 3711   5.296   1.296   5.566
  938SOL     OW 3712   5.659   5.495   4.341
  938SOL    HW1 3713   5.596   5.508   4.264
  938SOL    HW2 3714   5.620   5.537   4.423
  939SOL     OW 3715   0.347   0.131   5.150
  939SOL    HW1 3716   0.411   0.082   5.091
  939SOL    HW2 3717   0.331   0.078   5.234
  940SOL     OW 3718   2.202   4.669   0.681
  940SOL    HW1 3719   2.293   4.639   0.707
  940SOL    HW2 3720   2.144   4.678   0.762
  941SOL     OW 3721   3.319   0.506   6.416
  941SOL    HW1 3722   3.240   0.464   6.373
  941SOL    HW2 3723   3.291   0.555   6.499
  942SOL     OW 3724   0.476   5.333   0.456
  942SOL    HW1 3725   0.435   5.248   0.489
  942SOL    HW2 3726   0.495   5.393   0.534
  943SOL     OW 3727   2.739   5.199   3.111
  943SOL    HW1 3728   2.734   5.298   3.101
  943SOL    HW2 3729   2.803   5.176   3.184
  944SOL     OW 3730   0.482   6.902   4.520
  944SOL    HW1 3731   0.395   6.853   4.518
  944SOL    HW2 3732   0.555   6.842   4.487
  945SOL     OW 3733   0.653   5.483   6.493
  945SOL    HW1 3734   0.621   5.407   6.436
  945SOL    HW2 3735   0.575   5.527   6.538
  946SOL     OW 3736   4.796   3.093   3.439
  946SOL    HW1 3737   4.890   3.062   3.454
  946SOL    HW2 3738   4.798   3.177   3.384
  947SOL     OW 3739   4.077   3.815   4.107
  947SOL    HW1 3740   4.157   3.781   4.157
  947SOL    HW2 3741   3.994   3.799   4.162
  948SOL     OW 3742   4.228   0.897   2.814
  948SOL    HW1 3743   4.279   0.937   2.890
  948SOL    HW2 3744   4.137   0.937   2.809
  949SOL     OW 3745   2.694   6.495   6.452
  949SOL    HW1 3746   2.781   6.504   6.501
  949SOL    HW2 3747   2.629   6.562   6.487
  950SOL     OW 3748   0.072   6.588   2.337
  950SOL    HW1 3749   0.011   6.508   2.338
  950SOL    HW2 3750   0.143   6.577   2.407
  951SOL     OW 3751   2.127   6.753   3.139
  951SOL    HW1 3752   2.041   6.804   3.145
  951SOL    HW2 3753   2.113   6.671   3.083
  952SOL     OW 3754   3.514   1.520   2.033
  952SOL    HW1 3755   3.515   1.595   2.099
  952SOL    HW2 3756   3.432   1.526   1.977
  953SOL     OW 3757   6.260   4.793   5.266
  953SOL    HW1 3758   6.165   4.775   5.293
  953SOL    HW2 3759   6.310   4.707   5.258
  954SOL     OW 3760   4.697   5.942   2.445
  954SOL    HW1 3761   4.669   5.930   2.350
  954SOL    HW2 3762   4.617   5.933   2.504
  955SOL     OW 3763   1.662   3.965   0.086
  955SOL    HW1 3764   1.591   3.959   0.156
  955SOL    HW2 3765   1.629   3.923   0.001
  956SOL     OW 3766   6.263   0.652   1.293
  956SOL    HW1 3767   6.358   0.649   1.324
  956SOL    HW2 3768   6.259   0.629   1.196
  957SOL     OW 3769   6.123   2.005   3.345
  957SOL    HW1 3770   6.104   1.907   3.333
  957SOL    HW2 3771   6.141   2.047   3.256
  958SOL     OW 3772   5.038   0.185   1.835
  958SOL    HW1 3773   5.066   0.281   1.841
  958SOL    HW2 3774   4.988   0.160   1.918
  959SOL     OW 3775   4.132   6.494   4.088
  959SOL    HW1 3776   4.122   6.418   4.152
  959SOL    HW2 3777   4.139   6.458   3.995
  960SOL     OW 3778   0.824   0.251   0.023
  960SOL    HW1 3779   0.765   0.235   0.102
  960SOL    HW2 3780   0.890   0.323   0.045
  961SOL     OW 3781   3.292   6.995   2.879
  961SOL    HW1 3782   3.283   0.011   2.786
  961SOL    HW2 3783   3.332   6.903   2.875
  962SOL     OW 3784   6.378   0.370   4.863
  962SOL    HW1 3785   6.456   0.310   4.883
  962SOL    HW2 3786   6.356   0.424   4.945
  963SOL     OW 3787   5.299   3.059   0.914
  963SOL    HW1 3788   5.351   3.140   0.886
  963SOL    HW2 3789   5.215   3.088   0.959
  964SOL     OW 3790   4.640   4.228   5.146
  964SOL    HW1 3791   4.607   4.135   5.161
  964SOL    HW2 3792   4.737   4.233   5.170
  965SOL     OW 3793   5.956   2.539   3.826
  965SOL    HW1 3794   5.874   2.595   3.841
  965SOL    HW2 3795   6.034   2.582   3.871
  966SOL     OW 3796   4.961   1.968   4.589
  966SOL    HW1 3797   4.999   1.885   4.631
  966SOL    HW2 3798   5.015   1.991   4.508
  967SOL     OW 3799   5.170   3.852   6.025
  967SOL    HW1 3800   5.214   3.929   6.072
  967SOL    HW2 3801   5.202   3.766   6.065
  968SOL     OW 3802   3.790   0.489   1.782
  968SOL    HW1 3803   3.720   0.422   1.760
  968SOL    HW2 3804   3.860   0.447   1.840
  969SOL     OW 3805   3.543   4.006   5.874
  969SOL    HW1 3806   3.584   3.917   5.854
  969SOL    HW2 3807   3.450   4.009   5.838
  970SOL     OW 3808   6.149   0.514   5.951
  970SOL    HW1 3809   6.183   0.468   5.868
  970SOL    HW2 3810   6.070   0.465   5.987
  971SOL     OW 3811   5.764   4.391   2.855
  971SOL    HW1 3812   5.676   4.364   2.893
  971SOL    HW2 3813   5.807   4.311   2.812
  972SOL     OW 3814   0.343   3.112   0.694
  972SOL    HW1 3815   0.433   3.109   0.650
  972SOL    HW2 3816   0.301   3.021   0.688
  973SOL     OW 3817   0.085   3.353   6.233
  973SOL    HW1 3818   0.078   3.380   6.137
  973SOL    HW2 3819   7.016   3.366   6.278
  974SOL     OW 3820   0.235   5.523   3.779
  974SOL    HW1 3821   0.294   5.599   3.805
  974SOL    HW2 3822   0.280   5.469   3.708
  975SOL     OW 3823   2.668   6.874   2.067
  975SOL    HW1 3824   2.593   6.809   2.076
  975SOL    HW2 3825   2.654   6.930   1.985
  976SOL     OW 3826   6.296   3.579   2.624
  976SOL    HW1 3827   6.325   3.498   2.574
  976SOL    HW2 3828   6.211   3.615   2.584
  977SOL     OW 3829   0.271   0.992   2.435
  977SOL    HW1 3830   0.358   0.943   2.449
  977SOL    HW2 3831   0.258   1.058   2.510
  978SOL     OW 3832   5.378   3.313   1.619
  978SOL    HW1 3833   5.417   3.241   1.562
  978SOL    HW2 3834   5.441   3.391   1.620
  979SOL     OW 3835   0.214   4.305   6.683
  979SOL    HW1 3836   0.220   4.403   6.660
  979SOL    HW2 3837   0.159   4.294   6.766
  980SOL     OW 3838   3.578   1.642   4.683
  980SOL    HW1 3839   3.614   1.735   4.692
  980SOL    HW2 3840   3.481   1.642   4.706
  981SOL     OW 3841   6.594   6.120   5.400
  981SOL    HW1 3842   6.648   6.106   5.483
  981SOL    HW2 3843   6.505   6.074   5.410
  982SOL     OW 3844   6.628   1.118   4.893
  982SOL    HW1 3845   6.623   1.213   4.923
  982SOL    HW2 3846   6.722   1.086   4.899
  983SOL     OW 3847   0.109   4.911   4.240
  983SOL    HW1 3848   0.034   4.849   4.265
  983SOL    HW2 3849   0.164   4.869   4.169
  984SOL     OW 3850   1.088   2.235   3.013
  984SOL    HW1 3851   1.061   2.277   3.100
  984SOL    HW2 3852   1.062   2.139   3.013
  985SOL     OW 3853   6.670   4.476   4.510
  985SOL    HW1 3854   6.612   4.455   4.431
  985SOL    HW2 3855   6.738   4.403   4.521
  986SOL     OW 3856   4.994   5.056   1.337
  986SOL    HW1 3857   4.982   5.087   1.243
  986SOL    HW2 3858   5.089   5.029   1.351
  987SOL     OW 3859   5.171   5.001   4.041
  987SOL    HW1 3860   5.210   4.912   4.065
  987SOL    HW2 3861   5.216   5.072   4.096
  988SOL     OW 3862   3.075   4.211   1.432
  988SOL    HW1 3863   3.063   4.299   1.478
  988SOL    HW2 3864   2.992   4.157   1.443
  989SOL     OW 3865   0.543   1.277   1.007
  989SOL    HW1 3866   0.534   1.287   0.908
  989SOL    HW2 3867   0.463   1.317   1.052
  990SOL     OW 3868   3.880   0.091   3.904
  990SOL    HW1 3869   3.952   0.066   3.970
  990SOL    HW2 3870   3.922   0.120   3.819
  991SOL     OW 3871   6.986   4.774   3.631
  991SOL    HW1 3872   0.056   4.812   3.610
  991SOL    HW2 3873   6.915   4.835   3.596
  992SOL     OW 3874   0.397   2.548   1.075
  992SOL    HW1 3875   0.335   2.484   1.031
  992SOL    HW2 3876   0.452   2.499   1.143
  993SOL     OW 3877   1.385   4.934   0.663
  993SOL    HW1 3878   1.353   5.025   0.689
  993SOL    HW2 3879   1.442   4.941   0.581
  994SOL     OW 3880   3.064   6.292   6.591
  994SOL    HW1 3881   3.153   6.291   6.636
  994SOL    HW2 3882   3.075   6.263   6.496
  995SOL     OW 3883   6.118   3.425   6.099
  995SOL    HW1 3884   6.113   3.521   6.073
  995SOL    HW2 3885   6.026   3.388   6.107
  996SOL     OW 3886   3.721   6.184   6.093
  996SOL    HW1 3887   3.811   6.227   6.087
  996SOL    HW2 3888   3.654   6.251   6.126
  997SOL     OW 3889   1.322   5.362   3.842
  997SOL    HW1 3890   1.343   5.266   3.826
  997SOL    HW2 3891   1.343   5.415   3.760
  998SOL     OW 3892   6.635   0.365   6.727
  998SOL    HW1 3893   6.588   0.424   6.662
  998SOL    HW2 3894   6.572   0.337   6.799
  999SOL     OW 3895   4.865   4.041   2.442
  999SOL    HW1 3896   4.812   4.070   2.363
  999SOL    HW2 3897   4.894   3.946   2.430
 1000SOL     OW 3898   4.290   1.542   1.336
 1000SOL    HW1 3899   4.284   1.470   1.406
 1000SOL    HW2 3900   4.207   1.598   1.338
 1001SOL     OW 3901   3.196   6.252   2.479
 1001SOL    HW1 3902   3.279   6.211   2.440
 1001SOL    HW2 3903   3.124   6.252   2.410
 1002SOL     OW 3904   5.602   2.125   1.293
 1002SOL    HW1 3905   5.668   2.190   1.255
 1002SOL    HW2 3906   5.522   2.120   1.233
 1003SOL     OW 3907   0.392   0.242   3.184
 1003SOL    HW1 3908   0.373   0.200   3.095
 1003SOL    HW2 3909   0.313   0.229   3.244
 1004SOL     OW 3910   5.422   1.587   3.799
 1004SOL    HW1 3911   5.332   1.589   3.844
 1004SOL    HW2 3912   5.491   1.560   3.866
 1005SOL     OW 3913   1.157   4.259   2.955
 1005SOL    HW1 3914   1.123   4.299   2.870
 1005SOL    HW2 3915   1.255   4.244   2.948
 1006SOL     OW 3916   2.945   3.431   1.144
 1006SOL    HW1 3917   3.013   3.440   1.071
 1006SOL    HW2 3918   2.990   3.414   1.231
 1007SOL     OW 3919   4.979   1.311   6.887
 1007SOL    HW1 3920   4.974   1.234   6.952
 1007SOL    HW2 3921   4.987   1.276   6.794
 1008SOL     OW 3922   0.048   4.915   4.856
 1008SOL    HW1 3923   0.026   4.998   4.908
 1008SOL    HW2 3924   0.124   4.868   4.900
 1009SOL     OW 3925   6.618   5.621   6.653
 1009SOL    HW1 3926   6.556   5.543   6.658
 1009SOL    HW2 3927   6.602   5.671   6.569
 1010SOL     OW 3928   2.799   3.068   1.372
 1010SOL    HW1 3929   2.703   3.095   1.360
 1010SOL    HW2 3930   2.838   3.119   1.449
 1011SOL     OW 3931   6.470   5.209   2.320
 1011SOL    HW1 3932   6.501   5.141   2.387
 1011SOL    HW2 3933   6.370   5.205   2.313
 1012SOL     OW 3934   4.798   0.541   2.772
 1012SOL    HW1 3935   4.814   0.489   2.856
 1012SOL    HW2 3936   4.705   0.523   2.739
 1013SOL     OW 3937   6.793   6.912   6.659
 1013SOL    HW1 3938   6.855   6.989   6.640
 1013SOL    HW2 3939   6.771   6.912   6.757
 1014SOL     OW 3940   1.043   5.088   4.472
 1014SOL    HW1 3941   1.086   5.111   4.559
 1014SOL    HW2 3942   1.082   5.146   4.400
 1015SOL     OW 3943   3.291   6.265   6.781
 1015SOL    HW1 3944   3.340   6.228   6.860
 1015SOL    HW2 3945   3.340   6.240   6.697
 1016SOL     OW 3946   6.114   4.048   1.785
 1016SOL    HW1 3947   6.201   4.048   1.736
 1016SOL    HW2 3948   6.062   3.966   1.761
 1017SOL     OW 3949   2.018   1.752   2.510
 1017SOL    HW1 3950   2.047   1.828   2.452
 1017SOL    HW2 3951   2.099   1.703   2.542
 1018SOL     OW 3952   0.236   5.688   3.364
 1018SOL    HW1 3953   0.190   5.602   3.344
 1018SOL    HW2 3954   0.306   5.674   3.434
 1019SOL     OW 3955   6.410   4.721   1.003
 1019SOL    HW1 3956   6.420   4.821   1.002
 1019SOL    HW2 3957   6.314   4.698   0.986
 1020SOL     OW 3958   6.640   0.616   0.760
 1020SOL    HW1 3959   6.670   0.544   0.697
 1020SOL    HW2 3960   6.706   0.624   0.835
 1021SOL     OW 3961   6.776   6.120   1.188
 1021SOL    HW1 3962   6.733   6.096   1.276
 1021SOL    HW2 3963   6.855   6.179   1.205
 1022SOL     OW 3964   1.955   6.299   6.353
 1022SOL    HW1 3965   1.972   6.384   6.402
 1022SOL    HW2 3966   1.904   6.236   6.411
 1023SOL     OW 3967   0.691   1.630   3.316
 1023SOL    HW1 3968   0.783   1.667   3.329
 1023SOL    HW2 3969   0.682   1.544   3.365
 1024SOL     OW 3970   1.401   1.950   4.925
 1024SOL    HW1 3971   1.496   1.935   4.899
 1024SOL    HW2 3972   1.346   1.872   4.897
 1025SOL     OW 3973   4.624   3.588   0.589
 1025SOL    HW1 3974   4.616   3.569   0.491
 1025SOL    HW2 3975   4.587   3.511   0.641
 1026SOL     OW 3976   3.454   2.598   1.060
 1026SOL    HW1 3977   3.452   2.632   0.966
 1026SOL    HW2 3978   3.526   2.529   1.069
 1027SOL     OW 3979   0.220   6.572   0.852
 1027SOL    HW1 3980   0.125   6.539   0.846
 1027SOL    HW2 3981   0.250   6.569   0.947
 1028SOL     OW 3982   1.471   6.247   2.574
 1028SOL    HW1 3983   1.510   6.224   2.485
 1028SOL    HW2 3984   1.463   6.165   2.630
 1029SOL     OW 3985   0.953   1.325   6.499
 1029SOL    HW1 3986   1.035   1.356   6.451
 1029SOL    HW2 3987   0.879   1.313   6.433
 1030SOL     OW 3988   3.570   3.151   1.577
 1030SOL    HW1 3989   3.481   3.115   1.608
 1030SOL    HW2 3990   3.554   3.230   1.517
 1031SOL     OW 3991   3.447   3.643   1.350
 1031SOL    HW1 3992   3.349   3.640   1.369
 1031SOL    HW2 3993   3.463   3.697   1.267
 1032SOL     OW 3994   2.141   2.203   5.970
 1032SOL    HW1 3995   2.137   2.115   5.922
 1032SOL    HW2 3996   2.193   2.192   6.054
 1033SOL     OW 3997   1.142   6.345   1.890
 1033SOL    HW1 3998   1.048   6.365   1.867
 1033SOL    HW2 3999   1.187   6.300   1.813
 1034SOL     OW 4000   3.015   6.910   4.383
 1034SOL    HW1 4001   3.066   6.828   4.411
 1034SOL    HW2 4002   2.970   6.951   4.463
 1035SOL     OW 4003   1.303   2.168   5.809
 1035SOL    HW1 4004   1.288   2.168   5.907
 1035SOL    HW2 4005   1.360   2.247   5.784
 1036SOL     OW 4006   4.586   1.745   1.033
 1036SOL    HW1 4007   4.610   1.817   1.098
 1036SOL    HW2 4008   4.651   1.670   1.041
 1037SOL     OW 4009   1.597   2.706   2.578
 1037SOL    HW1 4010   1.696   2.693   2.577
 1037SOL    HW2 4011   1.554   2.625   2.618
 1038SOL     OW 4012   3.118   6.349   6.991
 1038SOL    HW1 4013   3.160   6.357   6.901
 1038SOL    HW2 4014   3.080   6.438   7.018
 1039SOL     OW 4015   3.352   2.956   3.670
 1039SOL    HW1 4016   3.390   3.042   3.637
 1039SOL    HW2 4017   3.301   2.972   3.755
 1040SOL     OW 4018   4.171   0.847   3.192
 1040SOL    HW1 4019   4.130   0.932   3.160
 1040SOL    HW2 4020   4.127   0.769   3.147
 1041SOL     OW 4021   6.852   6.082   6.311
 1041SOL    HW1 4022   6.832   6.058   6.406
 1041SOL    HW2 4023   6.810   6.171   6.290
 1042SOL     OW 4024   5.371   4.691   2.594
 1042SOL    HW1 4025   5.306   4.619   2.569
 1042SOL    HW2 4026   5.393   4.746   2.513
 1043SOL     OW 4027   3.149   2.125   3.955
 1043SOL    HW1 4028   3.211   2.124   3.877
 1043SOL    HW2 4029   3.200   2.144   4.039
 1044SOL     OW 4030   5.424   4.706   1.720
 1044SOL    HW1 4031   5.446   4.706   1.622
 1044SOL    HW2 4032   5.495   4.657   1.770
 1045SOL     OW 4033   2.331   0.310   3.559
 1045SOL    HW1 4034   2.347   0.404   3.530
 1045SOL    HW2 4035   2.302   0.255   3.480
 1046SOL     OW 4036   2.881   1.284   1.032
 1046SOL    HW1 4037   2.922   1.341   1.103
 1046SOL    HW2 4038   2.838   1.342   0.963
 1047SOL     OW 4039   3.607   6.848   3.020
 1047SOL    HW1 4040   3.575   6.759   2.988
 1047SOL    HW2 4041   3.569   6.920   2.963
 1048SOL     OW 4042   1.648   6.655   1.897
 1048SOL    HW1 4043   1.581   6.672   1.825
 1048SOL    HW2 4044   1.663   6.740   1.949
 1049SOL     OW 4045   4.144   5.808   5.505
 1049SOL    HW1 4046   4.191   5.822   5.418
 1049SOL    HW2 4047   4.077   5.735   5.496
 1050SOL     OW 4048   3.389   5.017   3.348
 1050SOL    HW1 4049   3.463   4.990   3.409
 1050SOL    HW2 4050   3.413   5.102   3.301
 1051SOL     OW 4051   0.490   6.999   0.218
 1051SOL    HW1 4052   0.556   6.951   0.277
 1051SOL    HW2 4053   0.471   6.943   0.138
 1052SOL     OW 4054   3.664   0.964   6.602
 1052SOL    HW1 4055   3.580   0.911   6.590
 1052SOL    HW2 4056   3.741   0.914   6.562
 1053SOL     OW 4057   5.941   2.892   2.867
 1053SOL    HW1 4058   5.888   2.857   2.790
 1053SOL    HW2 4059   6.002   2.820   2.901
 1054SOL     OW 4060   3.197   4.612   6.468
 1054SOL    HW1 4061   3.262   4.640   6.539
 1054SOL    HW2 4062   3.146   4.691   6.436
 1055SOL     OW 4063   4.865   6.198   7.002
 1055SOL    HW1 4064   4.946   6.140   6.994
 1055SOL    HW2 4065   4.874   6.254   0.064
 1056SOL     OW 4066   2.695   3.755   6.226
 1056SOL    HW1 4067   2.654   3.815   6.295
 1056SOL    HW2 4068   2.757   3.691   6.271
 1057SOL     OW 4069   2.857   1.783   1.134
 1057SOL    HW1 4070   2.799   1.706   1.157
 1057SOL    HW2 4071   2.931   1.790   1.201
 1058SOL     OW 4072   2.458   2.630   2.730
 1058SOL    HW1 4073   2.470   2.563   2.657
 1058SOL    HW2 4074   2.458   2.722   2.691
 1059SOL     OW 4075   2.942   6.303   1.546
 1059SOL    HW1 4076   2.942   6.203   1.539
 1059SOL    HW2 4077   2.891   6.341   1.469
 1060SOL     OW 4078   6.038   6.418   5.206
 1060SOL    HW1 4079   6.119   6.392   5.257
 1060SOL    HW2 4080   6.010   6.343   5.146
 1061SOL     OW 4081   6.814   4.164   6.865
 1061SOL    HW1 4082   6.721   4.166   6.901
 1061SOL    HW2 4083   6.812   4.179   6.766
 1062SOL     OW 4084   3.579   6.462   5.500
 1062SOL    HW1 4085   3.559   6.395   5.572
 1062SOL    HW2 4086   3.533   6.434   5.416
 1063SOL     OW 4087   2.490   6.095   6.056
 1063SOL    HW1 4088   2.432   6.071   6.135
 1063SOL    HW2 4089   2.515   6.011   6.007
 1064SOL     OW 4090   1.511   4.016   0.303
 1064SOL    HW1 4091   1.511   4.113   0.329
 1064SOL    HW2 4092   1.484   3.961   0.382
 1065SOL     OW 4093   4.421   0.491   4.262
 1065SOL    HW1 4094   4.506   0.531   4.296
 1065SOL    HW2 4095   4.344   0.528   4.314
 1066SOL     OW 4096   4.680   0.196   1.940
 1066SOL    HW1 4097   4.762   0.250   1.961
 1066SOL    HW2 4098   4.643   0.158   2.025
 1067SOL     OW 4099   2.506   1.015   0.328
 1067SOL    HW1 4100   2.409   1.030   0.343
 1067SOL    HW2 4101   2.550   1.101   0.300
 1068SOL     OW 4102   5.948   3.424   0.931
 1068SOL    HW1 4103   5.936   3.333   0.972
 1068SOL    HW2 4104   6.014   3.418   0.857
 1069SOL     OW 4105   6.739   4.238   1.652
 1069SOL    HW1 4106   6.654   4.270   1.695
 1069SOL    HW2 4107   6.810   4.226   1.722
 1070SOL     OW 4108   1.175   0.011   1.777
 1070SOL    HW1 4109   1.141   7.020   1.684
 1070SOL    HW2 4110   1.243   0.085   1.778
 1071SOL     OW 4111   6.834   3.212   5.730
 1071SOL    HW1 4112   6.923   3.217   5.685
 1071SOL    HW2 4113   6.842   3.157   5.813
 1072SOL     OW 4114   2.617   1.303   1.876
 1072SOL    HW1 4115   2.529   1.273   1.911
 1072SOL    HW2 4116   2.690   1.274   1.938
 1073SOL     OW 4117   5.046   1.637   3.418
 1073SOL    HW1 4118   5.094   1.695   3.484
 1073SOL    HW2 4119   5.104   1.561   3.390
 1074SOL     OW 4120   2.733   4.651   1.699
 1074SOL    HW1 4121   2.782   4.603   1.773
 1074SOL    HW2 4122   2.681   4.727   1.738
 1075SOL     OW 4123   5.815   3.301   5.072
 1075SOL    HW1 4124   5.815   3.340   4.980
 1075SOL    HW2 4125   5.725   3.312   5.114
 1076SOL     OW 4126   2.138   3.816   5.027
 1076SOL    HW1 4127   2.195   3.898   5.021
 1076SOL    HW2 4128   2.070   3.828   5.099
 1077SOL     OW 4129   0.201   6.816   0.160
 1077SOL    HW1 4130   0.145   6.751   0.211
 1077SOL    HW2 4131   0.197   6.905   0.204
 1078SOL     OW 4132   0.017   6.405   3.887
 1078SOL    HW1 4133   6.978   6.329   3.859
 1078SOL    HW2 4134   6.983   6.473   3.936
 1079SOL     OW 4135   1.081   6.406   2.715
 1079SOL    HW1 4136   1.069   6.310   2.689
 1079SOL    HW2 4137   1.173   6.436   2.690
 1080SOL     OW 4138   2.104   5.048   6.382
 1080SOL    HW1 4139   2.042   4.971   6.366
 1080SOL    HW2 4140   2.198   5.017   6.371
 1081SOL     OW 4141   6.639   5.789   4.267
 1081SOL    HW1 4142   6.726   5.833   4.291
 1081SOL    HW2 4143   6.645   5.691   4.284
 1082SOL     OW 4144   5.425   0.258   5.989
 1082SOL    HW1 4145   5.415   0.347   5.945
 1082SOL    HW2 4146   5.338   0.231   6.032
 1083SOL     OW 4147   5.149   4.140   1.092
 1083SOL    HW1 4148   5.050   4.142   1.083
 1083SOL    HW2 4149   5.174   4.160   1.187
 1084SOL     OW 4150   6.961   0.154   6.170
 1084SOL    HW1 4151   6.886   0.201   6.121
 1084SOL    HW2 4152   0.028   0.196   6.144
 1085SOL     OW 4153   1.752   3.893   4.180
 1085SOL    HW1 4154   1.666   3.880   4.228
 1085SOL    HW2 4155   1.776   3.990   4.181
 1086SOL     OW 4156   6.147   5.265   0.445
 1086SOL    HW1 4157   6.153   5.325   0.365
 1086SOL    HW2 4158   6.216   5.192   0.437
 1087SOL     OW 4159   2.794   0.053   5.364
 1087SOL    HW1 4160   2.738   0.130   5.333
 1087SOL    HW2 4161   2.875   0.088   5.410
 1088SOL     OW 4162   6.944   4.725   3.327
 1088SOL    HW1 4163   6.968   4.818   3.299
 1088SOL    HW2 4164   6.921   4.724   3.424
 1089SOL     OW 4165   6.338   4.568   4.337
 1089SOL    HW1 4166   6.407   4.497   4.347
 1089SOL    HW2 4167   6.309   4.599   4.427
 1090SOL     OW 4168   5.245   1.615   4.866
 1090SOL    HW1 4169   5.332   1.584   4.830
 1090SOL    HW2 4170   5.260   1.670   4.948
 1091SOL     OW 4171   2.473   2.478   3.532
 1091SOL    HW1 4172   2.394   2.417   3.534
 1091SOL    HW2 4173   2.507   2.492   3.625
 1092SOL     OW 4174   0.879   5.385   0.732
 1092SOL    HW1 4175   0.936   5.377   0.651
 1092SOL    HW2 4176   0.846   5.479   0.742
 1093SOL     OW 4177   2.150   6.889   1.614
 1093SOL    HW1 4178   2.205   6.841   1.682
 1093SOL    HW2 4179   2.185   6.982   1.602
 1094SOL     OW 4180   0.890   0.377   2.837
 1094SOL    HW1 4181   0.872   0.409   2.745
 1094SOL    HW2 4182   0.978   0.329   2.839
 1095SOL     OW 4183   6.468   3.414   0.296
 1095SOL    HW1 4184   6.375   3.390   0.323
 1095SOL    HW2 4185   6.515   3.332   0.262
 1096SOL     OW 4186   3.057   5.343   1.604
 1096SOL    HW1 4187   2.983   5.308   1.547
 1096SOL    HW2 4188   3.020   5.371   1.693
 1097SOL     OW 4189   3.511   5.384   4.332
 1097SOL    HW1 4190   3.562   5.429   4.259
 1097SOL    HW2 4191   3.565   5.310   4.370
 1098SOL     OW 4192   5.957   5.053   0.701
 1098SOL    HW1 4193   5.956   5.013   0.609
 1098SOL    HW2 4194   6.019   5.131   0.702
 1099SOL     OW 4195   4.830   0.529   6.091
 1099SOL    HW1 4196   4.753   0.513   6.029
 1099SOL    HW2 4197   4.834   0.626   6.115
 1100SOL     OW 4198   3.230   1.835   4.030
 1100SOL    HW1 4199   3.308   1.883   4.069
 1100SOL    HW2 4200   3.151   1.844   4.091
 1101SOL     OW 4201   6.510   3.142   6.007
 1101SOL    HW1 4202   6.440   3.078   5.976
 1101SOL    HW2 4203   6.474   3.235   6.004
 1102SOL     OW 4204   3.203   1.180   4.498
 1102SOL    HW1 4205   3.145   1.137   4.428
 1102SOL    HW2 4206   3.271   1.238   4.454
 1103SOL     OW 4207   2.871   6.898   6.574
 1103SOL    HW1 4208   2.911   6.845   6.498
 1103SOL    HW2 4209   2.938   6.906   6.647
 1104SOL     OW 4210   0.194   3.413   3.693
 1104SOL    HW1 4211   0.107   3.457   3.715
 1104SOL    HW2 4212   0.179   3.315   3.680
 1105SOL     OW 4213   5.320   0.934   5.379
 1105SOL    HW1 4214   5.390   1.004   5.370
 1105SOL    HW2 4215   5.363   0.845   5.397
 1106SOL     OW 4216   0.280   1.792   0.701
 1106SOL    HW1 4217   0.376   1.803   0.676
 1106SOL    HW2 4218   0.270   1.801   0.800
 1107SOL     OW 4219   1.197   0.783   0.752
 1107SOL    HW1 4220   1.115   0.837   0.773
 1107SOL    HW2 4221   1.197   0.759   0.655
 1108SOL     OW 4222   2.581   6.424   4.359
 1108SOL    HW1 4223   2.603   6.423   4.456
 1108SOL    HW2 4224   2.612   6.338   4.317
 1109SOL     OW 4225   5.291   1.426   4.507
 1109SOL    HW1 4226   5.236   1.485   4.449
 1109SOL    HW2 4227   5.363   1.481   4.551
 1110SOL     OW 4228   3.684   0.852   2.838
 1110SOL    HW1 4229   3.692   0.753   2.821
 1110SOL    HW2 4230   3.670   0.900   2.751
 1111SOL     OW 4231   5.241   3.844   6.749
 1111SOL    HW1 4232   5.156   3.861   6.698
 1111SOL    HW2 4233   5.313   3.818   6.685
 1112SOL     OW 4234   5.110   0.211   2.387
 1112SOL    HW1 4235   5.086   0.294   2.438
 1112SOL    HW2 4236   5.057   0.134   2.421
 1113SOL     OW 4237   5.390   4.302   2.499
 1113SOL    HW1 4238   5.444   4.347   2.571
 1113SOL    HW2 4239   5.378   4.206   2.521
 1114SOL     OW 4240   4.069   3.464   5.440
 1114SOL    HW1 4241   4.121   3.528   5.384
 1114SOL    HW2 4242   4.063   3.376   5.393
 1115SOL     OW 4243   3.072   4.426   5.581
 1115SOL    HW1 4244   3.040   4.349   5.636
 1115SOL    HW2 4245   3.042   4.414   5.486
 1116SOL     OW 4246   4.782   0.018   6.487
 1116SOL    HW1 4247   4.876   7.019   6.515
 1116SOL    HW2 4248   4.719   6.995   6.551
 1117SOL     OW 4249   1.370   3.213   1.978
 1117SOL    HW1 4250   1.354   3.299   1.930
 1117SOL    HW2 4251   1.378   3.139   1.912
 1118SOL     OW 4252   3.184   4.703   6.726
 1118SOL    HW1 4253   3.198   4.658   6.814
 1118SOL    HW2 4254   3.085   4.712   6.710
 1119SOL     OW 4255   3.880   4.933   4.006
 1119SOL    HW1 4256   3.783   4.910   4.020
 1119SOL    HW2 4257   3.906   5.006   4.070
 1120SOL     OW 4258   6.726   5.297   1.237
 1120SOL    HW1 4259   6.795   5.344   1.292
 1120SOL    HW2 4260   6.771   5.227   1.181
 1121SOL     OW 4261   6.522   4.999   4.785
 1121SOL    HW1 4262   6.566   4.911   4.769
 1121SOL    HW2 4263   6.571   5.070   4.735
 1122SOL     OW 4264   5.333   2.889   1.756
 1122SOL    HW1 4265   5.316   2.985   1.781
 1122SOL    HW2 4266   5.251   2.835   1.774
 1123SOL     OW 4267   4.352   1.850   3.367
 1123SOL    HW1 4268   4.330   1.846   3.270
 1123SOL    HW2 4269   4.450   1.867   3.379
 1124SOL     OW 4270   2.269   2.846   4.853
 1124SOL    HW1 4271   2.336   2.881   4.919
 1124SOL    HW2 4272   2.234   2.757   4.885
 1125SOL     OW 4273   0.916   3.817   3.460
 1125SOL    HW1 4274   0.874   3.739   3.506
 1125SOL    HW2 4275   0.979   3.785   3.389
 1126SOL     OW 4276   3.762   5.127   5.227
 1126SOL    HW1 4277   3.674   5.129   5.180
 1126SOL    HW2 4278   3.834   5.107   5.162
 1127SOL     OW 4279   5.781   6.749   2.941
 1127SOL    HW1 4280   5.755   6.660   2.979
 1127SOL    HW2 4281   5.818   6.737   2.849
 1128SOL     OW 4282   6.134   1.588   3.138
 1128SOL    HW1 4283   6.075   1.522   3.185
 1128SOL    HW2 4284   6.116   1.585   3.040
 1129SOL     OW 4285   1.901   0.389   0.740
 1129SOL    HW1 4286   1.829   0.392   0.809
 1129SOL    HW2 4287   1.938   0.481   0.727
 1130SOL     OW 4288   2.108   4.853   2.376
 1130SOL    HW1 4289   2.151   4.890   2.294
 1130SOL    HW2 4290   2.067   4.764   2.355
 1131SOL     OW 4291   1.574   6.079   3.894
 1131SOL    HW1 4292   1.558   6.134   3.812
 1131SOL    HW2 4293   1.640   6.127   3.953
 1132SOL     OW 4294   3.587   1.288   2.717
 1132SOL    HW1 4295   3.532   1.303   2.799
 1132SOL    HW2 4296   3.659   1.358   2.713
 1133SOL     OW 4297   1.517   6.891   5.163
 1133SOL    HW1 4298   1.465   6.805   5.158
 1133SOL    HW2 4299   1.540   6.921   5.070
 1134SOL     OW 4300   3.989   6.861   1.486
 1134SOL    HW1 4301   3.954   6.846   1.393
 1134SOL    HW2 4302   3.947   6.796   1.548
 1135SOL     OW 4303   2.157   5.926   3.771
 1135SOL    HW1 4304   2.232   5.861   3.783
 1135SOL    HW2 4305   2.193   6.014   3.738
 1136SOL     OW 4306   2.658   6.056   1.778
 1136SOL    HW1 4307   2.592   6.132   1.785
 1136SOL    HW2 4308   2.609   5.971   1.761
 1137SOL     OW 4309   0.384   5.778   5.674
 1137SOL    HW1 4310   0.319   5.713   5.634
 1137SOL    HW2 4311   0.477   5.748   5.651
 1138SOL     OW 4312   2.365   2.826   4.570
 1138SOL    HW1 4313   2.314   2.876   4.500
 1138SOL    HW2 4314   2.350   2.868   4.660
 1139SOL     OW 4315   2.760   5.448   4.034
 1139SOL    HW1 4316   2.840   5.443   4.094
 1139SOL    HW2 4317   2.680   5.415   4.084
 1140SOL     OW 4318   1.282   1.850   1.668
 1140SOL    HW1 4319   1.233   1.766   1.644
 1140SOL    HW2 4320   1.364   1.827   1.719
 1141SOL     OW 4321   6.129   4.449   6.493
 1141SOL    HW1 4322   6.148   4.532   6.544
 1141SOL    HW2 4323   6.177   4.452   6.405
 1142SOL     OW 4324   2.566   0.178   2.480
 1142SOL    HW1 4325   2.534   0.083   2.474
 1142SOL    HW2 4326   2.535   0.218   2.566
 1143SOL     OW 4327   1.156   3.927   1.820
 1143SOL    HW1 4328   1.236   3.984   1.838
 1143SOL    HW2 4329   1.127   3.881   1.904
 1144SOL     OW 4330   5.196   4.309   2.048
 1144SOL    HW1 4331   5.211   4.232   1.986
 1144SOL    HW2 4332   5.279   4.364   2.055
 1145SOL     OW 4333   6.953   1.586   0.540
 1145SOL    HW1 4334   6.881   1.560   0.476
 1145SOL    HW2 4335   6.946   1.530   0.623
 1146SOL     OW 4336   0.974   1.278   1.467
 1146SOL    HW1 4337   0.903   1.220   1.508
 1146SOL    HW2 4338   0.996   1.244   1.376
 1147SOL     OW 4339   3.241   6.560   1.107
 1147SOL    HW1 4340   3.195   6.509   1.033
 1147SOL    HW2 4341   3.339   6.564   1.088
 1148SOL     OW 4342   4.282   5.634   2.775
 1148SOL    HW1 4343   4.257   5.567   2.845
 1148SOL    HW2 4344   4.375   5.616   2.743
 1149SOL     OW 4345   4.729   2.679   1.527
 1149SOL    HW1 4346   4.687   2.733   1.599
 1149SOL    HW2 4347   4.660   2.623   1.482
 1150SOL     OW 4348   2.071   4.212   6.916
 1150SOL    HW1 4349   2.028   4.141   6.860
 1150SOL    HW2 4350   2.001   4.259   6.969
 1151SOL     OW 4351   6.393   5.623   3.965
 1151SOL    HW1 4352   6.477   5.675   3.951
 1151SOL    HW2 4353   6.325   5.651   3.897
 1152SOL     OW 4354   4.252   6.935   6.213
 1152SOL    HW1 4355   4.222   6.871   6.141
 1152SOL    HW2 4356   4.196   7.018   6.209
 1153SOL     OW 4357   6.327   0.695   0.947
 1153SOL    HW1 4358   6.262   0.723   0.877
 1153SOL    HW2 4359   6.364   0.605   0.925
 1154SOL     OW 4360   2.248   2.577   1.594
 1154SOL    HW1 4361   2.247   2.548   1.690
 1154SOL    HW2 4362   2.208   2.667   1.586
 1155SOL     OW 4363   2.802   5.838   5.098
 1155SOL    HW1 4364   2.764   5.873   5.184
 1155SOL    HW2 4365   2.738   5.773   5.057
 1156SOL     OW 4366   3.444   1.961   4.197
 1156SOL    HW1 4367   3.511   1.960   4.271
 1156SOL    HW2 4368   3.392   2.046   4.200
 1157SOL     OW 4369   3.676   1.215   5.710
 1157SOL    HW1 4370   3.604   1.171   5.657
 1157SOL    HW2 4371   3.717   1.289   5.657
 1158SOL     OW 4372   5.638   6.179   3.006
 1158SOL    HW1 4373   5.709   6.215   3.066
 1158SOL    HW2 4374   5.560   6.242   3.004
 1159SOL     OW 4375   6.242   6.558   2.350
 1159SOL    HW1 4376   6.270   6.557   2.446
 1159SOL    HW2 4377   6.308   6.506   2.296
 1160SOL     OW 4378   4.882   1.126   0.922
 1160SOL    HW1 4379   4.831   1.212   0.914
 1160SOL    HW2 4380   4.955   1.124   0.853
 1161SOL     OW 4381   0.305   5.624   6.637
 1161SOL    HW1 4382   0.401   5.652   6.626
 1161SOL    HW2 4383   0.298   5.556   6.709
 1162SOL     OW 4384   2.401   2.293   4.955
 1162SOL    HW1 4385   2.303   2.307   4.970
 1162SOL    HW2 4386   2.451   2.313   5.039
 1163SOL     OW 4387   6.358   4.050   1.682
 1163SOL    HW1 4388   6.432   4.106   1.718
 1163SOL    HW2 4389   6.378   3.953   1.698
 1164SOL     OW 4390   4.723   2.061   4.690
 1164SOL    HW1 4391   4.657   1.987   4.702
 1164SOL    HW2 4392   4.803   2.028   4.640
 1165SOL     OW 4393   3.891   6.443   3.196
 1165SOL    HW1 4394   3.824   6.419   3.265
 1165SOL    HW2 4395   3.848   6.499   3.125
 1166SOL     OW 4396   2.055   5.914   6.840
 1166SOL    HW1 4397   2.050   5.828   6.790
 1166SOL    HW2 4398   2.023   5.901   6.934
 1167SOL     OW 4399   5.691   4.618   2.768
 1167SOL    HW1 4400   5.660   4.667   2.849
 1167SOL    HW2 4401   5.725   4.527   2.794
 1168SOL     OW 4402   6.240   2.113   3.069
 1168SOL    HW1 4403   6.235   2.025   3.022
 1168SOL    HW2 4404   6.323   2.161   3.042
 1169SOL     OW 4405   5.510   0.476   5.311
 1169SOL    HW1 4406   5.462   0.537   5.373
 1169SOL    HW2 4407   5.501   0.382   5.343
 1170SOL     OW 4408   4.911   6.884   3.531
 1170SOL    HW1 4409   4.912   6.854   3.627
 1170SOL    HW2 4410   4.890   6.807   3.472
 1171SOL     OW 4411   1.142   0.372   1.134
 1171SOL    HW1 4412   1.203   0.328   1.200
 1171SOL    HW2 4413   1.136   0.470   1.154
 1172SOL     OW 4414   0.152   3.744   6.585
 1172SOL    HW1 4415   0.241   3.699   6.595
 1172SOL    HW2 4416   0.095   3.723   6.664
 1173SOL     OW 4417   3.015   1.454   1.173
 1173SOL    HW1 4418   3.022   1.513   1.092
 1173SOL    HW2 4419   3.097   1.465   1.229
 1174SOL     OW 4420   3.731   3.265   1.135
 1174SOL    HW1 4421   3.820   3.304   1.161
 1174SOL    HW2 4422   3.735   3.166   1.141
 1175SOL     OW 4423   3.692   3.211   4.670
 1175SOL    HW1 4424   3.596   3.227   4.648
 1175SOL    HW2 4425   3.720   3.123   4.631
 1176SOL     OW 4426   5.281   3.975   6.384
 1176SOL    HW1 4427   5.237   4.041   6.445
 1176SOL    HW2 4428   5.299   4.017   6.296
 1177SOL     OW 4429   6.321   2.479   4.818
 1177SOL    HW1 4430   6.394   2.457   4.882
 1177SOL    HW2 4431   6.287   2.571   4.835
 1178SOL     OW 4432   3.013   4.648   6.980
 1178SOL    HW1 4433   3.104   4.611   6.997
 1178SOL    HW2 4434   3.020   4.744   6.951
 1179SOL     OW 4435   2.336   5.282   0.877
 1179SOL    HW1 4436   2.270   5.216   0.840
 1179SOL    HW2 4437   2.338   5.276   0.976
 1180SOL     OW 4438   3.298   5.735   0.469
 1180SOL    HW1 4439   3.213   5.722   0.418
 1180SOL    HW2 4440   3.293   5.820   0.521
 1181SOL     OW 4441   0.410   5.658   0.062
 1181SOL    HW1 4442   0.321   5.667   0.106
 1181SOL    HW2 4443   0.461   5.584   0.107
 1182SOL     OW 4444   4.187   5.473   3.011
 1182SOL    HW1 4445   4.153   5.401   3.071
 1182SOL    HW2 4446   4.218   5.550   3.067
 1183SOL     OW 4447   2.075   3.823   6.064
 1183SOL    HW1 4448   2.039   3.795   5.975
 1183SOL    HW2 4449   1.999   3.839   6.127
 1184SOL     OW 4450   1.704   0.018   4.994
 1184SOL    HW1 4451   1.679   0.079   5.069
 1184SOL    HW2 4452   1.776   6.976   5.024
 1185SOL     OW 4453   7.004   1.343   6.999
 1185SOL    HW1 4454   6.975   1.323   0.072
 1185SOL    HW2 4455   0.083   1.358   6.996
 1186SOL     OW 4456   4.976   6.108   4.765
 1186SOL    HW1 4457   4.986   6.205   4.746
 1186SOL    HW2 4458   4.930   6.064   4.687
 1187SOL     OW 4459   6.528   0.492   5.764
 1187SOL    HW1 4460   6.530   0.418   5.832
 1187SOL    HW2 4461   6.534   0.453   5.672
 1188SOL     OW 4462   2.680   6.312   5.225
 1188SOL    HW1 4463   2.628   6.367   5.160
 1188SOL    HW2 4464   2.776   6.338   5.221
 1189SOL     OW 4465   6.062   3.471   3.503
 1189SOL    HW1 4466   6.142   3.507   3.455
 1189SOL    HW2 4467   6.085   3.385   3.547
 1190SOL     OW 4468   1.852   6.310   2.499
 1190SOL    HW1 4469   1.886   6.404   2.493
 1190SOL    HW2 4470   1.895   6.255   2.428
 1191SOL     OW 4471   4.590   5.076   2.818
 1191SOL    HW1 4472   4.631   5.020   2.891
 1191SOL    HW2 4473   4.491   5.064   2.819
 1192SOL     OW 4474   4.302   6.077   3.025
 1192SOL    HW1 4475   4.305   6.161   2.971
 1192SOL    HW2 4476   4.225   6.081   3.089
 1193SOL     OW 4477   6.188   5.142   3.481
 1193SOL    HW1 4478   6.107   5.141   3.540
 1193SOL    HW2 4479   6.166   5.189   3.395
 1194SOL     OW 4480   4.514   0.698   1.259
 1194SOL    HW1 4481   4.558   0.702   1.349
 1194SOL    HW2 4482   4.452   0.620   1.256
 1195SOL     OW 4483   6.028   3.031   2.112
 1195SOL    HW1 4484   5.952   3.012   2.049
 1195SOL    HW2 4485   6.076   3.113   2.082
 1196SOL     OW 4486   6.433   6.691   3.756
 1196SOL    HW1 4487   6.416   6.761   3.825
 1196SOL    HW2 4488   6.350   6.677   3.702
 1197SOL     OW 4489   3.554   6.913   0.474
 1197SOL    HW1 4490   3.595   6.894   0.384
 1197SOL    HW2 4491   3.620   6.891   0.546
 1198SOL     OW 4492   1.245   2.314   0.613
 1198SOL    HW1 4493   1.322   2.378   0.615
 1198SOL    HW2 4494   1.278   2.221   0.633
 1199SOL     OW 4495   4.807   5.062   1.860
 1199SOL    HW1 4496   4.870   5.092   1.789
 1199SOL    HW2 4497   4.821   5.117   1.943
 1200SOL     OW 4498   3.231   3.403   2.260
 1200SOL    HW1 4499   3.283   3.334   2.311
 1200SOL    HW2 4500   3.136   3.374   2.253
 1201SOL     OW 4501   1.506   2.154   4.703
 1201SOL    HW1 4502   1.435   2.117   4.643
 1201SOL    HW2 4503   1.502   2.107   4.791
 1202SOL     OW 4504   0.010   5.697   6.380
 1202SOL    HW1 4505   0.097   5.659   6.349
 1202SOL    HW2 4506   0.016   5.797   6.382
 1203SOL     OW 4507   4.827   5.995   5.807
 1203SOL    HW1 4508   4.733   5.993   5.773
 1203SOL    HW2 4509   4.862   6.089   5.803
 1204SOL     OW 4510   2.022   0.812   2.122
 1204SOL    HW1 4511   1.952   0.741   2.126
 1204SOL    HW2 4512   2.103   0.781   2.172
 1205SOL     OW 4513   4.985   3.964   1.493
 1205SOL    HW1 4514   5.024   4.008   1.573
 1205SOL    HW2 4515   4.896   3.924   1.517
 1206SOL     OW 4516   3.199   3.358   4.526
 1206SOL    HW1 4517   3.214   3.438   4.584
 1206SOL    HW2 4518   3.109   3.319   4.546
 1207SOL     OW 4519   2.272   6.001   1.781
 1207SOL    HW1 4520   2.307   5.961   1.865
 1207SOL    HW2 4521   2.330   6.077   1.752
 1208SOL     OW 4522   3.583   3.413   6.921
 1208SOL    HW1 4523   3.508   3.448   6.976
 1208SOL    HW2 4524   3.666   3.407   6.978
 1209SOL     OW 4525   3.694   0.034   5.524
 1209SOL    HW1 4526   3.617   7.000   5.491
 1209SOL    HW2 4527   3.726   0.094   5.451
 1210SOL     OW 4528   3.115   0.609   3.199
 1210SOL    HW1 4529   3.108   0.520   3.154
 1210SOL    HW2 4530   3.198   0.612   3.255
 1211SOL     OW 4531   0.443   4.088   1.036
 1211SOL    HW1 4532   0.525   4.145   1.030
 1211SOL    HW2 4533   0.363   4.141   1.010
 1212SOL     OW 4534   0.774   6.862   6.905
 1212SOL    HW1 4535   0.773   6.956   6.870
 1212SOL    HW2 4536   0.857   6.847   6.959
 1213SOL     OW 4537   5.656   2.933   0.689
 1213SOL    HW1 4538   5.601   2.880   0.753
 1213SOL    HW2 4539   5.604   3.014   0.661
 1214SOL     OW 4540   6.631   1.995   1.080
 1214SOL    HW1 4541   6.662   1.900   1.080
 1214SOL    HW2 4542   6.659   2.039   0.994
 1215SOL     OW 4543   0.928   4.850   4.388
 1215SOL    HW1 4544   0.972   4.938   4.403
 1215SOL    HW2 4545   0.870   4.827   4.466
 1216SOL     OW 4546   4.688   0.494   6.327
 1216SOL    HW1 4547   4.709   0.421   6.392
 1216SOL    HW2 4548   4.751   0.489   6.250
 1217SOL     OW 4549   2.633   4.305   0.579
 1217SOL    HW1 4550   2.665   4.215   0.608
 1217SOL    HW2 4551   2.693   4.376   0.616
 1218SOL     OW 4552   1.556   3.876   3.547
 1218SOL    HW1 4553   1.498   3.936   3.492
 1218SOL    HW2 4554   1.543   3.895   3.644
 1219SOL     OW 4555   3.861   6.096   2.348
 1219SOL    HW1 4556   3.878   6.000   2.329
 1219SOL    HW2 4557   3.945   6.140   2.379
 1220SOL     OW 4558   1.244   4.685   2.793
 1220SOL    HW1 4559   1.239   4.585   2.782
 1220SOL    HW2 4560   1.162   4.717   2.841
 1221SOL     OW 4561   5.862   3.340   6.123
 1221SOL    HW1 4562   5.868   3.434   6.156
 1221SOL    HW2 4563   5.767   3.319   6.100
 1222SOL     OW 4564   6.709   6.566   6.891
 1222SOL    HW1 4565   6.734   6.524   6.804
 1222SOL    HW2 4566   6.788   6.614   6.930
 1223SOL     OW 4567   3.185   6.188   0.206
 1223SOL    HW1 4568   3.185   6.246   0.125
 1223SOL    HW2 4569   3.104   6.130   0.206
 1224SOL     OW 4570   2.362   0.240   1.093
 1224SOL    HW1 4571   2.266   0.214   1.089
 1224SOL    HW2 4572   2.372   0.332   1.056
 1225SOL     OW 4573   3.414   4.061   6.305
 1225SOL    HW1 4574   3.371   4.039   6.218
 1225SOL    HW2 4575   3.368   4.012   6.379
 1226SOL     OW 4576   1.715   5.099   1.346
 1226SOL    HW1 4577   1.689   5.027   1.282
 1226SOL    HW2 4578   1.759   5.057   1.426
 1227SOL     OW 4579   0.080   3.974   6.450
 1227SOL    HW1 4580   0.107   3.912   6.524
 1227SOL    HW2 4581   7.000   3.980   6.448
 1228SOL     OW 4582   4.069   2.180   5.999
 1228SOL    HW1 4583   3.981   2.168   5.953
 1228SOL    HW2 4584   4.056   2.234   6.083
 1229SOL     OW 4585   3.697   4.633   6.540
 1229SOL    HW1 4586   3.663   4.726   6.552
 1229SOL    HW2 4587   3.773   4.633   6.476
 1230SOL     OW 4588   4.167   6.769   3.480
 1230SOL    HW1 4589   4.233   6.792   3.408
 1230SOL    HW2 4590   4.128   6.680   3.462
 1231SOL     OW 4591   2.003   3.014   4.933
 1231SOL    HW1 4592   1.936   2.966   4.876
 1231SOL    HW2 4593   1.954   3.071   5.000
 1232SOL     OW 4594   1.300   2.798   5.232
 1232SOL    HW1 4595   1.367   2.783   5.158
 1232SOL    HW2 4596   1.276   2.710   5.273
 1233SOL     OW 4597   0.923   3.227   5.511
 1233SOL    HW1 4598   0.913   3.240   5.412
 1233SOL    HW2 4599   1.001   3.168   5.530
 1234SOL     OW 4600   5.699   4.149   4.663
 1234SOL    HW1 4601   5.772   4.213   4.687
 1234SOL    HW2 4602   5.611   4.189   4.688
 1235SOL     OW 4603   6.511   5.372   3.490
 1235SOL    HW1 4604   6.498   5.464   3.526
 1235SOL    HW2 4605   6.595   5.369   3.436
 1236SOL     OW 4606   5.781   0.535   6.823
 1236SOL    HW1 4607   5.721   0.506   6.748
 1236SOL    HW2 4608   5.783   0.463   6.893
 1237SOL     OW 4609   2.917   4.696   6.659
 1237SOL    HW1 4610   2.910   4.596   6.662
 1237SOL    HW2 4611   2.956   4.725   6.572
 1238SOL     OW 4612   1.963   1.483   0.824
 1238SOL    HW1 4613   1.981   1.542   0.745
 1238SOL    HW2 4614   1.934   1.539   0.901
 1239SOL     OW 4615   6.792   6.021   6.589
 1239SOL    HW1 4616   6.815   6.006   6.685
 1239SOL    HW2 4617   6.693   6.023   6.578
 1240SOL     OW 4618   4.971   5.990   2.032
 1240SOL    HW1 4619   5.012   6.061   1.975
 1240SOL    HW2 4620   5.033   5.912   2.037
 1241SOL     OW 4621   6.651   3.960   4.180
 1241SOL    HW1 4622   6.658   3.864   4.208
 1241SOL    HW2 4623   6.685   4.019   4.252
 1242SOL     OW 4624   2.357   3.524   0.589
 1242SOL    HW1 4625   2.436   3.567   0.545
 1242SOL    HW2 4626   2.280   3.588   0.588
 1243SOL     OW 4627   1.570   5.377   5.633
 1243SOL    HW1 4628   1.484   5.413   5.598
 1243SOL    HW2 4629   1.645   5.406   5.574
 1244SOL     OW 4630   0.515   0.814   3.731
 1244SOL    HW1 4631   0.498   0.908   3.702
 1244SOL    HW2 4632   0.488   0.751   3.658
 1245SOL     OW 4633   3.490   3.681   0.213
 1245SOL    HW1 4634   3.587   3.654   0.214
 1245SOL    HW2 4635   3.474   3.750   0.283
 1246SOL     OW 4636   2.361   6.261   2.138
 1246SOL    HW1 4637   2.329   6.270   2.044
 1246SOL    HW2 4638   2.455   6.295   2.145
 1247SOL     OW 4639   2.008   6.352   5.974
 1247SOL    HW1 4640   2.064   6.290   5.919
 1247SOL    HW2 4641   1.922   6.308   5.998
 1248SOL     OW 4642   2.054   5.466   3.834
 1248SOL    HW1 4643   2.135   5.419   3.870
 1248SOL    HW2 4644   2.009   5.407   3.767
 1249SOL     OW 4645   5.688   2.977   3.644
 1249SOL    HW1 4646   5.631   3.058   3.653
 1249SOL    HW2 4647   5.630   2.897   3.629
 1250SOL     OW 4648   1.182   3.939   3.886
 1250SOL    HW1 4649   1.213   4.006   3.953
 1250SOL    HW2 4650   1.257   3.878   3.862
 1251SOL     OW 4651   4.015   0.314   4.726
 1251SOL    HW1 4652   4.073   0.255   4.669
 1251SOL    HW2 4653   4.060   0.329   4.814
 1252SOL     OW 4654   3.459   4.130   5.447
 1252SOL    HW1 4655   3.433   4.156   5.540
 1252SOL    HW2 4656   3.507   4.042   5.449
 1253SOL     OW 4657   4.029   5.195   2.956
 1253SOL    HW1 4658   4.022   5.101   2.923
 1253SOL    HW2 4659   4.028   5.257   2.878
 1254SOL     OW 4660   6.526   1.970   2.838
 1254SOL    HW1 4661   6.573   2.049   2.877
 1254SOL    HW2 4662   6.493   1.994   2.746
 1255SOL     OW 4663   0.030   6.919   6.442
 1255SOL    HW1 4664   0.063   6.977   6.517
 1255SOL    HW2 4665   6.955   6.940   6.423
 1256SOL     OW 4666   5.139   0.321   3.432
 1256SOL    HW1 4667   5.115   0.389   3.502
 1256SOL    HW2 4668   5.135   0.229   3.471
 1257SOL     OW 4669   6.749   1.013   3.751
 1257SOL    HW1 4670   6.712   1.093   3.797
 1257SOL    HW2 4671   6.690   0.934   3.769
 1258SOL     OW 4672   0.373   0.016   3.462
 1258SOL    HW1 4673   0.345   0.090   3.523
 1258SOL    HW2 4674   0.293   6.998   3.417
 1259SOL     OW 4675   3.735   2.138   5.025
 1259SOL    HW1 4676   3.774   2.197   4.954
 1259SOL    HW2 4677   3.644   2.108   4.997
 1260SOL     OW 4678   0.918   0.893   0.191
 1260SOL    HW1 4679   0.887   0.947   0.269
 1260SOL    HW2 4680   0.849   0.897   0.119
 1261SOL     OW 4681   6.675   5.083   0.499
 1261SOL    HW1 4682   6.700   5.040   0.412
 1261SOL    HW2 4683   6.692   5.181   0.494
 1262SOL     OW 4684   5.412   5.801   0.883
 1262SOL    HW1 4685   5.330   5.765   0.838
 1262SOL    HW2 4686   5.458   5.728   0.933
 1263SOL     OW 4687   1.423   2.450   3.811
 1263SOL    HW1 4688   1.386   2.429   3.902
 1263SOL    HW2 4689   1.470   2.538   3.813
 1264SOL     OW 4690   0.968   2.675   5.276
 1264SOL    HW1 4691   0.959   2.723   5.189
 1264SOL    HW2 4692   0.881   2.676   5.324
 1265SOL     OW 4693   6.046   6.608   4.582
 1265SOL    HW1 4694   5.972   6.555   4.625
 1265SOL    HW2 4695   6.098   6.548   4.521
 1266SOL     OW 4696   2.188   0.616   4.777
 1266SOL    HW1 4697   2.133   0.628   4.694
 1266SOL    HW2 4698   2.242   0.532   4.769
 1267SOL     OW 4699   4.329   0.113   2.373
 1267SOL    HW1 4700   4.348   0.143   2.279
 1267SOL    HW2 4701   4.262   0.039   2.371
 1268SOL     OW 4702   4.359   2.641   5.352
 1268SOL    HW1 4703   4.362   2.741   5.357
 1268SOL    HW2 4704   4.279   2.613   5.300
 1269SOL     OW 4705   6.069   2.675   4.521
 1269SOL    HW1 4706   6.131   2.622   4.463
 1269SOL    HW2 4707   5.980   2.629   4.526
 1270SOL     OW 4708   0.003   5.120   3.590
 1270SOL    HW1 4709   0.001   5.216   3.560
 1270SOL    HW2 4710   6.932   5.080   3.581
 1271SOL     OW 4711   1.535   1.563   1.424
 1271SOL    HW1 4712   1.481   1.536   1.344
 1271SOL    HW2 4713   1.478   1.558   1.505
 1272SOL     OW 4714   6.703   4.484   7.005
 1272SOL    HW1 4715   6.659   4.434   0.060
 1272SOL    HW2 4716   6.640   4.487   6.927
 1273SOL     OW 4717   1.298   4.674   5.320
 1273SOL    HW1 4718   1.226   4.679   5.251
 1273SOL    HW2 4719   1.344   4.763   5.326
 1274SOL     OW 4720   0.845   5.449   2.699
 1274SOL    HW1 4721   0.816   5.472   2.792
 1274SOL    HW2 4722   0.809   5.517   2.635
 1275SOL     OW 4723   3.258   1.063   2.494
 1275SOL    HW1 4724   3.177   1.022   2.451
 1275SOL    HW2 4725   3.312   0.991   2.539
 1276SOL     OW 4726   5.333   4.671   3.788
 1276SOL    HW1 4727   5.314   4.583   3.830
 1276SOL    HW2 4728   5.255   4.698   3.731
 1277SOL     OW 4729   0.558   6.134   0.822
 1277SOL    HW1 4730   0.463   6.106   0.813
 1277SOL    HW2 4731   0.571   6.184   0.908
 1278SOL     OW 4732   1.354   5.761   2.547
 1278SOL    HW1 4733   1.267   5.716   2.530
 1278SOL    HW2 4734   1.368   5.833   2.479
 1279SOL     OW 4735   2.205   2.255   0.053
 1279SOL    HW1 4736   2.295   2.214   0.070
 1279SOL    HW2 4737   2.136   2.206   0.106
 1280SOL     OW 4738   2.622   1.747   3.230
 1280SOL    HW1 4739   2.663   1.822   3.282
 1280SOL    HW2 4740   2.610   1.668   3.291
 1281SOL     OW 4741   4.436   5.905   4.080
 1281SOL    HW1 4742   4.496   5.921   4.001
 1281SOL    HW2 4743   4.353   5.859   4.049
 1282SOL     OW 4744   0.153   2.294   1.252
 1282SOL    HW1 4745   0.176   2.327   1.161
 1282SOL    HW2 4746   0.224   2.232   1.284
 1283SOL     OW 4747   6.710   3.747   5.274
 1283SOL    HW1 4748   6.646   3.671   5.283
 1283SOL    HW2 4749   6.760   3.760   5.360
 1284SOL     OW 4750   3.762   2.042   1.680
 1284SOL    HW1 4751   3.722   1.986   1.608
 1284SOL    HW2 4752   3.786   2.132   1.643
 1285SOL     OW 4753   3.867   1.003   5.323
 1285SOL    HW1 4754   3.911   0.937   5.262
 1285SOL    HW2 4755   3.909   0.998   5.414
 1286SOL     OW 4756   4.442   2.116   2.068
 1286SOL    HW1 4757   4.449   2.165   2.155
 1286SOL    HW2 4758   4.534   2.089   2.037
 1287SOL     OW 4759   6.586   4.727   4.747
 1287SOL    HW1 4760   6.503   4.679   4.719
 1287SOL    HW2 4761   6.665   4.668   4.730
 1288SOL     OW 4762   4.460   4.189   6.897
 1288SOL    HW1 4763   4.380   4.243   6.924
 1288SOL    HW2 4764   4.456   4.170   6.799
 1289SOL     OW 4765   0.330   0.522   1.748
 1289SOL    HW1 4766   0.249   0.470   1.776
 1289SOL    HW2 4767   0.396   0.460   1.705
 1290SOL     OW 4768   1.653   6.881   6.493
 1290SOL    HW1 4769   1.716   6.809   6.523
 1290SOL    HW2 4770   1.563   6.865   6.532
 1291SOL     OW 4771   6.761   5.481   3.062
 1291SOL    HW1 4772   6.722   5.397   3.025
 1291SOL    HW2 4773   6.762   5.476   3.162
 1292SOL     OW 4774   1.029   6.413   2.285
 1292SOL    HW1 4775   1.101   6.471   2.246
 1292SOL    HW2 4776   0.991   6.456   2.366
 1293SOL     OW 4777   2.997   0.911   6.878
 1293SOL    HW1 4778   3.035   0.822   6.901
 1293SOL    HW2 4779   2.897   0.904   6.869
 1294SOL     OW 4780   2.382   3.620   5.343
 1294SOL    HW1 4781   2.336   3.698   5.301
 1294SOL    HW2 4782   2.338   3.536   5.313
 1295SOL     OW 4783   6.343   4.419   0.927
 1295SOL    HW1 4784   6.378   4.355   0.859
 1295SOL    HW2 4785   6.390   4.404   1.014
 1296SOL     OW 4786   5.519   6.844   5.698
 1296SOL    HW1 4787   5.563   6.893   5.623
 1296SOL    HW2 4788   5.497   6.751   5.669
 1297SOL     OW 4789   0.443   0.151   1.993
 1297SOL    HW1 4790   0.367   0.150   2.058
 1297SOL    HW2 4791   0.526   0.116   2.037
 1298SOL     OW 4792   5.414   6.025   2.441
 1298SOL    HW1 4793   5.483   6.078   2.490
 1298SOL    HW2 4794   5.336   6.085   2.418
 1299SOL     OW 4795   1.557   3.546   4.796
 1299SOL    HW1 4796   1.496   3.554   4.875
 1299SOL    HW2 4797   1.531   3.615   4.728
 1300SOL     OW 4798   1.209   4.381   1.782
 1300SOL    HW1 4799   1.149   4.431   1.844
 1300SOL    HW2 4800   1.188   4.406   1.687
 1301SOL     OW 4801   0.709   0.540   1.488
 1301SOL    HW1 4802   0.757   0.536   1.401
 1301SOL    HW2 4803   0.623   0.590   1.476
 1302SOL     OW 4804   5.744   6.610   5.398
 1302SOL    HW1 4805   5.674   6.671   5.360
 1302SOL    HW2 4806   5.833   6.654   5.391
 1303SOL     OW 4807   4.270   6.314   1.353
 1303SOL    HW1 4808   4.356   6.290   1.307
 1303SOL    HW2 4809   4.280   6.301   1.451
 1304SOL     OW 4810   0.481   1.349   0.726
 1304SOL    HW1 4811   0.426   1.326   0.646
 1304SOL    HW2 4812   0.567   1.392   0.698
 1305SOL     OW 4813   5.696   3.901   6.486
 1305SOL    HW1 4814   5.750   3.918   6.569
 1305SOL    HW2 4815   5.654   3.986   6.455
 1306SOL     OW 4816   2.315   5.306   4.153
 1306SOL    HW1 4817   2.344   5.329   4.060
 1306SOL    HW2 4818   2.326   5.208   4.168
 1307SOL     OW 4819   2.776   2.330   3.621
 1307SOL    HW1 4820   2.732   2.342   3.710
 1307SOL    HW2 4821   2.840   2.404   3.605
 1308SOL     OW 4822   6.861   5.189   6.290
 1308SOL    HW1 4823   6.854   5.156   6.196
 1308SOL    HW2 4824   6.873   5.289   6.289
 1309SOL     OW 4825   5.177   4.182   6.521
 1309SOL    HW1 4826   5.105   4.234   6.476
 1309SOL    HW2 4827   5.159   4.178   6.620
 1310SOL     OW 4828   1.410   4.170   3.492
 1310SOL    HW1 4829   1.335   4.157   3.557
 1310SOL    HW2 4830   1.472   4.241   3.526
 1311SOL     OW 4831   6.966   6.110   0.471
 1311SOL    HW1 4832   0.001   6.193   0.474
 1311SOL    HW2 4833   6.926   6.094   0.561
 1312SOL     OW 4834   2.473   0.423   6.263
 1312SOL    HW1 4835   2.542   0.401   6.332
 1312SOL    HW2 4836   2.394   0.465   6.307
 1313SOL     OW 4837   6.457   5.800   2.803
 1313SOL    HW1 4838   6.373   5.794   2.749
 1313SOL    HW2 4839   6.533   5.826   2.743
 1314SOL     OW 4840   2.798   1.672   4.940
 1314SOL    HW1 4841   2.723   1.606   4.941
 1314SOL    HW2 4842   2.793   1.728   4.858
 1315SOL     OW 4843   6.337   1.459   3.972
 1315SOL    HW1 4844   6.390   1.435   4.054
 1315SOL    HW2 4845   6.240   1.466   3.996
 1316SOL     OW 4846   4.189   0.656   4.956
 1316SOL    HW1 4847   4.198   0.692   4.863
 1316SOL    HW2 4848   4.192   0.731   5.022
 1317SOL     OW 4849   2.698   3.411   5.766
 1317SOL    HW1 4850   2.651   3.416   5.854
 1317SOL    HW2 4851   2.684   3.496   5.715
 1318SOL     OW 4852   1.862   2.746   6.725
 1318SOL    HW1 4853   1.851   2.822   6.660
 1318SOL    HW2 4854   1.789   2.751   6.794
 1319SOL     OW 4855   0.005   6.587   1.072
 1319SOL    HW1 4856   7.000   6.672   1.026
 1319SOL    HW2 4857   6.990   6.588   1.166
 1320SOL     OW 4858   3.256   2.573   5.534
 1320SOL    HW1 4859   3.184   2.629   5.492
 1320SOL    HW2 4860   3.226   2.478   5.536
 1321SOL     OW 4861   5.674   2.477   6.821
 1321SOL    HW1 4862   5.583   2.474   6.863
 1321SOL    HW2 4863   5.666   2.474   6.722
 1322SOL     OW 4864   3.436   1.241   0.537
 1322SOL    HW1 4865   3.367   1.309   0.560
 1322SOL    HW2 4866   3.502   1.280   0.472
 1323SOL     OW 4867   3.979   0.147   0.176
 1323SOL    HW1 4868   3.888   0.106   0.169
 1323SOL    HW2 4869   3.976   0.222   0.242
 1324SOL     OW 4870   1.016   3.860   6.893
 1324SOL    HW1 4871   1.052   3.890   6.981
 1324SOL    HW2 4872   1.021   3.935   6.827
 1325SOL     OW 4873   2.826   4.831   6.214
 1325SOL    HW1 4874   2.832   4.897   6.139
 1325SOL    HW2 4875   2.731   4.801   6.225
 1326SOL     OW 4876   5.038   3.196   3.643
 1326SOL    HW1 4877   4.979   3.146   3.705
 1326SOL    HW2 4878   5.129   3.154   3.643
 1327SOL     OW 4879   6.337   6.094   1.215
 1327SOL    HW1 4880   6.366   6.179   1.172
 1327SOL    HW2 4881   6.395   6.019   1.183
 1328SOL     OW 4882   1.516   3.304   5.610
 1328SOL    HW1 4883   1.519   3.403   5.614
 1328SOL    HW2 4884   1.478   3.275   5.522
 1329SOL     OW 4885   0.603   3.161   2.810
 1329SOL    HW1 4886   0.550   3.077   2.823
 1329SOL    HW2 4887   0.558   3.236   2.858
 1330SOL     OW 4888   6.241   3.044   1.094
 1330SOL    HW1 4889   6.284   3.134   1.106
 1330SOL    HW2 4890   6.301   2.973   1.130
 1331SOL     OW 4891   4.816   1.889   2.945
 1331SOL    HW1 4892   4.781   1.821   3.009
 1331SOL    HW2 4893   4.832   1.975   2.994
 1332SOL     OW 4894   1.560   6.305   0.502
 1332SOL    HW1 4895   1.571   6.391   0.551
 1332SOL    HW2 4896   1.467   6.271   0.516
 1333SOL     OW 4897   3.191   4.071   3.174
 1333SOL    HW1 4898   3.210   4.121   3.089
 1333SOL    HW2 4899   3.122   4.001   3.157
 1334SOL     OW 4900   0.108   3.071   2.200
 1334SOL    HW1 4901   0.048   3.150   2.214
 1334SOL    HW2 4902   0.165   3.059   2.281
 1335SOL     OW 4903   1.172   3.963   2.261
 1335SOL    HW1 4904   1.217   3.882   2.224
 1335SOL    HW2 4905   1.196   3.973   2.357
 1336SOL     OW 4906   3.340   0.516   5.180
 1336SOL    HW1 4907   3.279   0.589   5.212
 1336SOL    HW2 4908   3.286   0.439   5.147
 1337SOL     OW 4909   0.042   1.446   3.554
 1337SOL    HW1 4910   7.003   1.515   3.597
 1337SOL    HW2 4911   0.038   1.361   3.608
 1338SOL     OW 4912   6.372   4.550   5.265
 1338SOL    HW1 4913   6.420   4.517   5.183
 1338SOL    HW2 4914   6.408   4.504   5.345
 1339SOL     OW 4915   6.941   0.815   6.900
 1339SOL    HW1 4916   6.893   0.773   6.823
 1339SOL    HW2 4917   6.916   0.912   6.906
 1340SOL     OW 4918   4.645   2.231   1.584
 1340SOL    HW1 4919   4.668   2.135   1.603
 1340SOL    HW2 4920   4.547   2.239   1.566
 1341SOL     OW 4921   4.869   0.210   6.768
 1341SOL    HW1 4922   4.799   0.275   6.796
 1341SOL    HW2 4923   4.828   0.120   6.755
 1342SOL     OW 4924   2.464   6.161   0.848
 1342SOL    HW1 4925   2.368   6.190   0.855
 1342SOL    HW2 4926   2.469   6.061   0.845
 1343SOL     OW 4927   5.482   5.996   2.900
 1343SOL    HW1 4928   5.466   5.912   2.951
 1343SOL    HW2 4929   5.556   6.047   2.944
 1344SOL     OW 4930   0.102   0.177   5.036
 1344SOL    HW1 4931   0.115   0.234   4.955
 1344SOL    HW2 4932   0.191   0.161   5.079
 1345SOL     OW 4933   0.457   6.052   1.458
 1345SOL    HW1 4934   0.392   6.027   1.530
 1345SOL    HW2 4935   0.418   6.124   1.400
 1346SOL     OW 4936   2.792   5.138   6.091
 1346SOL    HW1 4937   2.761   5.075   6.019
 1346SOL    HW2 4938   2.853   5.206   6.051
 1347SOL     OW 4939   1.719   0.255   6.844
 1347SOL    HW1 4940   1.636   0.310   6.848
 1347SOL    HW2 4941   1.760   0.249   6.935
 1348SOL     OW 4942   0.242   6.378   5.148
 1348SOL    HW1 4943   0.158   6.324   5.161
 1348SOL    HW2 4944   0.270   6.417   5.236
 1349SOL     OW 4945   4.935   3.346   4.219
 1349SOL    HW1 4946   4.948   3.378   4.313
 1349SOL    HW2 4947   4.943   3.423   4.155
 1350SOL     OW 4948   3.146   3.693   0.580
 1350SOL    HW1 4949   3.163   3.673   0.676
 1350SOL    HW2 4950   3.213   3.644   0.523
 1351SOL     OW 4951   6.760   2.359   5.234
 1351SOL    HW1 4952   6.681   2.418   5.248
 1351SOL    HW2 4953   6.815   2.357   5.317
 1352SOL     OW 4954   0.322   0.426   2.216
 1352SOL    HW1 4955   0.388   0.448   2.288
 1352SOL    HW2 4956   0.325   0.495   2.145
 1353SOL     OW 4957   0.717   1.086   1.095
 1353SOL    HW1 4958   0.813   1.113   1.092
 1353SOL    HW2 4959   0.659   1.166   1.078
 1354SOL     OW 4960   5.604   4.725   2.099
 1354SOL    HW1 4961   5.665   4.677   2.035
 1354SOL    HW2 4962   5.509   4.701   2.078
 1355SOL     OW 4963   6.348   3.780   5.122
 1355SOL    HW1 4964   6.430   3.799   5.176
 1355SOL    HW2 4965   6.313   3.689   5.146
 1356SOL     OW 4966   3.435   2.999   1.258
 1356SOL    HW1 4967   3.468   2.986   1.351
 1356SOL    HW2 4968   3.353   2.942   1.243
 1357SOL     OW 4969   6.959   3.721   5.519
 1357SOL    HW1 4970   6.935   3.812   5.487
 1357SOL    HW2 4971   6.913   3.703   5.606
 1358SOL     OW 4972   1.745   6.660   6.668
 1358SOL    HW1 4973   1.664   6.699   6.711
 1358SOL    HW2 4974   1.828   6.702   6.706
 1359SOL     OW 4975   6.497   4.362   1.836
 1359SOL    HW1 4976   6.412   4.411   1.855
 1359SOL    HW2 4977   6.537   4.329   1.922
 1360SOL     OW 4978   2.474   2.179   0.088
 1360SOL    HW1 4979   2.487   2.090   0.045
 1360SOL    HW2 4980   2.502   2.175   0.184
 1361SOL     OW 4981   6.677   5.176   4.632
 1361SOL    HW1 4982   6.709   5.141   4.543
 1361SOL    HW2 4983   6.619   5.256   4.618
 1362SOL     OW 4984   3.213   2.961   3.055
 1362SOL    HW1 4985   3.275   2.907   2.996
 1362SOL    HW2 4986   3.129   2.981   3.004
 1363SOL     OW 4987   0.631   6.304   5.343
 1363SOL    HW1 4988   0.611   6.261   5.255
 1363SOL    HW2 4989   0.716   6.266   5.381
 1364SOL     OW 4990   3.933   3.950   1.016
 1364SOL    HW1 4991   3.858   4.015   1.024
 1364SOL    HW2 4992   3.897   3.857   1.016
 1365SOL     OW 4993   0.199   3.708   0.031
 1365SOL    HW1 4994   0.218   3.693   0.128
 1365SOL    HW2 4995   0.248   3.638   6.998
 1366SOL     OW 4996   2.570   6.796   4.953
 1366SOL    HW1 4997   2.638   6.864   4.981
 1366SOL    HW2 4998   2.479   6.839   4.953
 1367SOL     OW 4999   1.653   1.159   2.901
 1367SOL    HW1 5000   1.591   1.237   2.905
 1367SOL    HW2 5001   1.747   1.190   2.914
 1368SOL     OW 5002   5.847   6.679   4.007
 1368SOL    HW1 5003   5.925   6.634   4.052
 1368SOL    HW2 5004   5.774   6.612   3.993
 1369SOL     OW 5005   0.735   0.566   2.977
 1369SOL    HW1 5006   0.643   0.532   2.997
 1369SOL    HW2 5007   0.787   0.495   2.930
 1370SOL     OW 5008   2.837   1.121   1.708
 1370SOL    HW1 5009   2.740   1.102   1.698
 1370SOL    HW2 5010   2.871   1.076   1.791
 1371SOL     OW 5011   4.156   0.845   6.309
 1371SOL    HW1 5012   4.170   0.756   6.265
 1371SOL    HW2 5013   4.198   0.916   6.252
 1372SOL     OW 5014   3.377   1.865   2.098
 1372SOL    HW1 5015   3.473   1.868   2.070
 1372SOL    HW2 5016   3.320   1.846   2.018
 1373SOL     OW 5017   1.094   5.898   1.191
 1373SOL    HW1 5018   1.115   5.935   1.281
 1373SOL    HW2 5019   1.177   5.861   1.150
 1374SOL     OW 5020   4.906   2.483   0.364
 1374SOL    HW1 5021   4.980   2.415   0.370
 1374SOL    HW2 5022   4.933   2.565   0.415
 1375SOL     OW 5023   0.628   4.130   5.625
 1375SOL    HW1 5024   0.547   4.084   5.661
 1375SOL    HW2 5025   0.602   4.184   5.544
 1376SOL     OW 5026   5.042   2.201   2.271
 1376SOL    HW1 5027   4.957   2.255   2.275
 1376SOL    HW2 5028   5.021   2.108   2.244
 1377SOL     OW 5029   0.486   5.232   4.671
 1377SOL    HW1 5030   0.473   5.134   4.653
 1377SOL    HW2 5031   0.470   5.250   4.767
 1378SOL     OW 5032   1.368   2.062   0.653
 1378SOL    HW1 5033   1.437   2.093   0.587
 1378SOL    HW2 5034   1.408   2.061   0.745
 1379SOL     OW 5035   4.006   6.104   1.908
 1379SOL    HW1 5036   3.916   6.143   1.925
 1379SOL    HW2 5037   4.051   6.156   1.835
 1380SOL     OW 5038   6.128   6.797   2.222
 1380SOL    HW1 5039   6.193   6.846   2.164
 1380SOL    HW2 5040   6.171   6.714   2.258
 1381SOL     OW 5041   5.993   1.368   1.620
 1381SOL    HW1 5042   5.991   1.304   1.697
 1381SOL    HW2 5043   6.059   1.440   1.638
 1382SOL     OW 5044   6.232   5.171   6.544
 1382SOL    HW1 5045   6.186   5.237   6.603
 1382SOL    HW2 5046   6.318   5.143   6.586
 1383SOL     OW 5047   2.681   6.985   0.742
 1383SOL    HW1 5048   2.750   6.989   0.670
 1383SOL    HW2 5049   2.667   0.057   0.779
 1384SOL     OW 5050   3.668   2.072   2.903
 1384SOL    HW1 5051   3.607   2.043   2.977
 1384SOL    HW2 5052   3.617   2.076   2.817
 1385SOL     OW 5053   5.835   3.141   2.633
 1385SOL    HW1 5054   5.927   3.104   2.618
 1385SOL    HW2 5055   5.777   3.069   2.671
 1386SOL     OW 5056   2.195   2.461   4.218
 1386SOL    HW1 5057   2.173   2.470   4.120
 1386SOL    HW2 5058   2.112   2.479   4.272
 1387SOL     OW 5059   2.250   0.607   5.171
 1387SOL    HW1 5060   2.201   0.530   5.211
 1387SOL    HW2 5061   2.190   0.655   5.107
 1388SOL     OW 5062   6.712   0.858   4.647
 1388SOL    HW1 5063   6.615   0.880   4.635
 1388SOL    HW2 5064   6.768   0.939   4.627
 1389SOL     OW 5065   6.930   0.422   4.904
 1389SOL    HW1 5066   6.919   0.338   4.852
 1389SOL    HW2 5067   6.967   0.494   4.845
 1390SOL     OW 5068   4.710   2.648   2.993
 1390SOL    HW1 5069   4.789   2.707   2.976
 1390SOL    HW2 5070   4.663   2.630   2.907
 1391SOL     OW 5071   5.950   1.293   4.482
 1391SOL    HW1 5072   5.937   1.383   4.440
 1391SOL    HW2 5073   5.870   1.271   4.539
 1392SOL     OW 5074   4.629   4.891   6.326
 1392SOL    HW1 5075   4.537   4.870   6.294
 1392SOL    HW2 5076   4.644   4.990   6.322
 1393SOL     OW 5077   5.947   0.568   6.502
 1393SOL    HW1 5078   6.040   0.594   6.527
 1393SOL    HW2 5079   5.925   0.479   6.542
 1394SOL     OW 5080   4.480   0.021   4.212
 1394SOL    HW1 5081   4.407   7.010   4.274
 1394SOL    HW2 5082   4.471   6.994   4.124
 1395SOL     OW 5083   1.247   5.631   2.132
 1395SOL    HW1 5084   1.156   5.605   2.100
 1395SOL    HW2 5085   1.274   5.572   2.209
 1396SOL     OW 5086   1.932   1.896   3.695
 1396SOL    HW1 5087   1.914   1.797   3.693
 1396SOL    HW2 5088   1.900   1.937   3.609
 1397SOL     OW 5089   0.595   5.666   4.575
 1397SOL    HW1 5090   0.619   5.683   4.480
 1397SOL    HW2 5091   0.652   5.722   4.635
 1398SOL     OW 5092   0.769   6.632   0.517
 1398SOL    HW1 5093   0.700   6.650   0.587
 1398SOL    HW2 5094   0.858   6.665   0.549
 1399SOL     OW 5095   3.963   0.575   0.143
 1399SOL    HW1 5096   4.025   0.497   0.136
 1399SOL    HW2 5097   3.965   0.612   0.236
 1400SOL     OW 5098   0.339   0.919   5.081
 1400SOL    HW1 5099   0.281   0.837   5.077
 1400SOL    HW2 5100   0.360   0.949   4.988
 1401SOL     OW 5101   5.775   0.371   2.503
 1401SOL    HW1 5102   5.744   0.358   2.597
 1401SOL    HW2 5103   5.758   0.287   2.450
 1402SOL     OW 5104   6.577   4.702   2.754
 1402SOL    HW1 5105   6.589   4.608   2.724
 1402SOL    HW2 5106   6.664   4.739   2.785
 1403SOL     OW 5107   3.225   3.455   6.652
 1403SOL    HW1 5108   3.216   3.363   6.613
 1403SOL    HW2 5109   3.227   3.449   6.752
 1404SOL     OW 5110   3.706   0.036   0.223
 1404SOL    HW1 5111   3.657   6.972   0.202
 1404SOL    HW2 5112   3.644   0.114   0.217
 1405SOL     OW 5113   0.717   4.028   1.502
 1405SOL    HW1 5114   0.659   4.083   1.441
 1405SOL    HW2 5115   0.688   3.933   1.498
 1406SOL     OW 5116   2.175   3.372   0.722
 1406SOL    HW1 5117   2.110   3.436   0.763
 1406SOL    HW2 5118   2.238   3.422   0.662
 1407SOL     OW 5119   0.061   3.003   1.283
 1407SOL    HW1 5120   0.098   2.913   1.305
 1407SOL    HW2 5121   0.136   3.065   1.260
 1408SOL     OW 5122   5.449   6.660   1.100
 1408SOL    HW1 5123   5.440   6.604   1.018
 1408SOL    HW2 5124   5.540   6.647   1.139
 1409SOL     OW 5125   6.672   1.190   5.548
 1409SOL    HW1 5126   6.727   1.121   5.596
 1409SOL    HW2 5127   6.721   1.277   5.549
 1410SOL     OW 5128   3.898   0.601   6.236
 1410SOL    HW1 5129   3.858   0.641   6.318
 1410SOL    HW2 5130   3.908   0.671   6.165
 1411SOL     OW 5131   3.374   5.226   6.919
 1411SOL    HW1 5132   3.462   5.217   6.965
 1411SOL    HW2 5133   3.304   5.250   6.987
 1412SOL     OW 5134   2.443   3.246   0.132
 1412SOL    HW1 5135   2.346   3.263   0.116
 1412SOL    HW2 5136   2.460   3.243   0.231
 1413SOL     OW 5137   1.440   1.623   4.794
 1413SOL    HW1 5138   1.539   1.633   4.787
 1413SOL    HW2 5139   1.398   1.650   4.707
 1414SOL     OW 5140   1.029   4.463   2.441
 1414SOL    HW1 5141   1.074   4.539   2.488
 1414SOL    HW2 5142   1.019   4.386   2.504
 1415SOL     OW 5143   2.597   1.496   4.916
 1415SOL    HW1 5144   2.551   1.453   4.838
 1415SOL    HW2 5145   2.576   1.445   4.999
 1416SOL     OW 5146   4.628   0.514   4.626
 1416SOL    HW1 5147   4.537   0.513   4.667
 1416SOL    HW2 5148   4.653   0.608   4.604
 1417SOL     OW 5149   3.666   3.543   6.041
 1417SOL    HW1 5150   3.727   3.482   6.092
 1417SOL    HW2 5151   3.630   3.613   6.103
 1418SOL     OW 5152   3.940   4.177   5.553
 1418SOL    HW1 5153   3.888   4.183   5.468
 1418SOL    HW2 5154   3.989   4.089   5.555
 1419SOL     OW 5155   1.613   5.671   2.258
 1419SOL    HW1 5156   1.586   5.578   2.285
 1419SOL    HW2 5157   1.557   5.700   2.180
 1420SOL     OW 5158   2.493   0.002   3.051
 1420SOL    HW1 5159   2.469   0.036   3.142
 1420SOL    HW2 5160   2.415   6.975   3.011
 1421SOL     OW 5161   1.399   4.610   5.714
 1421SOL    HW1 5162   1.458   4.619   5.795
 1421SOL    HW2 5163   1.309   4.576   5.742
 1422SOL     OW 5164   1.891   2.981   6.362
 1422SOL    HW1 5165   1.836   3.023   6.289
 1422SOL    HW2 5166   1.941   3.052   6.411
 1423SOL     OW 5167   4.258   0.619   4.447
 1423SOL    HW1 5168   4.261   0.642   4.544
 1423SOL    HW2 5169   4.167   0.636   4.411
 1424SOL     OW 5170   6.084   2.994   0.501
 1424SOL    HW1 5171   6.159   3.039   0.551
 1424SOL    HW2 5172   6.031   2.937   0.564
 1425SOL     OW 5173   5.687   6.850   3.583
 1425SOL    HW1 5174   5.703   6.947   3.603
 1425SOL    HW2 5175   5.763   6.814   3.529
 1426SOL     OW 5176   3.304   1.500   6.968
 1426SOL    HW1 5177   3.318   1.434   6.894
 1426SOL    HW2 5178   3.260   1.582   6.932
 1427SOL     OW 5179   1.904   0.422   3.538
 1427SOL    HW1 5180   1.837   0.351   3.517
 1427SOL    HW2 5181   1.979   0.417   3.472
 1428SOL     OW 5182   0.374   2.521   3.672
 1428SOL    HW1 5183   0.385   2.461   3.751
 1428SOL    HW2 5184   0.282   2.512   3.634
 1429SOL     OW 5185   6.601   1.299   1.624
 1429SOL    HW1 5186   6.502   1.303   1.607
 1429SOL    HW2 5187   6.626   1.208   1.657
 1430SOL     OW 5188   2.111   3.295   4.203
 1430SOL    HW1 5189   2.131   3.310   4.300
 1430SOL    HW2 5190   2.161   3.215   4.171
 1431SOL     OW 5191   2.624   1.256   6.910
 1431SOL    HW1 5192   2.702   1.229   6.853
 1431SOL    HW2 5193   2.587   1.176   6.957
 1432SOL     OW 5194   3.626   0.725   2.308
 1432SOL    HW1 5195   3.671   0.814   2.320
 1432SOL    HW2 5196   3.636   0.697   2.213
 1433SOL     OW 5197   2.492   0.355   4.077
 1433SOL    HW1 5198   2.505   0.374   3.980
 1433SOL    HW2 5199   2.397   0.328   4.094
 1434SOL     OW 5200   6.571   3.977   0.119
 1434SOL    HW1 5201   6.590   3.880   0.103
 1434SOL    HW2 5202   6.534   3.990   0.211
 1435SOL     OW 5203   1.854   0.366   3.905
 1435SOL    HW1 5204   1.937   0.405   3.866
 1435SOL    HW2 5205   1.826   0.420   3.985
 1436SOL     OW 5206   5.021   1.371   0.410
 1436SOL    HW1 5207   4.952   1.348   0.341
 1436SOL    HW2 5208   5.112   1.362   0.370
 1437SOL     OW 5209   4.043   0.518   6.611
 1437SOL    HW1 5210   3.990   0.600   6.632
 1437SOL    HW2 5211   4.105   0.536   6.535
 1438SOL     OW 5212   2.029   0.516   2.256
 1438SOL    HW1 5213   1.936   0.547   2.238
 1438SOL    HW2 5214   2.053   0.538   2.351
 1439SOL     OW 5215   0.537   4.655   6.584
 1439SOL    HW1 5216   0.580   4.707   6.511
 1439SOL    HW2 5217   0.439   4.676   6.587
 1440SOL     OW 5218   3.394   2.843   2.888
 1440SOL    HW1 5219   3.477   2.894   2.908
 1440SOL    HW2 5220   3.418   2.757   2.842
 1441SOL     OW 5221   6.328   3.148   4.053
 1441SOL    HW1 5222   6.267   3.147   4.132
 1441SOL    HW2 5223   6.395   3.222   4.064
 1442SOL     OW 5224   5.573   6.641   6.900
 1442SOL    HW1 5225   5.584   6.553   6.854
 1442SOL    HW2 5226   5.641   6.706   6.865
 1443SOL     OW 5227   1.010   2.384   3.224
 1443SOL    HW1 5228   1.068   2.465   3.217
 1443SOL    HW2 5229   1.003   2.355   3.319
 1444SOL     OW 5230   5.691   0.892   4.902
 1444SOL    HW1 5231   5.615   0.828   4.907
 1444SOL    HW2 5232   5.758   0.860   4.836
 1445SOL     OW 5233   6.003   2.409   0.911
 1445SOL    HW1 5234   5.960   2.484   0.961
 1445SOL    HW2 5235   5.955   2.323   0.932
 1446SOL     OW 5236   4.236   0.403   0.724
 1446SOL    HW1 5237   4.166   0.336   0.745
 1446SOL    HW2 5238   4.256   0.457   0.806
 1447SOL     OW 5239   5.384   1.349   5.261
 1447SOL    HW1 5240   5.432   1.437   5.256
 1447SOL    HW2 5241   5.443   1.282   5.305
 1448SOL     OW 5242   5.445   0.284   6.771
 1448SOL    HW1 5243   5.453   0.200   6.717
 1448SOL    HW2 5244   5.402   0.355   6.715
 1449SOL     OW 5245   4.616   5.247   0.801
 1449SOL    HW1 5246   4.689   5.200   0.851
 1449SOL    HW2 5247   4.554   5.291   0.866
 1450SOL     OW 5248   5.474   1.833   4.033
 1450SOL    HW1 5249   5.409   1.886   3.979
 1450SOL    HW2 5250   5.558   1.820   3.980
 1451SOL     OW 5251   1.541   6.868   2.518
 1451SOL    HW1 5252   1.572   6.867   2.423
 1451SOL    HW2 5253   1.619   6.885   2.578
 1452SOL     OW 5254   4.597   0.577   5.052
 1452SOL    HW1 5255   4.565   0.671   5.040
 1452SOL    HW2 5256   4.683   0.565   5.003
 1453SOL     OW 5257   4.751   4.266   4.563
 1453SOL    HW1 5258   4.680   4.245   4.630
 1453SOL    HW2 5259   4.805   4.184   4.545
 1454SOL     OW 5260   4.458   3.995   1.156
 1454SOL    HW1 5261   4.452   4.081   1.104
 1454SOL    HW2 5262   4.379   3.938   1.135
 1455SOL     OW 5263   2.269   2.288   1.537
 1455SOL    HW1 5264   2.191   2.313   1.594
 1455SOL    HW2 5265   2.354   2.309   1.584
 1456SOL     OW 5266   6.643   5.282   4.306
 1456SOL    HW1 5267   6.736   5.253   4.330
 1456SOL    HW2 5268   6.581   5.204   4.312
 1457SOL     OW 5269   1.863   0.709   3.548
 1457SOL    HW1 5270   1.793   0.756   3.603
 1457SOL    HW2 5271   1.845   0.611   3.551
 1458SOL     OW 5272   6.675   5.237   0.238
 1458SOL    HW1 5273   6.709   5.145   0.218
 1458SOL    HW2 5274   6.586   5.249   0.194
 1459SOL     OW 5275   2.693   6.703   0.852
 1459SOL    HW1 5276   2.746   6.788   0.850
 1459SOL    HW2 5277   2.604   6.719   0.810
 1460SOL     OW 5278   0.440   6.417   0.711
 1460SOL    HW1 5279   0.366   6.478   0.683
 1460SOL    HW2 5280   0.460   6.430   0.808
 1461SOL     OW 5281   4.535   4.852   1.525
 1461SOL    HW1 5282   4.570   4.787   1.458
 1461SOL    HW2 5283   4.496   4.803   1.603
 1462SOL     OW 5284   5.229   0.267   5.427
 1462SOL    HW1 5285   5.165   0.233   5.496
 1462SOL    HW2 5286   5.177   0.297   5.346
 1463SOL     OW 5287   0.452   1.204   5.104
 1463SOL    HW1 5288   0.436   1.106   5.089
 1463SOL    HW2 5289   0.509   1.240   5.031
 1464SOL     OW 5290   0.082   0.103   1.630
 1464SOL    HW1 5291   0.179   0.088   1.652
 1464SOL    HW2 5292   0.031   0.118   1.715
 1465SOL     OW 5293   0.398   6.966   4.778
 1465SOL    HW1 5294   0.353   6.891   4.824
 1465SOL    HW2 5295   0.437   6.934   4.691
 1466SOL     OW 5296   5.353   5.456   4.177
 1466SOL    HW1 5297   5.434   5.426   4.127
 1466SOL    HW2 5298   5.365   5.551   4.208
 1467SOL     OW 5299   6.163   3.832   2.895
 1467SOL    HW1 5300   6.241   3.838   2.832
 1467SOL    HW2 5301   6.174   3.900   2.967
 1468SOL     OW 5302   5.207   5.954   2.891
 1468SOL    HW1 5303   5.153   6.038   2.902
 1468SOL    HW2 5304   5.301   5.978   2.867
 1469SOL     OW 5305   0.480   0.873   2.710
 1469SOL    HW1 5306   0.565   0.876   2.657
 1469SOL    HW2 5307   0.501   0.889   2.807
 1470SOL     OW 5308   0.031   0.971   3.187
 1470SOL    HW1 5309   6.971   0.927   3.147
 1470SOL    HW2 5310   0.008   1.004   3.279
 1471SOL     OW 5311   6.076   0.880   0.449
 1471SOL    HW1 5312   6.143   0.946   0.416
 1471SOL    HW2 5313   6.117   0.789   0.453
 1472SOL     OW 5314   4.205   5.836   4.921
 1472SOL    HW1 5315   4.261   5.754   4.908
 1472SOL    HW2 5316   4.261   5.909   4.959
 1473SOL     OW 5317   5.828   4.350   3.677
 1473SOL    HW1 5318   5.867   4.421   3.619
 1473SOL    HW2 5319   5.884   4.340   3.759
 1474SOL     OW 5320   4.832   4.783   3.565
 1474SOL    HW1 5321   4.924   4.807   3.596
 1474SOL    HW2 5322   4.776   4.755   3.643
 1475SOL     OW 5323   6.837   0.596   3.201
 1475SOL    HW1 5324   6.897   0.554   3.268
 1475SOL    HW2 5325   6.871   0.687   3.177
 1476SOL     OW 5326   6.241   1.977   1.314
 1476SOL    HW1 5327   6.233   2.002   1.410
 1476SOL    HW2 5328   6.294   2.046   1.266
 1477SOL     OW 5329   3.377   6.632   3.161
 1477SOL    HW1 5330   3.404   6.562   3.228
 1477SOL    HW2 5331   3.320   6.701   3.205
 1478SOL     OW 5332   6.724   4.744   2.152
 1478SOL    HW1 5333   6.811   4.794   2.156
 1478SOL    HW2 5334   6.657   4.788   2.210
 1479SOL     OW 5335   1.230   5.653   0.758
 1479SOL    HW1 5336   1.152   5.687   0.810
 1479SOL    HW2 5337   1.314   5.669   0.809
 1480SOL     OW 5338   2.589   0.959   6.988
 1480SOL    HW1 5339   2.631   0.891   0.027
 1480SOL    HW2 5340   2.495   0.977   7.018
 1481SOL     OW 5341   0.226   2.699   5.980
 1481SOL    HW1 5342   0.276   2.688   6.065
 1481SOL    HW2 5343   0.281   2.752   5.915
 1482SOL     OW 5344   5.951   0.909   6.229
 1482SOL    HW1 5345   5.936   0.974   6.155
 1482SOL    HW2 5346   6.048   0.907   6.252
 1483SOL     OW 5347   6.266   2.786   6.721
 1483SOL    HW1 5348   6.251   2.693   6.685
 1483SOL    HW2 5349   6.346   2.786   6.780
 1484SOL     OW 5350   6.649   6.772   2.868
 1484SOL    HW1 5351   6.571   6.833   2.879
 1484SOL    HW2 5352   6.706   6.805   2.793
 1485SOL     OW 5353   5.659   2.989   4.603
 1485SOL    HW1 5354   5.567   2.952   4.592
 1485SOL    HW2 5355   5.724   2.932   4.553
 1486SOL     OW 5356   4.500   1.944   2.349
 1486SOL    HW1 5357   4.448   2.009   2.405
 1486SOL    HW2 5358   4.565   1.895   2.407
 1487SOL     OW 5359   6.572   1.251   5.227
 1487SOL    HW1 5360   6.590   1.171   5.284
 1487SOL    HW2 5361   6.485   1.239   5.178
 1488SOL     OW 5362   4.113   1.916   2.931
 1488SOL    HW1 5363   4.058   1.858   2.871
 1488SOL    HW2 5364   4.053   1.978   2.982
 1489SOL     OW 5365   4.072   4.863   4.636
 1489SOL    HW1 5366   4.085   4.801   4.713
 1489SOL    HW2 5367   4.068   4.957   4.670
 1490SOL     OW 5368   2.292   2.358   0.868
 1490SOL    HW1 5369   2.279   2.429   0.800
 1490SOL    HW2 5370   2.315   2.399   0.956
 1491SOL     OW 5371   0.230   2.529   5.576
 1491SOL    HW1 5372   0.308   2.539   5.637
 1491SOL    HW2 5373   0.221   2.611   5.520
 1492SOL     OW 5374   5.276   2.762   2.150
 1492SOL    HW1 5375   5.230   2.710   2.078
 1492SOL    HW2 5376   5.240   2.736   2.239
 1493SOL     OW 5377   5.518   0.703   4.946
 1493SOL    HW1 5378   5.470   0.679   4.861
 1493SOL    HW2 5379   5.462   0.678   5.025
 1494SOL     OW 5380   5.245   2.188   4.499
 1494SOL    HW1 5381   5.223   2.284   4.516
 1494SOL    HW2 5382   5.266   2.142   4.585
 1495SOL     OW 5383   2.132   2.612   2.653
 1495SOL    HW1 5384   2.180   2.531   2.686
 1495SOL    HW2 5385   2.194   2.666   2.596
 1496SOL     OW 5386   0.783   1.153   3.296
 1496SOL    HW1 5387   0.772   1.239   3.346
 1496SOL    HW2 5388   0.793   1.077   3.360
 1497SOL     OW 5389   5.184   4.487   5.891
 1497SOL    HW1 5390   5.241   4.558   5.931
 1497SOL    HW2 5391   5.089   4.501   5.919
 1498SOL     OW 5392   1.732   5.754   6.890
 1498SOL    HW1 5393   1.700   5.786   6.801
 1498SOL    HW2 5394   1.827   5.724   6.883
 1499SOL     OW 5395   0.658   4.796   4.787
 1499SOL    HW1 5396   0.622   4.715   4.835
 1499SOL    HW2 5397   0.661   4.873   4.850
 1500SOL     OW 5398   4.109   6.489   5.282
 1500SOL    HW1 5399   4.119   6.588   5.292
 1500SOL    HW2 5400   4.184   6.454   5.227
 1501SOL     OW 5401   4.391   0.237   6.256
 1501SOL    HW1 5402   4.336   0.319   6.274
 1501SOL    HW2 5403   4.377   0.171   6.330
 1502SOL     OW 5404   6.593   6.642   0.164
 1502SOL    HW1 5405   6.688   6.637   0.131
 1502SOL    HW2 5406   6.583   6.586   0.246
 1503SOL     OW 5407   3.195   3.559   5.297
 1503SOL    HW1 5408   3.191   3.524   5.204
 1503SOL    HW2 5409   3.289   3.583   5.320
 1504SOL     OW 5410   2.730   6.192   4.329
 1504SOL    HW1 5411   2.697   6.107   4.371
 1504SOL    HW2 5412   2.792   6.170   4.254
 1505SOL     OW 5413   5.040   5.016   1.651
 1505SOL    HW1 5414   4.961   4.956   1.640
 1505SOL    HW2 5415   5.100   5.006   1.571
 1506SOL     OW 5416   0.724   6.482   2.929
 1506SOL    HW1 5417   0.661   6.404   2.924
 1506SOL    HW2 5418   0.688   6.558   2.877
 1507SOL     OW 5419   2.061   0.705   6.358
 1507SOL    HW1 5420   1.991   0.721   6.288
 1507SOL    HW2 5421   2.053   0.774   6.430
 1508SOL     OW 5422   4.489   6.909   0.291
 1508SOL    HW1 5423   4.544   6.987   0.261
 1508SOL    HW2 5424   4.393   6.934   0.293
 1509SOL     OW 5425   5.170   1.598   0.757
 1509SOL    HW1 5426   5.120   1.649   0.688
 1509SOL    HW2 5427   5.126   1.611   0.846
 1510SOL     OW 5428   0.229   1.927   3.812
 1510SOL    HW1 5429   0.227   1.827   3.812
 1510SOL    HW2 5430   0.287   1.959   3.887
 1511SOL     OW 5431   1.506   2.429   0.614
 1511SOL    HW1 5432   1.522   2.501   0.547
 1511SOL    HW2 5433   1.535   2.461   0.705
 1512SOL     OW 5434   5.856   0.592   2.331
 1512SOL    HW1 5435   5.930   0.635   2.381
 1512SOL    HW2 5436   5.824   0.511   2.382
 1513SOL     OW 5437   4.021   1.306   2.692
 1513SOL    HW1 5438   3.951   1.308   2.621
 1513SOL    HW2 5439   3.988   1.355   2.773
 1514SOL     OW 5440   5.217   1.486   5.929
 1514SOL    HW1 5441   5.146   1.458   5.994
 1514SOL    HW2 5442   5.248   1.578   5.952
 1515SOL     OW 5443   6.553   4.990   5.107
 1515SOL    HW1 5444   6.593   5.046   5.035
 1515SOL    HW2 5445   6.455   4.978   5.089
 1516SOL     OW 5446   1.005   1.283   1.145
 1516SOL    HW1 5447   0.917   1.328   1.154
 1516SOL    HW2 5448   1.019   1.253   1.051
 1517SOL     OW 5449   3.624   4.927   3.479
 1517SOL    HW1 5450   3.715   4.969   3.483
 1517SOL    HW2 5451   3.632   4.828   3.488
 1518SOL     OW 5452   0.818   4.587   1.396
 1518SOL    HW1 5453   0.864   4.630   1.473
 1518SOL    HW2 5454   0.719   4.587   1.412
 1519SOL     OW 5455   6.894   5.124   1.110
 1519SOL    HW1 5456   6.988   5.089   1.119
 1519SOL    HW2 5457   6.839   5.058   1.058
 1520SOL     OW 5458   1.460   2.661   3.040
 1520SOL    HW1 5459   1.378   2.607   3.055
 1520SOL    HW2 5460   1.450   2.715   2.956
 1521SOL     OW 5461   2.825   4.358   5.790
 1521SOL    HW1 5462   2.811   4.328   5.696
 1521SOL    HW2 5463   2.827   4.458   5.793
 1522SOL     OW 5464   0.111   2.339   6.667
 1522SOL    HW1 5465   0.048   2.281   6.718
 1522SOL    HW2 5466   0.172   2.387   6.730
 1523SOL     OW 5467   6.787   1.314   0.998
 1523SOL    HW1 5468   6.723   1.359   0.935
 1523SOL    HW2 5469   6.794   1.367   1.082
 1524SOL     OW 5470   6.188   0.926   2.852
 1524SOL    HW1 5471   6.114   0.858   2.846
 1524SOL    HW2 5472   6.276   0.878   2.862
 1525SOL     OW 5473   4.297   1.529   6.038
 1525SOL    HW1 5474   4.344   1.516   5.951
 1525SOL    HW2 5475   4.199   1.545   6.021
 1526SOL     OW 5476   6.821   1.777   1.112
 1526SOL    HW1 5477   6.768   1.694   1.129
 1526SOL    HW2 5478   6.833   1.828   1.197
 1527SOL     OW 5479   3.276   2.308   5.616
 1527SOL    HW1 5480   3.259   2.281   5.711
 1527SOL    HW2 5481   3.236   2.241   5.554
 1528SOL     OW 5482   5.089   5.972   3.402
 1528SOL    HW1 5483   5.112   5.939   3.494
 1528SOL    HW2 5484   5.083   5.893   3.340
 1529SOL     OW 5485   3.131   0.671   5.573
 1529SOL    HW1 5486   3.197   0.745   5.586
 1529SOL    HW2 5487   3.160   0.591   5.625
 1530SOL     OW 5488   3.373   0.084   2.600
 1530SOL    HW1 5489   3.312   0.043   2.531
 1530SOL    HW2 5490   3.375   0.183   2.586
 1531SOL     OW 5491   6.645   0.388   5.526
 1531SOL    HW1 5492   6.734   0.433   5.533
 1531SOL    HW2 5493   6.608   0.402   5.434
 1532SOL     OW 5494   3.369   2.115   5.154
 1532SOL    HW1 5495   3.292   2.159   5.109
 1532SOL    HW2 5496   3.431   2.078   5.085
 1533SOL     OW 5497   5.555   3.066   6.799
 1533SOL    HW1 5498   5.562   3.075   6.699
 1533SOL    HW2 5499   5.586   3.151   6.842
 1534SOL     OW 5500   0.125   6.618   1.844
 1534SOL    HW1 5501   0.160   6.712   1.845
 1534SOL    HW2 5502   0.113   6.585   1.937
 1535SOL     OW 5503   5.027   5.463   4.242
 1535SOL    HW1 5504   4.968   5.504   4.312
 1535SOL    HW2 5505   4.974   5.445   4.160
 1536SOL     OW 5506   2.906   5.625   3.700
 1536SOL    HW1 5507   2.875   5.661   3.788
 1536SOL    HW2 5508   2.991   5.574   3.712
 1537SOL     OW 5509   2.770   5.188   4.487
 1537SOL    HW1 5510   2.760   5.163   4.584
 1537SOL    HW2 5511   2.695   5.148   4.435
 1538SOL     OW 5512   2.591   4.998   6.483
 1538SOL    HW1 5513   2.606   4.907   6.522
 1538SOL    HW2 5514   2.673   5.028   6.435
 1539SOL     OW 5515   3.153   4.761   1.809
 1539SOL    HW1 5516   3.237   4.717   1.776
 1539SOL    HW2 5517   3.092   4.776   1.732
 1540SOL     OW 5518   0.216   6.969   5.317
 1540SOL    HW1 5519   0.194   6.938   5.224
 1540SOL    HW2 5520   0.131   6.983   5.368
 1541SOL     OW 5521   5.113   2.150   1.129
 1541SOL    HW1 5522   5.082   2.240   1.159
 1541SOL    HW2 5523   5.212   2.149   1.122
 1542SOL     OW 5524   0.828   6.442   1.062
 1542SOL    HW1 5525   0.805   6.349   1.091
 1542SOL    HW2 5526   0.856   6.495   1.142
 1543SOL     OW 5527   3.159   3.928   4.307
 1543SOL    HW1 5528   3.136   3.840   4.348
 1543SOL    HW2 5529   3.140   3.925   4.208
 1544SOL     OW 5530   4.028   3.810   2.886
 1544SOL    HW1 5531   3.939   3.855   2.887
 1544SOL    HW2 5532   4.088   3.854   2.953
 1545SOL     OW 5533   6.394   0.885   4.652
 1545SOL    HW1 5534   6.333   0.848   4.722
 1545SOL    HW2 5535   6.360   0.861   4.562
 1546SOL     OW 5536   0.110   6.265   5.982
 1546SOL    HW1 5537   0.183   6.307   6.037
 1546SOL    HW2 5538   0.123   6.288   5.886
 1547SOL     OW 5539   3.876   5.942   6.854
 1547SOL    HW1 5540   3.886   5.882   6.774
 1547SOL    HW2 5541   3.779   5.953   6.875
 1548SOL     OW 5542   6.313   4.616   3.902
 1548SOL    HW1 5543   6.326   4.683   3.975
 1548SOL    HW2 5544   6.317   4.662   3.813
 1549SOL     OW 5545   6.326   1.591   1.510
 1549SOL    HW1 5546   6.259   1.651   1.468
 1549SOL    HW2 5547   6.409   1.589   1.455
 1550SOL     OW 5548   2.684   5.884   3.695
 1550SOL    HW1 5549   2.731   5.797   3.684
 1550SOL    HW2 5550   2.726   5.953   3.635
 1551SOL     OW 5551   0.899   3.137   1.152
 1551SOL    HW1 5552   0.841   3.107   1.229
 1551SOL    HW2 5553   0.983   3.177   1.188
 1552SOL     OW 5554   0.963   6.902   0.562
 1552SOL    HW1 5555   1.020   6.930   0.640
 1552SOL    HW2 5556   0.909   6.980   0.530
 1553SOL     OW 5557   5.752   1.864   6.501
 1553SOL    HW1 5558   5.658   1.836   6.483
 1553SOL    HW2 5559   5.797   1.887   6.415
 1554SOL     OW 5560   3.032   1.581   0.947
 1554SOL    HW1 5561   2.985   1.658   0.989
 1554SOL    HW2 5562   3.071   1.608   0.860
 1555SOL     OW 5563   4.606   1.123   6.363
 1555SOL    HW1 5564   4.615   1.178   6.446
 1555SOL    HW2 5565   4.646   1.173   6.286
 1556SOL     OW 5566   3.278   1.868   0.123
 1556SOL    HW1 5567   3.280   1.845   0.220
 1556SOL    HW2 5568   3.359   1.922   0.101
 1557SOL     OW 5569   1.762   2.963   0.266
 1557SOL    HW1 5570   1.676   3.005   0.294
 1557SOL    HW2 5571   1.764   2.868   0.297
 1558SOL     OW 5572   5.173   2.962   6.009
 1558SOL    HW1 5573   5.169   3.004   5.919
 1558SOL    HW2 5574   5.143   2.867   6.003
 1559SOL     OW 5575   2.478   5.316   3.901
 1559SOL    HW1 5576   2.467   5.217   3.911
 1559SOL    HW2 5577   2.569   5.335   3.864
 1560SOL     OW 5578   3.646   1.652   0.863
 1560SOL    HW1 5579   3.576   1.724   0.861
 1560SOL    HW2 5580   3.736   1.694   0.868
 1561SOL     OW 5581   6.085   6.140   1.095
 1561SOL    HW1 5582   6.164   6.116   1.151
 1561SOL    HW2 5583   6.109   6.214   1.032
 1562SOL     OW 5584   3.893   0.154   2.238
 1562SOL    HW1 5585   3.862   0.220   2.169
 1562SOL    HW2 5586   3.866   0.062   2.210
 1563SOL     OW 5587   2.927   2.256   4.014
 1563SOL    HW1 5588   2.904   2.259   4.112
 1563SOL    HW2 5589   3.013   2.207   4.002
 1564SOL     OW 5590   1.012   1.554   2.959
 1564SOL    HW1 5591   0.939   1.488   2.976
 1564SOL    HW2 5592   1.069   1.563   3.041
 1565SOL     OW 5593   4.094   1.069   4.996
 1565SOL    HW1 5594   4.188   1.073   4.962
 1565SOL    HW2 5595   4.034   1.117   4.932
 1566SOL     OW 5596   5.226   4.759   3.249
 1566SOL    HW1 5597   5.149   4.723   3.197
 1566SOL    HW2 5598   5.266   4.686   3.305
 1567SOL     OW 5599   5.591   0.850   4.456
 1567SOL    HW1 5600   5.565   0.903   4.375
 1567SOL    HW2 5601   5.566   0.755   4.444
 1568SOL     OW 5602   2.886   5.036   1.326
 1568SOL    HW1 5603   2.832   4.964   1.368
 1568SOL    HW2 5604   2.899   5.111   1.391
 1569SOL     OW 5605   3.021   0.795   3.019
 1569SOL    HW1 5606   3.022   0.890   3.050
 1569SOL    HW2 5607   3.063   0.737   3.089
 1570SOL     OW 5608   3.085   5.891   6.156
 1570SOL    HW1 5609   3.116   5.875   6.250
 1570SOL    HW2 5610   3.059   5.804   6.114
 1571SOL     OW 5611   0.498   2.709   4.182
 1571SOL    HW1 5612   0.429   2.650   4.141
 1571SOL    HW2 5613   0.471   2.731   4.276
 1572SOL     OW 5614   2.478   5.293   2.765
 1572SOL    HW1 5615   2.483   5.289   2.666
 1572SOL    HW2 5616   2.557   5.344   2.800
 1573SOL     OW 5617   5.884   6.364   0.219
 1573SOL    HW1 5618   5.954   6.307   0.175
 1573SOL    HW2 5619   5.863   6.326   0.309
 1574SOL     OW 5620   6.567   3.864   3.546
 1574SOL    HW1 5621   6.604   3.781   3.505
 1574SOL    HW2 5622   6.563   3.852   3.646
 1575SOL     OW 5623   6.846   2.121   0.154
 1575SOL    HW1 5624   6.944   2.132   0.140
 1575SOL    HW2 5625   6.830   2.047   0.220
 1576SOL     OW 5626   1.103   0.016   1.505
 1576SOL    HW1 5627   1.106   6.963   1.437
 1576SOL    HW2 5628   1.152   0.096   1.469
 1577SOL     OW 5629   3.945   5.613   5.468
 1577SOL    HW1 5630   3.852   5.647   5.453
 1577SOL    HW2 5631   3.956   5.590   5.565
 1578SOL     OW 5632   4.756   0.985   1.120
 1578SOL    HW1 5633   4.767   1.037   1.205
 1578SOL    HW2 5634   4.803   1.033   1.045
 1579SOL     OW 5635   1.891   2.501   1.410
 1579SOL    HW1 5636   1.861   2.445   1.332
 1579SOL    HW2 5637   1.968   2.557   1.382
 1580SOL     OW 5638   3.408   3.540   2.900
 1580SOL    HW1 5639   3.338   3.560   2.970
 1580SOL    HW2 5640   3.412   3.615   2.835
 1581SOL     OW 5641   6.250   4.697   5.832
 1581SOL    HW1 5642   6.346   4.676   5.815
 1581SOL    HW2 5643   6.199   4.692   5.747
 1582SOL     OW 5644   4.504   6.193   5.241
 1582SOL    HW1 5645   4.477   6.172   5.335
 1582SOL    HW2 5646   4.492   6.111   5.185
 1583SOL     OW 5647   1.164   4.997   4.904
 1583SOL    HW1 5648   1.222   5.040   4.974
 1583SOL    HW2 5649   1.184   5.037   4.815
 1584SOL     OW 5650   7.016   4.702   0.227
 1584SOL    HW1 5651   6.929   4.680   0.271
 1584SOL    HW2 5652   0.014   4.636   0.154
 1585SOL     OW 5653   3.968   6.356   3.696
 1585SOL    HW1 5654   3.948   6.441   3.648
 1585SOL    HW2 5655   3.906   6.345   3.773
 1586SOL     OW 5656   3.404   5.769   3.674
 1586SOL    HW1 5657   3.418   5.813   3.585
 1586SOL    HW2 5658   3.341   5.692   3.664
 1587SOL     OW 5659   3.033   5.818   6.700
 1587SOL    HW1 5660   3.042   5.890   6.769
 1587SOL    HW2 5661   2.961   5.844   6.635
 1588SOL     OW 5662   6.710   1.811   3.345
 1588SOL    HW1 5663   6.697   1.833   3.248
 1588SOL    HW2 5664   6.649   1.735   3.370
 1589SOL     OW 5665   6.127   4.557   4.175
 1589SOL    HW1 5666   6.128   4.478   4.114
 1589SOL    HW2 5667   6.203   4.550   4.240
 1590SOL     OW 5668   6.392   2.780   3.743
 1590SOL    HW1 5669   6.313   2.833   3.713
 1590SOL    HW2 5670   6.395   2.778   3.843
 1591SOL     OW 5671   1.394   6.435   1.439
 1591SOL    HW1 5672   1.357   6.490   1.365
 1591SOL    HW2 5673   1.368   6.340   1.426
 1592SOL     OW 5674   0.145   4.348   6.124
 1592SOL    HW1 5675   0.139   4.267   6.065
 1592SOL    HW2 5676   0.169   4.320   6.217
 1593SOL     OW 5677   3.205   0.480   6.773
 1593SOL    HW1 5678   3.183   0.555   6.711
 1593SOL    HW2 5679   3.223   0.397   6.720
 1594SOL     OW 5680   5.941   0.285   2.785
 1594SOL    HW1 5681   5.945   0.236   2.698
 1594SOL    HW2 5682   5.847   0.313   2.803
 1595SOL     OW 5683   0.125   3.875   0.542
 1595SOL    HW1 5684   0.045   3.935   0.533
 1595SOL    HW2 5685   0.184   3.886   0.463
 1596SOL     OW 5686   4.372   4.791   3.040
 1596SOL    HW1 5687   4.290   4.764   2.989
 1596SOL    HW2 5688   4.397   4.718   3.104
 1597SOL     OW 5689   3.847   5.754   6.638
 1597SOL    HW1 5690   3.927   5.696   6.649
 1597SOL    HW2 5691   3.835   5.776   6.541
 1598SOL     OW 5692   1.652   4.968   0.184
 1598SOL    HW1 5693   1.702   4.992   0.100
 1598SOL    HW2 5694   1.624   4.872   0.179
 1599SOL     OW 5695   4.448   5.939   3.215
 1599SOL    HW1 5696   4.406   5.953   3.125
 1599SOL    HW2 5697   4.459   6.028   3.261
 1600SOL     OW 5698   4.110   0.251   1.956
 1600SOL    HW1 5699   4.081   0.343   1.933
 1600SOL    HW2 5700   4.075   0.187   1.887
 1601SOL     OW 5701   6.654   0.242   4.924
 1601SOL    HW1 5702   6.632   0.219   5.019
 1601SOL    HW2 5703   6.730   0.186   4.893
 1602SOL     OW 5704   3.704   5.741   3.789
 1602SOL    HW1 5705   3.697   5.802   3.868
 1602SOL    HW2 5706   3.618   5.741   3.739
 1603SOL     OW 5707   3.450   5.260   3.249
 1603SOL    HW1 5708   3.485   5.254   3.155
 1603SOL    HW2 5709   3.484   5.344   3.292
 1604SOL     OW 5710   4.116   5.379   1.740
 1604SOL    HW1 5711   4.159   5.463   1.706
 1604SOL    HW2 5712   4.180   5.303   1.731
 1605SOL     OW 5713   4.445   5.425   0.943
 1605SOL    HW1 5714   4.516   5.450   1.008
 1605SOL    HW2 5715   4.370   5.491   0.948
 1606SOL     OW 5716   3.493   5.906   4.948
 1606SOL    HW1 5717   3.585   5.872   4.971
 1606SOL    HW2 5718   3.488   5.927   4.851
 1607SOL     OW 5719   4.777   5.571   2.769
 1607SOL    HW1 5720   4.723   5.487   2.772
 1607SOL    HW2 5721   4.730   5.644   2.818
 1608SOL     OW 5722   5.312   1.461   3.346
 1608SOL    HW1 5723   5.318   1.382   3.286
 1608SOL    HW2 5724   5.398   1.512   3.342
 1609SOL     OW 5725   2.372   6.740   0.991
 1609SOL    HW1 5726   2.372   6.759   0.893
 1609SOL    HW2 5727   2.351   6.644   1.007
 1610SOL     OW 5728   5.469   6.866   0.586
 1610SOL    HW1 5729   5.440   6.864   0.682
 1610SOL    HW2 5730   5.566   6.889   0.581
 1611SOL     OW 5731   1.338   4.493   0.952
 1611SOL    HW1 5732   1.281   4.483   0.871
 1611SOL    HW2 5733   1.304   4.433   1.024
 1612SOL     OW 5734   3.690   0.389   2.320
 1612SOL    HW1 5735   3.606   0.392   2.373
 1612SOL    HW2 5736   3.768   0.412   2.378
 1613SOL     OW 5737   6.871   5.631   2.413
 1613SOL    HW1 5738   6.792   5.687   2.437
 1613SOL    HW2 5739   6.841   5.538   2.392
 1614SOL     OW 5740   6.257   1.895   6.146
 1614SOL    HW1 5741   6.296   1.936   6.063
 1614SOL    HW2 5742   6.194   1.960   6.189
 1615SOL     OW 5743   1.174   4.074   6.296
 1615SOL    HW1 5744   1.117   3.993   6.308
 1615SOL    HW2 5745   1.117   4.151   6.266
 1616SOL     OW 5746   1.910   1.266   4.827
 1616SOL    HW1 5747   1.983   1.329   4.801
 1616SOL    HW2 5748   1.843   1.260   4.753
 1617SOL     OW 5749   6.316   6.483   3.105
 1617SOL    HW1 5750   6.302   6.570   3.153
 1617SOL    HW2 5751   6.399   6.439   3.141
 1618SOL     OW 5752   3.059   5.643   3.218
 1618SOL    HW1 5753   3.072   5.695   3.302
 1618SOL    HW2 5754   3.147   5.611   3.184
 1619SOL     OW 5755   1.376   4.280   0.120
 1619SOL    HW1 5756   1.345   4.224   0.044
 1619SOL    HW2 5757   1.449   4.341   0.089
 1620SOL     OW 5758   3.479   5.210   5.641
 1620SOL    HW1 5759   3.563   5.191   5.691
 1620SOL    HW2 5760   3.422   5.128   5.638
 1621SOL     OW 5761   5.119   5.775   0.831
 1621SOL    HW1 5762   5.135   5.851   0.893
 1621SOL    HW2 5763   5.155   5.798   0.740
 1622SOL     OW 5764   6.862   5.103   4.396
 1622SOL    HW1 5765   6.941   5.101   4.457
 1622SOL    HW2 5766   6.817   5.014   4.396
 1623SOL     OW 5767   0.176   2.279   3.893
 1623SOL    HW1 5768   0.130   2.246   3.810
 1623SOL    HW2 5769   0.132   2.239   3.974
 1624SOL     OW 5770   4.305   2.100   0.829
 1624SOL    HW1 5771   4.241   2.033   0.866
 1624SOL    HW2 5772   4.257   2.159   0.764
 1625SOL     OW 5773   0.793   5.796   1.305
 1625SOL    HW1 5774   0.749   5.724   1.251
 1625SOL    HW2 5775   0.877   5.825   1.259
 1626SOL     OW 5776   2.811   2.329   1.323
 1626SOL    HW1 5777   2.770   2.419   1.337
 1626SOL    HW2 5778   2.866   2.305   1.403
 1627SOL     OW 5779   4.430   1.440   5.452
 1627SOL    HW1 5780   4.388   1.419   5.540
 1627SOL    HW2 5781   4.433   1.540   5.439
 1628SOL     OW 5782   5.378   6.479   0.893
 1628SOL    HW1 5783   5.431   6.406   0.851
 1628SOL    HW2 5784   5.326   6.527   0.822
 1629SOL     OW 5785   2.064   0.664   3.891
 1629SOL    HW1 5786   2.076   0.590   3.824
 1629SOL    HW2 5787   2.154   0.700   3.916
 1630SOL     OW 5788   0.445   3.850   6.721
 1630SOL    HW1 5789   0.419   3.930   6.667
 1630SOL    HW2 5790   0.528   3.869   6.772
 1631SOL     OW 5791   6.870   4.037   0.144
 1631SOL    HW1 5792   6.813   3.979   0.086
 1631SOL    HW2 5793   6.815   4.074   0.219
 1632SOL     OW 5794   6.671   5.383   2.512
 1632SOL    HW1 5795   6.642   5.356   2.604
 1632SOL    HW2 5796   6.598   5.439   2.470
 1633SOL     OW 5797   5.248   3.866   4.316
 1633SOL    HW1 5798   5.212   3.959   4.317
 1633SOL    HW2 5799   5.287   3.845   4.406
 1634SOL     OW 5800   6.420   1.776   4.289
 1634SOL    HW1 5801   6.439   1.835   4.368
 1634SOL    HW2 5802   6.374   1.693   4.319
 1635SOL     OW 5803   3.828   6.621   2.977
 1635SOL    HW1 5804   3.844   6.716   2.949
 1635SOL    HW2 5805   3.770   6.576   2.909
 1636SOL     OW 5806   6.121   6.052   1.434
 1636SOL    HW1 5807   6.167   6.138   1.410
 1636SOL    HW2 5808   6.154   6.019   1.522
 1637SOL     OW 5809   0.870   0.010   1.846
 1637SOL    HW1 5810   0.855   6.934   1.828
 1637SOL    HW2 5811   0.891   0.058   1.761
 1638SOL     OW 5812   6.345   2.887   1.761
 1638SOL    HW1 5813   6.396   2.835   1.830
 1638SOL    HW2 5814   6.248   2.889   1.786
 1639SOL     OW 5815   5.837   2.442   2.579
 1639SOL    HW1 5816   5.841   2.343   2.590
 1639SOL    HW2 5817   5.743   2.474   2.591
 1640SOL     OW 5818   6.821   0.256   6.902
 1640SOL    HW1 5819   6.805   0.160   6.928
 1640SOL    HW2 5820   6.755   0.282   6.831
 1641SOL     OW 5821   6.443   2.334   3.117
 1641SOL    HW1 5822   6.520   2.398   3.122
 1641SOL    HW2 5823   6.395   2.346   3.030
 1642SOL     OW 5824   7.003   2.751   6.122
 1642SOL    HW1 5825   6.917   2.754   6.072
 1642SOL    HW2 5826   0.058   2.736   6.058
 1643SOL     OW 5827   2.282   6.236   3.833
 1643SOL    HW1 5828   2.287   6.165   3.902
 1643SOL    HW2 5829   2.277   6.194   3.742
 1644SOL     OW 5830   6.001   2.631   1.612
 1644SOL    HW1 5831   6.069   2.558   1.614
 1644SOL    HW2 5832   5.916   2.599   1.653
 1645SOL     OW 5833   2.207   0.956   5.927
 1645SOL    HW1 5834   2.113   0.929   5.906
 1645SOL    HW2 5835   2.257   0.877   5.963
 1646SOL     OW 5836   1.232   4.726   0.629
 1646SOL    HW1 5837   1.306   4.789   0.651
 1646SOL    HW2 5838   1.160   4.776   0.581
 1647SOL     OW 5839   5.529   2.370   4.049
 1647SOL    HW1 5840   5.517   2.453   3.995
 1647SOL    HW2 5841   5.603   2.315   4.010
 1648SOL     OW 5842   5.474   6.169   1.012
 1648SOL    HW1 5843   5.472   6.073   1.038
 1648SOL    HW2 5844   5.558   6.211   1.046
 1649SOL     OW 5845   3.578   0.614   3.527
 1649SOL    HW1 5846   3.563   0.521   3.561
 1649SOL    HW2 5847   3.584   0.677   3.605
 1650SOL     OW 5848   2.945   3.789   6.999
 1650SOL    HW1 5849   3.026   3.845   6.980
 1650SOL    HW2 5850   2.956   3.699   6.956
 1651SOL     OW 5851   0.996   2.808   3.366
 1651SOL    HW1 5852   1.035   2.729   3.414
 1651SOL    HW2 5853   1.067   2.854   3.314
 1652SOL     OW 5854   0.317   3.291   1.504
 1652SOL    HW1 5855   0.321   3.272   1.406
 1652SOL    HW2 5856   0.342   3.209   1.556
 1653SOL     OW 5857   0.229   4.455   3.147
 1653SOL    HW1 5858   0.255   4.384   3.081
 1653SOL    HW2 5859   0.138   4.490   3.123
 1654SOL     OW 5860   6.747   3.282   2.333
 1654SOL    HW1 5861   6.764   3.191   2.371
 1654SOL    HW2 5862   6.658   3.315   2.365
 1655SOL     OW 5863   7.019   6.917   4.790
 1655SOL    HW1 5864   0.018   6.884   4.697
 1655SOL    HW2 5865   6.924   6.899   4.813
 1656SOL     OW 5866   1.902   4.216   2.937
 1656SOL    HW1 5867   1.940   4.239   2.848
 1656SOL    HW2 5868   1.972   4.174   2.994
 1657SOL     OW 5869   1.337   6.709   5.808
 1657SOL    HW1 5870   1.326   6.721   5.710
 1657SOL    HW2 5871   1.404   6.774   5.843
 1658SOL     OW 5872   6.285   0.003   6.690
 1658SOL    HW1 5873   6.324   6.974   6.768
 1658SOL    HW2 5874   6.355   0.011   6.619
 1659SOL     OW 5875   4.397   6.706   6.435
 1659SOL    HW1 5876   4.465   6.740   6.370
 1659SOL    HW2 5877   4.434   6.708   6.528
 1660SOL     OW 5878   2.783   0.811   2.249
 1660SOL    HW1 5879   2.766   0.903   2.214
 1660SOL    HW2 5880   2.768   0.745   2.176
 1661SOL     OW 5881   4.261   4.624   2.641
 1661SOL    HW1 5882   4.249   4.576   2.554
 1661SOL    HW2 5883   4.175   4.670   2.665
 1662SOL     OW 5884   0.172   1.509   4.655
 1662SOL    HW1 5885   0.195   1.413   4.640
 1662SOL    HW2 5886   0.221   1.542   4.736
 1663SOL     OW 5887   4.574   4.821   0.218
 1663SOL    HW1 5888   4.536   4.733   0.243
 1663SOL    HW2 5889   4.538   4.850   0.130
 1664SOL     OW 5890   1.652   6.992   5.759
 1664SOL    HW1 5891   1.586   0.035   5.716
 1664SOL    HW2 5892   1.644   6.902   5.716
 1665SOL     OW 5893   2.536   4.156   0.062
 1665SOL    HW1 5894   2.441   4.127   0.054
 1665SOL    HW2 5895   2.559   4.171   0.158
 1666SOL     OW 5896   5.817   6.618   6.004
 1666SOL    HW1 5897   5.760   6.614   6.086
 1666SOL    HW2 5898   5.813   6.710   5.964
 1667SOL     OW 5899   0.458   6.320   1.350
 1667SOL    HW1 5900   0.376   6.375   1.363
 1667SOL    HW2 5901   0.532   6.358   1.405
 1668SOL     OW 5902   5.485   4.526   3.099
 1668SOL    HW1 5903   5.442   4.535   3.009
 1668SOL    HW2 5904   5.418   4.551   3.169
 1669SOL     OW 5905   6.258   3.533   5.199
 1669SOL    HW1 5906   6.225   3.538   5.293
 1669SOL    HW2 5907   6.182   3.512   5.138
 1670SOL     OW 5908   2.078   4.753   6.785
 1670SOL    HW1 5909   2.086   4.762   6.686
 1670SOL    HW2 5910   2.109   4.837   6.829
 1671SOL     OW 5911   5.675   2.394   1.105
 1671SOL    HW1 5912   5.750   2.358   1.049
 1671SOL    HW2 5913   5.608   2.439   1.047
 1672SOL     OW 5914   0.467   4.058   0.085
 1672SOL    HW1 5915   0.449   4.088   7.012
 1672SOL    HW2 5916   0.493   3.961   0.085
 1673SOL     OW 5917   1.717   0.880   4.630
 1673SOL    HW1 5918   1.806   0.925   4.626
 1673SOL    HW2 5919   1.655   0.932   4.688
 1674SOL     OW 5920   4.822   2.275   2.673
 1674SOL    HW1 5921   4.802   2.207   2.603
 1674SOL    HW2 5922   4.913   2.259   2.711
 1675SOL     OW 5923   5.429   0.769   1.186
 1675SOL    HW1 5924   5.444   0.775   1.285
 1675SOL    HW2 5925   5.364   0.840   1.158
 1676SOL     OW 5926   1.181   2.189   2.392
 1676SOL    HW1 5927   1.112   2.172   2.322
 1676SOL    HW2 5928   1.154   2.145   2.478
 1677SOL     OW 5929   4.049   3.257   3.111
 1677SOL    HW1 5930   4.090   3.273   3.201
 1677SOL    HW2 5931   4.016   3.343   3.074
 1678SOL     OW 5932   0.829   6.978   1.121
 1678SOL    HW1 5933   0.894   0.021   1.163
 1678SOL    HW2 5934   0.851   6.968   1.023
 1679SOL     OW 5935   0.619   2.057   6.222
 1679SOL    HW1 5936   0.651   2.018   6.308
 1679SOL    HW2 5937   0.698   2.080   6.164
 1680SOL     OW 5938   5.090   2.588   4.250
 1680SOL    HW1 5939   5.070   2.592   4.152
 1680SOL    HW2 5940   5.004   2.582   4.301
 1681SOL     OW 5941   2.342   6.038   4.510
 1681SOL    HW1 5942   2.414   6.087   4.559
 1681SOL    HW2 5943   2.263   6.026   4.570
 1682SOL     OW 5944   3.201   0.078   4.460
 1682SOL    HW1 5945   3.133   0.016   4.420
 1682SOL    HW2 5946   3.290   0.032   4.464
 1683SOL     OW 5947   6.145   4.883   2.868
 1683SOL    HW1 5948   6.166   4.922   2.958
 1683SOL    HW2 5949   6.046   4.888   2.852
 1684SOL     OW 5950   2.503   4.602   1.891
 1684SOL    HW1 5951   2.483   4.578   1.796
 1684SOL    HW2 5952   2.596   4.573   1.914
 1685SOL     OW 5953   0.074   1.379   4.930
 1685SOL    HW1 5954   0.120   1.318   4.866
 1685SOL    HW2 5955   6.999   1.392   4.901
 1686SOL     OW 5956   4.823   6.081   2.627
 1686SOL    HW1 5957   4.851   6.050   2.718
 1686SOL    HW2 5958   4.822   6.003   2.564
 1687SOL     OW 5959   5.551   4.268   2.271
 1687SOL    HW1 5960   5.481   4.326   2.312
 1687SOL    HW2 5961   5.541   4.175   2.304
 1688SOL     OW 5962   1.117   1.045   2.551
 1688SOL    HW1 5963   1.045   1.108   2.523
 1688SOL    HW2 5964   1.207   1.088   2.536
 1689SOL     OW 5965   4.341   0.922   1.150
 1689SOL    HW1 5966   4.352   0.863   1.230
 1689SOL    HW2 5967   4.423   0.917   1.093
 1690SOL     OW 5968   0.481   4.234   3.630
 1690SOL    HW1 5969   0.442   4.214   3.719
 1690SOL    HW2 5970   0.568   4.187   3.620
 1691SOL     OW 5971   4.715   2.766   5.416
 1691SOL    HW1 5972   4.654   2.837   5.451
 1691SOL    HW2 5973   4.740   2.704   5.490
 1692SOL     OW 5974   5.250   4.998   1.448
 1692SOL    HW1 5975   5.307   4.945   1.386
 1692SOL    HW2 5976   5.306   5.066   1.495
 1693SOL     OW 5977   5.395   6.798   4.763
 1693SOL    HW1 5978   5.475   6.812   4.705
 1693SOL    HW2 5979   5.407   6.846   4.849
 1694SOL     OW 5980   4.987   1.357   5.777
 1694SOL    HW1 5981   4.919   1.374   5.706
 1694SOL    HW2 5982   5.078   1.348   5.736
 1695SOL     OW 5983   4.489   0.780   6.786
 1695SOL    HW1 5984   4.393   0.798   6.807
 1695SOL    HW2 5985   4.509   0.809   6.692
 1696SOL     OW 5986   5.127   6.384   0.272
 1696SOL    HW1 5987   5.146   6.330   0.354
 1696SOL    HW2 5988   5.213   6.414   0.231
 1697SOL     OW 5989   5.285   2.317   2.216
 1697SOL    HW1 5990   5.342   2.306   2.297
 1697SOL    HW2 5991   5.198   2.270   2.229
 1698SOL     OW 5992   4.266   0.775   1.459
 1698SOL    HW1 5993   4.176   0.813   1.437
 1698SOL    HW2 5994   4.257   0.679   1.483
 1699SOL     OW 5995   2.510   6.561   0.313
 1699SOL    HW1 5996   2.602   6.523   0.315
 1699SOL    HW2 5997   2.447   6.495   0.272
 1700SOL     OW 5998   6.363   2.297   2.831
 1700SOL    HW1 5999   6.292   2.314   2.763
 1700SOL    HW2 6000   6.452   2.291   2.786
 1701SOL     OW 6001   0.085   5.725   4.854
 1701SOL    HW1 6002   0.123   5.812   4.886
 1701SOL    HW2 6003   0.009   5.698   4.912
 1702SOL     OW 6004   1.909   2.395   6.077
 1702SOL    HW1 6005   1.890   2.462   6.005
 1702SOL    HW2 6006   2.008   2.381   6.084
 1703SOL     OW 6007   2.626   1.962   1.217
 1703SOL    HW1 6008   2.693   1.893   1.189
 1703SOL    HW2 6009   2.637   1.981   1.315
 1704SOL     OW 6010   2.959   2.281   0.704
 1704SOL    HW1 6011   3.023   2.357   0.707
 1704SOL    HW2 6012   2.964   2.236   0.615
 1705SOL     OW 6013   4.135   2.167   0.356
 1705SOL    HW1 6014   4.083   2.199   0.435
 1705SOL    HW2 6015   4.223   2.213   0.353
 1706SOL     OW 6016   5.074   2.209   0.005
 1706SOL    HW1 6017   5.155   2.268   7.018
 1706SOL    HW2 6018   5.102   2.115   0.023
 1707SOL     OW 6019   4.567   2.169   2.923
 1707SOL    HW1 6020   4.546   2.266   2.936
 1707SOL    HW2 6021   4.495   2.113   2.966
 1708SOL     OW 6022   3.323   4.873   2.005
 1708SOL    HW1 6023   3.243   4.845   1.951
 1708SOL    HW2 6024   3.402   4.817   1.977
 1709SOL     OW 6025   4.814   4.907   1.097
 1709SOL    HW1 6026   4.846   4.855   1.176
 1709SOL    HW2 6027   4.798   4.845   1.020
 1710SOL     OW 6028   5.017   5.080   3.083
 1710SOL    HW1 6029   5.057   5.035   3.003
 1710SOL    HW2 6030   5.046   5.175   3.086
 1711SOL     OW 6031   4.256   4.389   6.549
 1711SOL    HW1 6032   4.288   4.448   6.475
 1711SOL    HW2 6033   4.240   4.443   6.631
 1712SOL     OW 6034   0.589   1.312   2.524
 1712SOL    HW1 6035   0.639   1.241   2.476
 1712SOL    HW2 6036   0.513   1.343   2.467
 1713SOL     OW 6037   4.101   0.443   3.235
 1713SOL    HW1 6038   4.156   0.360   3.247
 1713SOL    HW2 6039   4.054   0.440   3.146
 1714SOL     OW 6040   3.753   3.647   0.246
 1714SOL    HW1 6041   3.732   3.582   0.319
 1714SOL    HW2 6042   3.829   3.706   0.274
 1715SOL     OW 6043   2.142   6.770   2.191
 1715SOL    HW1 6044   2.060   6.822   2.214
 1715SOL    HW2 6045   2.220   6.832   2.183
 1716SOL     OW 6046   5.091   1.493   3.852
 1716SOL    HW1 6047   5.091   1.394   3.835
 1716SOL    HW2 6048   5.044   1.539   3.776
 1717SOL     OW 6049   3.327   6.610   5.310
 1717SOL    HW1 6050   3.410   6.559   5.287
 1717SOL    HW2 6051   3.267   6.552   5.366
 1718SOL     OW 6052   1.486   2.795   1.091
 1718SOL    HW1 6053   1.583   2.771   1.097
 1718SOL    HW2 6054   1.431   2.724   1.135
 1719SOL     OW 6055   1.571   5.651   2.641
 1719SOL    HW1 6056   1.481   5.685   2.615
 1719SOL    HW2 6057   1.571   5.623   2.737
 1720SOL     OW 6058   0.846   3.107   5.853
 1720SOL    HW1 6059   0.752   3.097   5.887
 1720SOL    HW2 6060   0.856   3.196   5.810
 1721SOL     OW 6061   1.219   1.815   0.605
 1721SOL    HW1 6062   1.286   1.889   0.594
 1721SOL    HW2 6063   1.135   1.852   0.643
 1722SOL     OW 6064   2.295   2.749   3.546
 1722SOL    HW1 6065   2.305   2.779   3.640
 1722SOL    HW2 6066   2.357   2.674   3.527
 1723SOL     OW 6067   5.507   3.533   0.678
 1723SOL    HW1 6068   5.428   3.570   0.727
 1723SOL    HW2 6069   5.582   3.598   0.682
 1724SOL     OW 6070   5.963   2.222   1.377
 1724SOL    HW1 6071   5.916   2.155   1.434
 1724SOL    HW2 6072   5.902   2.300   1.360
 1725SOL     OW 6073   1.170   5.991   6.730
 1725SOL    HW1 6074   1.211   6.026   6.646
 1725SOL    HW2 6075   1.174   6.061   6.801
 1726SOL     OW 6076   5.240   4.078   3.257
 1726SOL    HW1 6077   5.165   4.076   3.191
 1726SOL    HW2 6078   5.223   4.011   3.329
 1727SOL     OW 6079   2.893   3.675   3.521
 1727SOL    HW1 6080   2.888   3.775   3.514
 1727SOL    HW2 6081   2.901   3.635   3.429
 1728SOL     OW 6082   5.017   2.211   4.098
 1728SOL    HW1 6083   5.116   2.214   4.088
 1728SOL    HW2 6084   4.992   2.236   4.191
 1729SOL     OW 6085   1.499   2.827   2.810
 1729SOL    HW1 6086   1.522   2.790   2.720
 1729SOL    HW2 6087   1.449   2.913   2.799
 1730SOL     OW 6088   2.357   4.879   4.859
 1730SOL    HW1 6089   2.433   4.901   4.921
 1730SOL    HW2 6090   2.288   4.826   4.908
 1731SOL     OW 6091   6.152   4.875   3.771
 1731SOL    HW1 6092   6.132   4.973   3.774
 1731SOL    HW2 6093   6.080   4.825   3.820
 1732SOL     OW 6094   2.564   3.581   5.574
 1732SOL    HW1 6095   2.658   3.588   5.541
 1732SOL    HW2 6096   2.504   3.554   5.498
 1733SOL     OW 6097   2.254   3.778   6.288
 1733SOL    HW1 6098   2.176   3.799   6.229
 1733SOL    HW2 6099   2.273   3.857   6.347
 1734SOL     OW 6100   6.823   3.146   1.297
 1734SOL    HW1 6101   6.913   3.138   1.340
 1734SOL    HW2 6102   6.834   3.153   1.198
 1735SOL     OW 6103   4.103   4.495   6.203
 1735SOL    HW1 6104   4.106   4.550   6.120
 1735SOL    HW2 6105   4.076   4.401   6.180
 1736SOL     OW 6106   5.200   3.343   0.696
 1736SOL    HW1 6107   5.182   3.258   0.646
 1736SOL    HW2 6108   5.116   3.397   0.703
 1737SOL     OW 6109   4.464   1.709   5.409
 1737SOL    HW1 6110   4.403   1.762   5.468
 1737SOL    HW2 6111   4.469   1.753   5.319
 1738SOL     OW 6112   1.514   3.116   3.814
 1738SOL    HW1 6113   1.607   3.132   3.848
 1738SOL    HW2 6114   1.517   3.056   3.735
 1739SOL     OW 6115   5.645   0.634   3.764
 1739SOL    HW1 6116   5.704   0.582   3.825
 1739SOL    HW2 6117   5.575   0.681   3.818
 1740SOL     OW 6118   6.318   3.088   4.830
 1740SOL    HW1 6119   6.346   3.184   4.819
 1740SOL    HW2 6120   6.395   3.034   4.862
 1741SOL     OW 6121   0.381   1.866   4.803
 1741SOL    HW1 6122   0.431   1.795   4.852
 1741SOL    HW2 6123   0.417   1.956   4.828
 1742SOL     OW 6124   6.275   5.880   5.866
 1742SOL    HW1 6125   6.265   5.973   5.830
 1742SOL    HW2 6126   6.243   5.815   5.797
 1743SOL     OW 6127   1.565   1.320   2.339
 1743SOL    HW1 6128   1.568   1.244   2.274
 1743SOL    HW2 6129   1.506   1.393   2.304
 1744SOL     OW 6130   3.573   2.118   4.715
 1744SOL    HW1 6131   3.641   2.070   4.659
 1744SOL    HW2 6132   3.597   2.215   4.721
 1745SOL     OW 6133   6.054   6.728   1.141
 1745SOL    HW1 6134   5.987   6.745   1.068
 1745SOL    HW2 6135   6.132   6.789   1.131
 1746SOL     OW 6136   2.245   4.315   3.733
 1746SOL    HW1 6137   2.212   4.235   3.782
 1746SOL    HW2 6138   2.203   4.397   3.772
 1747SOL     OW 6139   4.511   0.105   2.569
 1747SOL    HW1 6140   4.538   0.008   2.575
 1747SOL    HW2 6141   4.433   0.114   2.507
 1748SOL     OW 6142   6.814   3.064   5.144
 1748SOL    HW1 6143   6.900   3.111   5.129
 1748SOL    HW2 6144   6.832   2.968   5.166
 1749SOL     OW 6145   0.748   4.745   1.128
 1749SOL    HW1 6146   0.740   4.701   1.218
 1749SOL    HW2 6147   0.728   4.843   1.137
 1750SOL     OW 6148   3.844   6.875   5.880
 1750SOL    HW1 6149   3.908   6.951   5.870
 1750SOL    HW2 6150   3.753   6.904   5.851
 1751SOL     OW 6151   6.001   3.127   5.177
 1751SOL    HW1 6152   6.046   3.086   5.098
 1751SOL    HW2 6153   5.922   3.181   5.147
 1752SOL     OW 6154   0.071   0.365   2.302
 1752SOL    HW1 6155   0.166   0.390   2.284
 1752SOL    HW2 6156   0.054   0.363   2.400
 1753SOL     OW 6157   6.086   1.356   1.981
 1753SOL    HW1 6158   6.149   1.312   1.918
 1753SOL    HW2 6159   6.036   1.286   2.033
 1754SOL     OW 6160   3.160   5.442   3.844
 1754SOL    HW1 6161   3.250   5.400   3.844
 1754SOL    HW2 6162   3.113   5.421   3.929
 1755SOL     OW 6163   6.174   6.837   4.628
 1755SOL    HW1 6164   6.136   6.752   4.591
 1755SOL    HW2 6165   6.260   6.817   4.675
 1756SOL     OW 6166   4.922   6.873   6.752
 1756SOL    HW1 6167   4.912   6.775   6.737
 1756SOL    HW2 6168   5.010   6.891   6.796
 1757SOL     OW 6169   2.076   5.404   5.325
 1757SOL    HW1 6170   2.082   5.305   5.312
 1757SOL    HW2 6171   2.091   5.450   5.238
 1758SOL     OW 6172   2.070   6.292   4.656
 1758SOL    HW1 6173   2.130   6.326   4.728
 1758SOL    HW2 6174   2.083   6.194   4.645
 1759SOL     OW 6175   1.709   6.726   0.133
 1759SOL    HW1 6176   1.689   6.652   0.197
 1759SOL    HW2 6177   1.791   6.702   0.081
 1760SOL     OW 6178   6.880   1.044   4.907
 1760SOL    HW1 6179   6.950   0.992   4.860
 1760SOL    HW2 6180   6.911   1.067   5.000
 1761SOL     OW 6181   5.773   1.734   2.621
 1761SOL    HW1 6182   5.822   1.652   2.591
 1761SOL    HW2 6183   5.689   1.745   2.568
 1762SOL     OW 6184   0.575   1.299   5.614
 1762SOL    HW1 6185   0.603   1.203   5.607
 1762SOL    HW2 6186   0.476   1.306   5.604
 1763SOL     OW 6187   0.482   3.819   3.911
 1763SOL    HW1 6188   0.420   3.789   3.838
 1763SOL    HW2 6189   0.451   3.907   3.947
 1764SOL     OW 6190   1.249   5.503   3.101
 1764SOL    HW1 6191   1.234   5.475   3.007
 1764SOL    HW2 6192   1.160   5.512   3.147
 1765SOL     OW 6193   5.570   3.493   2.196
 1765SOL    HW1 6194   5.581   3.511   2.098
 1765SOL    HW2 6195   5.636   3.423   2.224
 1766SOL     OW 6196   4.335   4.598   3.779
 1766SOL    HW1 6197   4.240   4.595   3.811
 1766SOL    HW2 6198   4.391   4.643   3.849
 1767SOL     OW 6199   0.232   4.628   2.546
 1767SOL    HW1 6200   0.281   4.567   2.483
 1767SOL    HW2 6201   0.295   4.657   2.618
 1768SOL     OW 6202   5.172   6.179   2.374
 1768SOL    HW1 6203   5.139   6.271   2.355
 1768SOL    HW2 6204   5.094   6.116   2.382
 1769SOL     OW 6205   6.292   0.474   0.663
 1769SOL    HW1 6206   6.368   0.536   0.644
 1769SOL    HW2 6207   6.226   0.478   0.588
 1770SOL     OW 6208   1.893   5.026   0.493
 1770SOL    HW1 6209   1.794   5.025   0.485
 1770SOL    HW2 6210   1.923   5.110   0.539
 1771SOL     OW 6211   1.734   3.117   6.164
 1771SOL    HW1 6212   1.793   3.189   6.128
 1771SOL    HW2 6213   1.701   3.059   6.088
 1772SOL     OW 6214   2.024   4.304   2.708
 1772SOL    HW1 6215   2.117   4.270   2.693
 1772SOL    HW2 6216   1.975   4.306   2.620
 1773SOL     OW 6217   1.669   6.486   6.141
 1773SOL    HW1 6218   1.648   6.506   6.236
 1773SOL    HW2 6219   1.708   6.568   6.098
 1774SOL     OW 6220   5.136   5.411   0.567
 1774SOL    HW1 6221   5.233   5.385   0.569
 1774SOL    HW2 6222   5.112   5.446   0.477
 1775SOL     OW 6223   1.852   5.516   6.607
 1775SOL    HW1 6224   1.778   5.582   6.597
 1775SOL    HW2 6225   1.815   5.429   6.640
 1776SOL     OW 6226   4.269   2.379   5.565
 1776SOL    HW1 6227   4.254   2.348   5.658
 1776SOL    HW2 6228   4.278   2.479   5.564
 1777SOL     OW 6229   4.912   6.577   6.751
 1777SOL    HW1 6230   4.968   6.541   6.677
 1777SOL    HW2 6231   4.937   6.532   6.837
 1778SOL     OW 6232   5.961   6.985   4.082
 1778SOL    HW1 6233   6.011   6.963   3.997
 1778SOL    HW2 6234   5.948   0.064   4.088
 1779SOL     OW 6235   5.478   6.849   4.288
 1779SOL    HW1 6236   5.575   6.861   4.307
 1779SOL    HW2 6237   5.425   6.873   4.370
 1780SOL     OW 6238   1.898   5.324   5.012
 1780SOL    HW1 6239   1.996   5.307   5.025
 1780SOL    HW2 6240   1.855   5.242   4.973
 1781SOL     OW 6241   4.250   0.763   4.706
 1781SOL    HW1 6242   4.198   0.840   4.669
 1781SOL    HW2 6243   4.347   0.776   4.688
 1782SOL     OW 6244   6.726   1.412   2.361
 1782SOL    HW1 6245   6.780   1.330   2.379
 1782SOL    HW2 6246   6.719   1.467   2.445
 1783SOL     OW 6247   1.872   3.878   6.242
 1783SOL    HW1 6248   1.803   3.834   6.184
 1783SOL    HW2 6249   1.884   3.826   6.326
 1784SOL     OW 6250   2.789   6.579   1.463
 1784SOL    HW1 6251   2.709   6.520   1.457
 1784SOL    HW2 6252   2.768   6.667   1.421
 1785SOL     OW 6253   1.854   6.630   4.708
 1785SOL    HW1 6254   1.839   6.536   4.677
 1785SOL    HW2 6255   1.868   6.631   4.807
 1786SOL     OW 6256   0.999   6.662   0.939
 1786SOL    HW1 6257   0.936   6.602   0.890
 1786SOL    HW2 6258   0.970   6.670   1.034
 1787SOL     OW 6259   2.835   3.270   6.622
 1787SOL    HW1 6260   2.925   3.230   6.640
 1787SOL    HW2 6261   2.779   3.205   6.571
 1788SOL     OW 6262   4.604   3.898   0.856
 1788SOL    HW1 6263   4.659   3.871   0.935
 1788SOL    HW2 6264   4.630   3.844   0.777
 1789SOL     OW 6265   6.008   3.800   1.733
 1789SOL    HW1 6266   5.954   3.779   1.815
 1789SOL    HW2 6267   6.094   3.749   1.737
 1790SOL     OW 6268   2.111   1.865   4.464
 1790SOL    HW1 6269   2.092   1.869   4.562
 1790SOL    HW2 6270   2.099   1.956   4.424
 1791SOL     OW 6271   5.085   0.070   3.635
 1791SOL    HW1 6272   5.178   0.061   3.599
 1791SOL    HW2 6273   5.030   7.012   3.606
 1792SOL     OW 6274   0.436   2.069   5.716
 1792SOL    HW1 6275   0.379   2.117   5.783
 1792SOL    HW2 6276   0.416   1.971   5.719
 1793SOL     OW 6277   0.333   0.617   5.942
 1793SOL    HW1 6278   0.272   0.675   5.888
 1793SOL    HW2 6279   0.280   0.569   6.013
 1794SOL     OW 6280   1.476   0.233   6.009
 1794SOL    HW1 6281   1.409   0.198   6.075
 1794SOL    HW2 6282   1.568   0.229   6.049
 1795SOL     OW 6283   5.633   4.829   1.148
 1795SOL    HW1 6284   5.662   4.841   1.243
 1795SOL    HW2 6285   5.712   4.809   1.091
 1796SOL     OW 6286   0.605   0.602   6.690
 1796SOL    HW1 6287   0.554   0.657   6.624
 1796SOL    HW2 6288   0.691   0.572   6.649
 1797SOL     OW 6289   1.663   5.104   5.711
 1797SOL    HW1 6290   1.636   5.198   5.694
 1797SOL    HW2 6291   1.760   5.093   5.688
 1798SOL     OW 6292   2.594   3.817   5.348
 1798SOL    HW1 6293   2.547   3.878   5.284
 1798SOL    HW2 6294   2.528   3.758   5.394
 1799SOL     OW 6295   3.475   1.168   0.884
 1799SOL    HW1 6296   3.504   1.093   0.824
 1799SOL    HW2 6297   3.511   1.255   0.849
 1800SOL     OW 6298   5.556   3.360   5.166
 1800SOL    HW1 6299   5.509   3.281   5.126
 1800SOL    HW2 6300   5.498   3.441   5.160
 1801SOL     OW 6301   0.947   0.684   3.109
 1801SOL    HW1 6302   0.856   0.667   3.071
 1801SOL    HW2 6303   0.941   0.689   3.209
 1802SOL     OW 6304   6.874   5.169   3.886
 1802SOL    HW1 6305   6.943   5.224   3.839
 1802SOL    HW2 6306   6.783   5.206   3.867
 1803SOL     OW 6307   0.370   0.424   3.473
 1803SOL    HW1 6308   0.407   0.513   3.446
 1803SOL    HW2 6309   0.442   0.354   3.464
 1804SOL     OW 6310   2.392   3.159   6.071
 1804SOL    HW1 6311   2.451   3.236   6.048
 1804SOL    HW2 6312   2.436   3.073   6.044
 1805SOL     OW 6313   6.764   5.502   0.766
 1805SOL    HW1 6314   6.711   5.430   0.812
 1805SOL    HW2 6315   6.711   5.587   0.766
 1806SOL     OW 6316   0.163   1.671   1.401
 1806SOL    HW1 6317   0.085   1.639   1.455
 1806SOL    HW2 6318   0.245   1.675   1.459
 1807SOL     OW 6319   0.357   2.484   2.828
 1807SOL    HW1 6320   0.290   2.543   2.782
 1807SOL    HW2 6321   0.333   2.476   2.925
 1808SOL     OW 6322   5.145   1.859   6.324
 1808SOL    HW1 6323   5.186   1.941   6.363
 1808SOL    HW2 6324   5.168   1.853   6.227
 1809SOL     OW 6325   4.884   0.251   4.974
 1809SOL    HW1 6326   4.883   0.152   4.965
 1809SOL    HW2 6327   4.795   0.282   5.007
 1810SOL     OW 6328   1.010   0.649   4.339
 1810SOL    HW1 6329   1.110   0.658   4.335
 1810SOL    HW2 6330   0.971   0.674   4.250
 1811SOL     OW 6331   3.847   5.684   1.375
 1811SOL    HW1 6332   3.909   5.686   1.454
 1811SOL    HW2 6333   3.900   5.697   1.292
 1812SOL     OW 6334   4.745   6.454   6.407
 1812SOL    HW1 6335   4.698   6.505   6.479
 1812SOL    HW2 6336   4.752   6.511   6.325
 1813SOL     OW 6337   4.685   4.773   2.101
 1813SOL    HW1 6338   4.774   4.758   2.143
 1813SOL    HW2 6339   4.648   4.861   2.132
 1814SOL     OW 6340   6.641   6.054   0.283
 1814SOL    HW1 6341   6.740   6.038   0.277
 1814SOL    HW2 6342   6.594   5.965   0.285
 1815SOL     OW 6343   5.169   6.614   1.173
 1815SOL    HW1 6344   5.250   6.558   1.158
 1815SOL    HW2 6345   5.107   6.605   1.096
 1816SOL     OW 6346   3.896   4.762   5.203
 1816SOL    HW1 6347   3.893   4.801   5.111
 1816SOL    HW2 6348   3.991   4.751   5.232
 1817SOL     OW 6349   0.037   2.163   4.127
 1817SOL    HW1 6350   0.000   2.077   4.092
 1817SOL    HW2 6351   6.983   2.218   4.166
 1818SOL     OW 6352   2.633   0.919   0.547
 1818SOL    HW1 6353   2.570   0.956   0.479
 1818SOL    HW2 6354   2.654   0.824   0.526
 1819SOL     OW 6355   1.628   4.766   2.560
 1819SOL    HW1 6356   1.631   4.667   2.546
 1819SOL    HW2 6357   1.718   4.798   2.589
 1820SOL     OW 6358   3.197   0.283   5.087
 1820SOL    HW1 6359   3.198   0.198   5.140
 1820SOL    HW2 6360   3.105   0.321   5.087
 1821SOL     OW 6361   3.715   2.069   2.587
 1821SOL    HW1 6362   3.621   2.091   2.615
 1821SOL    HW2 6363   3.725   2.087   2.489
 1822SOL     OW 6364   6.906   3.151   3.082
 1822SOL    HW1 6365   6.883   3.058   3.109
 1822SOL    HW2 6366   6.967   3.191   3.151
 1823SOL     OW 6367   4.359   6.325   1.620
 1823SOL    HW1 6368   4.350   6.281   1.709
 1823SOL    HW2 6369   4.359   6.424   1.631
 1824SOL     OW 6370   4.365   3.107   1.777
 1824SOL    HW1 6371   4.438   3.082   1.842
 1824SOL    HW2 6372   4.368   3.206   1.761
 1825SOL     OW 6373   1.153   1.981   5.037
 1825SOL    HW1 6374   1.240   2.015   4.999
 1825SOL    HW2 6375   1.078   2.013   4.980
 1826SOL     OW 6376   3.518   2.077   1.778
 1826SOL    HW1 6377   3.588   2.058   1.709
 1826SOL    HW2 6378   3.550   2.148   1.840
 1827SOL     OW 6379   5.530   6.029   0.766
 1827SOL    HW1 6380   5.568   5.972   0.693
 1827SOL    HW2 6381   5.479   5.971   0.830
 1828SOL     OW 6382   1.495   3.675   5.359
 1828SOL    HW1 6383   1.422   3.724   5.310
 1828SOL    HW2 6384   1.543   3.615   5.295
 1829SOL     OW 6385   3.770   0.683   2.556
 1829SOL    HW1 6386   3.734   0.676   2.463
 1829SOL    HW2 6387   3.792   0.591   2.590
 1830SOL     OW 6388   5.295   0.606   5.436
 1830SOL    HW1 6389   5.354   0.638   5.510
 1830SOL    HW2 6390   5.209   0.658   5.438
 1831SOL     OW 6391   3.325   4.691   0.593
 1831SOL    HW1 6392   3.307   4.773   0.538
 1831SOL    HW2 6393   3.260   4.619   0.567
 1832SOL     OW 6394   2.494   2.788   0.234
 1832SOL    HW1 6395   2.502   2.812   0.331
 1832SOL    HW2 6396   2.424   2.846   0.191
 1833SOL     OW 6397   5.905   1.488   6.772
 1833SOL    HW1 6398   5.871   1.577   6.801
 1833SOL    HW2 6399   5.975   1.456   6.836
 1834SOL     OW 6400   0.592   2.734   5.623
 1834SOL    HW1 6401   0.684   2.748   5.657
 1834SOL    HW2 6402   0.594   2.724   5.524
 1835SOL     OW 6403   6.936   6.600   1.630
 1835SOL    HW1 6404   6.875   6.521   1.638
 1835SOL    HW2 6405   6.999   6.602   1.707
 1836SOL     OW 6406   5.354   2.753   2.668
 1836SOL    HW1 6407   5.414   2.771   2.745
 1836SOL    HW2 6408   5.385   2.805   2.588
 1837SOL     OW 6409   2.551   1.992   6.154
 1837SOL    HW1 6410   2.492   2.025   6.227
 1837SOL    HW2 6411   2.496   1.969   6.073
 1838SOL     OW 6412   5.425   1.136   0.896
 1838SOL    HW1 6413   5.394   1.121   0.990
 1838SOL    HW2 6414   5.510   1.188   0.897
 1839SOL     OW 6415   0.386   0.722   0.370
 1839SOL    HW1 6416   0.460   0.763   0.317
 1839SOL    HW2 6417   0.423   0.651   0.430
 1840SOL     OW 6418   4.270   6.337   3.487
 1840SOL    HW1 6419   4.333   6.354   3.563
 1840SOL    HW2 6420   4.197   6.276   3.517
 1841SOL     OW 6421   1.628   1.043   2.148
 1841SOL    HW1 6422   1.728   1.043   2.152
 1841SOL    HW2 6423   1.593   0.968   2.205
 1842SOL     OW 6424   0.997   5.769   0.899
 1842SOL    HW1 6425   0.933   5.720   0.839
 1842SOL    HW2 6426   0.953   5.852   0.932
 1843SOL     OW 6427   2.464   0.946   5.756
 1843SOL    HW1 6428   2.524   1.015   5.795
 1843SOL    HW2 6429   2.380   0.940   5.810
 1844SOL     OW 6430   6.019   2.710   6.124
 1844SOL    HW1 6431   6.107   2.689   6.080
 1844SOL    HW2 6432   6.015   2.665   6.213
 1845SOL     OW 6433   1.231   2.356   2.831
 1845SOL    HW1 6434   1.165   2.393   2.765
 1845SOL    HW2 6435   1.185   2.291   2.891
 1846SOL     OW 6436   3.465   1.016   1.407
 1846SOL    HW1 6437   3.371   1.025   1.374
 1846SOL    HW2 6438   3.490   1.099   1.458
 1847SOL     OW 6439   1.568   5.956   5.523
 1847SOL    HW1 6440   1.534   5.899   5.448
 1847SOL    HW2 6441   1.509   6.036   5.534
 1848SOL     OW 6442   3.572   6.812   3.298
 1848SOL    HW1 6443   3.476   6.805   3.324
 1848SOL    HW2 6444   3.580   6.808   3.199
 1849SOL     OW 6445   4.844   2.892   2.675
 1849SOL    HW1 6446   4.936   2.877   2.711
 1849SOL    HW2 6447   4.832   2.989   2.656
 1850SOL     OW 6448   4.305   1.744   0.962
 1850SOL    HW1 6449   4.292   1.731   0.864
 1850SOL    HW2 6450   4.402   1.733   0.985
 1851SOL     OW 6451   0.153   4.547   4.938
 1851SOL    HW1 6452   0.121   4.485   5.009
 1851SOL    HW2 6453   0.251   4.563   4.950
 1852SOL     OW 6454   0.604   0.254   2.849
 1852SOL    HW1 6455   0.701   0.230   2.856
 1852SOL    HW2 6456   0.586   0.293   2.759
 1853SOL     OW 6457   0.474   2.495   5.703
 1853SOL    HW1 6458   0.537   2.423   5.733
 1853SOL    HW2 6459   0.526   2.579   5.685
 1854SOL     OW 6460   0.968   6.934   3.577
 1854SOL    HW1 6461   1.021   6.945   3.493
 1854SOL    HW2 6462   0.980   6.841   3.613
 1855SOL     OW 6463   5.307   3.155   4.509
 1855SOL    HW1 6464   5.333   3.141   4.414
 1855SOL    HW2 6465   5.340   3.244   4.540
 1856SOL     OW 6466   3.875   2.901   0.378
 1856SOL    HW1 6467   3.931   2.913   0.460
 1856SOL    HW2 6468   3.779   2.905   0.402
 1857SOL     OW 6469   3.806   1.276   6.874
 1857SOL    HW1 6470   3.775   1.313   6.961
 1857SOL    HW2 6471   3.906   1.270   6.874
 1858SOL     OW 6472   4.779   2.418   4.205
 1858SOL    HW1 6473   4.726   2.338   4.233
 1858SOL    HW2 6474   4.769   2.490   4.273
 1859SOL     OW 6475   6.629   1.699   4.127
 1859SOL    HW1 6476   6.715   1.723   4.172
 1859SOL    HW2 6477   6.553   1.740   4.177
 1860SOL     OW 6478   2.058   1.227   6.165
 1860SOL    HW1 6479   2.134   1.231   6.100
 1860SOL    HW2 6480   1.980   1.276   6.128
 1861SOL     OW 6481   6.835   6.611   3.999
 1861SOL    HW1 6482   6.880   6.694   3.965
 1861SOL    HW2 6483   6.842   6.608   4.099
 1862SOL     OW 6484   3.013   5.704   5.520
 1862SOL    HW1 6485   3.011   5.748   5.431
 1862SOL    HW2 6486   2.941   5.634   5.525
 1863SOL     OW 6487   0.054   2.646   0.706
 1863SOL    HW1 6488   0.138   2.603   0.673
 1863SOL    HW2 6489   0.050   2.639   0.805
 1864SOL     OW 6490   3.834   5.569   2.401
 1864SOL    HW1 6491   3.779   5.494   2.365
 1864SOL    HW2 6492   3.921   5.573   2.351
 1865SOL     OW 6493   6.160   2.151   5.406
 1865SOL    HW1 6494   6.165   2.115   5.499
 1865SOL    HW2 6495   6.141   2.249   5.410
 1866SOL     OW 6496   0.354   5.024   3.145
 1866SOL    HW1 6497   0.315   4.946   3.194
 1866SOL    HW2 6498   0.449   5.005   3.122
 1867SOL     OW 6499   0.737   2.537   1.302
 1867SOL    HW1 6500   0.706   2.632   1.299
 1867SOL    HW2 6501   0.661   2.476   1.283
 1868SOL     OW 6502   5.644   3.310   6.897
 1868SOL    HW1 6503   5.691   3.369   6.832
 1868SOL    HW2 6504   5.616   3.365   6.976
 1869SOL     OW 6505   4.734   1.236   4.403
 1869SOL    HW1 6506   4.667   1.289   4.352
 1869SOL    HW2 6507   4.798   1.192   4.340
 1870SOL     OW 6508   6.234   6.350   5.363
 1870SOL    HW1 6509   6.268   6.256   5.359
 1870SOL    HW2 6510   6.291   6.408   5.305
 1871SOL     OW 6511   0.186   6.438   0.008
 1871SOL    HW1 6512   0.088   6.423   7.017
 1871SOL    HW2 6513   0.207   6.451   0.105
 1872SOL     OW 6514   3.127   2.937   1.853
 1872SOL    HW1 6515   3.182   2.890   1.922
 1872SOL    HW2 6516   3.187   2.990   1.793
 1873SOL     OW 6517   6.404   1.145   0.571
 1873SOL    HW1 6518   6.385   1.114   0.664
 1873SOL    HW2 6519   6.358   1.232   0.555
 1874SOL     OW 6520   0.505   5.514   0.669
 1874SOL    HW1 6521   0.426   5.504   0.730
 1874SOL    HW2 6522   0.587   5.532   0.723
 1875SOL     OW 6523   6.914   5.477   1.564
 1875SOL    HW1 6524   6.951   5.393   1.524
 1875SOL    HW2 6525   6.872   5.532   1.493
 1876SOL     OW 6526   0.261   5.548   1.135
 1876SOL    HW1 6527   0.271   5.594   1.223
 1876SOL    HW2 6528   0.184   5.485   1.139
 1877SOL     OW 6529   1.134   1.519   2.286
 1877SOL    HW1 6530   1.074   1.446   2.253
 1877SOL    HW2 6531   1.106   1.545   2.378
 1878SOL     OW 6532   5.466   4.206   4.015
 1878SOL    HW1 6533   5.496   4.119   3.975
 1878SOL    HW2 6534   5.493   4.209   4.111
 1879SOL     OW 6535   4.483   6.028   4.479
 1879SOL    HW1 6536   4.419   6.093   4.518
 1879SOL    HW2 6537   4.541   6.074   4.412
 1880SOL     OW 6538   0.064   1.741   4.295
 1880SOL    HW1 6539   0.102   1.828   4.327
 1880SOL    HW2 6540   7.002   1.719   4.348
 1881SOL     OW 6541   2.008   1.867   3.995
 1881SOL    HW1 6542   1.943   1.805   4.040
 1881SOL    HW2 6543   1.983   1.875   3.898
 1882SOL     OW 6544   1.402   5.395   0.354
 1882SOL    HW1 6545   1.331   5.330   0.327
 1882SOL    HW2 6546   1.376   5.441   0.438
 1883SOL     OW 6547   1.456   2.462   2.711
 1883SOL    HW1 6548   1.528   2.442   2.778
 1883SOL    HW2 6549   1.368   2.466   2.758
 1884SOL     OW 6550   4.262   0.901   0.156
 1884SOL    HW1 6551   4.194   0.864   0.093
 1884SOL    HW2 6552   4.312   0.975   0.112
 1885SOL     OW 6553   6.989   2.064   0.640
 1885SOL    HW1 6554   0.042   2.021   0.588
 1885SOL    HW2 6555   6.974   2.014   0.725
 1886SOL     OW 6556   3.203   2.323   6.112
 1886SOL    HW1 6557   3.130   2.286   6.170
 1886SOL    HW2 6558   3.227   2.255   6.042
 1887SOL     OW 6559   0.795   6.677   5.030
 1887SOL    HW1 6560   0.764   6.587   5.001
 1887SOL    HW2 6561   0.738   6.748   4.988
 1888SOL     OW 6562   1.816   1.947   5.388
 1888SOL    HW1 6563   1.720   1.954   5.358
 1888SOL    HW2 6564   1.840   1.851   5.401
 1889SOL     OW 6565   3.337   2.971   6.982
 1889SOL    HW1 6566   3.239   2.956   6.997
 1889SOL    HW2 6567   3.350   3.028   6.901
 1890SOL     OW 6568   6.587   5.859   6.810
 1890SOL    HW1 6569   6.586   5.775   6.755
 1890SOL    HW2 6570   6.640   5.844   6.893
 1891SOL     OW 6571   5.439   3.822   6.537
 1891SOL    HW1 6572   5.387   3.880   6.474
 1891SOL    HW2 6573   5.536   3.823   6.511
 1892SOL     OW 6574   4.026   0.072   1.785
 1892SOL    HW1 6575   4.065   7.019   1.730
 1892SOL    HW2 6576   3.935   0.045   1.817
 1893SOL     OW 6577   3.251   1.709   5.019
 1893SOL    HW1 6578   3.258   1.771   4.941
 1893SOL    HW2 6579   3.175   1.646   5.004
 1894SOL     OW 6580   4.252   3.500   0.864
 1894SOL    HW1 6581   4.279   3.596   0.863
 1894SOL    HW2 6582   4.201   3.479   0.781
 1895SOL     OW 6583   4.392   0.197   3.443
 1895SOL    HW1 6584   4.476   0.216   3.495
 1895SOL    HW2 6585   4.349   0.284   3.416
 1896SOL     OW 6586   6.029   2.048   5.833
 1896SOL    HW1 6587   5.931   2.032   5.821
 1896SOL    HW2 6588   6.043   2.112   5.909
 1897SOL     OW 6589   5.553   5.327   3.562
 1897SOL    HW1 6590   5.569   5.229   3.574
 1897SOL    HW2 6591   5.474   5.341   3.503
 1898SOL     OW 6592   5.831   6.728   6.770
 1898SOL    HW1 6593   5.793   6.723   6.678
 1898SOL    HW2 6594   5.910   6.667   6.776
 1899SOL     OW 6595   1.442   2.189   2.912
 1899SOL    HW1 6596   1.524   2.245   2.915
 1899SOL    HW2 6597   1.363   2.246   2.893
 1900SOL     OW 6598   2.516   6.087   1.137
 1900SOL    HW1 6599   2.567   6.164   1.099
 1900SOL    HW2 6600   2.561   6.057   1.222
 1901SOL     OW 6601   1.455   1.618   6.283
 1901SOL    HW1 6602   1.376   1.670   6.252
 1901SOL    HW2 6603   1.539   1.661   6.249
 1902SOL     OW 6604   2.066   2.582   5.437
 1902SOL    HW1 6605   2.101   2.632   5.516
 1902SOL    HW2 6606   2.136   2.578   5.366
 1903SOL     OW 6607   6.579   4.519   3.915
 1903SOL    HW1 6608   6.592   4.479   3.824
 1903SOL    HW2 6609   6.492   4.568   3.917
 1904SOL     OW 6610   0.799   0.641   4.538
 1904SOL    HW1 6611   0.874   0.619   4.476
 1904SOL    HW2 6612   0.824   0.720   4.595
 1905SOL     OW 6613   6.364   3.290   4.320
 1905SOL    HW1 6614   6.281   3.318   4.369
 1905SOL    HW2 6615   6.441   3.291   4.383
 1906SOL     OW 6616   2.751   6.322   6.977
 1906SOL    HW1 6617   2.710   6.275   0.036
 1906SOL    HW2 6618   2.741   6.421   6.988
 1907SOL     OW 6619   3.839   6.191   3.340
 1907SOL    HW1 6620   3.793   6.116   3.294
 1907SOL    HW2 6621   3.778   6.270   3.346
 1908SOL     OW 6622   5.058   0.387   6.730
 1908SOL    HW1 6623   5.004   0.307   6.757
 1908SOL    HW2 6624   4.997   0.463   6.710
 1909SOL     OW 6625   4.088   5.109   4.719
 1909SOL    HW1 6626   4.066   5.206   4.721
 1909SOL    HW2 6627   4.144   5.086   4.799
 1910SOL     OW 6628   5.059   2.379   4.854
 1910SOL    HW1 6629   5.082   2.396   4.950
 1910SOL    HW2 6630   4.960   2.387   4.842
 1911SOL     OW 6631   0.022   3.850   6.078
 1911SOL    HW1 6632   0.029   3.837   5.979
 1911SOL    HW2 6633   6.992   3.774   6.118
 1912SOL     OW 6634   2.799   6.227   3.178
 1912SOL    HW1 6635   2.844   6.303   3.133
 1912SOL    HW2 6636   2.808   6.237   3.278
 1913SOL     OW 6637   1.676   4.574   5.111
 1913SOL    HW1 6638   1.644   4.541   5.200
 1913SOL    HW2 6639   1.626   4.529   5.038
 1914SOL     OW 6640   4.463   1.159   5.508
 1914SOL    HW1 6641   4.559   1.131   5.507
 1914SOL    HW2 6642   4.457   1.257   5.490
 1915SOL     OW 6643   3.558   0.355   5.166
 1915SOL    HW1 6644   3.609   0.382   5.085
 1915SOL    HW2 6645   3.499   0.431   5.195
 1916SOL     OW 6646   3.896   6.467   1.453
 1916SOL    HW1 6647   3.941   6.494   1.368
 1916SOL    HW2 6648   3.890   6.545   1.515
 1917SOL     OW 6649   3.537   2.959   4.121
 1917SOL    HW1 6650   3.536   2.948   4.022
 1917SOL    HW2 6651   3.598   2.891   4.161
 1918SOL     OW 6652   5.782   6.303   4.414
 1918SOL    HW1 6653   5.819   6.211   4.402
 1918SOL    HW2 6654   5.701   6.299   4.473
 1919SOL     OW 6655   6.608   6.625   2.048
 1919SOL    HW1 6656   6.598   6.592   1.954
 1919SOL    HW2 6657   6.705   6.625   2.073
 1920SOL     OW 6658   7.007   6.110   4.101
 1920SOL    HW1 6659   7.020   6.133   4.005
 1920SOL    HW2 6660   6.912   6.130   4.128
 1921SOL     OW 6661   0.812   0.186   6.154
 1921SOL    HW1 6662   0.721   0.151   6.173
 1921SOL    HW2 6663   0.879   0.139   6.212
 1922SOL     OW 6664   3.708   4.354   1.217
 1922SOL    HW1 6665   3.630   4.399   1.263
 1922SOL    HW2 6666   3.761   4.304   1.285
 1923SOL     OW 6667   2.000   2.603   0.855
 1923SOL    HW1 6668   2.029   2.660   0.932
 1923SOL    HW2 6669   2.077   2.548   0.824
 1924SOL     OW 6670   1.049   3.772   2.042
 1924SOL    HW1 6671   1.070   3.675   2.025
 1924SOL    HW2 6672   1.049   3.789   2.140
 1925SOL     OW 6673   3.295   4.148   0.417
 1925SOL    HW1 6674   3.383   4.166   0.373
 1925SOL    HW2 6675   3.256   4.064   0.380
 1926SOL     OW 6676   0.832   0.502   3.679
 1926SOL    HW1 6677   0.799   0.583   3.728
 1926SOL    HW2 6678   0.921   0.474   3.715
 1927SOL     OW 6679   3.869   3.875   0.405
 1927SOL    HW1 6680   3.859   3.853   0.502
 1927SOL    HW2 6681   3.954   3.835   0.371
 1928SOL     OW 6682   7.008   4.737   5.404
 1928SOL    HW1 6683   0.087   4.723   5.405
 1928SOL    HW2 6684   6.985   4.812   5.466
 1929SOL     OW 6685   1.378   6.763   3.315
 1929SOL    HW1 6686   1.310   6.819   3.267
 1929SOL    HW2 6687   1.343   6.738   3.405
 1930SOL     OW 6688   6.591   4.786   0.085
 1930SOL    HW1 6689   6.509   4.759   0.034
 1930SOL    HW2 6690   6.670   4.788   0.024
 1931SOL     OW 6691   0.862   2.321   5.074
 1931SOL    HW1 6692   0.784   2.368   5.031
 1931SOL    HW2 6693   0.945   2.340   5.021
 1932SOL     OW 6694   5.429   3.113   2.397
 1932SOL    HW1 6695   5.395   3.173   2.470
 1932SOL    HW2 6696   5.371   3.124   2.316
 1933SOL     OW 6697   2.728   4.526   1.463
 1933SOL    HW1 6698   2.632   4.511   1.441
 1933SOL    HW2 6699   2.736   4.570   1.552
 1934SOL     OW 6700   0.191   6.140   4.303
 1934SOL    HW1 6701   0.127   6.124   4.228
 1934SOL    HW2 6702   0.232   6.054   4.331
 1935SOL     OW 6703   2.753   0.864   4.204
 1935SOL    HW1 6704   2.754   0.935   4.275
 1935SOL    HW2 6705   2.704   0.899   4.124
 1936SOL     OW 6706   6.619   5.715   5.605
 1936SOL    HW1 6707   6.531   5.690   5.647
 1936SOL    HW2 6708   6.694   5.683   5.663
 1937SOL     OW 6709   4.200   6.864   2.361
 1937SOL    HW1 6710   4.109   6.855   2.402
 1937SOL    HW2 6711   4.195   6.839   2.265
 1938SOL     OW 6712   5.457   0.369   3.948
 1938SOL    HW1 6713   5.406   0.337   3.868
 1938SOL    HW2 6714   5.398   0.427   4.004
 1939SOL     OW 6715   2.211   0.488   3.219
 1939SOL    HW1 6716   2.192   0.412   3.282
 1939SOL    HW2 6717   2.275   0.457   3.149
 1940SOL     OW 6718   6.846   5.450   0.271
 1940SOL    HW1 6719   6.800   5.362   0.265
 1940SOL    HW2 6720   6.935   5.444   0.225
 1941SOL     OW 6721   4.825   4.939   3.205
 1941SOL    HW1 6722   4.852   4.843   3.197
 1941SOL    HW2 6723   4.892   4.996   3.158
 1942SOL     OW 6724   6.385   5.484   2.927
 1942SOL    HW1 6725   6.388   5.557   2.994
 1942SOL    HW2 6726   6.468   5.429   2.933
 1943SOL     OW 6727   3.327   5.373   2.775
 1943SOL    HW1 6728   3.401   5.400   2.714
 1943SOL    HW2 6729   3.291   5.284   2.745
 1944SOL     OW 6730   6.841   1.347   2.063
 1944SOL    HW1 6731   6.877   1.352   2.156
 1944SOL    HW2 6732   6.833   1.252   2.035
 1945SOL     OW 6733   2.818   4.879   3.966
 1945SOL    HW1 6734   2.842   4.892   4.062
 1945SOL    HW2 6735   2.740   4.817   3.959
 1946SOL     OW 6736   1.954   0.391   0.019
 1946SOL    HW1 6737   1.960   0.488   0.045
 1946SOL    HW2 6738   1.899   0.342   0.086
 1947SOL     OW 6739   5.502   6.613   4.112
 1947SOL    HW1 6740   5.409   6.597   4.146
 1947SOL    HW2 6741   5.556   6.655   4.185
 1948SOL     OW 6742   6.137   3.752   5.665
 1948SOL    HW1 6743   6.100   3.709   5.582
 1948SOL    HW2 6744   6.108   3.847   5.669
 1949SOL     OW 6745   5.411   4.195   6.747
 1949SOL    HW1 6746   5.464   4.143   6.680
 1949SOL    HW2 6747   5.321   4.152   6.759
 1950SOL     OW 6748   3.253   3.614   0.842
 1950SOL    HW1 6749   3.163   3.572   0.848
 1950SOL    HW2 6750   3.322   3.552   0.881
 1951SOL     OW 6751   7.009   2.120   6.885
 1951SOL    HW1 6752   7.017   2.102   6.787
 1951SOL    HW2 6753   6.949   2.052   6.927
 1952SOL     OW 6754   3.867   1.918   5.495
 1952SOL    HW1 6755   3.852   1.953   5.403
 1952SOL    HW2 6756   3.818   1.976   5.560
 1953SOL     OW 6757   0.281   3.398   5.535
 1953SOL    HW1 6758   0.360   3.444   5.576
 1953SOL    HW2 6759   0.312   3.319   5.481
 1954SOL     OW 6760   2.695   1.899   3.469
 1954SOL    HW1 6761   2.723   1.993   3.448
 1954SOL    HW2 6762   2.771   1.851   3.512
 1955SOL     OW 6763   6.620   5.806   2.446
 1955SOL    HW1 6764   6.572   5.718   2.446
 1955SOL    HW2 6765   6.553   5.880   2.456
 1956SOL     OW 6766   5.977   6.378   2.174
 1956SOL    HW1 6767   5.926   6.315   2.233
 1956SOL    HW2 6768   5.955   6.472   2.200
 1957SOL     OW 6769   0.632   6.871   4.961
 1957SOL    HW1 6770   0.587   6.906   4.879
 1957SOL    HW2 6771   0.636   6.943   5.031
 1958SOL     OW 6772   5.069   3.410   5.755
 1958SOL    HW1 6773   5.066   3.311   5.769
 1958SOL    HW2 6774   5.091   3.429   5.659
 1959SOL     OW 6775   1.485   2.340   6.547
 1959SOL    HW1 6776   1.391   2.309   6.543
 1959SOL    HW2 6777   1.487   2.440   6.546
 1960SOL     OW 6778   5.146   6.320   1.538
 1960SOL    HW1 6779   5.190   6.264   1.469
 1960SOL    HW2 6780   5.172   6.288   1.629
 1961SOL     OW 6781   6.005   5.153   3.734
 1961SOL    HW1 6782   5.953   5.208   3.669
 1961SOL    HW2 6783   5.958   5.154   3.822
 1962SOL     OW 6784   6.961   6.448   3.117
 1962SOL    HW1 6785   6.931   6.417   3.207
 1962SOL    HW2 6786   6.882   6.455   3.056
 1963SOL     OW 6787   1.846   0.378   2.583
 1963SOL    HW1 6788   1.888   0.428   2.659
 1963SOL    HW2 6789   1.906   0.304   2.555
 1964SOL     OW 6790   5.707   3.723   2.620
 1964SOL    HW1 6791   5.702   3.624   2.630
 1964SOL    HW2 6792   5.657   3.751   2.537
 1965SOL     OW 6793   2.126   5.107   3.698
 1965SOL    HW1 6794   2.117   5.082   3.795
 1965SOL    HW2 6795   2.200   5.053   3.657
 1966SOL     OW 6796   6.190   5.652   5.336
 1966SOL    HW1 6797   6.214   5.594   5.414
 1966SOL    HW2 6798   6.117   5.608   5.283
 1967SOL     OW 6799   4.519   2.184   4.941
 1967SOL    HW1 6800   4.451   2.161   4.873
 1967SOL    HW2 6801   4.515   2.283   4.960
 1968SOL     OW 6802   3.135   5.096   6.070
 1968SOL    HW1 6803   3.175   5.051   6.149
 1968SOL    HW2 6804   3.161   5.193   6.070
 1969SOL     OW 6805   6.457   2.580   1.375
 1969SOL    HW1 6806   6.451   2.661   1.317
 1969SOL    HW2 6807   6.437   2.498   1.321
 1970SOL     OW 6808   1.919   0.011   3.537
 1970SOL    HW1 6809   2.018   0.007   3.543
 1970SOL    HW2 6810   1.880   6.952   3.584
 1971SOL     OW 6811   0.508   6.412   6.446
 1971SOL    HW1 6812   0.410   6.393   6.443
 1971SOL    HW2 6813   0.551   6.377   6.363
 1972SOL     OW 6814   0.903   4.788   3.830
 1972SOL    HW1 6815   0.836   4.731   3.783
 1972SOL    HW2 6816   0.871   4.883   3.833
 1973SOL     OW 6817   2.682   3.132   0.473
 1973SOL    HW1 6818   2.588   3.101   0.485
 1973SOL    HW2 6819   2.683   3.220   0.426
 1974SOL     OW 6820   5.848   0.812   4.297
 1974SOL    HW1 6821   5.844   0.909   4.320
 1974SOL    HW2 6822   5.791   0.794   4.217
 1975SOL     OW 6823   3.344   0.650   3.361
 1975SOL    HW1 6824   3.398   0.677   3.441
 1975SOL    HW2 6825   3.374   0.560   3.329
 1976SOL     OW 6826   7.006   4.977   0.269
 1976SOL    HW1 6827   0.072   5.027   0.258
 1976SOL    HW2 6828   0.000   4.881   0.243
 1977SOL     OW 6829   1.951   2.740   5.113
 1977SOL    HW1 6830   1.904   2.743   5.202
 1977SOL    HW2 6831   2.035   2.794   5.118
 1978SOL     OW 6832   6.815   1.368   4.726
 1978SOL    HW1 6833   6.737   1.378   4.666
 1978SOL    HW2 6834   6.808   1.434   4.801
 1979SOL     OW 6835   5.835   5.269   3.560
 1979SOL    HW1 6836   5.820   5.200   3.490
 1979SOL    HW2 6837   5.769   5.343   3.550
 1980SOL     OW 6838   4.019   0.202   1.262
 1980SOL    HW1 6839   4.019   0.209   1.361
 1980SOL    HW2 6840   3.963   0.276   1.223
 1981SOL     OW 6841   4.582   2.974   1.611
 1981SOL    HW1 6842   4.595   2.972   1.710
 1981SOL    HW2 6843   4.502   3.030   1.590
 1982SOL     OW 6844   5.510   6.511   4.614
 1982SOL    HW1 6845   5.467   6.564   4.540
 1982SOL    HW2 6846   5.549   6.574   4.681
 1983SOL     OW 6847   0.685   3.476   2.988
 1983SOL    HW1 6848   0.688   3.572   3.019
 1983SOL    HW2 6849   0.741   3.420   3.049
 1984SOL     OW 6850   4.138   0.266   6.082
 1984SOL    HW1 6851   4.103   0.237   6.171
 1984SOL    HW2 6852   4.231   0.299   6.092
 1985SOL     OW 6853   1.186   0.441   1.510
 1985SOL    HW1 6854   1.095   0.452   1.550
 1985SOL    HW2 6855   1.227   0.531   1.495
 1986SOL     OW 6856   1.276   1.732   6.085
 1986SOL    HW1 6857   1.258   1.699   5.992
 1986SOL    HW2 6858   1.240   1.825   6.095
 1987SOL     OW 6859   3.026   3.114   6.758
 1987SOL    HW1 6860   3.118   3.074   6.756
 1987SOL    HW2 6861   3.016   3.171   6.839
 1988SOL     OW 6862   4.460   3.185   0.896
 1988SOL    HW1 6863   4.501   3.109   0.846
 1988SOL    HW2 6864   4.419   3.151   0.981
 1989SOL     OW 6865   2.722   0.248   4.181
 1989SOL    HW1 6866   2.628   0.256   4.147
 1989SOL    HW2 6867   2.729   0.296   4.269
 1990SOL     OW 6868   2.627   0.715   2.036
 1990SOL    HW1 6869   2.543   0.662   2.046
 1990SOL    HW2 6870   2.643   0.732   1.939
 1991SOL     OW 6871   3.734   5.341   4.787
 1991SOL    HW1 6872   3.820   5.368   4.743
 1991SOL    HW2 6873   3.663   5.407   4.765
 1992SOL     OW 6874   2.218   6.596   5.261
 1992SOL    HW1 6875   2.270   6.681   5.272
 1992SOL    HW2 6876   2.264   6.537   5.195
 1993SOL     OW 6877   3.723   3.308   5.238
 1993SOL    HW1 6878   3.682   3.398   5.219
 1993SOL    HW2 6879   3.752   3.266   5.153
 1994SOL     OW 6880   6.044   2.431   1.922
 1994SOL    HW1 6881   6.083   2.462   1.835
 1994SOL    HW2 6882   6.050   2.331   1.927
 1995SOL     OW 6883   5.392   2.358   1.695
 1995SOL    HW1 6884   5.474   2.316   1.656
 1995SOL    HW2 6885   5.333   2.286   1.734
 1996SOL     OW 6886   3.121   4.282   6.928
 1996SOL    HW1 6887   3.153   4.367   6.968
 1996SOL    HW2 6888   3.198   4.235   6.884
 1997SOL     OW 6889   5.466   0.754   3.928
 1997SOL    HW1 6890   5.397   0.687   3.953
 1997SOL    HW2 6891   5.421   0.837   3.894
 1998SOL     OW 6892   3.039   4.873   4.970
 1998SOL    HW1 6893   3.088   4.857   5.055
 1998SOL    HW2 6894   2.966   4.806   4.960
 1999SOL     OW 6895   1.898   1.033   2.200
 1999SOL    HW1 6896   1.975   1.061   2.257
 1999SOL    HW2 6897   1.922   0.950   2.150
 2000SOL     OW 6898   3.931   1.988   5.215
 2000SOL    HW1 6899   3.877   2.040   5.148
 2000SOL    HW2 6900   4.028   2.001   5.195
 2001SOL     OW 6901   2.941   2.729   0.686
 2001SOL    HW1 6902   2.949   2.820   0.645
 2001SOL    HW2 6903   2.949   2.736   0.785
 2002SOL     OW 6904   1.988   4.966   5.091
 2002SOL    HW1 6905   1.941   5.027   5.028
 2002SOL    HW2 6906   1.925   4.937   5.163
 2003SOL     OW 6907   6.545   6.047   3.996
 2003SOL    HW1 6908   6.561   5.949   3.985
 2003SOL    HW2 6909   6.512   6.085   3.910
 2004SOL     OW 6910   3.085   1.068   5.651
 2004SOL    HW1 6911   3.138   1.093   5.569
 2004SOL    HW2 6912   3.147   1.061   5.729
 2005SOL     OW 6913   2.734   6.064   5.822
 2005SOL    HW1 6914   2.767   6.029   5.910
 2005SOL    HW2 6915   2.790   6.026   5.748
 2006SOL     OW 6916   4.076   4.797   3.893
 2006SOL    HW1 6917   4.155   4.815   3.953
 2006SOL    HW2 6918   3.997   4.849   3.926
 2007SOL     OW 6919   5.694   5.552   0.527
 2007SOL    HW1 6920   5.735   5.553   0.435
 2007SOL    HW2 6921   5.733   5.478   0.580
 2008SOL     OW 6922   0.601   5.982   4.159
 2008SOL    HW1 6923   0.559   6.062   4.202
 2008SOL    HW2 6924   0.630   5.917   4.230
 2009SOL     OW 6925   0.490   0.271   1.752
 2009SOL    HW1 6926   0.586   0.298   1.745
 2009SOL    HW2 6927   0.472   0.238   1.845
 2010SOL     OW 6928   1.418   0.150   0.736
 2010SOL    HW1 6929   1.488   0.194   0.680
 2010SOL    HW2 6930   1.381   0.217   0.800
 2011SOL     OW 6931   0.203   2.340   5.130
 2011SOL    HW1 6932   0.136   2.286   5.182
 2011SOL    HW2 6933   0.290   2.342   5.179
 2012SOL     OW 6934   1.049   3.772   1.128
 2012SOL    HW1 6935   1.009   3.737   1.213
 2012SOL    HW2 6936   1.121   3.711   1.097
 2013SOL     OW 6937   4.759   1.579   2.230
 2013SOL    HW1 6938   4.751   1.678   2.237
 2013SOL    HW2 6939   4.732   1.550   2.138
 2014SOL     OW 6940   2.529   5.990   3.289
 2014SOL    HW1 6941   2.502   5.915   3.228
 2014SOL    HW2 6942   2.460   6.062   3.286
 2015SOL     OW 6943   3.662   6.963   6.542
 2015SOL    HW1 6944   3.600   6.897   6.585
 2015SOL    HW2 6945   3.709   6.919   6.465
 2016SOL     OW 6946   6.899   5.274   4.167
 2016SOL    HW1 6947   6.931   5.240   4.078
 2016SOL    HW2 6948   6.893   5.197   4.231
 2017SOL     OW 6949   3.075   5.900   2.592
 2017SOL    HW1 6950   3.094   5.994   2.562
 2017SOL    HW2 6951   2.976   5.886   2.598
 2018SOL     OW 6952   0.868   5.582   5.551
 2018SOL    HW1 6953   0.832   5.509   5.493
 2018SOL    HW2 6954   0.801   5.604   5.622
 2019SOL     OW 6955   6.217   1.538   2.167
 2019SOL    HW1 6956   6.185   1.633   2.172
 2019SOL    HW2 6957   6.189   1.498   2.079
 2020SOL     OW 6958   2.736   5.982   3.004
 2020SOL    HW1 6959   2.816   6.026   2.963
 2020SOL    HW2 6960   2.716   6.025   3.092
 2021SOL     OW 6961   1.129   0.281   2.118
 2021SOL    HW1 6962   1.126   0.182   2.113
 2021SOL    HW2 6963   1.080   0.312   2.200
 2022SOL     OW 6964   1.869   3.694   1.672
 2022SOL    HW1 6965   1.912   3.606   1.655
 2022SOL    HW2 6966   1.885   3.722   1.767
 2023SOL     OW 6967   6.718   0.850   5.584
 2023SOL    HW1 6968   6.652   0.827   5.511
 2023SOL    HW2 6969   6.708   0.785   5.659
 2024SOL     OW 6970   6.048   1.027   3.506
 2024SOL    HW1 6971   6.098   0.940   3.498
 2024SOL    HW2 6972   5.983   1.021   3.581
 2025SOL     OW 6973   6.969   1.324   1.534
 2025SOL    HW1 6974   6.933   1.316   1.627
 2025SOL    HW2 6975   6.988   1.232   1.499
 2026SOL     OW 6976   1.955   1.660   5.509
 2026SOL    HW1 6977   2.032   1.713   5.472
 2026SOL    HW2 6978   1.986   1.608   5.589
 2027SOL     OW 6979   0.831   1.350   3.006
 2027SOL    HW1 6980   0.787   1.310   3.087
 2027SOL    HW2 6981   0.822   1.287   2.929
 2028SOL     OW 6982   4.109   2.640   0.146
 2028SOL    HW1 6983   4.116   2.732   0.107
 2028SOL    HW2 6984   4.013   2.612   0.151
 2029SOL     OW 6985   1.268   0.475   0.282
 2029SOL    HW1 6986   1.184   0.459   0.231
 2029SOL    HW2 6987   1.347   0.467   0.221
 2030SOL     OW 6988   1.824   0.977   3.321
 2030SOL    HW1 6989   1.835   1.067   3.363
 2030SOL    HW2 6990   1.858   0.907   3.383
 2031SOL     OW 6991   5.477   6.881   2.264
 2031SOL    HW1 6992   5.549   6.893   2.196
 2031SOL    HW2 6993   5.517   6.885   2.356
 2032SOL     OW 6994   5.189   6.581   1.455
 2032SOL    HW1 6995   5.175   6.484   1.476
 2032SOL    HW2 6996   5.184   6.594   1.356
 2033SOL     OW 6997   5.856   5.286   6.782
 2033SOL    HW1 6998   5.826   5.213   6.721
 2033SOL    HW2 6999   5.886   5.245   6.869
 2034SOL     OW 7000   2.046   6.963   2.641
 2034SOL    HW1 7001   1.992   7.006   2.713
 2034SOL    HW2 7002   2.075   0.012   2.575
 2035SOL     OW 7003   1.143   2.592   2.362
 2035SOL    HW1 7004   1.153   2.537   2.279
 2035SOL    HW2 7005   1.191   2.679   2.350
 2036SOL     OW 7006   1.931   4.465   0.740
 2036SOL    HW1 7007   1.858   4.532   0.728
 2036SOL    HW2 7008   1.940   4.410   0.657
 2037SOL     OW 7009   0.271   1.298   6.135
 2037SOL    HW1 7010   0.311   1.281   6.225
 2037SOL    HW2 7011   0.289   1.393   6.108
 2038SOL     OW 7012   0.912   1.012   4.325
 2038SOL    HW1 7013   0.911   1.109   4.348
 2038SOL    HW2 7014   0.821   0.973   4.341
 2039SOL     OW 7015   0.805   5.705   2.535
 2039SOL    HW1 7016   0.835   5.781   2.593
 2039SOL    HW2 7017   0.741   5.738   2.466
 2040SOL     OW 7018   4.163   3.412   4.670
 2040SOL    HW1 7019   4.095   3.364   4.725
 2040SOL    HW2 7020   4.253   3.404   4.713
 2041SOL     OW 7021   6.274   4.030   5.900
 2041SOL    HW1 7022   6.323   3.977   5.969
 2041SOL    HW2 7023   6.176   4.016   5.911
 2042SOL     OW 7024   4.197   5.119   6.800
 2042SOL    HW1 7025   4.193   5.216   6.775
 2042SOL    HW2 7026   4.269   5.075   6.747
 2043SOL     OW 7027   5.286   4.663   2.158
 2043SOL    HW1 7028   5.271   4.698   2.065
 2043SOL    HW2 7029   5.269   4.737   2.223
 2044SOL     OW 7030   6.501   0.411   2.050
 2044SOL    HW1 7031   6.553   0.489   2.085
 2044SOL    HW2 7032   6.428   0.445   1.989
 2045SOL     OW 7033   1.989   5.146   6.142
 2045SOL    HW1 7034   1.954   5.239   6.127
 2045SOL    HW2 7035   2.023   5.140   6.236
 2046SOL     OW 7036   6.253   0.101   4.950
 2046SOL    HW1 7037   6.248   0.161   4.870
 2046SOL    HW2 7038   6.165   0.055   4.962
 2047SOL     OW 7039   5.655   2.654   0.245
 2047SOL    HW1 7040   5.635   2.716   0.322
 2047SOL    HW2 7041   5.753   2.633   0.244
 2048SOL     OW 7042   4.643   0.023   5.584
 2048SOL    HW1 7043   4.621   0.099   5.524
 2048SOL    HW2 7044   4.672   0.057   5.673
 2049SOL     OW 7045   4.911   0.213   0.466
 2049SOL    HW1 7046   4.933   0.126   0.421
 2049SOL    HW2 7047   4.850   0.266   0.407
 2050SOL     OW 7048   5.716   2.166   3.959
 2050SOL    HW1 7049   5.713   2.152   3.860
 2050SOL    HW2 7050   5.811   2.163   3.990
 2051SOL     OW 7051   1.684   5.361   0.434
 2051SOL    HW1 7052   1.696   5.313   0.521
 2051SOL    HW2 7053   1.591   5.346   0.400
 2052SOL     OW 7054   1.106   3.264   0.742
 2052SOL    HW1 7055   1.006   3.260   0.733
 2052SOL    HW2 7056   1.149   3.240   0.656
 2053SOL     OW 7057   5.812   0.815   0.445
 2053SOL    HW1 7058   5.816   0.729   0.394
 2053SOL    HW2 7059   5.900   0.862   0.438
 2054SOL     OW 7060   5.926   2.642   1.049
 2054SOL    HW1 7061   5.930   2.673   1.144
 2054SOL    HW2 7062   5.854   2.692   1.001
 2055SOL     OW 7063   5.397   2.896   4.518
 2055SOL    HW1 7064   5.358   2.987   4.506
 2055SOL    HW2 7065   5.371   2.838   4.441
 2056SOL     OW 7066   1.534   0.745   3.412
 2056SOL    HW1 7067   1.577   0.794   3.488
 2056SOL    HW2 7068   1.545   0.799   3.328
 2057SOL     OW 7069   0.111   2.971   4.033
 2057SOL    HW1 7070   0.200   2.963   3.988
 2057SOL    HW2 7071   0.122   3.015   4.122
 2058SOL     OW 7072   6.685   2.384   2.319
 2058SOL    HW1 7073   6.658   2.372   2.414
 2058SOL    HW2 7074   6.784   2.400   2.314
 2059SOL     OW 7075   1.490   1.471   6.783
 2059SOL    HW1 7076   1.526   1.557   6.820
 2059SOL    HW2 7077   1.533   1.453   6.694
 2060SOL     OW 7078   1.091   5.434   2.593
 2060SOL    HW1 7079   1.102   5.504   2.523
 2060SOL    HW2 7080   0.996   5.432   2.624
 2061SOL     OW 7081   6.400   1.976   1.838
 2061SOL    HW1 7082   6.462   1.905   1.872
 2061SOL    HW2 7083   6.375   2.037   1.913
 2062SOL     OW 7084   4.883   0.660   3.372
 2062SOL    HW1 7085   4.795   0.704   3.352
 2062SOL    HW2 7086   4.937   0.654   3.288
 2063SOL     OW 7087   2.255   2.690   6.518
 2063SOL    HW1 7088   2.329   2.626   6.498
 2063SOL    HW2 7089   2.228   2.737   6.434
 2064SOL     OW 7090   0.899   2.672   0.185
 2064SOL    HW1 7091   0.879   2.662   0.087
 2064SOL    HW2 7092   0.816   2.656   0.238
 2065SOL     OW 7093   6.285   3.789   1.474
 2065SOL    HW1 7094   6.317   3.815   1.565
 2065SOL    HW2 7095   6.217   3.717   1.482
 2066SOL     OW 7096   1.184   6.743   4.430
 2066SOL    HW1 7097   1.221   6.755   4.522
 2066SOL    HW2 7098   1.258   6.716   4.368
 2067SOL     OW 7099   6.362   0.379   1.396
 2067SOL    HW1 7100   6.384   0.449   1.465
 2067SOL    HW2 7101   6.426   0.303   1.404
 2068SOL     OW 7102   1.779   1.665   5.109
 2068SOL    HW1 7103   1.746   1.585   5.059
 2068SOL    HW2 7104   1.735   1.669   5.199
 2069SOL     OW 7105   0.451   2.467   1.862
 2069SOL    HW1 7106   0.529   2.438   1.917
 2069SOL    HW2 7107   0.481   2.492   1.770
 2070SOL     OW 7108   1.114   0.825   2.742
 2070SOL    HW1 7109   1.206   0.794   2.768
 2070SOL    HW2 7110   1.122   0.892   2.668
 2071SOL     OW 7111   1.421   6.626   4.306
 2071SOL    HW1 7112   1.510   6.661   4.275
 2071SOL    HW2 7113   1.434   6.537   4.349
 2072SOL     OW 7114   4.858   5.230   1.498
 2072SOL    HW1 7115   4.909   5.308   1.462
 2072SOL    HW2 7116   4.900   5.145   1.466
 2073SOL     OW 7117   2.600   6.521   6.001
 2073SOL    HW1 7118   2.507   6.550   6.025
 2073SOL    HW2 7119   2.665   6.560   6.066
 2074SOL     OW 7120   5.698   1.402   2.160
 2074SOL    HW1 7121   5.613   1.452   2.175
 2074SOL    HW2 7122   5.723   1.408   2.064
 2075SOL     OW 7123   4.692   3.257   0.205
 2075SOL    HW1 7124   4.733   3.192   0.270
 2075SOL    HW2 7125   4.632   3.207   0.142
 2076SOL     OW 7126   4.929   0.271   1.114
 2076SOL    HW1 7127   4.910   0.362   1.076
 2076SOL    HW2 7128   5.005   0.229   1.063
 2077SOL     OW 7129   5.681   1.068   2.665
 2077SOL    HW1 7130   5.691   1.156   2.620
 2077SOL    HW2 7131   5.725   0.997   2.611
 2078SOL     OW 7132   3.173   5.195   5.793
 2078SOL    HW1 7133   3.184   5.095   5.794
 2078SOL    HW2 7134   3.262   5.238   5.810
 2079SOL     OW 7135   5.660   1.013   3.991
 2079SOL    HW1 7136   5.719   1.084   4.030
 2079SOL    HW2 7137   5.623   1.046   3.904
 2080SOL     OW 7138   2.648   2.391   4.277
 2080SOL    HW1 7139   2.650   2.437   4.366
 2080SOL    HW2 7140   2.608   2.453   4.209
 2081SOL     OW 7141   0.368   6.810   5.481
 2081SOL    HW1 7142   0.284   6.760   5.502
 2081SOL    HW2 7143   0.350   6.877   5.409
 2082SOL     OW 7144   5.410   0.678   1.447
 2082SOL    HW1 7145   5.389   0.741   1.523
 2082SOL    HW2 7146   5.325   0.639   1.413
 2083SOL     OW 7147   3.667   5.122   5.847
 2083SOL    HW1 7148   3.744   5.062   5.824
 2083SOL    HW2 7149   3.622   5.088   5.930
 2084SOL     OW 7150   0.115   2.686   3.398
 2084SOL    HW1 7151   0.120   2.757   3.469
 2084SOL    HW2 7152   0.163   2.604   3.430
 2085SOL     OW 7153   5.665   0.286   5.854
 2085SOL    HW1 7154   5.577   0.268   5.897
 2085SOL    HW2 7155   5.653   0.296   5.756
 2086SOL     OW 7156   3.104   4.950   0.696
 2086SOL    HW1 7157   3.112   4.855   0.726
 2086SOL    HW2 7158   3.168   5.007   0.747
 2087SOL     OW 7159   5.334   0.048   3.551
 2087SOL    HW1 7160   5.377   0.088   3.470
 2087SOL    HW2 7161   5.402   7.013   3.601
 2088SOL     OW 7162   3.440   0.087   0.652
 2088SOL    HW1 7163   3.379   0.158   0.616
 2088SOL    HW2 7164   3.445   0.012   0.587
 2089SOL     OW 7165   4.213   0.370   6.793
 2089SOL    HW1 7166   4.282   0.321   6.740
 2089SOL    HW2 7167   4.149   0.416   6.730
 2090SOL     OW 7168   3.717   3.486   4.733
 2090SOL    HW1 7169   3.656   3.527   4.665
 2090SOL    HW2 7170   3.742   3.394   4.704
 2091SOL     OW 7171   2.179   4.508   1.341
 2091SOL    HW1 7172   2.113   4.552   1.279
 2091SOL    HW2 7173   2.197   4.415   1.310
 2092SOL     OW 7174   6.470   6.692   0.951
 2092SOL    HW1 7175   6.427   6.607   0.919
 2092SOL    HW2 7176   6.561   6.701   0.910
 2093SOL     OW 7177   1.031   2.978   1.423
 2093SOL    HW1 7178   1.077   2.966   1.511
 2093SOL    HW2 7179   1.048   2.898   1.366
 2094SOL     OW 7180   6.018   0.222   2.190
 2094SOL    HW1 7181   6.110   0.250   2.162
 2094SOL    HW2 7182   6.024   0.142   2.250
 2095SOL     OW 7183   5.728   5.254   5.173
 2095SOL    HW1 7184   5.814   5.244   5.123
 2095SOL    HW2 7185   5.686   5.341   5.149
 2096SOL     OW 7186   4.896   4.077   2.724
 2096SOL    HW1 7187   4.994   4.093   2.732
 2096SOL    HW2 7188   4.873   4.059   2.628
 2097SOL     OW 7189   0.199   2.521   6.841
 2097SOL    HW1 7190   0.156   2.602   6.880
 2097SOL    HW2 7191   0.294   2.543   6.816
 2098SOL     OW 7192   4.837   0.219   4.199
 2098SOL    HW1 7193   4.746   0.209   4.241
 2098SOL    HW2 7194   4.839   0.301   4.143
 2099SOL     OW 7195   3.220   1.628   4.476
 2099SOL    HW1 7196   3.249   1.640   4.571
 2099SOL    HW2 7197   3.190   1.534   4.463
 2100SOL     OW 7198   4.553   4.070   6.427
 2100SOL    HW1 7199   4.535   4.127   6.347
 2100SOL    HW2 7200   4.649   4.078   6.453
 2101SOL     OW 7201   0.362   6.998   3.874
 2101SOL    HW1 7202   0.284   0.020   3.826
 2101SOL    HW2 7203   0.364   6.900   3.855
 2102SOL     OW 7204   0.092   4.945   2.608
 2102SOL    HW1 7205   0.003   4.990   2.597
 2102SOL    HW2 7206   0.091   4.888   2.691
 2103SOL     OW 7207   3.492   3.640   6.255
 2103SOL    HW1 7208   3.564   3.704   6.284
 2103SOL    HW2 7209   3.432   3.685   6.189
 2104SOL     OW 7210   1.546   3.569   5.621
 2104SOL    HW1 7211   1.526   3.620   5.537
 2104SOL    HW2 7212   1.642   3.580   5.645
 2105SOL     OW 7213   5.738   5.885   1.739
 2105SOL    HW1 7214   5.739   5.890   1.839
 2105SOL    HW2 7215   5.827   5.854   1.706
 2106SOL     OW 7216   4.640   5.524   6.806
 2106SOL    HW1 7217   4.729   5.516   6.761
 2106SOL    HW2 7218   4.652   5.538   6.904
 2107SOL     OW 7219   4.066   3.974   6.095
 2107SOL    HW1 7220   4.141   3.954   6.032
 2107SOL    HW2 7221   4.080   3.922   6.180
 2108SOL     OW 7222   5.887   5.073   6.149
 2108SOL    HW1 7223   5.865   4.984   6.189
 2108SOL    HW2 7224   5.967   5.112   6.194
 2109SOL     OW 7225   5.889   6.695   2.711
 2109SOL    HW1 7226   5.859   6.704   2.616
 2109SOL    HW2 7227   5.962   6.627   2.717
 2110SOL     OW 7228   2.751   4.365   6.427
 2110SOL    HW1 7229   2.672   4.404   6.379
 2110SOL    HW2 7230   2.735   4.370   6.526
 2111SOL     OW 7231   1.379   2.776   0.288
 2111SOL    HW1 7232   1.467   2.730   0.295
 2111SOL    HW2 7233   1.381   2.862   0.338
 2112SOL     OW 7234   4.778   2.976   1.432
 2112SOL    HW1 7235   4.872   2.962   1.462
 2112SOL    HW2 7236   4.718   2.984   1.512
 2113SOL     OW 7237   0.413   0.429   2.689
 2113SOL    HW1 7238   0.386   0.515   2.647
 2113SOL    HW2 7239   0.358   0.413   2.771
 2114SOL     OW 7240   2.308   3.792   6.965
 2114SOL    HW1 7241   2.209   3.787   6.956
 2114SOL    HW2 7242   2.346   3.699   6.973
 2115SOL     OW 7243   2.249   4.607   2.268
 2115SOL    HW1 7244   2.341   4.590   2.302
 2115SOL    HW2 7245   2.253   4.634   2.172
 2116SOL     OW 7246   0.297   3.933   3.291
 2116SOL    HW1 7247   0.298   4.022   3.245
 2116SOL    HW2 7248   0.202   3.905   3.307
 2117SOL     OW 7249   0.312   4.868   0.952
 2117SOL    HW1 7250   0.306   4.831   0.859
 2117SOL    HW2 7251   0.264   4.807   1.015
 2118SOL     OW 7252   0.136   4.036   2.144
 2118SOL    HW1 7253   0.202   4.062   2.073
 2118SOL    HW2 7254   0.144   3.938   2.163
 2119SOL     OW 7255   2.629   6.075   1.402
 2119SOL    HW1 7256   2.719   6.059   1.442
 2119SOL    HW2 7257   2.576   5.991   1.405
 2120SOL     OW 7258   6.531   4.843   2.316
 2120SOL    HW1 7259   6.432   4.850   2.314
 2120SOL    HW2 7260   6.558   4.755   2.355
 2121SOL     OW 7261   0.156   5.496   4.735
 2121SOL    HW1 7262   0.247   5.484   4.694
 2121SOL    HW2 7263   0.141   5.593   4.756
 2122SOL     OW 7264   4.513   4.433   4.752
 2122SOL    HW1 7265   4.579   4.364   4.782
 2122SOL    HW2 7266   4.441   4.442   4.821
 2123SOL     OW 7267   5.890   4.611   3.223
 2123SOL    HW1 7268   5.844   4.577   3.305
 2123SOL    HW2 7269   5.971   4.664   3.250
 2124SOL     OW 7270   1.863   2.329   0.827
 2124SOL    HW1 7271   1.781   2.273   0.840
 2124SOL    HW2 7272   1.837   2.416   0.786
 2125SOL     OW 7273   3.142   0.083   0.601
 2125SOL    HW1 7274   3.181   0.109   0.512
 2125SOL    HW2 7275   3.101   7.012   0.594
 2126SOL     OW 7276   2.694   0.751   0.080
 2126SOL    HW1 7277   2.617   0.704   0.122
 2126SOL    HW2 7278   2.759   0.683   0.045
 2127SOL     OW 7279   5.592   3.240   4.680
 2127SOL    HW1 7280   5.661   3.292   4.729
 2127SOL    HW2 7281   5.616   3.143   4.681
 2128SOL     OW 7282   0.373   5.007   4.113
 2128SOL    HW1 7283   0.456   4.978   4.066
 2128SOL    HW2 7284   0.315   5.058   4.050
 2129SOL     OW 7285   3.925   1.662   5.631
 2129SOL    HW1 7286   3.848   1.614   5.590
 2129SOL    HW2 7287   3.907   1.761   5.629
 2130SOL     OW 7288   4.309   5.976   2.300
 2130SOL    HW1 7289   4.371   6.051   2.277
 2130SOL    HW2 7290   4.359   5.889   2.295
 2131SOL     OW 7291   6.759   1.457   0.402
 2131SOL    HW1 7292   6.735   1.420   0.312
 2131SOL    HW2 7293   6.675   1.482   0.451
 2132SOL     OW 7294   1.991   3.198   0.575
 2132SOL    HW1 7295   2.012   3.225   0.481
 2132SOL    HW2 7296   2.017   3.271   0.638
 2133SOL     OW 7297   2.688   2.676   6.207
 2133SOL    HW1 7298   2.626   2.648   6.134
 2133SOL    HW2 7299   2.779   2.694   6.169
 2134SOL     OW 7300   1.065   0.221   0.353
 2134SOL    HW1 7301   1.059   0.278   0.270
 2134SOL    HW2 7302   1.154   0.234   0.396
 2135SOL     OW 7303   0.364   3.806   4.200
 2135SOL    HW1 7304   0.409   3.757   4.125
 2135SOL    HW2 7305   0.274   3.766   4.216
 2136SOL     OW 7306   2.131   5.817   1.601
 2136SOL    HW1 7307   2.177   5.788   1.684
 2136SOL    HW2 7308   2.142   5.916   1.590
 2137SOL     OW 7309   2.401   6.031   4.052
 2137SOL    HW1 7310   2.387   5.972   3.973
 2137SOL    HW2 7311   2.370   5.984   4.135
 2138SOL     OW 7312   5.503   2.008   2.593
 2138SOL    HW1 7313   5.450   2.087   2.624
 2138SOL    HW2 7314   5.564   1.977   2.666
 2139SOL     OW 7315   2.633   1.161   5.583
 2139SOL    HW1 7316   2.559   1.116   5.533
 2139SOL    HW2 7317   2.630   1.133   5.679
 2140SOL     OW 7318   2.269   1.577   5.359
 2140SOL    HW1 7319   2.241   1.673   5.352
 2140SOL    HW2 7320   2.356   1.570   5.408
 2141SOL     OW 7321   6.339   4.489   2.670
 2141SOL    HW1 7322   6.347   4.528   2.761
 2141SOL    HW2 7323   6.273   4.543   2.617
 2142SOL     OW 7324   1.975   1.210   3.184
 2142SOL    HW1 7325   1.903   1.272   3.155
 2142SOL    HW2 7326   1.935   1.132   3.232
 2143SOL     OW 7327   1.692   4.619   0.508
 2143SOL    HW1 7328   1.596   4.608   0.484
 2143SOL    HW2 7329   1.700   4.680   0.587
 2144SOL     OW 7330   6.312   6.111   4.141
 2144SOL    HW1 7331   6.253   6.032   4.130
 2144SOL    HW2 7332   6.397   6.098   4.091
 2145SOL     OW 7333   4.347   0.085   3.673
 2145SOL    HW1 7334   4.434   0.037   3.669
 2145SOL    HW2 7335   4.329   0.129   3.585
 2146SOL     OW 7336   1.839   3.333   0.966
 2146SOL    HW1 7337   1.845   3.233   0.969
 2146SOL    HW2 7338   1.748   3.362   0.995
 2147SOL     OW 7339   5.610   1.216   5.059
 2147SOL    HW1 7340   5.621   1.127   5.102
 2147SOL    HW2 7341   5.542   1.210   4.986
 2148SOL     OW 7342   0.470   3.109   6.843
 2148SOL    HW1 7343   0.403   3.149   6.781
 2148SOL    HW2 7344   0.426   3.093   6.932
 2149SOL     OW 7345   0.538   0.233   6.730
 2149SOL    HW1 7346   0.476   0.163   6.692
 2149SOL    HW2 7347   0.511   0.323   6.696
 2150SOL     OW 7348   2.374   3.280   1.328
 2150SOL    HW1 7349   2.403   3.363   1.376
 2150SOL    HW2 7350   2.286   3.298   1.282
 2151SOL     OW 7351   1.067   5.734   0.208
 2151SOL    HW1 7352   1.108   5.796   0.275
 2151SOL    HW2 7353   1.133   5.716   0.134
 2152SOL     OW 7354   4.044   5.913   3.579
 2152SOL    HW1 7355   4.045   6.012   3.562
 2152SOL    HW2 7356   4.106   5.892   3.654
 2153SOL     OW 7357   4.879   1.401   4.025
 2153SOL    HW1 7358   4.961   1.436   3.981
 2153SOL    HW2 7359   4.799   1.422   3.969
 2154SOL     OW 7360   2.877   6.985   3.376
 2154SOL    HW1 7361   2.852   0.003   3.287
 2154SOL    HW2 7362   2.927   6.900   3.363
 2155SOL     OW 7363   4.825   6.930   1.197
 2155SOL    HW1 7364   4.870   6.964   1.114
 2155SOL    HW2 7365   4.891   6.926   1.271
 2156SOL     OW 7366   5.777   1.687   4.105
 2156SOL    HW1 7367   5.766   1.757   4.035
 2156SOL    HW2 7368   5.707   1.617   4.094
 2157SOL     OW 7369   3.860   5.540   3.848
 2157SOL    HW1 7370   3.905   5.527   3.760
 2157SOL    HW2 7371   3.797   5.618   3.842
 2158SOL     OW 7372   3.290   0.726   0.052
 2158SOL    HW1 7373   3.346   0.667   0.111
 2158SOL    HW2 7374   3.194   0.705   0.065
 2159SOL     OW 7375   1.681   0.444   5.565
 2159SOL    HW1 7376   1.677   0.491   5.653
 2159SOL    HW2 7377   1.777   0.432   5.538
 2160SOL     OW 7378   5.539   6.317   0.495
 2160SOL    HW1 7379   5.624   6.265   0.488
 2160SOL    HW2 7380   5.544   6.398   0.436
 2161SOL     OW 7381   1.702   2.316   2.468
 2161SOL    HW1 7382   1.602   2.321   2.465
 2161SOL    HW2 7383   1.740   2.409   2.471
 2162SOL     OW 7384   1.181   6.987   2.339
 2162SOL    HW1 7385   1.170   7.017   2.244
 2162SOL    HW2 7386   1.215   0.043   2.394
 2163SOL     OW 7387   1.551   2.840   2.336
 2163SOL    HW1 7388   1.543   2.778   2.414
 2163SOL    HW2 7389   1.560   2.934   2.370
 2164SOL     OW 7390   1.868   2.557   2.545
 2164SOL    HW1 7391   1.951   2.598   2.580
 2164SOL    HW2 7392   1.871   2.556   2.445
 2165SOL     OW 7393   0.046   1.571   4.066
 2165SOL    HW1 7394   0.065   1.629   4.145
 2165SOL    HW2 7395   6.972   1.585   4.036
 2166SOL     OW 7396   6.706   3.965   3.001
 2166SOL    HW1 7397   6.735   3.940   2.909
 2166SOL    HW2 7398   6.677   3.883   3.050
 2167SOL     OW 7399   2.563   1.776   3.769
 2167SOL    HW1 7400   2.533   1.871   3.778
 2167SOL    HW2 7401   2.577   1.736   3.859
 2168SOL     OW 7402   1.789   1.393   3.130
 2168SOL    HW1 7403   1.788   1.471   3.066
 2168SOL    HW2 7404   1.695   1.367   3.151
 2169SOL     OW 7405   0.418   0.791   1.751
 2169SOL    HW1 7406   0.391   0.842   1.833
 2169SOL    HW2 7407   0.366   0.706   1.746
 2170SOL     OW 7408   1.093   4.285   5.494
 2170SOL    HW1 7409   1.069   4.238   5.579
 2170SOL    HW2 7410   1.168   4.348   5.510
 2171SOL     OW 7411   0.504   5.386   1.094
 2171SOL    HW1 7412   0.419   5.335   1.079
 2171SOL    HW2 7413   0.566   5.372   1.017
 2172SOL     OW 7414   1.020   1.588   4.800
 2172SOL    HW1 7415   0.946   1.653   4.816
 2172SOL    HW2 7416   1.104   1.622   4.842
 2173SOL     OW 7417   5.576   0.436   5.050
 2173SOL    HW1 7418   5.540   0.455   5.142
 2173SOL    HW2 7419   5.541   0.504   4.986
 2174SOL     OW 7420   0.033   6.613   5.234
 2174SOL    HW1 7421   6.985   6.651   5.297
 2174SOL    HW2 7422   0.030   6.513   5.238
 2175SOL     OW 7423   3.121   3.874   5.293
 2175SOL    HW1 7424   3.046   3.810   5.312
 2175SOL    HW2 7425   3.086   3.967   5.294
 2176SOL     OW 7426   5.584   2.173   1.580
 2176SOL    HW1 7427   5.562   2.079   1.604
 2176SOL    HW2 7428   5.591   2.181   1.481
 2177SOL     OW 7429   0.572   0.381   3.696
 2177SOL    HW1 7430   0.528   0.463   3.659
 2177SOL    HW2 7431   0.671   0.391   3.690
 2178SOL     OW 7432   0.946   2.277   2.283
 2178SOL    HW1 7433   0.972   2.354   2.342
 2178SOL    HW2 7434   0.869   2.228   2.324
 2179SOL     OW 7435   1.950   4.421   5.749
 2179SOL    HW1 7436   1.924   4.517   5.753
 2179SOL    HW2 7437   2.048   4.412   5.763
 2180SOL     OW 7438   0.793   6.124   2.208
 2180SOL    HW1 7439   0.852   6.181   2.152
 2180SOL    HW2 7440   0.744   6.059   2.149
 2181SOL     OW 7441   4.242   4.820   4.881
 2181SOL    HW1 7442   4.247   4.919   4.893
 2181SOL    HW2 7443   4.283   4.775   4.960
 2182SOL     OW 7444   0.098   5.238   2.560
 2182SOL    HW1 7445   0.164   5.293   2.510
 2182SOL    HW2 7446   0.144   5.159   2.600
 2183SOL     OW 7447   3.748   2.649   6.856
 2183SOL    HW1 7448   3.648   2.644   6.861
 2183SOL    HW2 7449   3.775   2.689   6.769
 2184SOL     OW 7450   6.296   0.928   6.720
 2184SOL    HW1 7451   6.309   1.009   6.777
 2184SOL    HW2 7452   6.209   0.884   6.743
 2185SOL     OW 7453   0.769   0.836   6.991
 2185SOL    HW1 7454   0.849   0.819   6.934
 2185SOL    HW2 7455   0.719   0.750   7.003
 2186SOL     OW 7456   0.260   5.327   5.323
 2186SOL    HW1 7457   0.167   5.303   5.349
 2186SOL    HW2 7458   0.260   5.365   5.230
 2187SOL     OW 7459   0.691   5.309   3.133
 2187SOL    HW1 7460   0.699   5.369   3.053
 2187SOL    HW2 7461   0.745   5.226   3.119
 2188SOL     OW 7462   2.010   0.495   1.056
 2188SOL    HW1 7463   1.911   0.493   1.048
 2188SOL    HW2 7464   2.047   0.403   1.043
 2189SOL     OW 7465   2.906   1.230   1.497
 2189SOL    HW1 7466   2.895   1.184   1.585
 2189SOL    HW2 7467   3.002   1.252   1.482
 2190SOL     OW 7468   6.046   4.387   2.597
 2190SOL    HW1 7469   6.050   4.455   2.670
 2190SOL    HW2 7470   6.077   4.428   2.512
 2191SOL     OW 7471   2.736   0.452   0.402
 2191SOL    HW1 7472   2.641   0.435   0.376
 2191SOL    HW2 7473   2.791   0.370   0.385
 2192SOL     OW 7474   4.365   1.210   1.194
 2192SOL    HW1 7475   4.348   1.267   1.114
 2192SOL    HW2 7476   4.335   1.116   1.176
 2193SOL     OW 7477   1.224   6.629   6.645
 2193SOL    HW1 7478   1.219   6.652   6.742
 2193SOL    HW2 7479   1.133   6.607   6.610
 2194SOL     OW 7480   0.956   3.906   6.194
 2194SOL    HW1 7481   0.932   4.001   6.212
 2194SOL    HW2 7482   0.896   3.845   6.246
 2195SOL     OW 7483   0.689   4.245   6.429
 2195SOL    HW1 7484   0.603   4.200   6.404
 2195SOL    HW2 7485   0.690   4.262   6.528
 2196SOL     OW 7486   2.878   6.360   5.583
 2196SOL    HW1 7487   2.964   6.309   5.583
 2196SOL    HW2 7488   2.844   6.368   5.677
 2197SOL     OW 7489   2.873   5.462   5.576
 2197SOL    HW1 7490   2.855   5.434   5.482
 2197SOL    HW2 7491   2.796   5.515   5.612
 2198SOL     OW 7492   0.386   0.722   6.563
 2198SOL    HW1 7493   0.293   0.708   6.596
 2198SOL    HW2 7494   0.413   0.817   6.579
 2199SOL     OW 7495   4.119   6.617   4.327
 2199SOL    HW1 7496   4.130   6.583   4.234
 2199SOL    HW2 7497   4.031   6.662   4.336
 2200SOL     OW 7498   2.619   1.498   4.494
 2200SOL    HW1 7499   2.589   1.427   4.430
 2200SOL    HW2 7500   2.586   1.587   4.463
 2201SOL     OW 7501   5.981   4.265   3.859
 2201SOL    HW1 7502   6.019   4.173   3.860
 2201SOL    HW2 7503   6.047   4.328   3.900
 2202SOL     OW 7504   4.019   5.848   2.037
 2202SOL    HW1 7505   4.022   5.944   2.009
 2202SOL    HW2 7506   3.996   5.842   2.134
 2203SOL     OW 7507   2.140   3.309   1.240
 2203SOL    HW1 7508   2.144   3.251   1.159
 2203SOL    HW2 7509   2.101   3.398   1.216
 2204SOL     OW 7510   4.770   3.218   1.001
 2204SOL    HW1 7511   4.691   3.156   1.002
 2204SOL    HW2 7512   4.799   3.236   1.096
 2205SOL     OW 7513   0.357   4.860   0.470
 2205SOL    HW1 7514   0.349   4.822   0.562
 2205SOL    HW2 7515   0.358   4.960   0.476
 2206SOL     OW 7516   2.663   2.520   6.438
 2206SOL    HW1 7517   2.681   2.569   6.523
 2206SOL    HW2 7518   2.669   2.583   6.361
 2207SOL     OW 7519   4.568   5.927   0.730
 2207SOL    HW1 7520   4.501   5.897   0.662
 2207SOL    HW2 7521   4.565   6.027   0.737
 2208SOL     OW 7522   0.864   6.127   4.334
 2208SOL    HW1 7523   0.910   6.058   4.390
 2208SOL    HW2 7524   0.864   6.097   4.239
 2209SOL     OW 7525   3.188   5.657   4.678
 2209SOL    HW1 7526   3.274   5.690   4.716
 2209SOL    HW2 7527   3.208   5.585   4.610
 2210SOL     OW 7528   4.769   6.469   0.965
 2210SOL    HW1 7529   4.757   6.372   0.944
 2210SOL    HW2 7530   4.698   6.498   1.029
 2211SOL     OW 7531   6.478   1.416   1.094
 2211SOL    HW1 7532   6.540   1.454   1.163
 2211SOL    HW2 7533   6.493   1.462   1.006
 2212SOL     OW 7534   2.434   6.039   6.598
 2212SOL    HW1 7535   2.464   6.132   6.578
 2212SOL    HW2 7536   2.416   6.029   6.696
 2213SOL     OW 7537   3.145   2.158   4.247
 2213SOL    HW1 7538   3.074   2.222   4.276
 2213SOL    HW2 7539   3.158   2.089   4.318
 2214SOL     OW 7540   3.956   3.239   6.487
 2214SOL    HW1 7541   3.858   3.235   6.504
 2214SOL    HW2 7542   3.979   3.324   6.441
 2215SOL     OW 7543   4.474   0.074   6.908
 2215SOL    HW1 7544   4.427   0.115   6.831
 2215SOL    HW2 7545   4.481   0.140   6.983
 2216SOL     OW 7546   0.704   6.846   6.214
 2216SOL    HW1 7547   0.638   6.881   6.148
 2216SOL    HW2 7548   0.718   6.913   6.286
 2217SOL     OW 7549   4.089   0.386   2.794
 2217SOL    HW1 7550   4.033   0.348   2.868
 2217SOL    HW2 7551   4.143   0.462   2.829
 2218SOL     OW 7552   0.533   5.361   5.742
 2218SOL    HW1 7553   0.530   5.294   5.816
 2218SOL    HW2 7554   0.465   5.339   5.673
 2219SOL     OW 7555   5.420   1.242   0.543
 2219SOL    HW1 7556   5.492   1.308   0.564
 2219SOL    HW2 7557   5.335   1.269   0.589
 2220SOL     OW 7558   0.428   6.061   5.511
 2220SOL    HW1 7559   0.426   6.161   5.503
 2220SOL    HW2 7560   0.458   6.036   5.604
 2221SOL     OW 7561   6.767   1.501   4.027
 2221SOL    HW1 7562   6.771   1.528   3.931
 2221SOL    HW2 7563   6.707   1.564   4.077
 2222SOL     OW 7564   4.654   6.008   1.366
 2222SOL    HW1 7565   4.576   5.945   1.368
 2222SOL    HW2 7566   4.679   6.032   1.460
 2223SOL     OW 7567   6.685   6.751   5.740
 2223SOL    HW1 7568   6.605   6.800   5.773
 2223SOL    HW2 7569   6.751   6.740   5.815
 2224SOL     OW 7570   5.722   3.997   0.730
 2224SOL    HW1 7571   5.803   4.055   0.719
 2224SOL    HW2 7572   5.662   4.008   0.650
 2225SOL     OW 7573   0.568   6.894   3.101
 2225SOL    HW1 7574   0.646   6.837   3.078
 2225SOL    HW2 7575   0.598   6.988   3.116
 2226SOL     OW 7576   2.643   4.850   0.911
 2226SOL    HW1 7577   2.661   4.917   0.983
 2226SOL    HW2 7578   2.722   4.846   0.848
 2227SOL     OW 7579   4.233   2.220   1.935
 2227SOL    HW1 7580   4.304   2.170   1.985
 2227SOL    HW2 7581   4.265   2.312   1.914
 2228SOL     OW 7582   4.879   5.129   0.163
 2228SOL    HW1 7583   4.866   5.186   0.082
 2228SOL    HW2 7584   4.949   5.169   0.221
 2229SOL     OW 7585   3.571   3.161   4.378
 2229SOL    HW1 7586   3.560   3.236   4.312
 2229SOL    HW2 7587   3.531   3.187   4.466
 2230SOL     OW 7588   5.280   6.588   0.634
 2230SOL    HW1 7589   5.320   6.542   0.555
 2230SOL    HW2 7590   5.311   6.683   0.637
 2231SOL     OW 7591   1.049   0.398   0.129
 2231SOL    HW1 7592   1.007   0.488   0.145
 2231SOL    HW2 7593   1.097   0.400   0.041
 2232SOL     OW 7594   1.580   0.199   5.524
 2232SOL    HW1 7595   1.516   0.193   5.600
 2232SOL    HW2 7596   1.631   0.285   5.530
 2233SOL     OW 7597   3.110   3.278   0.908
 2233SOL    HW1 7598   3.077   3.189   0.939
 2233SOL    HW2 7599   3.165   3.320   0.980
 2234SOL     OW 7600   3.902   1.768   0.901
 2234SOL    HW1 7601   3.948   1.680   0.896
 2234SOL    HW2 7602   3.950   1.835   0.844
 2235SOL     OW 7603   2.469   0.920   2.425
 2235SOL    HW1 7604   2.447   1.001   2.370
 2235SOL    HW2 7605   2.556   0.882   2.394
 2236SOL     OW 7606   2.200   4.163   5.406
 2236SOL    HW1 7607   2.103   4.148   5.423
 2236SOL    HW2 7608   2.244   4.195   5.490
 2237SOL     OW 7609   6.287   4.976   5.074
 2237SOL    HW1 7610   6.244   4.964   4.984
 2237SOL    HW2 7611   6.252   4.906   5.136
 2238SOL     OW 7612   5.166   4.026   2.436
 2238SOL    HW1 7613   5.139   4.030   2.532
 2238SOL    HW2 7614   5.101   4.077   2.380
 2239SOL     OW 7615   3.634   6.992   3.873
 2239SOL    HW1 7616   3.604   6.972   3.966
 2239SOL    HW2 7617   3.723   0.018   3.876
 2240SOL     OW 7618   4.720   5.346   3.197
 2240SOL    HW1 7619   4.634   5.298   3.180
 2240SOL    HW2 7620   4.760   5.376   3.110
 2241SOL     OW 7621   0.625   6.722   1.974
 2241SOL    HW1 7622   0.587   6.809   2.007
 2241SOL    HW2 7623   0.600   6.649   2.038
 2242SOL     OW 7624   4.785   2.994   3.120
 2242SOL    HW1 7625   4.800   3.080   3.170
 2242SOL    HW2 7626   4.749   2.925   3.184
 2243SOL     OW 7627   1.910   6.692   0.632
 2243SOL    HW1 7628   1.826   6.705   0.684
 2243SOL    HW2 7629   1.899   6.615   0.570
 2244SOL     OW 7630   2.544   0.190   0.902
 2244SOL    HW1 7631   2.497   0.225   0.983
 2244SOL    HW2 7632   2.642   0.189   0.918
 2245SOL     OW 7633   0.527   0.938   0.169
 2245SOL    HW1 7634   0.607   0.901   0.122
 2245SOL    HW2 7635   0.453   0.953   0.104
 2246SOL     OW 7636   2.521   0.898   5.474
 2246SOL    HW1 7637   2.492   0.905   5.569
 2246SOL    HW2 7638   2.515   0.802   5.445
 2247SOL     OW 7639   3.042   3.963   2.712
 2247SOL    HW1 7640   2.978   3.970   2.635
 2247SOL    HW2 7641   3.124   3.914   2.683
 2248SOL     OW 7642   5.852   4.083   5.367
 2248SOL    HW1 7643   5.824   3.988   5.356
 2248SOL    HW2 7644   5.922   4.106   5.298
 2249SOL     OW 7645   2.380   6.726   4.021
 2249SOL    HW1 7646   2.406   6.755   3.929
 2249SOL    HW2 7647   2.304   6.783   4.053
 2250SOL     OW 7648   4.030   4.226   6.176
 2250SOL    HW1 7649   4.077   4.141   6.152
 2250SOL    HW2 7650   3.938   4.225   6.138
 2251SOL     OW 7651   5.325   6.894   5.927
 2251SOL    HW1 7652   5.388   6.881   5.850
 2251SOL    HW2 7653   5.237   6.853   5.906
 2252SOL     OW 7654   4.641   1.960   2.733
 2252SOL    HW1 7655   4.618   2.047   2.775
 2252SOL    HW2 7656   4.699   1.907   2.794
 2253SOL     OW 7657   0.472   3.797   0.429
 2253SOL    HW1 7658   0.397   3.842   0.380
 2253SOL    HW2 7659   0.515   3.862   0.491
 2254SOL     OW 7660   3.861   3.996   3.228
 2254SOL    HW1 7661   3.795   4.012   3.301
 2254SOL    HW2 7662   3.940   3.947   3.264
 2255SOL     OW 7663   2.952   4.135   5.633
 2255SOL    HW1 7664   2.926   4.053   5.685
 2255SOL    HW2 7665   2.923   4.124   5.538
 2256SOL     OW 7666   4.988   6.449   1.852
 2256SOL    HW1 7667   5.044   6.367   1.835
 2256SOL    HW2 7668   4.936   6.436   1.937
 2257SOL     OW 7669   6.950   1.562   4.537
 2257SOL    HW1 7670   6.892   1.487   4.568
 2257SOL    HW2 7671   0.017   1.560   4.586
 2258SOL     OW 7672   2.112   6.719   4.522
 2258SOL    HW1 7673   2.160   6.724   4.609
 2258SOL    HW2 7674   2.093   6.623   4.500
 2259SOL     OW 7675   6.706   2.758   4.889
 2259SOL    HW1 7676   6.765   2.688   4.848
 2259SOL    HW2 7677   6.720   2.845   4.842
 2260SOL     OW 7678   0.970   4.193   1.478
 2260SOL    HW1 7679   0.882   4.146   1.469
 2260SOL    HW2 7680   1.039   4.129   1.511
 2261SOL     OW 7681   5.668   3.743   0.224
 2261SOL    HW1 7682   5.612   3.819   0.256
 2261SOL    HW2 7683   5.672   3.673   0.296
 2262SOL     OW 7684   6.445   0.543   4.237
 2262SOL    HW1 7685   6.370   0.500   4.288
 2262SOL    HW2 7686   6.471   0.628   4.282
 2263SOL     OW 7687   1.325   4.320   0.404
 2263SOL    HW1 7688   1.310   4.416   0.378
 2263SOL    HW2 7689   1.313   4.261   0.325
 2264SOL     OW 7690   2.194   6.712   6.269
 2264SOL    HW1 7691   2.147   6.678   6.188
 2264SOL    HW2 7692   2.157   6.802   6.294
 2265SOL     OW 7693   0.747   6.409   3.690
 2265SOL    HW1 7694   0.745   6.462   3.605
 2265SOL    HW2 7695   0.827   6.435   3.743
 2266SOL     OW 7696   4.949   1.566   6.727
 2266SOL    HW1 7697   4.961   1.466   6.730
 2266SOL    HW2 7698   4.997   1.602   6.647
 2267SOL     OW 7699   4.778   2.887   4.801
 2267SOL    HW1 7700   4.853   2.889   4.735
 2267SOL    HW2 7701   4.758   2.980   4.831
 2268SOL     OW 7702   6.851   4.597   6.140
 2268SOL    HW1 7703   6.784   4.528   6.168
 2268SOL    HW2 7704   6.820   4.642   6.057
 2269SOL     OW 7705   1.734   3.035   5.380
 2269SOL    HW1 7706   1.750   3.132   5.360
 2269SOL    HW2 7707   1.677   3.027   5.461
 2270SOL     OW 7708   4.642   2.258   6.432
 2270SOL    HW1 7709   4.689   2.221   6.351
 2270SOL    HW2 7710   4.678   2.213   6.514
 2271SOL     OW 7711   5.989   4.473   6.132
 2271SOL    HW1 7712   6.047   4.549   6.105
 2271SOL    HW2 7713   6.043   4.389   6.134
 2272SOL     OW 7714   6.224   1.191   5.991
 2272SOL    HW1 7715   6.288   1.257   5.952
 2272SOL    HW2 7716   6.273   1.109   6.019
 2273SOL     OW 7717   2.015   2.169   2.216
 2273SOL    HW1 7718   1.972   2.175   2.306
 2273SOL    HW2 7719   1.957   2.216   2.149
 2274SOL     OW 7720   0.795   1.050   0.357
 2274SOL    HW1 7721   0.858   1.092   0.423
 2274SOL    HW2 7722   0.703   1.086   0.372
 2275SOL     OW 7723   5.817   5.055   2.662
 2275SOL    HW1 7724   5.754   5.049   2.739
 2275SOL    HW2 7725   5.872   4.972   2.657
 2276SOL     OW 7726   1.563   1.440   1.773
 2276SOL    HW1 7727   1.592   1.390   1.854
 2276SOL    HW2 7728   1.494   1.386   1.723
 2277SOL     OW 7729   3.070   3.964   3.426
 2277SOL    HW1 7730   3.156   3.914   3.426
 2277SOL    HW2 7731   3.074   4.038   3.358
 2278SOL     OW 7732   0.738   2.055   3.706
 2278SOL    HW1 7733   0.783   2.073   3.619
 2278SOL    HW2 7734   0.642   2.084   3.700
 2279SOL     OW 7735   0.272   5.882   6.411
 2279SOL    HW1 7736   0.237   5.834   6.331
 2279SOL    HW2 7737   0.196   5.909   6.470
 2280SOL     OW 7738   5.182   1.465   5.126
 2280SOL    HW1 7739   5.161   1.463   5.028
 2280SOL    HW2 7740   5.271   1.423   5.141
 2281SOL     OW 7741   4.730   6.633   2.407
 2281SOL    HW1 7742   4.707   6.634   2.505
 2281SOL    HW2 7743   4.647   6.648   2.353
 2282SOL     OW 7744   4.425   5.207   5.759
 2282SOL    HW1 7745   4.410   5.271   5.834
 2282SOL    HW2 7746   4.340   5.157   5.741
 2283SOL     OW 7747   1.374   0.532   3.470
 2283SOL    HW1 7748   1.406   0.619   3.433
 2283SOL    HW2 7749   1.326   0.481   3.398
 2284SOL     OW 7750   1.322   3.256   6.350
 2284SOL    HW1 7751   1.309   3.159   6.368
 2284SOL    HW2 7752   1.252   3.309   6.398
 2285SOL     OW 7753   1.075   3.968   0.110
 2285SOL    HW1 7754   1.042   4.062   0.119
 2285SOL    HW2 7755   1.107   3.936   0.199
 2286SOL     OW 7756   4.912   6.577   3.491
 2286SOL    HW1 7757   5.004   6.605   3.515
 2286SOL    HW2 7758   4.885   6.498   3.547
 2287SOL     OW 7759   2.338   0.859   3.358
 2287SOL    HW1 7760   2.254   0.811   3.382
 2287SOL    HW2 7761   2.317   0.953   3.331
 2288SOL     OW 7762   0.374   5.207   3.358
 2288SOL    HW1 7763   0.373   5.153   3.273
 2288SOL    HW2 7764   0.454   5.183   3.412
 2289SOL     OW 7765   1.039   5.940   2.246
 2289SOL    HW1 7766   1.002   6.033   2.242
 2289SOL    HW2 7767   1.139   5.944   2.248
 2290SOL     OW 7768   0.856   4.998   1.318
 2290SOL    HW1 7769   0.830   4.950   1.402
 2290SOL    HW2 7770   0.773   5.031   1.272
 2291SOL     OW 7771   3.008   1.698   5.581
 2291SOL    HW1 7772   2.911   1.712   5.598
 2291SOL    HW2 7773   3.058   1.782   5.604
 2292SOL     OW 7774   1.278   1.098   4.961
 2292SOL    HW1 7775   1.194   1.052   4.991
 2292SOL    HW2 7776   1.261   1.144   4.874
 2293SOL     OW 7777   5.365   5.539   1.724
 2293SOL    HW1 7778   5.358   5.638   1.726
 2293SOL    HW2 7779   5.326   5.500   1.807
 2294SOL     OW 7780   4.058   6.648   6.924
 2294SOL    HW1 7781   4.081   6.638   6.827
 2294SOL    HW2 7782   4.023   6.740   6.941
 2295SOL     OW 7783   0.358   2.052   1.551
 2295SOL    HW1 7784   0.309   2.071   1.637
 2295SOL    HW2 7785   0.437   2.112   1.544
 2296SOL     OW 7786   3.117   0.379   0.422
 2296SOL    HW1 7787   3.177   0.457   0.442
 2296SOL    HW2 7788   3.174   0.299   0.404
 2297SOL     OW 7789   4.278   4.275   5.552
 2297SOL    HW1 7790   4.198   4.302   5.605
 2297SOL    HW2 7791   4.249   4.242   5.462
 2298SOL     OW 7792   3.495   2.084   1.375
 2298SOL    HW1 7793   3.436   2.130   1.309
 2298SOL    HW2 7794   3.561   2.149   1.413
 2299SOL     OW 7795   5.177   6.315   6.967
 2299SOL    HW1 7796   5.141   6.222   6.976
 2299SOL    HW2 7797   5.103   6.381   6.977
 2300SOL     OW 7798   1.570   5.575   1.417
 2300SOL    HW1 7799   1.662   5.585   1.380
 2300SOL    HW2 7800   1.517   5.513   1.359
 2301SOL     OW 7801   3.592   3.152   2.634
 2301SOL    HW1 7802   3.571   3.055   2.624
 2301SOL    HW2 7803   3.513   3.199   2.674
 2302SOL     OW 7804   3.603   5.568   2.922
 2302SOL    HW1 7805   3.509   5.590   2.949
 2302SOL    HW2 7806   3.624   5.613   2.835
 2303SOL     OW 7807   1.353   3.354   4.603
 2303SOL    HW1 7808   1.360   3.406   4.517
 2303SOL    HW2 7809   1.403   3.268   4.592
 2304SOL     OW 7810   2.516   1.081   3.236
 2304SOL    HW1 7811   2.534   1.179   3.244
 2304SOL    HW2 7812   2.418   1.066   3.220
 2305SOL     OW 7813   3.697   5.677   2.625
 2305SOL    HW1 7814   3.745   5.616   2.562
 2305SOL    HW2 7815   3.761   5.743   2.664
 2306SOL     OW 7816   2.372   4.425   2.060
 2306SOL    HW1 7817   2.414   4.489   1.996
 2306SOL    HW2 7818   2.416   4.432   2.149
 2307SOL     OW 7819   0.844   2.761   3.103
 2307SOL    HW1 7820   0.876   2.812   3.182
 2307SOL    HW2 7821   0.768   2.701   3.130
 2308SOL     OW 7822   0.938   0.743   6.790
 2308SOL    HW1 7823   1.038   0.751   6.781
 2308SOL    HW2 7824   0.905   0.669   6.731
 2309SOL     OW 7825   3.170   4.870   0.183
 2309SOL    HW1 7826   3.125   4.957   0.203
 2309SOL    HW2 7827   3.118   4.795   0.222
 2310SOL     OW 7828   5.980   0.827   1.683
 2310SOL    HW1 7829   5.885   0.854   1.664
 2310SOL    HW2 7830   6.031   0.820   1.597
 2311SOL     OW 7831   2.818   0.194   2.438
 2311SOL    HW1 7832   2.719   0.196   2.454
 2311SOL    HW2 7833   2.839   0.135   2.360
 2312SOL     OW 7834   3.910   0.131   2.818
 2312SOL    HW1 7835   3.876   0.199   2.883
 2312SOL    HW2 7836   3.870   0.148   2.728
 2313SOL     OW 7837   4.738   4.191   2.238
 2313SOL    HW1 7838   4.698   4.252   2.307
 2313SOL    HW2 7839   4.674   4.180   2.162
 2314SOL     OW 7840   6.011   0.940   3.864
 2314SOL    HW1 7841   5.990   0.848   3.897
 2314SOL    HW2 7842   5.938   0.970   3.802
 2315SOL     OW 7843   4.654   3.934   5.828
 2315SOL    HW1 7844   4.632   3.937   5.926
 2315SOL    HW2 7845   4.731   3.995   5.810
 2316SOL     OW 7846   2.691   1.292   6.057
 2316SOL    HW1 7847   2.777   1.242   6.045
 2316SOL    HW2 7848   2.711   1.389   6.069
 2317SOL     OW 7849   6.343   6.438   3.906
 2317SOL    HW1 7850   6.321   6.354   3.856
 2317SOL    HW2 7851   6.391   6.501   3.845
 2318SOL     OW 7852   2.145   3.880   4.504
 2318SOL    HW1 7853   2.117   3.946   4.434
 2318SOL    HW2 7854   2.154   3.928   4.592
 2319SOL     OW 7855   2.414   5.349   4.529
 2319SOL    HW1 7856   2.498   5.378   4.575
 2319SOL    HW2 7857   2.352   5.428   4.520
 2320SOL     OW 7858   1.315   3.261   5.413
 2320SOL    HW1 7859   1.242   3.269   5.480
 2320SOL    HW2 7860   1.282   3.292   5.324
 2321SOL     OW 7861   2.561   4.748   6.169
 2321SOL    HW1 7862   2.538   4.690   6.247
 2321SOL    HW2 7863   2.479   4.762   6.113
 2322SOL     OW 7864   2.108   3.682   2.231
 2322SOL    HW1 7865   2.070   3.642   2.314
 2322SOL    HW2 7866   2.136   3.609   2.169
 2323SOL     OW 7867   2.811   5.012   1.870
 2323SOL    HW1 7868   2.884   5.009   1.802
 2323SOL    HW2 7869   2.828   4.941   1.939
 2324SOL     OW 7870   6.595   5.910   1.820
 2324SOL    HW1 7871   6.544   5.850   1.758
 2324SOL    HW2 7872   6.632   5.857   1.896
 2325SOL     OW 7873   6.860   4.837   1.596
 2325SOL    HW1 7874   6.805   4.880   1.668
 2325SOL    HW2 7875   6.799   4.798   1.527
 2326SOL     OW 7876   1.323   6.404   6.830
 2326SOL    HW1 7877   1.371   6.357   6.905
 2326SOL    HW2 7878   1.303   6.498   6.858
 2327SOL     OW 7879   6.714   0.263   2.876
 2327SOL    HW1 7880   6.614   0.267   2.881
 2327SOL    HW2 7881   6.742   0.168   2.858
 2328SOL     OW 7882   1.174   2.031   2.016
 2328SOL    HW1 7883   1.152   1.953   2.076
 2328SOL    HW2 7884   1.273   2.039   2.007
 2329SOL     OW 7885   0.925   4.009   3.921
 2329SOL    HW1 7886   1.013   3.972   3.891
 2329SOL    HW2 7887   0.851   3.955   3.882
 2330SOL     OW 7888   0.040   3.066   0.365
 2330SOL    HW1 7889   6.968   3.099   0.388
 2330SOL    HW2 7890   0.105   3.141   0.373
 2331SOL     OW 7891   3.871   5.416   0.219
 2331SOL    HW1 7892   3.800   5.421   0.289
 2331SOL    HW2 7893   3.924   5.501   0.218
 2332SOL     OW 7894   6.444   0.061   5.460
 2332SOL    HW1 7895   6.423   0.093   5.368
 2332SOL    HW2 7896   6.458   6.983   5.459
 2333SOL     OW 7897   7.016   4.563   3.119
 2333SOL    HW1 7898   6.939   4.499   3.112
 2333SOL    HW2 7899   7.002   4.623   3.198
 2334SOL     OW 7900   1.206   1.029   6.215
 2334SOL    HW1 7901   1.301   1.006   6.239
 2334SOL    HW2 7902   1.153   1.045   6.298
 2335SOL     OW 7903   6.624   1.244   3.859
 2335SOL    HW1 7904   6.558   1.175   3.888
 2335SOL    HW2 7905   6.576   1.330   3.842
 2336SOL     OW 7906   3.073   1.587   3.842
 2336SOL    HW1 7907   3.090   1.662   3.778
 2336SOL    HW2 7908   3.069   1.501   3.791
 2337SOL     OW 7909   3.987   1.223   1.619
 2337SOL    HW1 7910   4.031   1.282   1.686
 2337SOL    HW2 7911   4.056   1.189   1.555
 2338SOL     OW 7912   1.030   3.527   3.774
 2338SOL    HW1 7913   0.967   3.587   3.823
 2338SOL    HW2 7914   0.988   3.436   3.764
 2339SOL     OW 7915   3.397   3.288   3.236
 2339SOL    HW1 7916   3.467   3.360   3.232
 2339SOL    HW2 7917   3.404   3.230   3.155
 2340SOL     OW 7918   0.577   5.184   6.583
 2340SOL    HW1 7919   0.497   5.215   6.635
 2340SOL    HW2 7920   0.652   5.165   6.646
 2341SOL     OW 7921   2.525   5.032   3.094
 2341SOL    HW1 7922   2.559   4.949   3.050
 2341SOL    HW2 7923   2.595   5.103   3.089
 2342SOL     OW 7924   2.593   0.074   4.355
 2342SOL    HW1 7925   2.645   0.125   4.287
 2342SOL    HW2 7926   2.553   7.012   4.313
 2343SOL     OW 7927   2.149   6.554   2.965
 2343SOL    HW1 7928   2.068   6.498   2.981
 2343SOL    HW2 7929   2.229   6.494   2.954
 2344SOL     OW 7930   6.745   5.361   0.519
 2344SOL    HW1 7931   6.785   5.419   0.448
 2344SOL    HW2 7932   6.740   5.413   0.604
 2345SOL     OW 7933   2.485   5.664   4.258
 2345SOL    HW1 7934   2.462   5.649   4.162
 2345SOL    HW2 7935   2.585   5.663   4.269
 2346SOL     OW 7936   4.289   3.220   6.036
 2346SOL    HW1 7937   4.221   3.277   5.991
 2346SOL    HW2 7938   4.311   3.142   5.978
 2347SOL     OW 7939   1.419   2.069   1.569
 2347SOL    HW1 7940   1.364   1.998   1.612
 2347SOL    HW2 7941   1.359   2.140   1.531
 2348SOL     OW 7942   1.919   5.981   3.674
 2348SOL    HW1 7943   2.007   5.951   3.711
 2348SOL    HW2 7944   1.929   6.070   3.632
 2349SOL     OW 7945   0.919   4.516   6.379
 2349SOL    HW1 7946   0.998   4.470   6.340
 2349SOL    HW2 7947   0.853   4.448   6.412
 2350SOL     OW 7948   5.773   3.745   5.953
 2350SOL    HW1 7949   5.793   3.691   5.871
 2350SOL    HW2 7950   5.677   3.732   5.979
 2351SOL     OW 7951   3.574   4.941   3.756
 2351SOL    HW1 7952   3.506   4.962   3.827
 2351SOL    HW2 7953   3.549   4.988   3.671
 2352SOL     OW 7954   6.513   3.046   3.574
 2352SOL    HW1 7955   6.519   3.083   3.481
 2352SOL    HW2 7956   6.499   2.947   3.571
 2353SOL     OW 7957   4.187   4.819   5.186
 2353SOL    HW1 7958   4.258   4.878   5.225
 2353SOL    HW2 7959   4.187   4.731   5.233
 2354SOL     OW 7960   2.426   2.230   4.564
 2354SOL    HW1 7961   2.386   2.320   4.580
 2354SOL    HW2 7962   2.404   2.199   4.472
 2355SOL     OW 7963   2.332   6.068   5.413
 2355SOL    HW1 7964   2.237   6.066   5.382
 2355SOL    HW2 7965   2.338   6.032   5.506
 2356SOL     OW 7966   1.079   2.988   6.996
 2356SOL    HW1 7967   1.094   2.938   0.060
 2356SOL    HW2 7968   1.036   2.929   6.928
 2357SOL     OW 7969   3.791   1.398   1.531
 2357SOL    HW1 7970   3.784   1.486   1.577
 2357SOL    HW2 7971   3.852   1.338   1.583
 2358SOL     OW 7972   2.484   5.323   5.478
 2358SOL    HW1 7973   2.542   5.243   5.489
 2358SOL    HW2 7974   2.494   5.359   5.385
 2359SOL     OW 7975   0.387   0.498   5.434
 2359SOL    HW1 7976   0.453   0.483   5.361
 2359SOL    HW2 7977   0.360   0.410   5.474
 2360SOL     OW 7978   6.104   3.881   0.550
 2360SOL    HW1 7979   6.147   3.831   0.475
 2360SOL    HW2 7980   6.100   3.978   0.528
 2361SOL     OW 7981   2.960   1.341   6.297
 2361SOL    HW1 7982   3.041   1.317   6.244
 2361SOL    HW2 7983   2.965   1.437   6.324
 2362SOL     OW 7984   2.951   6.011   3.820
 2362SOL    HW1 7985   2.907   5.947   3.883
 2362SOL    HW2 7986   2.881   6.054   3.763
 2363SOL     OW 7987   3.828   1.856   3.736
 2363SOL    HW1 7988   3.819   1.912   3.653
 2363SOL    HW2 7989   3.737   1.830   3.769
 2364SOL     OW 7990   1.312   2.618   1.833
 2364SOL    HW1 7991   1.243   2.556   1.796
 2364SOL    HW2 7992   1.315   2.702   1.779
 2365SOL     OW 7993   6.351   1.964   6.821
 2365SOL    HW1 7994   6.433   1.990   6.770
 2365SOL    HW2 7995   6.280   2.033   6.809
 2366SOL     OW 7996   2.947   5.129   0.527
 2366SOL    HW1 7997   2.858   5.083   0.533
 2366SOL    HW2 7998   3.011   5.084   0.589
 2367SOL     OW 7999   1.993   3.636   0.318
 2367SOL    HW1 8000   1.900   3.664   0.295
 2367SOL    HW2 8001   2.007   3.540   0.291
 2368SOL     OW 8002   5.764   6.932   4.285
 2368SOL    HW1 8003   5.821   6.938   4.203
 2368SOL    HW2 8004   5.816   6.887   4.358
 2369SOL     OW 8005   1.893   0.074   4.237
 2369SOL    HW1 8006   1.904   6.996   4.220
 2369SOL    HW2 8007   1.963   0.106   4.301
 2370SOL     OW 8008   5.471   3.322   0.186
 2370SOL    HW1 8009   5.547   3.257   0.186
 2370SOL    HW2 8010   5.447   3.346   0.281
 2371SOL     OW 8011   2.237   6.594   2.001
 2371SOL    HW1 8012   2.158   6.646   2.034
 2371SOL    HW2 8013   2.311   6.601   2.068
 2372SOL     OW 8014   6.910   2.758   1.968
 2372SOL    HW1 8015   6.877   2.842   1.925
 2372SOL    HW2 8016   7.001   2.774   2.006
 2373SOL     OW 8017   1.804   3.639   5.721
 2373SOL    HW1 8018   1.850   3.552   5.703
 2373SOL    HW2 8019   1.869   3.703   5.761
 2374SOL     OW 8020   6.737   2.171   5.038
 2374SOL    HW1 8021   6.688   2.208   4.959
 2374SOL    HW2 8022   6.741   2.241   5.110
 2375SOL     OW 8023   3.378   5.431   5.828
 2375SOL    HW1 8024   3.306   5.501   5.830
 2375SOL    HW2 8025   3.391   5.398   5.735
 2376SOL     OW 8026   5.745   3.436   4.111
 2376SOL    HW1 8027   5.654   3.427   4.152
 2376SOL    HW2 8028   5.744   3.394   4.020
 2377SOL     OW 8029   3.569   3.667   3.658
 2377SOL    HW1 8030   3.645   3.706   3.607
 2377SOL    HW2 8031   3.549   3.725   3.737
 2378SOL     OW 8032   5.330   2.138   0.513
 2378SOL    HW1 8033   5.278   2.209   0.464
 2378SOL    HW2 8034   5.414   2.118   0.463
 2379SOL     OW 8035   6.828   0.928   0.430
 2379SOL    HW1 8036   6.753   0.957   0.489
 2379SOL    HW2 8037   6.910   0.910   0.485
 2380SOL     OW 8038   0.031   2.717   6.988
 2380SOL    HW1 8039   0.020   2.807   0.011
 2380SOL    HW2 8040   6.973   2.698   6.930
 2381SOL     OW 8041   2.325   6.131   3.187
 2381SOL    HW1 8042   2.369   6.196   3.124
 2381SOL    HW2 8043   2.228   6.151   3.193
 2382SOL     OW 8044   1.812   3.630   4.249
 2382SOL    HW1 8045   1.861   3.567   4.187
 2382SOL    HW2 8046   1.801   3.718   4.204
 2383SOL     OW 8047   6.465   0.047   1.189
 2383SOL    HW1 8048   6.533   6.998   1.162
 2383SOL    HW2 8049   6.504   0.104   1.261
 2384SOL     OW 8050   5.034   2.148   2.795
 2384SOL    HW1 8051   5.014   2.127   2.890
 2384SOL    HW2 8052   5.096   2.078   2.758
 2385SOL     OW 8053   0.022   0.414   6.818
 2385SOL    HW1 8054   6.960   0.366   6.849
 2385SOL    HW2 8055   0.103   0.358   6.837
 2386SOL     OW 8056   5.176   6.049   4.261
 2386SOL    HW1 8057   5.182   6.003   4.350
 2386SOL    HW2 8058   5.115   5.997   4.201
 2387SOL     OW 8059   2.102   1.085   4.334
 2387SOL    HW1 8060   2.061   1.004   4.293
 2387SOL    HW2 8061   2.030   1.148   4.364
 2388SOL     OW 8062   6.936   2.783   3.997
 2388SOL    HW1 8063   6.926   2.744   4.088
 2388SOL    HW2 8064   7.000   2.859   4.000
 2389SOL     OW 8065   4.296   4.625   3.494
 2389SOL    HW1 8066   4.281   4.721   3.468
 2389SOL    HW2 8067   4.308   4.619   3.593
 2390SOL     OW 8068   3.823   2.920   2.739
 2390SOL    HW1 8069   3.922   2.927   2.731
 2390SOL    HW2 8070   3.786   2.882   2.654
 2391SOL     OW 8071   5.811   4.663   6.331
 2391SOL    HW1 8072   5.761   4.616   6.404
 2391SOL    HW2 8073   5.847   4.596   6.266
 2392SOL     OW 8074   2.664   6.930   6.358
 2392SOL    HW1 8075   2.723   6.929   6.439
 2392SOL    HW2 8076   2.711   6.885   6.282
 2393SOL     OW 8077   4.964   4.195   6.081
 2393SOL    HW1 8078   5.037   4.262   6.094
 2393SOL    HW2 8079   4.875   4.236   6.102
 2394SOL     OW 8080   0.191   3.663   4.567
 2394SOL    HW1 8081   0.139   3.659   4.652
 2394SOL    HW2 8082   0.135   3.706   4.496
 2395SOL     OW 8083   4.918   0.104   5.795
 2395SOL    HW1 8084   4.830   0.152   5.789
 2395SOL    HW2 8085   4.902   0.009   5.821
 2396SOL     OW 8086   3.839   5.185   0.913
 2396SOL    HW1 8087   3.747   5.211   0.942
 2396SOL    HW2 8088   3.833   5.113   0.844
 2397SOL     OW 8089   0.386   4.315   4.376
 2397SOL    HW1 8090   0.372   4.315   4.475
 2397SOL    HW2 8091   0.481   4.288   4.356
 2398SOL     OW 8092   4.978   3.893   6.979
 2398SOL    HW1 8093   4.902   3.883   6.914
 2398SOL    HW2 8094   5.015   3.803   7.001
 2399SOL     OW 8095   4.047   0.660   1.134
 2399SOL    HW1 8096   4.082   0.635   1.225
 2399SOL    HW2 8097   4.102   0.735   1.098
 2400SOL     OW 8098   2.770   3.636   0.736
 2400SOL    HW1 8099   2.796   3.625   0.640
 2400SOL    HW2 8100   2.766   3.733   0.760
 2401SOL     OW 8101   5.677   6.191   0.053
 2401SOL    HW1 8102   5.711   6.282   0.076
 2401SOL    HW2 8103   5.615   6.160   0.125
 2402SOL     OW 8104   0.564   0.160   4.498
 2402SOL    HW1 8105   0.650   0.144   4.449
 2402SOL    HW2 8106   0.530   0.073   4.534
 2403SOL     OW 8107   1.002   2.378   5.881
 2403SOL    HW1 8108   0.951   2.341   5.959
 2403SOL    HW2 8109   1.089   2.416   5.912
 2404SOL     OW 8110   2.379   1.447   1.420
 2404SOL    HW1 8111   2.324   1.407   1.494
 2404SOL    HW2 8112   2.463   1.484   1.458
 2405SOL     OW 8113   3.273   3.873   2.574
 2405SOL    HW1 8114   3.293   3.967   2.549
 2405SOL    HW2 8115   3.280   3.814   2.493
 2406SOL     OW 8116   3.561   1.254   1.481
 2406SOL    HW1 8117   3.644   1.309   1.496
 2406SOL    HW2 8118   3.560   1.223   1.386
 2407SOL     OW 8119   5.830   2.023   3.708
 2407SOL    HW1 8120   5.765   2.070   3.648
 2407SOL    HW2 8121   5.919   2.068   3.702
 2408SOL     OW 8122   4.475   4.529   2.123
 2408SOL    HW1 8123   4.550   4.595   2.131
 2408SOL    HW2 8124   4.513   4.440   2.100
 2409SOL     OW 8125   2.187   4.181   2.141
 2409SOL    HW1 8126   2.255   4.252   2.123
 2409SOL    HW2 8127   2.180   4.165   2.239
 2410SOL     OW 8128   3.923   3.141   4.472
 2410SOL    HW1 8129   3.873   3.227   4.477
 2410SOL    HW2 8130   4.021   3.158   4.477
 2411SOL     OW 8131   5.238   6.606   5.270
 2411SOL    HW1 8132   5.162   6.604   5.204
 2411SOL    HW2 8133   5.325   6.605   5.220
 2412SOL     OW 8134   5.515   4.276   1.809
 2412SOL    HW1 8135   5.436   4.214   1.814
 2412SOL    HW2 8136   5.529   4.318   1.899
 2413SOL     OW 8137   5.569   0.429   1.427
 2413SOL    HW1 8138   5.546   0.523   1.402
 2413SOL    HW2 8139   5.609   0.384   1.347
 2414SOL     OW 8140   4.876   4.086   3.661
 2414SOL    HW1 8141   4.817   4.158   3.623
 2414SOL    HW2 8142   4.879   4.096   3.761
 2415SOL     OW 8143   6.016   1.097   2.398
 2415SOL    HW1 8144   5.961   1.174   2.431
 2415SOL    HW2 8145   6.075   1.065   2.472
 2416SOL     OW 8146   5.427   2.122   5.795
 2416SOL    HW1 8147   5.447   2.208   5.747
 2416SOL    HW2 8148   5.481   2.048   5.755
 2417SOL     OW 8149   2.937   3.388   4.628
 2417SOL    HW1 8150   2.895   3.428   4.547
 2417SOL    HW2 8151   2.934   3.454   4.703
 2418SOL     OW 8152   3.473   3.194   4.026
 2418SOL    HW1 8153   3.511   3.256   4.095
 2418SOL    HW2 8154   3.489   3.099   4.055
 2419SOL     OW 8155   0.158   6.467   3.385
 2419SOL    HW1 8156   0.211   6.458   3.470
 2419SOL    HW2 8157   0.210   6.520   3.318
 2420SOL     OW 8158   3.471   0.409   1.766
 2420SOL    HW1 8159   3.471   0.313   1.739
 2420SOL    HW2 8160   3.454   0.417   1.864
 2421SOL     OW 8161   2.085   2.730   4.612
 2421SOL    HW1 8162   2.139   2.805   4.573
 2421SOL    HW2 8163   2.119   2.709   4.704
 2422SOL     OW 8164   5.013   1.655   0.980
 2422SOL    HW1 8165   5.040   1.740   1.024
 2422SOL    HW2 8166   5.037   1.578   1.040
 2423SOL     OW 8167   2.656   6.265   2.088
 2423SOL    HW1 8168   2.725   6.286   2.019
 2423SOL    HW2 8169   2.657   6.335   2.160
 2424SOL     OW 8170   5.941   1.131   0.238
 2424SOL    HW1 8171   5.909   1.143   0.144
 2424SOL    HW2 8172   5.871   1.081   0.291
 2425SOL     OW 8173   6.165   0.555   4.078
 2425SOL    HW1 8174   6.235   0.494   4.040
 2425SOL    HW2 8175   6.109   0.504   4.144
 2426SOL     OW 8176   2.114   5.139   5.257
 2426SOL    HW1 8177   2.198   5.155   5.205
 2426SOL    HW2 8178   2.050   5.086   5.202
 2427SOL     OW 8179   5.962   6.193   5.036
 2427SOL    HW1 8180   5.874   6.178   4.990
 2427SOL    HW2 8181   5.979   6.119   5.101
 2428SOL     OW 8182   0.673   0.670   1.746
 2428SOL    HW1 8183   0.597   0.735   1.736
 2428SOL    HW2 8184   0.701   0.638   1.656
 2429SOL     OW 8185   5.324   5.910   1.177
 2429SOL    HW1 8186   5.409   5.957   1.202
 2429SOL    HW2 8187   5.341   5.849   1.099
 2430SOL     OW 8188   6.140   0.579   2.599
 2430SOL    HW1 8189   6.101   0.644   2.533
 2430SOL    HW2 8190   6.094   0.590   2.687
 2431SOL     OW 8191   4.539   1.332   2.135
 2431SOL    HW1 8192   4.558   1.252   2.078
 2431SOL    HW2 8193   4.547   1.307   2.232
 2432SOL     OW 8194   4.642   6.193   1.959
 2432SOL    HW1 8195   4.713   6.194   1.888
 2432SOL    HW2 8196   4.664   6.261   2.029
 2433SOL     OW 8197   4.495   0.309   6.695
 2433SOL    HW1 8198   4.544   0.383   6.741
 2433SOL    HW2 8199   4.545   0.282   6.612
 2434SOL     OW 8200   3.838   1.004   5.831
 2434SOL    HW1 8201   3.929   1.042   5.848
 2434SOL    HW2 8202   3.784   1.067   5.775
 2435SOL     OW 8203   5.702   5.872   5.332
 2435SOL    HW1 8204   5.649   5.947   5.372
 2435SOL    HW2 8205   5.755   5.906   5.254
 2436SOL     OW 8206   2.199   5.925   0.299
 2436SOL    HW1 8207   2.235   5.843   0.343
 2436SOL    HW2 8208   2.155   5.983   0.367
 2437SOL     OW 8209   6.660   6.477   5.632
 2437SOL    HW1 8210   6.675   6.574   5.652
 2437SOL    HW2 8211   6.582   6.444   5.684
 2438SOL     OW 8212   2.788   2.520   0.833
 2438SOL    HW1 8213   2.814   2.566   0.748
 2438SOL    HW2 8214   2.844   2.438   0.846
 2439SOL     OW 8215   6.372   4.125   5.660
 2439SOL    HW1 8216   6.342   4.073   5.740
 2439SOL    HW2 8217   6.380   4.222   5.685
 2440SOL     OW 8218   5.408   5.372   5.848
 2440SOL    HW1 8219   5.432   5.397   5.754
 2440SOL    HW2 8220   5.323   5.417   5.874
 2441SOL     OW 8221   5.591   2.124   0.780
 2441SOL    HW1 8222   5.575   2.215   0.818
 2441SOL    HW2 8223   5.504   2.081   0.756
 2442SOL     OW 8224   0.733   3.783   4.555
 2442SOL    HW1 8225   0.794   3.789   4.634
 2442SOL    HW2 8226   0.739   3.692   4.515
 2443SOL     OW 8227   2.758   4.042   6.518
 2443SOL    HW1 8228   2.725   4.133   6.545
 2443SOL    HW2 8229   2.850   4.051   6.478
 2444SOL     OW 8230   2.616   3.928   5.717
 2444SOL    HW1 8231   2.706   3.885   5.710
 2444SOL    HW2 8232   2.550   3.862   5.751
 2445SOL     OW 8233   0.412   1.018   1.041
 2445SOL    HW1 8234   0.426   0.943   0.976
 2445SOL    HW2 8235   0.486   1.085   1.030
 2446SOL     OW 8236   6.504   4.503   5.018
 2446SOL    HW1 8237   6.562   4.582   5.038
 2446SOL    HW2 8238   6.480   4.503   4.921
 2447SOL     OW 8239   0.963   1.563   0.627
 2447SOL    HW1 8240   0.955   1.591   0.531
 2447SOL    HW2 8241   0.975   1.645   0.684
 2448SOL     OW 8242   0.992   0.302   4.637
 2448SOL    HW1 8243   1.026   0.395   4.652
 2448SOL    HW2 8244   0.893   0.299   4.655
 2449SOL     OW 8245   0.290   3.744   5.827
 2449SOL    HW1 8246   0.294   3.645   5.842
 2449SOL    HW2 8247   0.196   3.772   5.810
 2450SOL     OW 8248   2.187   3.922   2.941
 2450SOL    HW1 8249   2.161   3.826   2.932
 2450SOL    HW2 8250   2.198   3.945   3.037
 2451SOL     OW 8251   2.268   6.131   3.568
 2451SOL    HW1 8252   2.257   6.054   3.506
 2451SOL    HW2 8253   2.235   6.215   3.524
 2452SOL     OW 8254   1.120   2.707   4.310
 2452SOL    HW1 8255   1.181   2.758   4.249
 2452SOL    HW2 8256   1.157   2.708   4.403
 2453SOL     OW 8257   6.634   4.452   1.480
 2453SOL    HW1 8258   6.704   4.447   1.550
 2453SOL    HW2 8259   6.550   4.409   1.514
 2454SOL     OW 8260   3.350   1.274   2.314
 2454SOL    HW1 8261   3.448   1.269   2.301
 2454SOL    HW2 8262   3.324   1.218   2.393
 2455SOL     OW 8263   5.828   5.801   0.383
 2455SOL    HW1 8264   5.876   5.882   0.349
 2455SOL    HW2 8265   5.756   5.775   0.319
 2456SOL     OW 8266   4.750   6.491   1.290
 2456SOL    HW1 8267   4.684   6.417   1.306
 2456SOL    HW2 8268   4.820   6.489   1.361
 2457SOL     OW 8269   5.542   6.587   1.418
 2457SOL    HW1 8270   5.568   6.544   1.505
 2457SOL    HW2 8271   5.481   6.664   1.436
 2458SOL     OW 8272   0.640   5.419   3.388
 2458SOL    HW1 8273   0.673   5.505   3.427
 2458SOL    HW2 8274   0.686   5.403   3.300
 2459SOL     OW 8275   2.352   0.047   0.780
 2459SOL    HW1 8276   2.287   0.120   0.759
 2459SOL    HW2 8277   2.420   0.080   0.845
 2460SOL     OW 8278   3.346   5.557   1.884
 2460SOL    HW1 8279   3.412   5.574   1.957
 2460SOL    HW2 8280   3.258   5.598   1.908
 2461SOL     OW 8281   5.531   0.525   2.060
 2461SOL    HW1 8282   5.504   0.430   2.077
 2461SOL    HW2 8283   5.449   0.583   2.063
 2462SOL     OW 8284   2.082   4.697   6.501
 2462SOL    HW1 8285   1.993   4.713   6.458
 2462SOL    HW2 8286   2.153   4.695   6.431
 2463SOL     OW 8287   6.288   2.143   4.487
 2463SOL    HW1 8288   6.269   2.232   4.528
 2463SOL    HW2 8289   6.290   2.153   4.387
 2464SOL     OW 8290   1.564   3.421   1.026
 2464SOL    HW1 8291   1.507   3.418   0.944
 2464SOL    HW2 8292   1.543   3.504   1.078
 2465SOL     OW 8293   6.348   5.839   3.696
 2465SOL    HW1 8294   6.306   5.888   3.773
 2465SOL    HW2 8295   6.443   5.870   3.685
 2466SOL     OW 8296   4.067   1.696   2.714
 2466SOL    HW1 8297   4.149   1.745   2.682
 2466SOL    HW2 8298   4.010   1.673   2.636
 2467SOL     OW 8299   6.845   0.851   6.254
 2467SOL    HW1 8300   6.908   0.928   6.246
 2467SOL    HW2 8301   6.795   0.839   6.168
 2468SOL     OW 8302   6.968   4.816   1.042
 2468SOL    HW1 8303   6.897   4.855   0.984
 2468SOL    HW2 8304   6.930   4.741   1.097
 2469SOL     OW 8305   2.770   2.847   5.639
 2469SOL    HW1 8306   2.801   2.923   5.696
 2469SOL    HW2 8307   2.759   2.878   5.544
 2470SOL     OW 8308   5.696   3.201   0.219
 2470SOL    HW1 8309   5.742   3.207   0.307
 2470SOL    HW2 8310   5.697   3.106   0.187
 2471SOL     OW 8311   1.525   0.282   3.487
 2471SOL    HW1 8312   1.479   0.364   3.520
 2471SOL    HW2 8313   1.491   0.259   3.396
 2472SOL     OW 8314   6.394   1.690   3.186
 2472SOL    HW1 8315   6.297   1.669   3.190
 2472SOL    HW2 8316   6.439   1.658   3.269
 2473SOL     OW 8317   1.056   6.797   5.070
 2473SOL    HW1 8318   1.089   6.848   4.990
 2473SOL    HW2 8319   0.971   6.750   5.045
 2474SOL     OW 8320   6.256   4.964   4.809
 2474SOL    HW1 8321   6.352   4.937   4.802
 2474SOL    HW2 8322   6.237   5.035   4.741
 2475SOL     OW 8323   4.055   1.903   0.225
 2475SOL    HW1 8324   4.087   1.896   0.131
 2475SOL    HW2 8325   4.097   1.982   0.270
 2476SOL     OW 8326   0.495   2.109   4.310
 2476SOL    HW1 8327   0.565   2.038   4.316
 2476SOL    HW2 8328   0.435   2.104   4.389
 2477SOL     OW 8329   4.185   4.997   1.348
 2477SOL    HW1 8330   4.133   4.977   1.265
 2477SOL    HW2 8331   4.277   5.024   1.323
 2478SOL     OW 8332   6.907   6.853   3.291
 2478SOL    HW1 8333   6.918   6.949   3.314
 2478SOL    HW2 8334   6.817   6.839   3.249
 2479SOL     OW 8335   0.651   3.610   0.290
 2479SOL    HW1 8336   0.689   3.558   0.367
 2479SOL    HW2 8337   0.591   3.682   0.325
 2480SOL     OW 8338   0.427   3.509   1.200
 2480SOL    HW1 8339   0.341   3.490   1.153
 2480SOL    HW2 8340   0.427   3.604   1.232
 2481SOL     OW 8341   4.469   5.345   2.483
 2481SOL    HW1 8342   4.412   5.304   2.412
 2481SOL    HW2 8343   4.422   5.341   2.571
 2482SOL     OW 8344   4.580   2.151   4.279
 2482SOL    HW1 8345   4.619   2.060   4.272
 2482SOL    HW2 8346   4.623   2.200   4.355
 2483SOL     OW 8347   0.640   1.831   6.677
 2483SOL    HW1 8348   0.566   1.768   6.652
 2483SOL    HW2 8349   0.608   1.892   6.750
 2484SOL     OW 8350   3.033   2.179   6.283
 2484SOL    HW1 8351   3.040   2.082   6.258
 2484SOL    HW2 8352   2.937   2.204   6.294
 2485SOL     OW 8353   0.305   5.889   2.467
 2485SOL    HW1 8354   0.393   5.900   2.511
 2485SOL    HW2 8355   0.283   5.972   2.414
 2486SOL     OW 8356   1.067   5.238   3.266
 2486SOL    HW1 8357   1.067   5.337   3.282
 2486SOL    HW2 8358   1.050   5.220   3.169
 2487SOL     OW 8359   3.284   0.843   0.506
 2487SOL    HW1 8360   3.274   0.796   0.418
 2487SOL    HW2 8361   3.238   0.790   0.578
 2488SOL     OW 8362   3.389   6.207   6.530
 2488SOL    HW1 8363   3.361   6.114   6.557
 2488SOL    HW2 8364   3.460   6.202   6.460
 2489SOL     OW 8365   0.043   5.853   4.135
 2489SOL    HW1 8366   0.041   5.827   4.231
 2489SOL    HW2 8367   0.020   5.950   4.126
 2490SOL     OW 8368   4.852   3.423   1.669
 2490SOL    HW1 8369   4.926   3.488   1.686
 2490SOL    HW2 8370   4.868   3.339   1.721
 2491SOL     OW 8371   1.141   4.677   2.534
 2491SOL    HW1 8372   1.154   4.686   2.633
 2491SOL    HW2 8373   1.230   4.683   2.489
 2492SOL     OW 8374   4.180   3.074   6.465
 2492SOL    HW1 8375   4.094   3.123   6.458
 2492SOL    HW2 8376   4.247   3.113   6.402
 2493SOL     OW 8377   6.585   2.168   4.171
 2493SOL    HW1 8378   6.585   2.126   4.080
 2493SOL    HW2 8379   6.626   2.106   4.237
 2494SOL     OW 8380   4.872   3.510   1.382
 2494SOL    HW1 8381   4.888   3.472   1.473
 2494SOL    HW2 8382   4.823   3.443   1.326
 2495SOL     OW 8383   6.088   1.440   4.068
 2495SOL    HW1 8384   6.051   1.488   4.147
 2495SOL    HW2 8385   6.139   1.359   4.099
 2496SOL     OW 8386   0.696   6.352   0.604
 2496SOL    HW1 8387   0.601   6.337   0.634
 2496SOL    HW2 8388   0.703   6.443   0.563
 2497SOL     OW 8389   5.521   2.029   6.111
 2497SOL    HW1 8390   5.588   2.094   6.146
 2497SOL    HW2 8391   5.464   2.073   6.042
 2498SOL     OW 8392   1.084   4.096   4.645
 2498SOL    HW1 8393   1.044   4.013   4.608
 2498SOL    HW2 8394   1.117   4.079   4.738
 2499SOL     OW 8395   5.785   0.619   5.628
 2499SOL    HW1 8396   5.823   0.635   5.719
 2499SOL    HW2 8397   5.754   0.524   5.622
 2500SOL     OW 8398   4.719   2.758   6.566
 2500SOL    HW1 8399   4.707   2.775   6.664
 2500SOL    HW2 8400   4.638   2.790   6.517
 2501SOL     OW 8401   6.433   4.536   0.479
 2501SOL    HW1 8402   6.528   4.512   0.501
 2501SOL    HW2 8403   6.394   4.589   0.554
 2502SOL     OW 8404   1.870   6.911   3.106
 2502SOL    HW1 8405   1.845   6.850   3.031
 2502SOL    HW2 8406   1.821   6.883   3.189
 2503SOL     OW 8407   4.582   5.866   4.659
 2503SOL    HW1 8408   4.554   5.931   4.589
 2503SOL    HW2 8409   4.528   5.782   4.651
 2504SOL     OW 8410   1.931   4.289   3.495
 2504SOL    HW1 8411   2.028   4.299   3.471
 2504SOL    HW2 8412   1.898   4.375   3.534
 2505SOL     OW 8413   4.657   5.437   3.682
 2505SOL    HW1 8414   4.645   5.358   3.622
 2505SOL    HW2 8415   4.573   5.454   3.734
 2506SOL     OW 8416   6.941   1.808   0.181
 2506SOL    HW1 8417   0.021   1.805   0.178
 2506SOL    HW2 8418   6.908   1.724   0.225
 2507SOL     OW 8419   6.692   5.677   1.017
 2507SOL    HW1 8420   6.611   5.707   0.966
 2507SOL    HW2 8421   6.759   5.751   1.020
 2508SOL     OW 8422   2.519   2.487   2.314
 2508SOL    HW1 8423   2.466   2.557   2.266
 2508SOL    HW2 8424   2.472   2.462   2.399
 2509SOL     OW 8425   5.298   1.968   3.876
 2509SOL    HW1 8426   5.290   2.004   3.783
 2509SOL    HW2 8427   5.210   1.930   3.905
 2510SOL     OW 8428   3.593   5.876   1.105
 2510SOL    HW1 8429   3.659   5.913   1.169
 2510SOL    HW2 8430   3.536   5.808   1.152
 2511SOL     OW 8431   1.414   7.008   4.274
 2511SOL    HW1 8432   1.427   6.974   4.368
 2511SOL    HW2 8433   1.323   0.027   4.265
 2512SOL     OW 8434   4.590   2.644   4.374
 2512SOL    HW1 8435   4.535   2.585   4.433
 2512SOL    HW2 8436   4.547   2.650   4.284
 2513SOL     OW 8437   0.400   4.388   1.238
 2513SOL    HW1 8438   0.400   4.365   1.141
 2513SOL    HW2 8439   0.475   4.340   1.284
 2514SOL     OW 8440   1.177   1.477   4.195
 2514SOL    HW1 8441   1.123   1.478   4.279
 2514SOL    HW2 8442   1.145   1.549   4.134
 2515SOL     OW 8443   0.688   4.959   0.239
 2515SOL    HW1 8444   0.663   4.862   0.231
 2515SOL    HW2 8445   0.642   4.999   0.318
 2516SOL     OW 8446   4.786   6.608   3.845
 2516SOL    HW1 8447   4.728   6.582   3.922
 2516SOL    HW2 8448   4.794   6.530   3.782
 2517SOL     OW 8449   2.538   4.720   0.453
 2517SOL    HW1 8450   2.473   4.649   0.481
 2517SOL    HW2 8451   2.488   4.795   0.410
 2518SOL     OW 8452   2.473   2.453   6.285
 2518SOL    HW1 8453   2.537   2.471   6.360
 2518SOL    HW2 8454   2.387   2.420   6.323
 2519SOL     OW 8455   5.081   4.244   4.921
 2519SOL    HW1 8456   5.164   4.247   4.866
 2519SOL    HW2 8457   5.026   4.165   4.896
 2520SOL     OW 8458   2.124   4.825   1.845
 2520SOL    HW1 8459   2.200   4.801   1.905
 2520SOL    HW2 8460   2.069   4.744   1.827
 2521SOL     OW 8461   6.119   0.026   5.362
 2521SOL    HW1 8462   6.127   0.119   5.326
 2521SOL    HW2 8463   6.185   6.987   5.317
 2522SOL     OW 8464   1.381   3.141   4.923
 2522SOL    HW1 8465   1.427   3.178   4.842
 2522SOL    HW2 8466   1.430   3.169   5.005
 2523SOL     OW 8467   0.123   3.189   6.903
 2523SOL    HW1 8468   0.131   3.179   6.804
 2523SOL    HW2 8469   0.101   3.100   6.944
 2524SOL     OW 8470   0.987   0.011   5.248
 2524SOL    HW1 8471   1.013   6.950   5.195
 2524SOL    HW2 8472   1.013   0.093   5.197
 2525SOL     OW 8473   1.865   4.471   3.026
 2525SOL    HW1 8474   1.905   4.397   2.972
 2525SOL    HW2 8475   1.810   4.529   2.966
 2526SOL     OW 8476   0.330   2.110   5.461
 2526SOL    HW1 8477   0.372   2.051   5.392
 2526SOL    HW2 8478   0.374   2.093   5.550
 2527SOL     OW 8479   5.950   6.715   3.717
 2527SOL    HW1 8480   5.951   6.691   3.814
 2527SOL    HW2 8481   5.867   6.680   3.674
 2528SOL     OW 8482   5.855   5.505   0.285
 2528SOL    HW1 8483   5.920   5.580   0.294
 2528SOL    HW2 8484   5.793   5.524   0.208
 2529SOL     OW 8485   5.369   3.923   4.778
 2529SOL    HW1 8486   5.303   3.916   4.853
 2529SOL    HW2 8487   5.462   3.914   4.815
 2530SOL     OW 8488   0.957   6.882   3.974
 2530SOL    HW1 8489   0.989   6.977   3.966
 2530SOL    HW2 8490   0.869   6.873   3.927
 2531SOL     OW 8491   4.665   1.473   0.081
 2531SOL    HW1 8492   4.645   1.430   0.169
 2531SOL    HW2 8493   4.741   1.537   0.092
 2532SOL     OW 8494   1.599   4.377   5.672
 2532SOL    HW1 8495   1.553   4.391   5.760
 2532SOL    HW2 8496   1.659   4.297   5.678
 2533SOL     OW 8497   6.045   6.690   5.185
 2533SOL    HW1 8498   6.109   6.688   5.108
 2533SOL    HW2 8499   6.021   6.596   5.210
 2534SOL     OW 8500   6.983   1.734   3.661
 2534SOL    HW1 8501   0.062   1.744   3.658
 2534SOL    HW2 8502   6.939   1.821   3.640
 2535SOL     OW 8503   2.448   1.134   2.661
 2535SOL    HW1 8504   2.516   1.106   2.728
 2535SOL    HW2 8505   2.392   1.056   2.634
 2536SOL     OW 8506   6.583   0.797   3.779
 2536SOL    HW1 8507   6.534   0.769   3.862
 2536SOL    HW2 8508   6.517   0.813   3.706
 2537SOL     OW 8509   3.972   5.134   1.461
 2537SOL    HW1 8510   4.050   5.078   1.433
 2537SOL    HW2 8511   3.974   5.221   1.411
 2538SOL     OW 8512   1.754   4.872   5.214
 2538SOL    HW1 8513   1.714   4.951   5.261
 2538SOL    HW2 8514   1.683   4.827   5.160
 2539SOL     OW 8515   2.792   0.479   5.897
 2539SOL    HW1 8516   2.804   0.380   5.899
 2539SOL    HW2 8517   2.814   0.515   5.807
 2540SOL     OW 8518   5.702   1.980   2.289
 2540SOL    HW1 8519   5.750   2.016   2.369
 2540SOL    HW2 8520   5.751   1.900   2.254
 2541SOL     OW 8521   0.593   6.582   5.423
 2541SOL    HW1 8522   0.604   6.483   5.420
 2541SOL    HW2 8523   0.497   6.604   5.444
 2542SOL     OW 8524   3.811   1.530   4.163
 2542SOL    HW1 8525   3.738   1.548   4.098
 2542SOL    HW2 8526   3.791   1.578   4.249
 2543SOL     OW 8527   0.302   2.540   4.657
 2543SOL    HW1 8528   0.227   2.573   4.714
 2543SOL    HW2 8529   0.278   2.554   4.561
 2544SOL     OW 8530   6.215   5.928   2.667
 2544SOL    HW1 8531   6.161   5.857   2.621
 2544SOL    HW2 8532   6.153   5.995   2.707
 2545SOL     OW 8533   6.340   2.082   0.629
 2545SOL    HW1 8534   6.440   2.074   0.627
 2545SOL    HW2 8535   6.303   2.047   0.543
 2546SOL     OW 8536   6.292   4.241   2.945
 2546SOL    HW1 8537   6.386   4.214   2.924
 2546SOL    HW2 8538   6.292   4.335   2.980
 2547SOL     OW 8539   5.719   3.723   0.724
 2547SOL    HW1 8540   5.814   3.698   0.745
 2547SOL    HW2 8541   5.710   3.823   0.726
 2548SOL     OW 8542   6.801   6.749   5.483
 2548SOL    HW1 8543   6.869   6.676   5.477
 2548SOL    HW2 8544   6.771   6.758   5.578
 2549SOL     OW 8545   2.744   3.001   0.163
 2549SOL    HW1 8546   2.797   2.956   0.235
 2549SOL    HW2 8547   2.661   2.948   0.145
 2550SOL     OW 8548   3.847   5.790   6.361
 2550SOL    HW1 8549   3.889   5.831   6.280
 2550SOL    HW2 8550   3.747   5.796   6.353
 2551SOL     OW 8551   3.407   5.312   0.360
 2551SOL    HW1 8552   3.385   5.405   0.330
 2551SOL    HW2 8553   3.484   5.315   0.424
 2552SOL     OW 8554   2.229   5.643   1.428
 2552SOL    HW1 8555   2.185   5.667   1.342
 2552SOL    HW2 8556   2.189   5.698   1.502
 2553SOL     OW 8557   4.508   1.239   0.019
 2553SOL    HW1 8558   4.476   1.196   6.955
 2553SOL    HW2 8559   4.570   1.314   7.017
 2554SOL     OW 8560   1.412   5.748   1.571
 2554SOL    HW1 8561   1.418   5.721   1.667
 2554SOL    HW2 8562   1.473   5.689   1.517
 2555SOL     OW 8563   5.516   6.976   4.525
 2555SOL    HW1 8564   5.605   0.000   4.517
 2555SOL    HW2 8565   5.461   0.004   4.594
 2556SOL     OW 8566   3.722   0.414   0.150
 2556SOL    HW1 8567   3.798   0.474   0.173
 2556SOL    HW2 8568   3.731   0.383   0.055
 2557SOL     OW 8569   2.779   0.707   6.616
 2557SOL    HW1 8570   2.839   0.740   6.543
 2557SOL    HW2 8571   2.745   0.785   6.669
 2558SOL     OW 8572   4.970   3.493   0.699
 2558SOL    HW1 8573   4.888   3.448   0.735
 2558SOL    HW2 8574   5.000   3.564   0.762
 2559SOL     OW 8575   0.854   4.320   3.846
 2559SOL    HW1 8576   0.923   4.255   3.878
 2559SOL    HW2 8577   0.888   4.413   3.855
 2560SOL     OW 8578   4.768   2.079   3.716
 2560SOL    HW1 8579   4.776   2.092   3.815
 2560SOL    HW2 8580   4.847   2.120   3.670
 2561SOL     OW 8581   3.889   0.083   4.895
 2561SOL    HW1 8582   3.882   0.182   4.902
 2561SOL    HW2 8583   3.881   0.043   4.987
 2562SOL     OW 8584   2.552   6.336   3.863
 2562SOL    HW1 8585   2.532   6.363   3.957
 2562SOL    HW2 8586   2.479   6.277   3.829
 2563SOL     OW 8587   3.555   2.119   6.383
 2563SOL    HW1 8588   3.596   2.148   6.296
 2563SOL    HW2 8589   3.515   2.199   6.428
 2564SOL     OW 8590   1.559   1.689   6.925
 2564SOL    HW1 8591   1.640   1.745   6.908
 2564SOL    HW2 8592   1.477   1.743   6.910
 2565SOL     OW 8593   0.685   1.542   0.673
 2565SOL    HW1 8594   0.785   1.541   0.669
 2565SOL    HW2 8595   0.656   1.548   0.769
 2566SOL     OW 8596   2.469   0.771   0.855
 2566SOL    HW1 8597   2.420   0.771   0.768
 2566SOL    HW2 8598   2.499   0.863   0.877
 2567SOL     OW 8599   2.272   1.141   0.413
 2567SOL    HW1 8600   2.271   1.075   0.488
 2567SOL    HW2 8601   2.181   1.148   0.372
 2568SOL     OW 8602   3.474   6.240   6.994
 2568SOL    HW1 8603   3.453   6.171   0.043
 2568SOL    HW2 8604   3.570   6.267   7.000
 2569SOL     OW 8605   1.685   0.352   0.908
 2569SOL    HW1 8606   1.710   0.331   1.002
 2569SOL    HW2 8607   1.607   0.296   0.881
 2570SOL     OW 8608   6.993   6.354   5.299
 2570SOL    HW1 8609   6.990   6.289   5.375
 2570SOL    HW2 8610   6.917   6.336   5.237
 2571SOL     OW 8611   3.243   3.339   3.982
 2571SOL    HW1 8612   3.314   3.269   3.977
 2571SOL    HW2 8613   3.270   3.409   4.049
 2572SOL     OW 8614   2.118   5.651   2.057
 2572SOL    HW1 8615   2.039   5.609   2.102
 2572SOL    HW2 8616   2.202   5.612   2.094
 2573SOL     OW 8617   6.687   2.165   4.721
 2573SOL    HW1 8618   6.748   2.088   4.701
 2573SOL    HW2 8619   6.608   2.132   4.771
 2574SOL     OW 8620   0.575   3.542   2.069
 2574SOL    HW1 8621   0.638   3.593   2.011
 2574SOL    HW2 8622   0.623   3.465   2.111
 2575SOL     OW 8623   5.580   3.651   6.992
 2575SOL    HW1 8624   5.517   3.730   6.990
 2575SOL    HW2 8625   5.639   3.658   0.052
 2576SOL     OW 8626   2.099   6.679   3.872
 2576SOL    HW1 8627   2.133   6.720   3.787
 2576SOL    HW2 8628   2.096   6.579   3.862
 2577SOL     OW 8629   2.867   6.042   1.586
 2577SOL    HW1 8630   2.888   5.946   1.569
 2577SOL    HW2 8631   2.819   6.050   1.674
 2578SOL     OW 8632   4.851   1.805   3.899
 2578SOL    HW1 8633   4.794   1.735   3.943
 2578SOL    HW2 8634   4.827   1.895   3.936
 2579SOL     OW 8635   6.987   1.645   6.020
 2579SOL    HW1 8636   0.023   1.663   6.101
 2579SOL    HW2 8637   6.928   1.723   6.001
 2580SOL     OW 8638   1.311   2.465   6.236
 2580SOL    HW1 8639   1.408   2.471   6.215
 2580SOL    HW2 8640   1.298   2.461   6.335
 2581SOL     OW 8641   6.373   6.814   4.301
 2581SOL    HW1 8642   6.357   6.726   4.346
 2581SOL    HW2 8643   6.468   6.818   4.270
 2582SOL     OW 8644   0.739   5.523   2.930
 2582SOL    HW1 8645   0.800   5.593   2.965
 2582SOL    HW2 8646   0.644   5.554   2.938
 2583SOL     OW 8647   2.059   0.988   0.072
 2583SOL    HW1 8648   2.000   1.047   0.128
 2583SOL    HW2 8649   2.033   0.893   0.087
 2584SOL     OW 8650   4.989   6.849   1.869
 2584SOL    HW1 8651   5.009   6.779   1.800
 2584SOL    HW2 8652   5.057   6.922   1.862
 2585SOL     OW 8653   3.856   1.434   1.247
 2585SOL    HW1 8654   3.893   1.425   1.340
 2585SOL    HW2 8655   3.924   1.403   1.181
 2586SOL     OW 8656   6.558   2.700   4.597
 2586SOL    HW1 8657   6.643   2.732   4.556
 2586SOL    HW2 8658   6.571   2.609   4.635
 2587SOL     OW 8659   6.206   6.856   2.803
 2587SOL    HW1 8660   6.253   6.896   2.724
 2587SOL    HW2 8661   6.125   6.910   2.825
 2588SOL     OW 8662   5.069   0.793   1.676
 2588SOL    HW1 8663   5.023   0.710   1.644
 2588SOL    HW2 8664   5.032   0.872   1.627
 2589SOL     OW 8665   5.990   6.482   0.577
 2589SOL    HW1 8666   6.052   6.440   0.510
 2589SOL    HW2 8667   6.026   6.466   0.669
 2590SOL     OW 8668   4.044   6.176   2.751
 2590SOL    HW1 8669   4.128   6.161   2.803
 2590SOL    HW2 8670   4.063   6.236   2.673
 2591SOL     OW 8671   5.340   0.533   1.752
 2591SOL    HW1 8672   5.303   0.515   1.661
 2591SOL    HW2 8673   5.341   0.631   1.769
 2592SOL     OW 8674   3.208   5.414   1.364
 2592SOL    HW1 8675   3.202   5.510   1.336
 2592SOL    HW2 8676   3.190   5.407   1.462
 2593SOL     OW 8677   3.037   6.732   2.352
 2593SOL    HW1 8678   3.078   6.649   2.388
 2593SOL    HW2 8679   2.981   6.709   2.272
 2594SOL     OW 8680   0.960   6.031   6.478
 2594SOL    HW1 8681   0.974   6.053   6.575
 2594SOL    HW2 8682   1.027   6.082   6.423
 2595SOL     OW 8683   6.220   3.421   4.075
 2595SOL    HW1 8684   6.282   3.364   4.130
 2595SOL    HW2 8685   6.241   3.409   3.978
 2596SOL     OW 8686   4.049   2.068   2.103
 2596SOL    HW1 8687   3.973   2.045   2.042
 2596SOL    HW2 8688   4.108   2.136   2.059
 2597SOL     OW 8689   2.124   2.585   6.758
 2597SOL    HW1 8690   2.145   2.606   6.662
 2597SOL    HW2 8691   2.029   2.607   6.777
 2598SOL     OW 8692   6.358   2.733   2.949
 2598SOL    HW1 8693   6.362   2.769   3.042
 2598SOL    HW2 8694   6.302   2.650   2.948
 2599SOL     OW 8695   4.546   4.641   6.695
 2599SOL    HW1 8696   4.452   4.610   6.713
 2599SOL    HW2 8697   4.544   4.737   6.667
 2600SOL     OW 8698   6.637   3.617   3.466
 2600SOL    HW1 8699   6.605   3.530   3.428
 2600SOL    HW2 8700   6.731   3.608   3.497
 2601SOL     OW 8701   3.710   3.036   5.653
 2601SOL    HW1 8702   3.786   2.978   5.681
 2601SOL    HW2 8703   3.684   3.014   5.559
 2602SOL     OW 8704   6.009   5.682   4.916
 2602SOL    HW1 8705   6.058   5.661   4.831
 2602SOL    HW2 8706   5.937   5.749   4.897
 2603SOL     OW 8707   2.831   2.912   0.432
 2603SOL    HW1 8708   2.784   2.997   0.454
 2603SOL    HW2 8709   2.774   2.835   0.459
 2604SOL     OW 8710   5.975   0.911   1.954
 2604SOL    HW1 8711   5.979   0.895   1.856
 2604SOL    HW2 8712   5.965   0.824   2.002
 2605SOL     OW 8713   4.805   4.381   4.154
 2605SOL    HW1 8714   4.856   4.419   4.077
 2605SOL    HW2 8715   4.714   4.423   4.157
 2606SOL     OW 8716   6.977   4.577   1.955
 2606SOL    HW1 8717   0.000   4.493   1.923
 2606SOL    HW2 8718   6.880   4.577   1.927
 2607SOL     OW 8719   0.732   1.659   4.572
 2607SOL    HW1 8720   0.664   1.626   4.637
 2607SOL    HW2 8721   0.708   1.628   4.480
 2608SOL     OW 8722   4.986   0.686   0.800
 2608SOL    HW1 8723   5.061   0.727   0.852
 2608SOL    HW2 8724   5.012   0.679   0.704
 2609SOL     OW 8725   0.338   2.120   4.550
 2609SOL    HW1 8726   0.327   2.141   4.647
 2609SOL    HW2 8727   0.377   2.029   4.540
 2610SOL     OW 8728   5.904   5.524   4.159
 2610SOL    HW1 8729   5.950   5.436   4.144
 2610SOL    HW2 8730   5.818   5.508   4.208
 2611SOL     OW 8731   3.465   6.182   1.532
 2611SOL    HW1 8732   3.465   6.260   1.469
 2611SOL    HW2 8733   3.380   6.130   1.521
 2612SOL     OW 8734   6.106   6.540   4.060
 2612SOL    HW1 8735   6.150   6.488   3.987
 2612SOL    HW2 8736   6.046   6.480   4.112
 2613SOL     OW 8737   4.222   0.501   1.542
 2613SOL    HW1 8738   4.260   0.418   1.503
 2613SOL    HW2 8739   4.123   0.503   1.526
 2614SOL     OW 8740   6.935   6.460   6.463
 2614SOL    HW1 8741   6.840   6.449   6.492
 2614SOL    HW2 8742   6.996   6.418   6.530
 2615SOL     OW 8743   5.585   5.270   2.155
 2615SOL    HW1 8744   5.632   5.207   2.217
 2615SOL    HW2 8745   5.487   5.269   2.173
 2616SOL     OW 8746   4.014   3.078   2.550
 2616SOL    HW1 8747   3.929   3.082   2.497
 2616SOL    HW2 8748   4.092   3.073   2.488
 2617SOL     OW 8749   3.687   0.161   1.727
 2617SOL    HW1 8750   3.743   0.185   1.806
 2617SOL    HW2 8751   3.622   0.090   1.752
 2618SOL     OW 8752   0.986   0.621   0.899
 2618SOL    HW1 8753   0.893   0.655   0.885
 2618SOL    HW2 8754   1.017   0.646   0.991
 2619SOL     OW 8755   5.078   1.745   1.749
 2619SOL    HW1 8756   4.995   1.764   1.696
 2619SOL    HW2 8757   5.148   1.813   1.728
 2620SOL     OW 8758   1.585   4.210   3.925
 2620SOL    HW1 8759   1.555   4.237   4.016
 2620SOL    HW2 8760   1.622   4.290   3.877
 2621SOL     OW 8761   1.069   4.517   4.166
 2621SOL    HW1 8762   0.971   4.529   4.152
 2621SOL    HW2 8763   1.093   4.420   4.155
 2622SOL     OW 8764   3.129   3.332   6.117
 2622SOL    HW1 8765   3.085   3.391   6.184
 2622SOL    HW2 8766   3.070   3.323   6.037
 2623SOL     OW 8767   2.963   1.354   5.653
 2623SOL    HW1 8768   2.877   1.388   5.613
 2623SOL    HW2 8769   2.965   1.254   5.647
 2624SOL     OW 8770   6.469   2.428   4.167
 2624SOL    HW1 8771   6.387   2.404   4.115
 2624SOL    HW2 8772   6.527   2.348   4.176
 2625SOL     OW 8773   4.400   0.818   5.655
 2625SOL    HW1 8774   4.353   0.906   5.649
 2625SOL    HW2 8775   4.368   0.757   5.583
 2626SOL     OW 8776   2.067   6.495   2.543
 2626SOL    HW1 8777   2.114   6.522   2.627
 2626SOL    HW2 8778   2.008   6.570   2.512
 2627SOL     OW 8779   6.910   0.062   4.398
 2627SOL    HW1 8780   6.990   0.002   4.401
 2627SOL    HW2 8781   6.937   0.154   4.426
 2628SOL     OW 8782   3.940   5.526   5.723
 2628SOL    HW1 8783   3.976   5.565   5.808
 2628SOL    HW2 8784   3.849   5.487   5.740
 2629SOL     OW 8785   3.469   4.324   1.653
 2629SOL    HW1 8786   3.447   4.328   1.556
 2629SOL    HW2 8787   3.568   4.315   1.664
 2630SOL     OW 8788   2.716   2.250   2.292
 2630SOL    HW1 8789   2.792   2.264   2.228
 2630SOL    HW2 8790   2.646   2.319   2.275
 2631SOL     OW 8791   4.617   6.403   4.412
 2631SOL    HW1 8792   4.577   6.352   4.337
 2631SOL    HW2 8793   4.622   6.345   4.494
 2632SOL     OW 8794   5.044   1.783   0.542
 2632SOL    HW1 8795   5.052   1.752   0.447
 2632SOL    HW2 8796   4.952   1.816   0.559
 2633SOL     OW 8797   6.415   2.278   6.511
 2633SOL    HW1 8798   6.440   2.208   6.443
 2633SOL    HW2 8799   6.443   2.247   6.602
 2634SOL     OW 8800   2.439   5.467   1.355
 2634SOL    HW1 8801   2.505   5.542   1.359
 2634SOL    HW2 8802   2.347   5.505   1.342
 2635SOL     OW 8803   5.052   4.539   3.762
 2635SOL    HW1 8804   4.997   4.487   3.827
 2635SOL    HW2 8805   5.046   4.636   3.783
 2636SOL     OW 8806   6.018   0.657   5.253
 2636SOL    HW1 8807   6.041   0.677   5.349
 2636SOL    HW2 8808   5.979   0.565   5.247
 2637SOL     OW 8809   4.924   6.424   2.416
 2637SOL    HW1 8810   4.870   6.501   2.381
 2637SOL    HW2 8811   5.021   6.447   2.411
 2638SOL     OW 8812   5.732   5.887   0.902
 2638SOL    HW1 8813   5.653   5.889   0.963
 2638SOL    HW2 8814   5.706   5.920   0.812
 2639SOL     OW 8815   6.585   6.247   0.487
 2639SOL    HW1 8816   6.644   6.227   0.565
 2639SOL    HW2 8817   6.605   6.183   0.412
 2640SOL     OW 8818   6.608   7.016   6.127
 2640SOL    HW1 8819   6.606   6.963   6.212
 2640SOL    HW2 8820   6.701   7.019   6.092
 2641SOL     OW 8821   5.941   4.908   0.100
 2641SOL    HW1 8822   5.911   4.869   0.188
 2641SOL    HW2 8823   5.894   4.862   0.025
 2642SOL     OW 8824   6.178   7.020   3.854
 2642SOL    HW1 8825   6.187   6.941   3.915
 2642SOL    HW2 8826   6.232   7.004   3.772
 2643SOL     OW 8827   0.862   0.455   2.572
 2643SOL    HW1 8828   0.852   0.551   2.545
 2643SOL    HW2 8829   0.772   0.413   2.578
 2644SOL     OW 8830   0.283   4.843   6.176
 2644SOL    HW1 8831   0.285   4.812   6.271
 2644SOL    HW2 8832   0.226   4.780   6.122
 2645SOL     OW 8833   5.347   5.711   5.537
 2645SOL    HW1 8834   5.382   5.640   5.475
 2645SOL    HW2 8835   5.288   5.773   5.486
 2646SOL     OW 8836   6.341   6.407   6.933
 2646SOL    HW1 8837   6.403   6.390   7.010
 2646SOL    HW2 8838   6.285   6.487   6.952
 2647SOL     OW 8839   3.747   1.347   0.751
 2647SOL    HW1 8840   3.711   1.435   0.780
 2647SOL    HW2 8841   3.775   1.352   0.655
 2648SOL     OW 8842   4.106   0.958   2.386
 2648SOL    HW1 8843   4.091   1.031   2.319
 2648SOL    HW2 8844   4.169   0.891   2.349
 2649SOL     OW 8845   3.603   1.856   5.660
 2649SOL    HW1 8846   3.524   1.914   5.644
 2649SOL    HW2 8847   3.575   1.760   5.657
 2650SOL     OW 8848   0.321   6.184   2.097
 2650SOL    HW1 8849   0.357   6.237   2.020
 2650SOL    HW2 8850   0.386   6.187   2.173
 2651SOL     OW 8851   0.313   0.821   3.340
 2651SOL    HW1 8852   0.226   0.774   3.356
 2651SOL    HW2 8853   0.308   0.870   3.253
 2652SOL     OW 8854   3.115   3.092   2.425
 2652SOL    HW1 8855   3.056   3.153   2.372
 2652SOL    HW2 8856   3.204   3.134   2.437
 2653SOL     OW 8857   6.545   6.193   6.293
 2653SOL    HW1 8858   6.557   6.121   6.361
 2653SOL    HW2 8859   6.541   6.153   6.202
 2654SOL     OW 8860   5.892   2.959   6.089
 2654SOL    HW1 8861   5.814   2.963   6.152
 2654SOL    HW2 8862   5.921   2.865   6.077
 2655SOL     OW 8863   4.963   6.322   5.176
 2655SOL    HW1 8864   5.028   6.266   5.124
 2655SOL    HW2 8865   4.979   6.419   5.156
 2656SOL     OW 8866   5.652   2.954   4.099
 2656SOL    HW1 8867   5.591   3.006   4.039
 2656SOL    HW2 8868   5.670   3.008   4.182
 2657SOL     OW 8869   2.061   2.626   6.138
 2657SOL    HW1 8870   2.069   2.653   6.235
 2657SOL    HW2 8871   2.019   2.701   6.087
 2658SOL     OW 8872   5.910   4.318   5.799
 2658SOL    HW1 8873   5.842   4.303   5.727
 2658SOL    HW2 8874   5.863   4.321   5.887
 2659SOL     OW 8875   6.780   3.208   4.035
 2659SOL    HW1 8876   6.736   3.205   3.945
 2659SOL    HW2 8877   6.879   3.220   4.023
 2660SOL     OW 8878   6.848   2.329   3.123
 2660SOL    HW1 8879   6.882   2.362   3.035
 2660SOL    HW2 8880   6.888   2.384   3.197
 2661SOL     OW 8881   4.386   5.802   0.557
 2661SOL    HW1 8882   4.330   5.720   0.567
 2661SOL    HW2 8883   4.350   5.858   0.482
 2662SOL     OW 8884   2.985   6.750   3.819
 2662SOL    HW1 8885   3.024   6.746   3.911
 2662SOL    HW2 8886   3.001   6.663   3.772
 2663SOL     OW 8887   0.979   4.256   2.607
 2663SOL    HW1 8888   0.948   4.193   2.536
 2663SOL    HW2 8889   0.902   4.284   2.664
 2664SOL     OW 8890   4.136   3.766   2.001
 2664SOL    HW1 8891   4.137   3.702   2.078
 2664SOL    HW2 8892   4.168   3.856   2.033
 2665SOL     OW 8893   3.846   0.914   4.711
 2665SOL    HW1 8894   3.789   0.985   4.670
 2665SOL    HW2 8895   3.866   0.938   4.806
 2666SOL     OW 8896   5.339   5.744   1.450
 2666SOL    HW1 8897   5.332   5.645   1.437
 2666SOL    HW2 8898   5.255   5.788   1.419
 2667SOL     OW 8899   1.510   5.087   3.871
 2667SOL    HW1 8900   1.549   5.005   3.828
 2667SOL    HW2 8901   1.411   5.083   3.866
 2668SOL     OW 8902   0.165   2.970   5.704
 2668SOL    HW1 8903   0.152   3.069   5.701
 2668SOL    HW2 8904   0.248   2.949   5.756
 2669SOL     OW 8905   4.455   4.712   5.331
 2669SOL    HW1 8906   4.551   4.740   5.334
 2669SOL    HW2 8907   4.427   4.684   5.423
 2670SOL     OW 8908   1.808   0.936   6.767
 2670SOL    HW1 8909   1.783   1.019   6.717
 2670SOL    HW2 8910   1.824   0.862   6.702
 2671SOL     OW 8911   2.545   3.374   6.080
 2671SOL    HW1 8912   2.515   3.456   6.129
 2671SOL    HW2 8913   2.611   3.324   6.136
 2672SOL     OW 8914   0.803   4.903   0.747
 2672SOL    HW1 8915   0.862   4.884   0.826
 2672SOL    HW2 8916   0.738   4.975   0.770
 2673SOL     OW 8917   3.973   1.724   3.178
 2673SOL    HW1 8918   4.043   1.693   3.114
 2673SOL    HW2 8919   3.984   1.822   3.195
 2674SOL     OW 8920   5.193   5.360   5.551
 2674SOL    HW1 8921   5.129   5.415   5.497
 2674SOL    HW2 8922   5.284   5.400   5.545
 2675SOL     OW 8923   0.489   4.720   5.642
 2675SOL    HW1 8924   0.531   4.634   5.612
 2675SOL    HW2 8925   0.546   4.797   5.612
 2676SOL     OW 8926   4.296   0.961   2.128
 2676SOL    HW1 8927   4.362   0.901   2.171
 2676SOL    HW2 8928   4.278   0.930   2.034
 2677SOL     OW 8929   2.479   5.146   2.371
 2677SOL    HW1 8930   2.555   5.091   2.336
 2677SOL    HW2 8931   2.512   5.239   2.391
 2678SOL     OW 8932   0.890   4.993   5.721
 2678SOL    HW1 8933   0.945   4.910   5.731
 2678SOL    HW2 8934   0.866   5.028   5.811
 2679SOL     OW 8935   2.792   4.287   1.302
 2679SOL    HW1 8936   2.850   4.226   1.356
 2679SOL    HW2 8937   2.767   4.367   1.356
 2680SOL     OW 8938   0.970   2.297   1.544
 2680SOL    HW1 8939   0.901   2.277   1.614
 2680SOL    HW2 8940   0.958   2.391   1.512
 2681SOL     OW 8941   1.485   2.018   2.659
 2681SOL    HW1 8942   1.478   2.099   2.602
 2681SOL    HW2 8943   1.477   2.043   2.755
 2682SOL     OW 8944   5.802   1.832   3.444
 2682SOL    HW1 8945   5.767   1.921   3.415
 2682SOL    HW2 8946   5.845   1.841   3.534
 2683SOL     OW 8947   0.743   6.631   1.378
 2683SOL    HW1 8948   0.747   6.686   1.462
 2683SOL    HW2 8949   0.733   6.535   1.402
 2684SOL     OW 8950   2.379   6.664   2.786
 2684SOL    HW1 8951   2.362   6.576   2.831
 2684SOL    HW2 8952   2.356   6.656   2.689
 2685SOL     OW 8953   5.486   5.748   5.224
 2685SOL    HW1 8954   5.454   5.841   5.204
 2685SOL    HW2 8955   5.574   5.753   5.272
 2686SOL     OW 8956   2.122   2.774   4.223
 2686SOL    HW1 8957   2.121   2.826   4.309
 2686SOL    HW2 8958   2.061   2.695   4.231
 2687SOL     OW 8959   4.575   5.615   2.570
 2687SOL    HW1 8960   4.664   5.648   2.539
 2687SOL    HW2 8961   4.569   5.516   2.554
 2688SOL     OW 8962   3.920   4.572   6.400
 2688SOL    HW1 8963   3.992   4.553   6.333
 2688SOL    HW2 8964   3.915   4.498   6.466
 2689SOL     OW 8965   6.918   3.567   4.039
 2689SOL    HW1 8966   6.973   3.484   4.029
 2689SOL    HW2 8967   6.934   3.627   3.960
 2690SOL     OW 8968   3.734   3.363   3.341
 2690SOL    HW1 8969   3.831   3.383   3.356
 2690SOL    HW2 8970   3.725   3.285   3.280
 2691SOL     OW 8971   1.680   5.911   1.812
 2691SOL    HW1 8972   1.766   5.916   1.761
 2691SOL    HW2 8973   1.671   5.990   1.872
 2692SOL     OW 8974   0.493   6.799   3.501
 2692SOL    HW1 8975   0.435   6.742   3.443
 2692SOL    HW2 8976   0.469   6.895   3.489
 2693SOL     OW 8977   1.659   4.052   2.745
 2693SOL    HW1 8978   1.724   4.079   2.816
 2693SOL    HW2 8979   1.679   3.958   2.717
 2694SOL     OW 8980   1.931   0.162   3.202
 2694SOL    HW1 8981   1.940   0.067   3.173
 2694SOL    HW2 8982   1.869   0.168   3.280
 2695SOL     OW 8983   4.180   1.957   3.590
 2695SOL    HW1 8984   4.208   1.875   3.640
 2695SOL    HW2 8985   4.216   1.952   3.497
 2696SOL     OW 8986   3.721   3.710   5.621
 2696SOL    HW1 8987   3.800   3.771   5.623
 2696SOL    HW2 8988   3.739   3.634   5.558
 2697SOL     OW 8989   2.607   1.749   4.377
 2697SOL    HW1 8990   2.631   1.696   4.296
 2697SOL    HW2 8991   2.525   1.802   4.359
 2698SOL     OW 8992   2.625   3.374   0.365
 2698SOL    HW1 8993   2.638   3.369   0.266
 2698SOL    HW2 8994   2.601   3.467   0.391
 2699SOL     OW 8995   3.807   5.830   1.847
 2699SOL    HW1 8996   3.888   5.843   1.904
 2699SOL    HW2 8997   3.789   5.913   1.795
 2700SOL     OW 8998   2.114   3.659   2.942
 2700SOL    HW1 8999   2.133   3.606   2.859
 2700SOL    HW2 9000   2.016   3.655   2.963
 2701SOL     OW 9001   3.817   6.855   6.339
 2701SOL    HW1 9002   3.910   6.833   6.369
 2701SOL    HW2 9003   3.821   6.925   6.268
 2702SOL     OW 9004   7.000   0.414   3.370
 2702SOL    HW1 9005   0.003   0.363   3.287
 2702SOL    HW2 9006   6.928   0.367   3.419
 2703SOL     OW 9007   1.747   1.468   2.200
 2703SOL    HW1 9008   1.731   1.567   2.207
 2703SOL    HW2 9009   1.690   1.421   2.267
 2704SOL     OW 9010   2.389   5.027   1.202
 2704SOL    HW1 9011   2.371   4.961   1.128
 2704SOL    HW2 9012   2.334   5.001   1.282
 2705SOL     OW 9013   6.787   4.955   3.049
 2705SOL    HW1 9014   6.862   4.958   3.116
 2705SOL    HW2 9015   6.816   4.999   2.964
 2706SOL     OW 9016   0.069   1.539   2.242
 2706SOL    HW1 9017   0.103   1.611   2.303
 2706SOL    HW2 9018   0.073   1.451   2.288
 2707SOL     OW 9019   2.376   1.406   5.834
 2707SOL    HW1 9020   2.350   1.321   5.881
 2707SOL    HW2 9021   2.436   1.460   5.893
 2708SOL     OW 9022   1.876   2.584   1.101
 2708SOL    HW1 9023   1.902   2.563   1.006
 2708SOL    HW2 9024   1.827   2.506   1.140
 2709SOL     OW 9025   4.694   6.382   0.382
 2709SOL    HW1 9026   4.762   6.380   0.455
 2709SOL    HW2 9027   4.663   6.477   0.369
 2710SOL     OW 9028   5.921   3.684   2.810
 2710SOL    HW1 9029   5.867   3.745   2.752
 2710SOL    HW2 9030   6.010   3.726   2.829
 2711SOL     OW 9031   1.357   0.354   1.923
 2711SOL    HW1 9032   1.277   0.339   1.981
 2711SOL    HW2 9033   1.340   0.316   1.832
 2712SOL     OW 9034   2.728   3.969   0.342
 2712SOL    HW1 9035   2.808   4.022   0.369
 2712SOL    HW2 9036   2.728   3.881   0.390
 2713SOL     OW 9037   2.155   2.933   5.121
 2713SOL    HW1 9038   2.252   2.936   5.100
 2713SOL    HW2 9039   2.102   2.966   5.043
 2714SOL     OW 9040   5.089   6.928   5.422
 2714SOL    HW1 9041   5.184   6.900   5.405
 2714SOL    HW2 9042   5.032   6.847   5.433
 2715SOL     OW 9043   6.422   1.122   6.510
 2715SOL    HW1 9044   6.376   1.060   6.573
 2715SOL    HW2 9045   6.464   1.197   6.561
 2716SOL     OW 9046   0.391   0.074   2.463
 2716SOL    HW1 9047   0.337   0.075   2.379
 2716SOL    HW2 9048   0.483   0.108   2.444
 2717SOL     OW 9049   0.727   0.967   2.639
 2717SOL    HW1 9050   0.767   1.056   2.658
 2717SOL    HW2 9051   0.793   0.895   2.661
 2718SOL     OW 9052   1.562   4.824   3.760
 2718SOL    HW1 9053   1.636   4.764   3.793
 2718SOL    HW2 9054   1.492   4.769   3.715
 2719SOL     OW 9055   3.867   5.379   1.611
 2719SOL    HW1 9056   3.917   5.458   1.647
 2719SOL    HW2 9057   3.879   5.375   1.512
 2720SOL     OW 9058   1.361   5.757   3.492
 2720SOL    HW1 9059   1.386   5.829   3.558
 2720SOL    HW2 9060   1.364   5.795   3.400
 2721SOL     OW 9061   4.033   7.015   4.337
 2721SOL    HW1 9062   4.030   0.093   4.356
 2721SOL    HW2 9063   3.963   6.968   4.391
 2722SOL     OW 9064   1.538   5.693   1.853
 2722SOL    HW1 9065   1.494   5.716   1.940
 2722SOL    HW2 9066   1.594   5.771   1.823
 2723SOL     OW 9067   1.398   1.331   5.713
 2723SOL    HW1 9068   1.465   1.401   5.691
 2723SOL    HW2 9069   1.442   1.241   5.713
 2724SOL     OW 9070   3.760   5.148   6.269
 2724SOL    HW1 9071   3.797   5.215   6.334
 2724SOL    HW2 9072   3.798   5.166   6.178
 2725SOL     OW 9073   3.327   4.932   3.934
 2725SOL    HW1 9074   3.293   4.927   4.028
 2725SOL    HW2 9075   3.258   4.975   3.876
 2726SOL     OW 9076   4.849   5.436   1.730
 2726SOL    HW1 9077   4.878   5.419   1.636
 2726SOL    HW2 9078   4.885   5.524   1.761
 2727SOL     OW 9079   2.452   5.553   3.076
 2727SOL    HW1 9080   2.385   5.573   3.005
 2727SOL    HW2 9081   2.415   5.484   3.138
 2728SOL     OW 9082   3.618   6.979   5.770
 2728SOL    HW1 9083   3.596   0.049   5.808
 2728SOL    HW2 9084   3.641   6.989   5.673
 2729SOL     OW 9085   5.714   5.244   2.878
 2729SOL    HW1 9086   5.696   5.297   2.795
 2729SOL    HW2 9087   5.804   5.267   2.914
 2730SOL     OW 9088   2.045   5.422   1.376
 2730SOL    HW1 9089   2.019   5.332   1.412
 2730SOL    HW2 9090   2.113   5.463   1.436
 2731SOL     OW 9091   3.030   3.653   1.494
 2731SOL    HW1 9092   2.960   3.659   1.564
 2731SOL    HW2 9093   3.111   3.704   1.523
 2732SOL     OW 9094   6.198   2.132   2.469
 2732SOL    HW1 9095   6.152   2.205   2.520
 2732SOL    HW2 9096   6.151   2.045   2.485
 2733SOL     OW 9097   1.842   0.210   5.791
 2733SOL    HW1 9098   1.748   0.222   5.821
 2733SOL    HW2 9099   1.845   0.147   5.713
 2734SOL     OW 9100   1.835   5.632   3.964
 2734SOL    HW1 9101   1.886   5.551   3.937
 2734SOL    HW2 9102   1.746   5.632   3.920
 2735SOL     OW 9103   1.828   5.035   2.357
 2735SOL    HW1 9104   1.814   4.959   2.421
 2735SOL    HW2 9105   1.882   5.004   2.279
 2736SOL     OW 9106   4.387   0.349   5.622
 2736SOL    HW1 9107   4.364   0.347   5.719
 2736SOL    HW2 9108   4.330   0.415   5.575
 2737SOL     OW 9109   4.805   3.657   6.339
 2737SOL    HW1 9110   4.767   3.629   6.251
 2737SOL    HW2 9111   4.899   3.622   6.348
 2738SOL     OW 9112   5.544   5.112   4.071
 2738SOL    HW1 9113   5.530   5.014   4.085
 2738SOL    HW2 9114   5.588   5.126   3.982
 2739SOL     OW 9115   6.195   2.634   0.618
 2739SOL    HW1 9116   6.175   2.725   0.653
 2739SOL    HW2 9117   6.139   2.567   0.666
 2740SOL     OW 9118   6.291   2.346   3.349
 2740SOL    HW1 9119   6.334   2.313   3.264
 2740SOL    HW2 9120   6.239   2.271   3.391
 2741SOL     OW 9121   0.727   2.395   5.729
 2741SOL    HW1 9122   0.810   2.343   5.708
 2741SOL    HW2 9123   0.752   2.490   5.751
 2742SOL     OW 9124   1.998   6.514   6.515
 2742SOL    HW1 9125   1.973   6.595   6.462
 2742SOL    HW2 9126   2.095   6.517   6.538
 2743SOL     OW 9127   5.270   4.880   0.767
 2743SOL    HW1 9128   5.268   4.780   0.764
 2743SOL    HW2 9129   5.364   4.910   0.786
 2744SOL     OW 9130   3.890   1.367   6.551
 2744SOL    HW1 9131   3.892   1.376   6.452
 2744SOL    HW2 9132   3.795   1.371   6.583
 2745SOL     OW 9133   2.277   5.716   0.465
 2745SOL    HW1 9134   2.186   5.678   0.483
 2745SOL    HW2 9135   2.343   5.641   0.461
 2746SOL     OW 9136   1.495   2.259   6.111
 2746SOL    HW1 9137   1.401   2.224   6.112
 2746SOL    HW2 9138   1.551   2.208   6.176
 2747SOL     OW 9139   4.223   5.749   4.023
 2747SOL    HW1 9140   4.199   5.652   4.026
 2747SOL    HW2 9141   4.167   5.800   4.088
 2748SOL     OW 9142   3.630   1.010   3.711
 2748SOL    HW1 9143   3.605   1.028   3.615
 2748SOL    HW2 9144   3.725   0.978   3.715
 2749SOL     OW 9145   4.522   5.498   4.259
 2749SOL    HW1 9146   4.546   5.457   4.171
 2749SOL    HW2 9147   4.432   5.464   4.288
 2750SOL     OW 9148   0.629   5.806   2.359
 2750SOL    HW1 9149   0.547   5.749   2.367
 2750SOL    HW2 9150   0.622   5.882   2.424
 2751SOL     OW 9151   1.398   0.289   6.481
 2751SOL    HW1 9152   1.397   0.387   6.503
 2751SOL    HW2 9153   1.466   0.242   6.538
 2752SOL     OW 9154   5.636   6.319   5.605
 2752SOL    HW1 9155   5.713   6.286   5.659
 2752SOL    HW2 9156   5.554   6.265   5.627
 2753SOL     OW 9157   2.335   5.611   5.434
 2753SOL    HW1 9158   2.324   5.512   5.435
 2753SOL    HW2 9159   2.324   5.647   5.527
 2754SOL     OW 9160   1.288   6.209   3.970
 2754SOL    HW1 9161   1.280   6.238   4.065
 2754SOL    HW2 9162   1.331   6.119   3.966
 2755SOL     OW 9163   3.697   6.106   2.562
 2755SOL    HW1 9164   3.750   6.095   2.478
 2755SOL    HW2 9165   3.756   6.089   2.641
 2756SOL     OW 9166   0.810   2.641   5.821
 2756SOL    HW1 9167   0.783   2.691   5.903
 2756SOL    HW2 9168   0.890   2.584   5.842
 2757SOL     OW 9169   4.236   3.473   0.020
 2757SOL    HW1 9170   4.207   3.562   7.004
 2757SOL    HW2 9171   4.335   3.464   0.010
 2758SOL     OW 9172   6.445   6.370   2.245
 2758SOL    HW1 9173   6.361   6.317   2.233
 2758SOL    HW2 9174   6.517   6.333   2.186
 2759SOL     OW 9175   3.265   3.978   6.070
 2759SOL    HW1 9176   3.291   3.882   6.053
 2759SOL    HW2 9177   3.238   4.020   5.984
 2760SOL     OW 9178   5.306   6.461   2.766
 2760SOL    HW1 9179   5.218   6.418   2.745
 2760SOL    HW2 9180   5.350   6.489   2.681
 2761SOL     OW 9181   0.915   2.726   3.723
 2761SOL    HW1 9182   0.902   2.803   3.786
 2761SOL    HW2 9183   0.880   2.751   3.633
 2762SOL     OW 9184   2.563   2.281   0.630
 2762SOL    HW1 9185   2.552   2.288   0.729
 2762SOL    HW2 9186   2.605   2.193   0.608
 2763SOL     OW 9187   6.138   2.043   4.742
 2763SOL    HW1 9188   6.208   2.028   4.812
 2763SOL    HW2 9189   6.137   1.967   4.678
 2764SOL     OW 9190   0.736   3.352   2.185
 2764SOL    HW1 9191   0.779   3.271   2.144
 2764SOL    HW2 9192   0.804   3.400   2.241
 2765SOL     OW 9193   6.234   6.881   0.027
 2765SOL    HW1 9194   6.197   6.971   0.003
 2765SOL    HW2 9195   6.330   6.876   7.020
 2766SOL     OW 9196   4.869   0.578   6.807
 2766SOL    HW1 9197   4.821   0.506   6.858
 2766SOL    HW2 9198   4.803   0.646   6.776
 2767SOL     OW 9199   6.870   5.536   6.565
 2767SOL    HW1 9200   6.932   5.598   6.517
 2767SOL    HW2 9201   6.785   5.584   6.586
 2768SOL     OW 9202   3.899   6.933   1.204
 2768SOL    HW1 9203   3.960   7.012   1.205
 2768SOL    HW2 9204   3.871   6.914   1.110
 2769SOL     OW 9205   0.751   4.520   5.850
 2769SOL    HW1 9206   0.739   4.518   5.751
 2769SOL    HW2 9207   0.770   4.613   5.880
 2770SOL     OW 9208   2.894   6.117   0.486
 2770SOL    HW1 9209   2.910   6.216   0.486
 2770SOL    HW2 9210   2.833   6.093   0.561
 2771SOL     OW 9211   4.509   6.767   5.112
 2771SOL    HW1 9212   4.536   6.725   5.198
 2771SOL    HW2 9213   4.429   6.825   5.126
 2772SOL     OW 9214   4.746   0.398   3.445
 2772SOL    HW1 9215   4.714   0.329   3.380
 2772SOL    HW2 9216   4.796   0.470   3.396
 2773SOL     OW 9217   5.725   2.724   5.078
 2773SOL    HW1 9218   5.818   2.704   5.046
 2773SOL    HW2 9219   5.675   2.638   5.092
 2774SOL     OW 9220   6.236   1.914   4.086
 2774SOL    HW1 9221   6.224   2.008   4.117
 2774SOL    HW2 9222   6.290   1.863   4.153
 2775SOL     OW 9223   0.494   3.343   4.210
 2775SOL    HW1 9224   0.520   3.252   4.243
 2775SOL    HW2 9225   0.576   3.394   4.185
 2776SOL     OW 9226   5.036   4.870   6.394
 2776SOL    HW1 9227   4.959   4.896   6.335
 2776SOL    HW2 9228   5.009   4.793   6.451
 2777SOL     OW 9229   2.773   2.547   6.920
 2777SOL    HW1 9230   2.750   2.643   6.901
 2777SOL    HW2 9231   2.704   2.508   6.981
 2778SOL     OW 9232   2.716   0.139   6.185
 2778SOL    HW1 9233   2.723   0.136   6.285
 2778SOL    HW2 9234   2.620   0.132   6.158
 2779SOL     OW 9235   4.689   0.806   1.564
 2779SOL    HW1 9236   4.628   0.840   1.635
 2779SOL    HW2 9237   4.684   0.706   1.561
 2780SOL     OW 9238   0.132   1.796   4.668
 2780SOL    HW1 9239   0.225   1.805   4.705
 2780SOL    HW2 9240   0.114   1.700   4.648
 2781SOL     OW 9241   5.940   1.429   3.256
 2781SOL    HW1 9242   5.890   1.474   3.329
 2781SOL    HW2 9243   5.938   1.330   3.270
 2782SOL     OW 9244   5.290   0.460   5.737
 2782SOL    HW1 9245   5.311   0.377   5.684
 2782SOL    HW2 9246   5.357   0.531   5.714
 2783SOL     OW 9247   5.840   4.057   1.661
 2783SOL    HW1 9248   5.862   3.963   1.634
 2783SOL    HW2 9249   5.763   4.057   1.725
 2784SOL     OW 9250   0.685   2.103   1.264
 2784SOL    HW1 9251   0.672   2.004   1.268
 2784SOL    HW2 9252   0.684   2.133   1.168
 2785SOL     OW 9253   5.864   3.217   1.177
 2785SOL    HW1 9254   5.849   3.160   1.258
 2785SOL    HW2 9255   5.782   3.215   1.119
 2786SOL     OW 9256   0.329   6.028   6.761
 2786SOL    HW1 9257   0.378   5.976   6.831
 2786SOL    HW2 9258   0.393   6.059   6.691
 2787SOL     OW 9259   6.847   5.826   0.335
 2787SOL    HW1 9260   6.857   5.890   0.411
 2787SOL    HW2 9261   6.916   5.754   0.342
 2788SOL     OW 9262   3.150   6.588   6.053
 2788SOL    HW1 9263   3.130   6.537   6.137
 2788SOL    HW2 9264   3.070   6.586   5.993
 2789SOL     OW 9265   1.204   1.758   5.182
 2789SOL    HW1 9266   1.297   1.755   5.220
 2789SOL    HW2 9267   1.191   1.843   5.132
 2790SOL     OW 9268   1.455   5.810   2.089
 2790SOL    HW1 9269   1.370   5.761   2.109
 2790SOL    HW2 9270   1.438   5.908   2.090
 2791SOL     OW 9271   0.229   3.483   2.983
 2791SOL    HW1 9272   0.282   3.555   3.026
 2791SOL    HW2 9273   0.144   3.521   2.947
 2792SOL     OW 9274   3.597   0.893   6.008
 2792SOL    HW1 9275   3.580   0.981   6.054
 2792SOL    HW2 9276   3.683   0.898   5.959
 2793SOL     OW 9277   3.488   3.896   0.446
 2793SOL    HW1 9278   3.468   3.939   0.534
 2793SOL    HW2 9279   3.513   3.967   0.380
 2794SOL     OW 9280   0.752   2.511   6.939
 2794SOL    HW1 9281   0.714   2.466   7.020
 2794SOL    HW2 9282   0.730   2.608   6.941
 2795SOL     OW 9283   0.729   5.745   1.561
 2795SOL    HW1 9284   0.757   5.653   1.587
 2795SOL    HW2 9285   0.752   5.761   1.465
 2796SOL     OW 9286   2.170   5.621   6.230
 2796SOL    HW1 9287   2.187   5.523   6.220
 2796SOL    HW2 9288   2.084   5.645   6.185
 2797SOL     OW 9289   4.943   5.730   3.347
 2797SOL    HW1 9290   4.972   5.640   3.312
 2797SOL    HW2 9291   4.851   5.750   3.312
 2798SOL     OW 9292   4.519   0.865   1.764
 2798SOL    HW1 9293   4.595   0.837   1.822
 2798SOL    HW2 9294   4.466   0.784   1.739
 2799SOL     OW 9295   3.576   6.121   5.135
 2799SOL    HW1 9296   3.657   6.146   5.081
 2799SOL    HW2 9297   3.513   6.069   5.078
 2800SOL     OW 9298   5.973   0.113   6.054
 2800SOL    HW1 9299   6.001   0.079   6.144
 2800SOL    HW2 9300   5.882   0.153   6.061
 2801SOL     OW 9301   0.098   4.373   4.536
 2801SOL    HW1 9302   0.123   4.420   4.451
 2801SOL    HW2 9303   0.178   4.367   4.595
 2802SOL     OW 9304   1.624   5.092   5.339
 2802SOL    HW1 9305   1.603   5.178   5.294
 2802SOL    HW2 9306   1.637   5.108   5.437
 2803SOL     OW 9307   3.622   2.237   6.131
 2803SOL    HW1 9308   3.542   2.206   6.079
 2803SOL    HW2 9309   3.614   2.335   6.149
 2804SOL     OW 9310   0.117   2.530   4.011
 2804SOL    HW1 9311   0.102   2.601   3.943
 2804SOL    HW2 9312   0.136   2.443   3.965
 2805SOL     OW 9313   3.700   3.003   1.206
 2805SOL    HW1 9314   3.600   3.010   1.212
 2805SOL    HW2 9315   3.730   2.916   1.246
 2806SOL     OW 9316   0.509   3.781   6.140
 2806SOL    HW1 9317   0.432   3.830   6.181
 2806SOL    HW2 9318   0.529   3.819   6.050
 2807SOL     OW 9319   4.000   0.497   3.680
 2807SOL    HW1 9320   3.923   0.512   3.741
 2807SOL    HW2 9321   4.076   0.557   3.706
 2808SOL     OW 9322   0.673   4.939   5.552
 2808SOL    HW1 9323   0.738   4.944   5.627
 2808SOL    HW2 9324   0.721   4.922   5.466
 2809SOL     OW 9325   0.056   5.434   2.040
 2809SOL    HW1 9326   0.140   5.381   2.051
 2809SOL    HW2 9327   0.047   5.463   1.944
 2810SOL     OW 9328   2.291   0.070   2.791
 2810SOL    HW1 9329   2.205   0.037   2.751
 2810SOL    HW2 9330   2.341   7.014   2.831
 2811SOL     OW 9331   1.221   1.036   1.332
 2811SOL    HW1 9332   1.166   1.055   1.413
 2811SOL    HW2 9333   1.165   1.048   1.250
 2812SOL     OW 9334   1.018   1.556   1.123
 2812SOL    HW1 9335   1.033   1.457   1.136
 2812SOL    HW2 9336   1.018   1.602   1.212
 2813SOL     OW 9337   1.118   3.203   1.650
 2813SOL    HW1 9338   1.066   3.279   1.610
 2813SOL    HW2 9339   1.215   3.213   1.626
 2814SOL     OW 9340   2.614   4.247   0.312
 2814SOL    HW1 9341   2.653   4.156   0.303
 2814SOL    HW2 9342   2.610   4.272   0.409
 2815SOL     OW 9343   0.355   4.662   4.684
 2815SOL    HW1 9344   0.420   4.709   4.624
 2815SOL    HW2 9345   0.262   4.688   4.660
 2816SOL     OW 9346   0.636   5.891   5.453
 2816SOL    HW1 9347   0.603   5.810   5.405
 2816SOL    HW2 9348   0.563   5.959   5.456
 2817SOL     OW 9349   3.885   0.916   2.524
 2817SOL    HW1 9350   3.980   0.912   2.495
 2817SOL    HW2 9351   3.857   0.826   2.558
 2818SOL     OW 9352   1.877   0.166   0.602
 2818SOL    HW1 9353   1.884   0.250   0.656
 2818SOL    HW2 9354   1.926   0.092   0.647
 2819SOL     OW 9355   0.757   0.103   6.816
 2819SOL    HW1 9356   0.778   0.155   6.899
 2819SOL    HW2 9357   0.684   0.149   6.766
 2820SOL     OW 9358   1.560   2.539   0.164
 2820SOL    HW1 9359   1.595   2.557   0.072
 2820SOL    HW2 9360   1.514   2.450   0.165
 2821SOL     OW 9361   3.404   3.290   6.169
 2821SOL    HW1 9362   3.432   3.319   6.261
 2821SOL    HW2 9363   3.307   3.311   6.156
 2822SOL     OW 9364   4.550   2.792   0.544
 2822SOL    HW1 9365   4.521   2.822   0.453
 2822SOL    HW2 9366   4.483   2.728   0.581
 2823SOL     OW 9367   4.998   2.673   1.462
 2823SOL    HW1 9368   5.016   2.578   1.435
 2823SOL    HW2 9369   4.903   2.681   1.491
 2824SOL     OW 9370   1.382   3.836   4.223
 2824SOL    HW1 9371   1.285   3.813   4.230
 2824SOL    HW2 9372   1.430   3.765   4.172
 2825SOL     OW 9373   5.415   1.779   6.231
 2825SOL    HW1 9374   5.434   1.872   6.201
 2825SOL    HW2 9375   5.405   1.777   6.331
 2826SOL     OW 9376   2.778   2.626   6.644
 2826SOL    HW1 9377   2.821   2.579   6.720
 2826SOL    HW2 9378   2.827   2.711   6.624
 2827SOL     OW 9379   6.216   0.996   6.328
 2827SOL    HW1 9380   6.179   1.089   6.334
 2827SOL    HW2 9381   6.260   0.972   6.414
 2828SOL     OW 9382   1.975   3.926   0.881
 2828SOL    HW1 9383   2.048   3.866   0.912
 2828SOL    HW2 9384   1.911   3.875   0.824
 2829SOL     OW 9385   3.287   3.600   2.458
 2829SOL    HW1 9386   3.274   3.529   2.389
 2829SOL    HW2 9387   3.321   3.558   2.543
 2830SOL     OW 9388   3.102   5.877   5.318
 2830SOL    HW1 9389   3.112   5.966   5.274
 2830SOL    HW2 9390   3.192   5.836   5.332
 2831SOL     OW 9391   5.519   2.041   2.040
 2831SOL    HW1 9392   5.476   2.031   2.130
 2831SOL    HW2 9393   5.536   1.951   2.001
 2832SOL     OW 9394   0.826   3.893   1.951
 2832SOL    HW1 9395   0.846   3.935   1.863
 2832SOL    HW2 9396   0.895   3.822   1.970
 2833SOL     OW 9397   1.599   2.610   1.859
 2833SOL    HW1 9398   1.500   2.614   1.848
 2833SOL    HW2 9399   1.644   2.657   1.783
 2834SOL     OW 9400   3.678   6.535   4.711
 2834SOL    HW1 9401   3.774   6.526   4.685
 2834SOL    HW2 9402   3.667   6.608   4.778
 2835SOL     OW 9403   6.556   0.829   0.194
 2835SOL    HW1 9404   6.589   0.734   0.200
 2835SOL    HW2 9405   6.516   0.856   0.281
 2836SOL     OW 9406   3.332   5.834   2.611
 2836SOL    HW1 9407   3.233   5.845   2.620
 2836SOL    HW2 9408   3.353   5.798   2.520
 2837SOL     OW 9409   5.038   4.075   1.744
 2837SOL    HW1 9410   4.982   4.142   1.697
 2837SOL    HW2 9411   4.982   4.024   1.810
 2838SOL     OW 9412   6.444   4.698   6.483
 2838SOL    HW1 9413   6.399   4.749   6.557
 2838SOL    HW2 9414   6.374   4.658   6.424
 2839SOL     OW 9415   6.136   3.335   4.761
 2839SOL    HW1 9416   6.225   3.320   4.804
 2839SOL    HW2 9417   6.111   3.255   4.707
 2840SOL     OW 9418   6.960   6.662   4.272
 2840SOL    HW1 9419   0.009   6.590   4.282
 2840SOL    HW2 9420   7.005   6.748   4.250
 2841SOL     OW 9421   6.109   3.702   2.466
 2841SOL    HW1 9422   6.049   3.626   2.438
 2841SOL    HW2 9423   6.054   3.783   2.486
 2842SOL     OW 9424   1.349   0.605   3.739
 2842SOL    HW1 9425   1.426   0.653   3.783
 2842SOL    HW2 9426   1.379   0.566   3.652
 2843SOL     OW 9427   2.103   2.534   3.944
 2843SOL    HW1 9428   2.032   2.485   3.895
 2843SOL    HW2 9429   2.094   2.632   3.927
 2844SOL     OW 9430   4.965   3.946   0.231
 2844SOL    HW1 9431   4.978   3.969   0.135
 2844SOL    HW2 9432   4.956   3.847   0.241
 2845SOL     OW 9433   3.381   1.813   2.720
 2845SOL    HW1 9434   3.282   1.817   2.725
 2845SOL    HW2 9435   3.410   1.723   2.686
 2846SOL     OW 9436   6.219   0.131   6.971
 2846SOL    HW1 9437   6.242   0.193   0.026
 2846SOL    HW2 9438   6.202   0.183   6.888
 2847SOL     OW 9439   4.439   4.492   1.282
 2847SOL    HW1 9440   4.489   4.433   1.347
 2847SOL    HW2 9441   4.392   4.435   1.216
 2848SOL     OW 9442   1.090   4.144   5.252
 2848SOL    HW1 9443   1.076   4.202   5.332
 2848SOL    HW2 9444   1.014   4.079   5.244
 2849SOL     OW 9445   4.816   0.402   1.730
 2849SOL    HW1 9446   4.825   0.311   1.690
 2849SOL    HW2 9447   4.855   0.469   1.667
 2850SOL     OW 9448   1.801   0.619   2.204
 2850SOL    HW1 9449   1.762   0.650   2.291
 2850SOL    HW2 9450   1.732   0.570   2.152
 2851SOL     OW 9451   3.332   3.017   1.653
 2851SOL    HW1 9452   3.387   2.936   1.676
 2851SOL    HW2 9453   3.301   3.011   1.558
 2852SOL     OW 9454   6.678   4.860   6.393
 2852SOL    HW1 9455   6.686   4.870   6.294
 2852SOL    HW2 9456   6.612   4.788   6.415
 2853SOL     OW 9457   0.229   4.136   5.564
 2853SOL    HW1 9458   0.302   4.086   5.611
 2853SOL    HW2 9459   0.140   4.098   5.590
 2854SOL     OW 9460   4.513   0.538   5.943
 2854SOL    HW1 9461   4.564   0.593   5.877
 2854SOL    HW2 9462   4.525   0.576   6.035
 2855SOL     OW 9463   2.189   1.943   4.984
 2855SOL    HW1 9464   2.119   1.882   5.020
 2855SOL    HW2 9465   2.243   1.979   5.061
 2856SOL     OW 9466   1.180   5.451   4.046
 2856SOL    HW1 9467   1.234   5.406   3.975
 2856SOL    HW2 9468   1.092   5.479   4.008
 2857SOL     OW 9469   6.840   4.627   1.180
 2857SOL    HW1 9470   6.760   4.600   1.126
 2857SOL    HW2 9471   6.875   4.548   1.230
 2858SOL     OW 9472   4.296   4.631   2.341
 2858SOL    HW1 9473   4.215   4.669   2.297
 2858SOL    HW2 9474   4.336   4.560   2.283
 2859SOL     OW 9475   5.193   4.718   1.049
 2859SOL    HW1 9476   5.237   4.643   1.000
 2859SOL    HW2 9477   5.202   4.704   1.147
 2860SOL     OW 9478   1.265   0.199   2.428
 2860SOL    HW1 9479   1.266   0.298   2.423
 2860SOL    HW2 9480   1.312   0.169   2.512
 2861SOL     OW 9481   5.026   4.809   5.986
 2861SOL    HW1 9482   4.957   4.784   5.918
 2861SOL    HW2 9483   4.983   4.866   6.057
 2862SOL     OW 9484   4.487   3.034   0.140
 2862SOL    HW1 9485   4.423   3.054   0.214
 2862SOL    HW2 9486   4.563   2.979   0.176
 2863SOL     OW 9487   5.894   0.969   5.304
 2863SOL    HW1 9488   5.889   1.036   5.379
 2863SOL    HW2 9489   5.990   0.947   5.285
 2864SOL     OW 9490   3.481   4.540   0.287
 2864SOL    HW1 9491   3.576   4.566   0.274
 2864SOL    HW2 9492   3.424   4.622   0.293
 2865SOL     OW 9493   5.892   5.213   4.706
 2865SOL    HW1 9494   5.825   5.260   4.762
 2865SOL    HW2 9495   5.923   5.273   4.632
 2866SOL     OW 9496   4.157   4.246   0.441
 2866SOL    HW1 9497   4.077   4.218   0.388
 2866SOL    HW2 9498   4.213   4.166   0.462
 2867SOL     OW 9499   5.385   6.239   2.207
 2867SOL    HW1 9500   5.404   6.336   2.212
 2867SOL    HW2 9501   5.298   6.220   2.253
 2868SOL     OW 9502   1.118   0.473   5.404
 2868SOL    HW1 9503   1.060   0.495   5.326
 2868SOL    HW2 9504   1.172   0.391   5.384
 2869SOL     OW 9505   6.337   5.501   4.202
 2869SOL    HW1 9506   6.363   5.546   4.116
 2869SOL    HW2 9507   6.325   5.403   4.186
 2870SOL     OW 9508   6.614   2.549   2.067
 2870SOL    HW1 9509   6.671   2.516   1.991
 2870SOL    HW2 9510   6.576   2.471   2.116
 2871SOL     OW 9511   5.013   1.818   2.425
 2871SOL    HW1 9512   5.054   1.733   2.394
 2871SOL    HW2 9513   4.914   1.805   2.439
 2872SOL     OW 9514   2.889   2.004   2.446
 2872SOL    HW1 9515   2.793   2.015   2.421
 2872SOL    HW2 9516   2.897   1.933   2.517
 2873SOL     OW 9517   0.422   6.917   0.956
 2873SOL    HW1 9518   0.469   6.929   1.043
 2873SOL    HW2 9519   0.383   6.824   0.952
 2874SOL     OW 9520   2.566   1.472   2.942
 2874SOL    HW1 9521   2.641   1.406   2.927
 2874SOL    HW2 9522   2.491   1.451   2.879
 2875SOL     OW 9523   1.908   0.049   2.851
 2875SOL    HW1 9524   1.958   7.018   2.920
 2875SOL    HW2 9525   1.876   0.135   2.889
 2876SOL     OW 9526   1.673   0.137   1.838
 2876SOL    HW1 9527   1.706   0.231   1.840
 2876SOL    HW2 9528   1.692   0.097   1.748
 2877SOL     OW 9529   1.155   2.461   0.004
 2877SOL    HW1 9530   1.165   2.499   0.096
 2877SOL    HW2 9531   1.246   2.440   6.987
 2878SOL     OW 9532   3.826   3.019   3.864
 2878SOL    HW1 9533   3.903   3.080   3.847
 2878SOL    HW2 9534   3.822   2.996   3.961
 2879SOL     OW 9535   4.905   4.256   0.060
 2879SOL    HW1 9536   4.928   4.159   0.054
 2879SOL    HW2 9537   4.973   4.303   0.116
 2880SOL     OW 9538   2.261   1.136   3.288
 2880SOL    HW1 9539   2.271   1.178   3.378
 2880SOL    HW2 9540   2.166   1.143   3.257
 2881SOL     OW 9541   5.096   6.042   7.014
 2881SOL    HW1 9542   5.146   5.995   6.940
 2881SOL    HW2 9543   5.023   5.982   0.027
 2882SOL     OW 9544   4.533   6.152   0.262
 2882SOL    HW1 9545   4.587   6.231   0.292
 2882SOL    HW2 9546   4.573   6.115   0.178
 2883SOL     OW 9547   5.839   5.841   4.190
 2883SOL    HW1 9548   5.835   5.741   4.183
 2883SOL    HW2 9549   5.833   5.881   4.099
 2884SOL     OW 9550   6.265   5.221   4.195
 2884SOL    HW1 9551   6.227   5.152   4.134
 2884SOL    HW2 9552   6.337   5.181   4.251
 2885SOL     OW 9553   0.980   2.410   3.504
 2885SOL    HW1 9554   0.931   2.424   3.590
 2885SOL    HW2 9555   1.077   2.392   3.523
 2886SOL     OW 9556   2.144   4.576   5.451
 2886SOL    HW1 9557   2.215   4.514   5.417
 2886SOL    HW2 9558   2.069   4.581   5.385
 2887SOL     OW 9559   0.339   6.068   3.125
 2887SOL    HW1 9560   0.418   6.022   3.083
 2887SOL    HW2 9561   0.353   6.075   3.224
 2888SOL     OW 9562   5.988   0.041   6.720
 2888SOL    HW1 9563   5.945   6.970   6.715
 2888SOL    HW2 9564   6.087   0.030   6.720
 2889SOL     OW 9565   3.608   6.348   2.608
 2889SOL    HW1 9566   3.569   6.384   2.523
 2889SOL    HW2 9567   3.645   6.257   2.591
 2890SOL     OW 9568   1.213   1.755   1.019
 2890SOL    HW1 9569   1.153   1.675   1.018
 2890SOL    HW2 9570   1.209   1.799   1.108
 2891SOL     OW 9571   6.876   2.522   4.759
 2891SOL    HW1 9572   6.786   2.489   4.732
 2891SOL    HW2 9573   6.908   2.469   4.838
 2892SOL     OW 9574   5.883   3.558   2.379
 2892SOL    HW1 9575   5.826   3.491   2.427
 2892SOL    HW2 9576   5.836   3.646   2.378
 2893SOL     OW 9577   6.584   5.585   4.795
 2893SOL    HW1 9578   6.543   5.505   4.839
 2893SOL    HW2 9579   6.635   5.555   4.714
 2894SOL     OW 9580   2.180   5.990   2.601
 2894SOL    HW1 9581   2.191   6.036   2.513
 2894SOL    HW2 9582   2.087   5.956   2.610
 2895SOL     OW 9583   4.493   6.878   5.994
 2895SOL    HW1 9584   4.433   6.909   6.067
 2895SOL    HW2 9585   4.439   6.828   5.925
 2896SOL     OW 9586   5.387   6.300   4.329
 2896SOL    HW1 9587   5.350   6.374   4.274
 2896SOL    HW2 9588   5.435   6.338   4.409
 2897SOL     OW 9589   4.479   5.191   3.197
 2897SOL    HW1 9590   4.393   5.180   3.146
 2897SOL    HW2 9591   4.492   5.113   3.258
 2898SOL     OW 9592   5.615   2.612   2.588
 2898SOL    HW1 9593   5.579   2.625   2.680
 2898SOL    HW2 9594   5.573   2.679   2.526
 2899SOL     OW 9595   6.925   4.073   0.875
 2899SOL    HW1 9596   6.924   4.019   0.959
 2899SOL    HW2 9597   6.955   4.167   0.897
 2900SOL     OW 9598   2.694   3.108   5.798
 2900SOL    HW1 9599   2.696   3.187   5.737
 2900SOL    HW2 9600   2.750   3.127   5.878
 2901SOL     OW 9601   0.506   3.737   3.484
 2901SOL    HW1 9602   0.471   3.822   3.524
 2901SOL    HW2 9603   0.436   3.695   3.427
 2902SOL     OW 9604   6.942   6.132   3.779
 2902SOL    HW1 9605   7.012   6.061   3.784
 2902SOL    HW2 9606   6.903   6.134   3.687
 2903SOL     OW 9607   4.839   5.100   0.479
 2903SOL    HW1 9608   4.751   5.088   0.525
 2903SOL    HW2 9609   4.909   5.047   0.527
 2904SOL     OW 9610   2.520   4.179   5.319
 2904SOL    HW1 9611   2.526   4.268   5.275
 2904SOL    HW2 9612   2.473   4.115   5.257
 2905SOL     OW 9613   1.346   6.128   1.706
 2905SOL    HW1 9614   1.436   6.107   1.744
 2905SOL    HW2 9615   1.357   6.163   1.612
 2906SOL     OW 9616   6.332   6.383   4.197
 2906SOL    HW1 9617   6.347   6.422   4.106
 2906SOL    HW2 9618   6.301   6.288   4.188
 2907SOL     OW 9619   0.897   1.281   4.369
 2907SOL    HW1 9620   0.968   1.341   4.405
 2907SOL    HW2 9621   0.853   1.324   4.291
 2908SOL     OW 9622   4.436   6.540   2.882
 2908SOL    HW1 9623   4.502   6.487   2.829
 2908SOL    HW2 9624   4.356   6.484   2.903
 2909SOL     OW 9625   0.277   6.469   1.670
 2909SOL    HW1 9626   0.248   6.374   1.679
 2909SOL    HW2 9627   0.225   6.526   1.734
 2910SOL     OW 9628   0.278   1.009   4.086
 2910SOL    HW1 9629   0.217   0.989   4.009
 2910SOL    HW2 9630   0.371   0.979   4.063
 2911SOL     OW 9631   6.746   4.643   5.311
 2911SOL    HW1 9632   6.844   4.658   5.325
 2911SOL    HW2 9633   6.727   4.631   5.213
 2912SOL     OW 9634   1.032   1.251   1.755
 2912SOL    HW1 9635   1.009   1.250   1.658
 2912SOL    HW2 9636   1.119   1.204   1.770
 2913SOL     OW 9637   3.120   6.885   2.004
 2913SOL    HW1 9638   3.052   6.813   1.993
 2913SOL    HW2 9639   3.187   6.880   1.930
 2914SOL     OW 9640   3.965   5.463   0.756
 2914SOL    HW1 9641   4.041   5.399   0.766
 2914SOL    HW2 9642   3.996   5.556   0.775
 2915SOL     OW 9643   2.107   0.543   2.507
 2915SOL    HW1 9644   2.049   0.544   2.588
 2915SOL    HW2 9645   2.191   0.493   2.527
 2916SOL     OW 9646   1.433   6.297   0.062
 2916SOL    HW1 9647   1.395   6.207   0.039
 2916SOL    HW2 9648   1.523   6.306   0.019
 2917SOL     OW 9649   2.841   6.422   3.602
 2917SOL    HW1 9650   2.904   6.500   3.595
 2917SOL    HW2 9651   2.817   6.409   3.698
 2918SOL     OW 9652   4.806   2.636   1.961
 2918SOL    HW1 9653   4.881   2.571   1.953
 2918SOL    HW2 9654   4.820   2.693   2.042
 2919SOL     OW 9655   0.846   5.992   5.082
 2919SOL    HW1 9656   0.861   6.079   5.035
 2919SOL    HW2 9657   0.885   5.996   5.174
 2920SOL     OW 9658   1.898   2.203   2.969
 2920SOL    HW1 9659   1.879   2.170   3.062
 2920SOL    HW2 9660   1.991   2.175   2.943
 2921SOL     OW 9661   1.138   6.147   3.598
 2921SOL    HW1 9662   1.193   6.220   3.639
 2921SOL    HW2 9663   1.068   6.119   3.664
 2922SOL     OW 9664   3.787   6.349   3.933
 2922SOL    HW1 9665   3.740   6.430   3.968
 2922SOL    HW2 9666   3.720   6.278   3.909
 2923SOL     OW 9667   6.445   5.504   5.164
 2923SOL    HW1 9668   6.441   5.508   5.264
 2923SOL    HW2 9669   6.445   5.408   5.134
 2924SOL     OW 9670   6.105   2.017   5.150
 2924SOL    HW1 9671   6.117   2.028   5.248
 2924SOL    HW2 9672   6.164   1.944   5.117
 2925SOL     OW 9673   4.888   6.237   5.781
 2925SOL    HW1 9674   4.895   6.331   5.814
 2925SOL    HW2 9675   4.832   6.235   5.698
 2926SOL     OW 9676   6.557   3.305   4.518
 2926SOL    HW1 9677   6.618   3.339   4.446
 2926SOL    HW2 9678   6.550   3.206   4.513
 2927SOL     OW 9679   1.113   1.763   2.159
 2927SOL    HW1 9680   1.016   1.738   2.154
 2927SOL    HW2 9681   1.162   1.695   2.213
 2928SOL     OW 9682   6.583   3.192   0.202
 2928SOL    HW1 9683   6.672   3.182   0.158
 2928SOL    HW2 9684   6.541   3.102   0.213
 2929SOL     OW 9685   2.383   2.215   4.288
 2929SOL    HW1 9686   2.315   2.287   4.272
 2929SOL    HW2 9687   2.466   2.234   4.236
 2930SOL     OW 9688   0.559   3.940   4.401
 2930SOL    HW1 9689   0.624   3.890   4.458
 2930SOL    HW2 9690   0.492   3.877   4.363
 2931SOL     OW 9691   4.827   3.787   5.660
 2931SOL    HW1 9692   4.748   3.834   5.698
 2931SOL    HW2 9693   4.865   3.841   5.585
 2932SOL     OW 9694   6.105   5.294   0.722
 2932SOL    HW1 9695   6.121   5.308   0.624
 2932SOL    HW2 9696   6.122   5.379   0.771
 2933SOL     OW 9697   1.298   0.226   6.870
 2933SOL    HW1 9698   1.315   0.205   6.774
 2933SOL    HW2 9699   1.283   0.325   6.880
 2934SOL     OW 9700   3.454   4.430   0.525
 2934SOL    HW1 9701   3.446   4.459   0.429
 2934SOL    HW2 9702   3.442   4.510   0.584
 2935SOL     OW 9703   0.468   2.470   6.384
 2935SOL    HW1 9704   0.452   2.540   6.315
 2935SOL    HW2 9705   0.558   2.483   6.425
 2936SOL     OW 9706   4.729   6.051   1.088
 2936SOL    HW1 9707   4.825   6.080   1.092
 2936SOL    HW2 9708   4.710   5.986   1.161
 2937SOL     OW 9709   4.790   4.813   2.390
 2937SOL    HW1 9710   4.884   4.788   2.412
 2937SOL    HW2 9711   4.728   4.741   2.420
 2938SOL     OW 9712   0.145   5.226   6.270
 2938SOL    HW1 9713   0.047   5.244   6.258
 2938SOL    HW2 9714   0.172   5.253   6.363
 2939SOL     OW 9715   0.137   6.501   2.087
 2939SOL    HW1 9716   0.097   6.552   2.163
 2939SOL    HW2 9717   0.095   6.410   2.082
 2940SOL     OW 9718   4.027   6.717   3.846
 2940SOL    HW1 9719   4.076   6.790   3.799
 2940SOL    HW2 9720   4.092   6.647   3.876
 2941SOL     OW 9721   1.750   4.710   3.274
 2941SOL    HW1 9722   1.828   4.714   3.212
 2941SOL    HW2 9723   1.733   4.615   3.299
 2942SOL     OW 9724   3.345   1.737   1.125
 2942SOL    HW1 9725   3.321   1.640   1.116
 2942SOL    HW2 9726   3.283   1.781   1.190
 2943SOL     OW 9727   5.984   3.919   3.105
 2943SOL    HW1 9728   6.038   3.835   3.106
 2943SOL    HW2 9729   5.961   3.943   3.010
 2944SOL     OW 9730   2.204   6.147   2.340
 2944SOL    HW1 9731   2.262   6.151   2.258
 2944SOL    HW2 9732   2.109   6.165   2.315
 2945SOL     OW 9733   4.760   4.373   1.148
 2945SOL    HW1 9734   4.722   4.314   1.078
 2945SOL    HW2 9735   4.825   4.437   1.107
 2946SOL     OW 9736   3.772   3.633   5.176
 2946SOL    HW1 9737   3.749   3.730   5.174
 2946SOL    HW2 9738   3.802   3.608   5.269
 2947SOL     OW 9739   6.547   6.346   0.850
 2947SOL    HW1 9740   6.478   6.414   0.824
 2947SOL    HW2 9741   6.552   6.275   0.780
 2948SOL     OW 9742   6.727   3.304   2.058
 2948SOL    HW1 9743   6.744   3.269   2.151
 2948SOL    HW2 9744   6.690   3.397   2.064
 2949SOL     OW 9745   1.443   6.522   0.654
 2949SOL    HW1 9746   1.356   6.565   0.677
 2949SOL    HW2 9747   1.473   6.464   0.730
 2950SOL     OW 9748   5.952   5.320   2.925
 2950SOL    HW1 9749   6.039   5.290   2.964
 2950SOL    HW2 9750   5.959   5.323   2.825
 2951SOL     OW 9751   6.976   1.609   1.561
 2951SOL    HW1 9752   6.885   1.631   1.595
 2951SOL    HW2 9753   6.989   1.510   1.562
 2952SOL     OW 9754   6.987   1.948   5.178
 2952SOL    HW1 9755   0.014   2.023   5.227
 2952SOL    HW2 9756   0.034   1.891   5.131
 2953SOL     OW 9757   1.253   5.066   3.805
 2953SOL    HW1 9758   1.169   5.119   3.819
 2953SOL    HW2 9759   1.233   4.986   3.747
 2954SOL     OW 9760   0.106   4.707   6.024
 2954SOL    HW1 9761   0.087   4.715   5.927
 2954SOL    HW2 9762   0.052   4.632   6.063
 2955SOL     OW 9763   2.465   4.390   5.640
 2955SOL    HW1 9764   2.446   4.293   5.622
 2955SOL    HW2 9765   2.559   4.411   5.614
 2956SOL     OW 9766   5.302   4.744   4.077
 2956SOL    HW1 9767   5.309   4.697   3.989
 2956SOL    HW2 9768   5.392   4.779   4.103
 2957SOL     OW 9769   2.164   4.906   1.322
 2957SOL    HW1 9770   2.137   4.928   1.415
 2957SOL    HW2 9771   2.140   4.811   1.302
 2958SOL     OW 9772   2.057   5.084   2.494
 2958SOL    HW1 9773   1.959   5.085   2.471
 2958SOL    HW2 9774   2.096   4.996   2.468
 2959SOL     OW 9775   6.838   3.654   2.661
 2959SOL    HW1 9776   6.740   3.658   2.641
 2959SOL    HW2 9777   6.872   3.561   2.646
 2960SOL     OW 9778   5.366   6.862   0.837
 2960SOL    HW1 9779   5.321   6.834   0.921
 2960SOL    HW2 9780   5.446   6.918   0.858
 2961SOL     OW 9781   5.405   3.647   1.703
 2961SOL    HW1 9782   5.496   3.660   1.743
 2961SOL    HW2 9783   5.335   3.669   1.771
 2962SOL     OW 9784   6.765   0.111   3.266
 2962SOL    HW1 9785   6.686   0.060   3.232
 2962SOL    HW2 9786   6.778   0.193   3.210
 2963SOL     OW 9787   1.973   0.907   5.252
 2963SOL    HW1 9788   1.948   0.858   5.169
 2963SOL    HW2 9789   2.032   0.849   5.309
 2964SOL     OW 9790   1.057   1.010   6.491
 2964SOL    HW1 9791   1.099   1.065   6.563
 2964SOL    HW2 9792   1.086   0.915   6.501
 2965SOL     OW 9793   6.844   0.046   5.517
 2965SOL    HW1 9794   6.758   0.065   5.565
 2965SOL    HW2 9795   6.846   6.969   5.490
 2966SOL     OW 9796   3.264   5.977   2.371
 2966SOL    HW1 9797   3.333   6.031   2.322
 2966SOL    HW2 9798   3.298   5.952   2.461
 2967SOL     OW 9799   5.387   0.787   4.707
 2967SOL    HW1 9800   5.378   0.827   4.616
 2967SOL    HW2 9801   5.318   0.826   4.768
 2968SOL     OW 9802   1.479   3.846   1.223
 2968SOL    HW1 9803   1.478   3.747   1.219
 2968SOL    HW2 9804   1.571   3.878   1.249
 2969SOL     OW 9805   4.757   3.417   5.390
 2969SOL    HW1 9806   4.712   3.328   5.380
 2969SOL    HW2 9807   4.712   3.484   5.331
 2970SOL     OW 9808   2.981   1.772   4.516
 2970SOL    HW1 9809   3.010   1.684   4.477
 2970SOL    HW2 9810   2.897   1.760   4.568
 2971SOL     OW 9811   5.294   3.037   6.231
 2971SOL    HW1 9812   5.271   3.000   6.141
 2971SOL    HW2 9813   5.388   3.070   6.231
 2972SOL     OW 9814   6.228   5.690   6.836
 2972SOL    HW1 9815   6.287   5.610   6.844
 2972SOL    HW2 9816   6.135   5.666   6.867
 2973SOL     OW 9817   4.623   0.899   3.724
 2973SOL    HW1 9818   4.556   0.903   3.650
 2973SOL    HW2 9819   4.711   0.870   3.689
 2974SOL     OW 9820   4.560   6.963   1.908
 2974SOL    HW1 9821   4.565   0.033   1.867
 2974SOL    HW2 9822   4.630   6.956   1.980
 2975SOL     OW 9823   4.871   3.873   4.095
 2975SOL    HW1 9824   4.866   3.793   4.036
 2975SOL    HW2 9825   4.854   3.846   4.190
 2976SOL     OW 9826   4.097   1.298   2.380
 2976SOL    HW1 9827   4.077   1.241   2.301
 2976SOL    HW2 9828   4.163   1.369   2.354
 2977SOL     OW 9829   0.918   0.836   1.714
 2977SOL    HW1 9830   0.851   0.816   1.786
 2977SOL    HW2 9831   0.958   0.750   1.681
 2978SOL     OW 9832   4.646   5.220   6.652
 2978SOL    HW1 9833   4.584   5.299   6.655
 2978SOL    HW2 9834   4.639   5.169   6.737
 2979SOL     OW 9835   2.991   0.986   4.117
 2979SOL    HW1 9836   3.034   0.969   4.029
 2979SOL    HW2 9837   2.933   0.908   4.142
 2980SOL     OW 9838   3.506   3.485   4.889
 2980SOL    HW1 9839   3.599   3.471   4.855
 2980SOL    HW2 9840   3.444   3.502   4.812
 2981SOL     OW 9841   2.293   0.961   1.551
 2981SOL    HW1 9842   2.213   1.002   1.506
 2981SOL    HW2 9843   2.322   0.880   1.500
 2982SOL     OW 9844   2.015   6.932   0.722
 2982SOL    HW1 9845   1.975   6.850   0.681
 2982SOL    HW2 9846   2.113   6.935   0.702
 2983SOL     OW 9847   6.432   2.993   5.606
 2983SOL    HW1 9848   6.375   2.972   5.526
 2983SOL    HW2 9849   6.524   3.016   5.576
 2984SOL     OW 9850   0.241   5.320   1.478
 2984SOL    HW1 9851   0.314   5.278   1.532
 2984SOL    HW2 9852   0.188   5.381   1.537
 2985SOL     OW 9853   0.207   0.058   5.858
 2985SOL    HW1 9854   0.169   0.081   5.769
 2985SOL    HW2 9855   0.304   0.080   5.860
 2986SOL     OW 9856   3.657   3.562   2.287
 2986SOL    HW1 9857   3.572   3.549   2.236
 2986SOL    HW2 9858   3.724   3.493   2.258
 2987SOL     OW 9859   1.874   6.313   5.428
 2987SOL    HW1 9860   1.892   6.369   5.347
 2987SOL    HW2 9861   1.803   6.357   5.483
 2988SOL     OW 9862   0.406   1.312   6.406
 2988SOL    HW1 9863   0.377   1.305   6.501
 2988SOL    HW2 9864   0.421   1.220   6.369
 2989SOL     OW 9865   4.993   2.860   4.615
 2989SOL    HW1 9866   4.940   2.842   4.532
 2989SOL    HW2 9867   5.080   2.811   4.611
 2990SOL     OW 9868   5.479   1.724   4.276
 2990SOL    HW1 9869   5.489   1.773   4.190
 2990SOL    HW2 9870   5.482   1.789   4.352
 2991SOL     OW 9871   0.473   3.587   0.638
 2991SOL    HW1 9872   0.478   3.643   0.556
 2991SOL    HW2 9873   0.560   3.590   0.686
 2992SOL     OW 9874   0.339   3.866   5.321
 2992SOL    HW1 9875   0.437   3.853   5.333
 2992SOL    HW2 9876   0.291   3.783   5.347
 2993SOL     OW 9877   2.765   3.575   1.275
 2993SOL    HW1 9878   2.829   3.566   1.198
 2993SOL    HW2 9879   2.716   3.488   1.288
 2994SOL     OW 9880   3.715   5.400   5.833
 2994SOL    HW1 9881   3.664   5.316   5.852
 2994SOL    HW2 9882   3.772   5.423   5.912
 2995SOL     OW 9883   4.619   0.731   0.846
 2995SOL    HW1 9884   4.589   0.813   0.895
 2995SOL    HW2 9885   4.645   0.755   0.753
 2996SOL     OW 9886   6.792   0.642   4.327
 2996SOL    HW1 9887   6.812   0.639   4.425
 2996SOL    HW2 9888   6.715   0.703   4.310
 2997SOL     OW 9889   4.880   6.514   4.435
 2997SOL    HW1 9890   4.918   6.606   4.424
 2997SOL    HW2 9891   4.784   6.515   4.408
 2998SOL     OW 9892   2.857   1.660   2.325
 2998SOL    HW1 9893   2.950   1.688   2.301
 2998SOL    HW2 9894   2.852   1.561   2.330
 2999SOL     OW 9895   3.278   4.083   1.027
 2999SOL    HW1 9896   3.214   4.139   0.973
 2999SOL    HW2 9897   3.248   3.988   1.026
 3000SOL     OW 9898   3.014   4.140   5.245
 3000SOL    HW1 9899   3.040   4.233   5.273
 3000SOL    HW2 9900   2.916   4.127   5.258
 3001SOL     OW 9901   5.465   0.676   5.633
 3001SOL    HW1 9902   5.425   0.757   5.675
 3001SOL    HW2 9903   5.562   0.671   5.654
 3002SOL     OW 9904   1.440   2.054   2.034
 3002SOL    HW1 9905   1.512   2.097   1.980
 3002SOL    HW2 9906   1.467   2.053   2.131
 3003SOL     OW 9907   1.723   6.408   7.002
 3003SOL    HW1 9908   1.734   6.312   6.975
 3003SOL    HW2 9909   1.776   6.466   6.941
 3004SOL     OW 9910   2.446   6.735   3.541
 3004SOL    HW1 9911   2.455   6.794   3.621
 3004SOL    HW2 9912   2.416   6.644   3.571
 3005SOL     OW 9913   0.915   1.992   0.080
 3005SOL    HW1 9914   0.987   1.947   0.028
 3005SOL    HW2 9915   0.934   2.091   0.085
 3006SOL     OW 9916   5.357   1.732   5.966
 3006SOL    HW1 9917   5.361   1.689   6.056
 3006SOL    HW2 9918   5.296   1.811   5.970
 3007SOL     OW 9919   5.667   5.738   0.162
 3007SOL    HW1 9920   5.679   5.659   0.102
 3007SOL    HW2 9921   5.575   5.775   0.151
 3008SOL     OW 9922   4.818   3.531   5.746
 3008SOL    HW1 9923   4.902   3.480   5.733
 3008SOL    HW2 9924   4.823   3.617   5.696
 3009SOL     OW 9925   0.324   3.508   1.649
 3009SOL    HW1 9926   0.294   3.420   1.611
 3009SOL    HW2 9927   0.288   3.518   1.741
 3010SOL     OW 9928   4.094   5.724   0.772
 3010SOL    HW1 9929   4.049   5.736   0.684
 3010SOL    HW2 9930   4.079   5.804   0.829
 3011SOL     OW 9931   6.595   0.800   1.062
 3011SOL    HW1 9932   6.556   0.777   0.973
 3011SOL    HW2 9933   6.632   0.893   1.059
 3012SOL     OW 9934   2.401   2.378   5.324
 3012SOL    HW1 9935   2.336   2.449   5.300
 3012SOL    HW2 9936   2.476   2.417   5.377
 3013SOL     OW 9937   0.527   4.759   4.467
 3013SOL    HW1 9938   0.588   4.806   4.531
 3013SOL    HW2 9939   0.574   4.746   4.380
 3014SOL     OW 9940   5.668   0.187   6.163
 3014SOL    HW1 9941   5.693   0.107   6.217
 3014SOL    HW2 9942   5.592   0.165   6.103
 3015SOL     OW 9943   1.343   0.811   6.507
 3015SOL    HW1 9944   1.316   0.729   6.456
 3015SOL    HW2 9945   1.388   0.875   6.445
 3016SOL     OW 9946   2.075   6.137   4.167
 3016SOL    HW1 9947   2.038   6.131   4.074
 3016SOL    HW2 9948   2.143   6.210   4.171
 3017SOL     OW 9949   1.074   5.399   0.538
 3017SOL    HW1 9950   1.174   5.396   0.542
 3017SOL    HW2 9951   1.045   5.413   0.443
 3018SOL     OW 9952   3.527   0.359   1.408
 3018SOL    HW1 9953   3.479   0.424   1.349
 3018SOL    HW2 9954   3.462   0.310   1.465
 3019SOL     OW 9955   1.920   0.474   6.064
 3019SOL    HW1 9956   2.020   0.475   6.062
 3019SOL    HW2 9957   1.886   0.565   6.088
 3020SOL     OW 9958   6.291   4.234   6.944
 3020SOL    HW1 9959   6.247   4.278   6.865
 3020SOL    HW2 9960   6.310   4.303   7.014
 3021SOL     OW 9961   4.090   0.347   5.004
 3021SOL    HW1 9962   4.161   0.292   5.048
 3021SOL    HW2 9963   4.106   0.444   5.024
 3022SOL     OW 9964   3.720   5.721   3.301
 3022SOL    HW1 9965   3.666   5.802   3.279
 3022SOL    HW2 9966   3.743   5.721   3.398
 3023SOL     OW 9967   5.211   5.515   4.465
 3023SOL    HW1 9968   5.191   5.482   4.372
 3023SOL    HW2 9969   5.188   5.613   4.471
 3024SOL     OW 9970   0.169   0.355   0.202
 3024SOL    HW1 9971   0.158   0.451   0.227
 3024SOL    HW2 9972   0.166   0.346   0.102
 3025SOL     OW 9973   4.015   5.640   0.198
 3025SOL    HW1 9974   3.998   5.643   0.099
 3025SOL    HW2 9975   4.112   5.624   0.215
 3026SOL     OW 9976   0.062   0.724   2.072
 3026SOL    HW1 9977   0.001   0.696   2.146
 3026SOL    HW2 9978   0.019   0.799   2.021
 3027SOL     OW 9979   4.371   0.904   0.728
 3027SOL    HW1 9980   4.420   0.857   0.801
 3027SOL    HW2 9981   4.297   0.959   0.767
 3028SOL     OW 9982   3.198   2.964   5.607
 3028SOL    HW1 9983   3.290   2.967   5.646
 3028SOL    HW2 9984   3.202   2.922   5.516
 3029SOL     OW 9985   6.940   3.301   4.690
 3029SOL    HW1 9986   6.877   3.271   4.762
 3029SOL    HW2 9987   6.929   3.400   4.675
 3030SOL     OW 9988   2.186   3.200   6.597
 3030SOL    HW1 9989   2.222   3.109   6.576
 3030SOL    HW2 9990   2.231   3.235   6.679
 3031SOL     OW 9991   1.065   6.065   0.640
 3031SOL    HW1 9992   1.120   6.087   0.721
 3031SOL    HW2 9993   1.111   5.994   0.587
 3032SOL     OW 9994   2.392   0.636   2.749
 3032SOL    HW1 9995   2.452   0.581   2.691
 3032SOL    HW2 9996   2.314   0.581   2.779
 3033SOL     OW 9997   0.422   1.589   5.420
 3033SOL    HW1 9998   0.464   1.676   5.394
 3033SOL    HW2 9999   0.400   1.590   5.518
 3034SOL     OW10000   6.482   4.409   3.347
 3034SOL    HW110001   6.450   4.454   3.430
 3034SOL    HW210002   6.467   4.310   3.354
 3035SOL     OW10003   0.743   3.475   0.534
 3035SOL    HW110004   0.753   3.410   0.610
 3035SOL    HW210005   0.834   3.502   0.502
 3036SOL     OW10006   3.191   2.201   5.378
 3036SOL    HW110007   3.182   2.265   5.302
 3036SOL    HW210008   3.244   2.121   5.348
 3037SOL     OW10009   0.818   5.754   6.850
 3037SOL    HW110010   0.812   5.790   6.757
 3037SOL    HW210011   0.829   5.830   6.915
 3038SOL     OW10012   5.744   4.478   6.001
 3038SOL    HW110013   5.836   4.475   6.039
 3038SOL    HW210014   5.717   4.573   5.984
 3039SOL     OW10015   6.610   3.792   5.900
 3039SOL    HW110016   6.525   3.786   5.848
 3039SOL    HW210017   6.596   3.753   5.991
 3040SOL     OW10018   5.656   5.147   6.385
 3040SOL    HW110019   5.661   5.241   6.353
 3040SOL    HW210020   5.675   5.085   6.309
 3041SOL     OW10021   1.111   4.488   5.772
 3041SOL    HW110022   1.127   4.434   5.854
 3041SOL    HW210023   1.045   4.440   5.713
 3042SOL     OW10024   0.462   5.266   3.913
 3042SOL    HW110025   0.401   5.336   3.949
 3042SOL    HW210026   0.412   5.206   3.851
 3043SOL     OW10027   2.683   5.070   0.583
 3043SOL    HW110028   2.634   5.148   0.623
 3043SOL    HW210029   2.706   5.005   0.655
 3044SOL     OW10030   3.817   3.380   4.450
 3044SOL    HW110031   3.724   3.406   4.474
 3044SOL    HW210032   3.861   3.455   4.401
 3045SOL     OW10033   4.254   1.888   2.088
 3045SOL    HW110034   4.330   1.952   2.099
 3045SOL    HW210035   4.168   1.939   2.094
 3046SOL     OW10036   5.002   6.619   0.676
 3046SOL    HW110037   5.020   6.714   0.703
 3046SOL    HW210038   5.077   6.585   0.620
 3047SOL     OW10039   5.635   1.463   4.950
 3047SOL    HW110040   5.728   1.486   4.977
 3047SOL    HW210041   5.600   1.389   5.007
 3048SOL     OW10042   3.666   4.681   1.174
 3048SOL    HW110043   3.633   4.749   1.239
 3048SOL    HW210044   3.592   4.657   1.111
 3049SOL     OW10045   0.905   1.818   2.902
 3049SOL    HW110046   0.938   1.727   2.930
 3049SOL    HW210047   0.847   1.808   2.821
 3050SOL     OW10048   3.504   2.011   0.137
 3050SOL    HW110049   3.451   2.044   0.216
 3050SOL    HW210050   3.581   2.073   0.121
 3051SOL     OW10051   2.165   5.288   5.644
 3051SOL    HW110052   2.107   5.360   5.607
 3051SOL    HW210053   2.246   5.276   5.587
 3052SOL     OW10054   0.004   7.016   2.220
 3052SOL    HW110055   7.007   7.016   2.318
 3052SOL    HW210056   6.947   6.974   2.172
 3053SOL     OW10057   0.996   4.026   0.573
 3053SOL    HW110058   1.080   4.076   0.592
 3053SOL    HW210059   0.987   3.950   0.637
 3054SOL     OW10060   5.105   0.530   2.842
 3054SOL    HW110061   5.030   0.541   2.907
 3054SOL    HW210062   5.089   0.587   2.762
 3055SOL     OW10063   5.792   6.381   6.582
 3055SOL    HW110064   5.795   6.284   6.608
 3055SOL    HW210065   5.768   6.388   6.486
 3056SOL     OW10066   4.649   1.312   5.968
 3056SOL    HW110067   4.697   1.245   5.912
 3056SOL    HW210068   4.620   1.389   5.911
 3057SOL     OW10069   5.147   3.701   2.924
 3057SOL    HW110070   5.056   3.725   2.958
 3057SOL    HW210071   5.145   3.610   2.884
 3058SOL     OW10072   0.453   4.554   6.000
 3058SOL    HW110073   0.416   4.618   5.934
 3058SOL    HW210074   0.459   4.463   5.960
 3059SOL     OW10075   1.579   1.756   3.323
 3059SOL    HW110076   1.522   1.676   3.303
 3059SOL    HW210077   1.606   1.800   3.237
 3060SOL     OW10078   5.591   4.850   4.450
 3060SOL    HW110079   5.577   4.773   4.512
 3060SOL    HW210080   5.534   4.927   4.478
 3061SOL     OW10081   6.144   6.974   4.295
 3061SOL    HW110082   6.086   6.959   4.215
 3061SOL    HW210083   6.236   6.943   4.275
 3062SOL     OW10084   4.263   4.412   0.642
 3062SOL    HW110085   4.229   4.351   0.571
 3062SOL    HW210086   4.215   4.393   0.728
 3063SOL     OW10087   0.686   4.641   2.560
 3063SOL    HW110088   0.668   4.563   2.499
 3063SOL    HW210089   0.609   4.653   2.622
 3064SOL     OW10090   4.832   2.285   6.879
 3064SOL    HW110091   4.909   2.254   6.935
 3064SOL    HW210092   4.842   2.383   6.860
 3065SOL     OW10093   5.954   1.821   0.044
 3065SOL    HW110094   6.048   1.789   0.048
 3065SOL    HW210095   5.913   1.794   6.977
 3066SOL     OW10096   5.180   6.627   4.697
 3066SOL    HW110097   5.118   6.698   4.730
 3066SOL    HW210098   5.275   6.656   4.714
 3067SOL     OW10099   1.204   2.537   5.285
 3067SOL    HW110100   1.109   2.566   5.273
 3067SOL    HW210101   1.221   2.515   5.381
 3068SOL     OW10102   6.954   0.617   0.789
 3068SOL    HW110103   6.914   0.691   0.734
 3068SOL    HW210104   6.910   0.615   0.879
 3069SOL     OW10105   5.190   6.624   3.533
 3069SOL    HW110106   5.261   6.556   3.550
 3069SOL    HW210107   5.184   6.686   3.611
 3070SOL     OW10108   1.834   0.743   0.425
 3070SOL    HW110109   1.925   0.703   0.427
 3070SOL    HW210110   1.830   0.821   0.487
 3071SOL     OW10111   5.966   4.533   5.128
 3071SOL    HW110112   5.971   4.572   5.036
 3071SOL    HW210113   5.884   4.566   5.174
 3072SOL     OW10114   2.025   6.603   6.087
 3072SOL    HW110115   2.019   6.513   6.046
 3072SOL    HW210116   1.950   6.660   6.054
 3073SOL     OW10117   7.002   4.768   2.135
 3073SOL    HW110118   7.005   4.722   2.224
 3073SOL    HW210119   6.995   4.699   2.063
 3074SOL     OW10120   3.245   2.571   1.761
 3074SOL    HW110121   3.309   2.525   1.700
 3074SOL    HW210122   3.155   2.528   1.755
 3075SOL     OW10123   3.021   5.010   1.714
 3075SOL    HW110124   3.074   5.046   1.637
 3075SOL    HW210125   3.074   5.020   1.798
 3076SOL     OW10126   0.736   0.952   5.201
 3076SOL    HW110127   0.827   0.986   5.225
 3076SOL    HW210128   0.687   0.927   5.284
 3077SOL     OW10129   6.939   4.023   2.542
 3077SOL    HW110130   0.018   4.011   2.551
 3077SOL    HW210131   6.903   3.959   2.474
 3078SOL     OW10132   0.054   3.416   1.783
 3078SOL    HW110133   0.081   3.427   1.879
 3078SOL    HW210134   6.992   3.359   1.778
 3079SOL     OW10135   2.268   3.895   5.601
 3079SOL    HW110136   2.320   3.978   5.623
 3079SOL    HW210137   2.268   3.881   5.502
 3080SOL     OW10138   3.448   4.494   1.066
 3080SOL    HW110139   3.372   4.456   1.118
 3080SOL    HW210140   3.489   4.422   1.010
 3081SOL     OW10141   1.296   3.671   0.253
 3081SOL    HW110142   1.254   3.757   0.283
 3081SOL    HW210143   1.272   3.598   0.317
 3082SOL     OW10144   4.785   5.583   4.378
 3082SOL    HW110145   4.799   5.510   4.445
 3082SOL    HW210146   4.707   5.562   4.320
 3083SOL     OW10147   3.939   5.671   1.623
 3083SOL    HW110148   4.036   5.668   1.648
 3083SOL    HW210149   3.886   5.705   1.701
 3084SOL     OW10150   6.699   4.877   4.485
 3084SOL    HW110151   6.605   4.884   4.515
 3084SOL    HW210152   6.730   4.782   4.491
 3085SOL     OW10153   6.144   5.411   0.082
 3085SOL    HW110154   6.226   5.408   0.138
 3085SOL    HW210155   6.087   5.489   0.109
 3086SOL     OW10156   6.320   6.358   6.381
 3086SOL    HW110157   6.336   6.406   6.467
 3086SOL    HW210158   6.402   6.306   6.357
 3087SOL     OW10159   3.368   6.843   2.134
 3087SOL    HW110160   3.445   6.848   2.069
 3087SOL    HW210161   3.285   6.876   2.089
 3088SOL     OW10162   2.133   3.324   5.755
 3088SOL    HW110163   2.120   3.345   5.852
 3088SOL    HW210164   2.066   3.375   5.700
 3089SOL     OW10165   4.611   5.084   6.109
 3089SOL    HW110166   4.673   5.136   6.168
 3089SOL    HW210167   4.527   5.136   6.094
 3090SOL     OW10168   0.364   2.496   2.488
 3090SOL    HW110169   0.354   2.575   2.428
 3090SOL    HW210170   0.455   2.497   2.529
 3091SOL     OW10171   0.635   2.782   1.272
 3091SOL    HW110172   0.691   2.847   1.323
 3091SOL    HW210173   0.538   2.798   1.290
 3092SOL     OW10174   5.931   1.454   2.318
 3092SOL    HW110175   5.858   1.432   2.253
 3092SOL    HW210176   6.011   1.486   2.268
 3093SOL     OW10177   6.097   5.793   0.198
 3093SOL    HW110178   6.107   5.744   0.285
 3093SOL    HW210179   6.187   5.804   0.155
 3094SOL     OW10180   2.053   2.273   6.735
 3094SOL    HW110181   2.095   2.359   6.765
 3094SOL    HW210182   2.083   2.252   6.642
 3095SOL     OW10183   1.975   4.121   5.809
 3095SOL    HW110184   2.011   4.196   5.754
 3095SOL    HW210185   2.020   4.120   5.898
 3096SOL     OW10186   0.351   3.217   4.000
 3096SOL    HW110187   0.417   3.233   4.074
 3096SOL    HW210188   0.399   3.219   3.913
 3097SOL     OW10189   5.606   2.750   5.356
 3097SOL    HW110190   5.571   2.688   5.285
 3097SOL    HW210191   5.567   2.840   5.343
 3098SOL     OW10192   1.858   3.447   2.947
 3098SOL    HW110193   1.776   3.443   3.003
 3098SOL    HW210194   1.922   3.377   2.977
 3099SOL     OW10195   0.209   6.288   4.901
 3099SOL    HW110196   0.128   6.348   4.896
 3099SOL    HW210197   0.262   6.311   4.983
 3100SOL     OW10198   5.546   4.975   1.773
 3100SOL    HW110199   5.493   4.890   1.778
 3100SOL    HW210200   5.489   5.051   1.805
 3101SOL     OW10201   4.459   0.078   5.200
 3101SOL    HW110202   4.530   0.013   5.225
 3101SOL    HW210203   4.408   0.104   5.282
 3102SOL     OW10204   6.677   4.759   1.865
 3102SOL    HW110205   6.637   4.848   1.841
 3102SOL    HW210206   6.662   4.740   1.962
 3103SOL     OW10207   3.127   1.417   1.773
 3103SOL    HW110208   3.040   1.465   1.785
 3103SOL    HW210209   3.117   1.323   1.805
 3104SOL     OW10210   4.724   1.495   5.139
 3104SOL    HW110211   4.789   1.520   5.068
 3104SOL    HW210212   4.749   1.539   5.225
 3105SOL     OW10213   5.916   3.706   0.094
 3105SOL    HW110214   5.983   3.643   0.132
 3105SOL    HW210215   5.850   3.730   0.166
 3106SOL     OW10216   5.675   0.895   5.777
 3106SOL    HW110217   5.628   0.964   5.831
 3106SOL    HW210218   5.738   0.844   5.836
 3107SOL     OW10219   3.523   1.954   4.980
 3107SOL    HW110220   3.585   1.878   4.998
 3107SOL    HW210221   3.508   1.963   4.882
 3108SOL     OW10222   2.206   4.329   3.465
 3108SOL    HW110223   2.207   4.352   3.563
 3108SOL    HW210224   2.297   4.343   3.427
 3109SOL     OW10225   6.592   6.310   4.335
 3109SOL    HW110226   6.571   6.233   4.395
 3109SOL    HW210227   6.514   6.328   4.275
 3110SOL     OW10228   0.798   4.905   2.723
 3110SOL    HW110229   0.748   4.838   2.668
 3110SOL    HW210230   0.780   4.997   2.687
 3111SOL     OW10231   5.723   4.705   3.911
 3111SOL    HW110232   5.720   4.607   3.928
 3111SOL    HW210233   5.818   4.735   3.902
 3112SOL     OW10234   3.364   1.243   5.884
 3112SOL    HW110235   3.452   1.289   5.895
 3112SOL    HW210236   3.314   1.284   5.809
 3113SOL     OW10237   1.643   6.452   3.104
 3113SOL    HW110238   1.674   6.363   3.070
 3113SOL    HW210239   1.680   6.467   3.196
 3114SOL     OW10240   4.817   1.538   5.917
 3114SOL    HW110241   4.830   1.569   6.012
 3114SOL    HW210242   4.891   1.477   5.891
 3115SOL     OW10243   4.840   5.288   5.293
 3115SOL    HW110244   4.841   5.286   5.393
 3115SOL    HW210245   4.746   5.279   5.261
 3116SOL     OW10246   0.559   0.410   0.119
 3116SOL    HW110247   0.530   0.339   0.055
 3116SOL    HW210248   0.580   0.494   0.069
 3117SOL     OW10249   4.943   0.695   6.416
 3117SOL    HW110250   4.892   0.745   6.346
 3117SOL    HW210251   5.036   0.731   6.422
 3118SOL     OW10252   1.189   1.775   3.787
 3118SOL    HW110253   1.235   1.708   3.729
 3118SOL    HW210254   1.234   1.864   3.778
 3119SOL     OW10255   4.463   5.337   5.015
 3119SOL    HW110256   4.502   5.428   5.011
 3119SOL    HW210257   4.499   5.288   5.094
 3120SOL     OW10258   2.078   5.850   5.866
 3120SOL    HW110259   2.001   5.788   5.878
 3120SOL    HW210260   2.093   5.902   5.951
 3121SOL     OW10261   3.751   1.779   4.267
 3121SOL    HW110262   3.827   1.823   4.219
 3121SOL    HW210263   3.714   1.842   4.335
 3122SOL     OW10264   5.255   4.924   4.694
 3122SOL    HW110265   5.264   4.987   4.771
 3122SOL    HW210266   5.222   4.974   4.613
 3123SOL     OW10267   2.252   1.254   3.524
 3123SOL    HW110268   2.261   1.179   3.589
 3123SOL    HW210269   2.323   1.322   3.542
 3124SOL     OW10270   4.992   0.112   4.409
 3124SOL    HW110271   4.926   0.153   4.346
 3124SOL    HW210272   5.014   0.178   4.482
 3125SOL     OW10273   1.468   1.231   5.144
 3125SOL    HW110274   1.565   1.230   5.117
 3125SOL    HW210275   1.414   1.189   5.072
 3126SOL     OW10276   5.521   5.204   5.341
 3126SOL    HW110277   5.593   5.223   5.274
 3126SOL    HW210278   5.555   5.139   5.409
 3127SOL     OW10279   0.349   0.905   5.368
 3127SOL    HW110280   0.360   0.913   5.269
 3127SOL    HW210281   0.298   0.822   5.389
 3128SOL     OW10282   3.696   0.379   0.574
 3128SOL    HW110283   3.762   0.311   0.605
 3128SOL    HW210284   3.718   0.468   0.613
 3129SOL     OW10285   4.292   3.642   0.473
 3129SOL    HW110286   4.301   3.547   0.501
 3129SOL    HW210287   4.347   3.657   0.390
 3130SOL     OW10288   6.698   5.002   2.456
 3130SOL    HW110289   6.652   4.962   2.376
 3130SOL    HW210290   6.745   5.086   2.429
 3131SOL     OW10291   6.213   4.477   3.036
 3131SOL    HW110292   6.193   4.466   3.133
 3131SOL    HW210293   6.253   4.567   3.020
 3132SOL     OW10294   4.497   4.531   0.147
 3132SOL    HW110295   4.554   4.454   0.119
 3132SOL    HW210296   4.431   4.501   0.216
 3133SOL     OW10297   4.208   0.194   4.585
 3133SOL    HW110298   4.223   0.095   4.581
 3133SOL    HW210299   4.295   0.240   4.605
 3134SOL     OW10300   5.487   4.864   2.383
 3134SOL    HW110301   5.400   4.910   2.366
 3134SOL    HW210302   5.549   4.883   2.307
 3135SOL     OW10303   4.471   5.453   6.618
 3135SOL    HW110304   4.469   5.539   6.568
 3135SOL    HW210305   4.522   5.465   6.704
 3136SOL     OW10306   6.701   1.305   3.288
 3136SOL    HW110307   6.699   1.304   3.388
 3136SOL    HW210308   6.767   1.373   3.256
 3137SOL     OW10309   6.072   6.618   6.471
 3137SOL    HW110310   6.149   6.670   6.432
 3137SOL    HW210311   6.043   6.548   6.406
 3138SOL     OW10312   5.894   6.401   4.153
 3138SOL    HW110313   5.814   6.424   4.098
 3138SOL    HW210314   5.865   6.358   4.238
 3139SOL     OW10315   2.522   5.247   1.497
 3139SOL    HW110316   2.448   5.181   1.515
 3139SOL    HW210317   2.486   5.322   1.443
 3140SOL     OW10318   6.706   6.328   6.114
 3140SOL    HW110319   6.650   6.261   6.065
 3140SOL    HW210320   6.656   6.361   6.194
 3141SOL     OW10321   6.626   1.555   6.287
 3141SOL    HW110322   6.639   1.533   6.191
 3141SOL    HW210323   6.534   1.530   6.316
 3142SOL     OW10324   4.219   0.700   3.813
 3142SOL    HW110325   4.284   0.633   3.848
 3142SOL    HW210326   4.245   0.791   3.846
 3143SOL     OW10327   6.130   1.316   0.622
 3143SOL    HW110328   6.170   1.340   0.710
 3143SOL    HW210329   6.081   1.229   0.631
 3144SOL     OW10330   3.905   4.165   0.311
 3144SOL    HW110331   3.852   4.083   0.334
 3144SOL    HW210332   3.855   4.246   0.342
 3145SOL     OW10333   6.973   6.724   0.564
 3145SOL    HW110334   6.967   6.722   0.465
 3145SOL    HW210335   6.947   6.634   0.601
 3146SOL     OW10336   0.481   1.017   4.816
 3146SOL    HW110337   0.458   1.111   4.792
 3146SOL    HW210338   0.454   0.956   4.742
 3147SOL     OW10339   3.646   5.403   0.739
 3147SOL    HW110340   3.613   5.498   0.736
 3147SOL    HW210341   3.686   5.385   0.828
 3148SOL     OW10342   6.760   5.270   1.987
 3148SOL    HW110343   6.815   5.210   2.045
 3148SOL    HW210344   6.799   5.270   1.894
 3149SOL     OW10345   2.777   1.931   6.980
 3149SOL    HW110346   2.853   1.953   0.021
 3149SOL    HW210347   2.772   1.998   6.907
 3150SOL     OW10348   6.292   5.764   5.042
 3150SOL    HW110349   6.216   5.753   4.977
 3150SOL    HW210350   6.298   5.683   5.100
 3151SOL     OW10351   6.936   0.602   5.880
 3151SOL    HW110352   6.941   0.578   5.977
 3151SOL    HW210353   7.015   0.658   5.856
 3152SOL     OW10354   1.586   3.287   6.327
 3152SOL    HW110355   1.488   3.277   6.345
 3152SOL    HW210356   1.607   3.255   6.235
 3153SOL     OW10357   6.064   4.872   1.153
 3153SOL    HW110358   6.069   4.952   1.212
 3153SOL    HW210359   6.056   4.790   1.208
 3154SOL     OW10360   4.861   1.250   0.204
 3154SOL    HW110361   4.768   1.248   0.241
 3154SOL    HW210362   4.873   1.175   0.140
 3155SOL     OW10363   0.861   4.575   0.338
 3155SOL    HW110364   0.780   4.516   0.341
 3155SOL    HW210365   0.856   4.643   0.411
 3156SOL     OW10366   3.742   4.340   1.697
 3156SOL    HW110367   3.824   4.352   1.641
 3156SOL    HW210368   3.765   4.288   1.779
 3157SOL     OW10369   0.661   1.067   5.694
 3157SOL    HW110370   0.722   1.063   5.615
 3157SOL    HW210371   0.654   0.976   5.735
 3158SOL     OW10372   1.381   1.174   6.003
 3158SOL    HW110373   1.382   1.259   5.950
 3158SOL    HW210374   1.400   1.194   6.099
 3159SOL     OW10375   6.065   0.514   6.832
 3159SOL    HW110376   5.974   0.553   6.817
 3159SOL    HW210377   6.081   0.503   6.930
 3160SOL     OW10378   1.875   0.025   6.300
 3160SOL    HW110379   1.956   6.998   6.336
 3160SOL    HW210380   1.821   0.061   6.376
 3161SOL     OW10381   2.254   2.259   2.039
 3161SOL    HW110382   2.322   2.323   2.073
 3161SOL    HW210383   2.186   2.241   2.110
 3162SOL     OW10384   2.068   5.346   1.097
 3162SOL    HW110385   2.066   5.369   1.194
 3162SOL    HW210386   2.139   5.400   1.051
 3163SOL     OW10387   4.335   4.263   0.229
 3163SOL    HW110388   4.265   4.255   0.300
 3163SOL    HW210389   4.401   4.189   0.238
 3164SOL     OW10390   2.310   6.850   2.958
 3164SOL    HW110391   2.329   6.778   2.891
 3164SOL    HW210392   2.226   6.828   3.008
 3165SOL     OW10393   0.863   6.712   6.681
 3165SOL    HW110394   0.777   6.717   6.630
 3165SOL    HW210395   0.844   6.720   6.779
 3166SOL     OW10396   4.965   0.685   4.666
 3166SOL    HW110397   4.972   0.728   4.756
 3166SOL    HW210398   5.007   0.595   4.669
 3167SOL     OW10399   5.820   3.208   0.469
 3167SOL    HW110400   5.767   3.264   0.532
 3167SOL    HW210401   5.882   3.149   0.520
 3168SOL     OW10402   5.165   1.975   0.698
 3168SOL    HW110403   5.214   2.034   0.634
 3168SOL    HW210404   5.122   1.900   0.648
 3169SOL     OW10405   2.299   4.764   2.033
 3169SOL    HW110406   2.323   4.840   2.093
 3169SOL    HW210407   2.382   4.719   2.000
 3170SOL     OW10408   2.112   4.171   3.109
 3170SOL    HW110409   2.122   4.241   3.180
 3170SOL    HW210410   2.119   4.080   3.151
 3171SOL     OW10411   5.064   2.239   3.823
 3171SOL    HW110412   5.102   2.199   3.906
 3171SOL    HW210413   5.121   2.315   3.793
 3172SOL     OW10414   6.309   4.138   1.963
 3172SOL    HW110415   6.325   4.233   1.989
 3172SOL    HW210416   6.243   4.134   1.889
 3173SOL     OW10417   4.203   3.011   0.844
 3173SOL    HW110418   4.273   3.054   0.787
 3173SOL    HW210419   4.158   3.080   0.900
 3174SOL     OW10420   2.997   3.614   6.211
 3174SOL    HW110421   3.018   3.678   6.137
 3174SOL    HW210422   3.082   3.589   6.258
 3175SOL     OW10423   5.638   1.039   4.650
 3175SOL    HW110424   5.587   1.012   4.732
 3175SOL    HW210425   5.617   0.975   4.576
 3176SOL     OW10426   0.865   4.740   4.618
 3176SOL    HW110427   0.787   4.740   4.680
 3176SOL    HW210428   0.944   4.699   4.664
 3177SOL     OW10429   5.219   3.763   3.669
 3177SOL    HW110430   5.128   3.782   3.706
 3177SOL    HW210431   5.273   3.847   3.671
 3178SOL     OW10432   6.690   1.069   1.693
 3178SOL    HW110433   6.737   1.114   1.769
 3178SOL    HW210434   6.701   0.970   1.701
 3179SOL     OW10435   1.125   1.632   1.656
 3179SOL    HW110436   1.035   1.631   1.613
 3179SOL    HW210437   1.117   1.601   1.751
 3180SOL     OW10438   6.949   6.346   0.044
 3180SOL    HW110439   6.937   6.257   0.086
 3180SOL    HW210440   6.860   6.392   0.037
 3181SOL     OW10441   1.843   0.098   4.620
 3181SOL    HW110442   1.795   0.016   4.589
 3181SOL    HW210443   1.936   0.097   4.585
 3182SOL     OW10444   2.290   1.260   0.874
 3182SOL    HW110445   2.387   1.282   0.880
 3182SOL    HW210446   2.278   1.161   0.877
 3183SOL     OW10447   4.210   3.872   1.071
 3183SOL    HW110448   4.120   3.912   1.051
 3183SOL    HW210449   4.200   3.801   1.141
 3184SOL     OW10450   0.630   2.411   4.942
 3184SOL    HW110451   0.561   2.342   4.921
 3184SOL    HW210452   0.593   2.502   4.923
 3185SOL     OW10453   0.500   5.387   6.258
 3185SOL    HW110454   0.449   5.446   6.320
 3185SOL    HW210455   0.456   5.388   6.168
 3186SOL     OW10456   0.332   1.796   6.470
 3186SOL    HW110457   0.369   1.831   6.384
 3186SOL    HW210458   0.398   1.732   6.510
 3187SOL     OW10459   4.384   5.700   2.230
 3187SOL    HW110460   4.373   5.662   2.322
 3187SOL    HW210461   4.404   5.627   2.165
 3188SOL     OW10462   2.222   5.345   6.215
 3188SOL    HW110463   2.319   5.323   6.225
 3188SOL    HW210464   2.181   5.283   6.148
 3189SOL     OW10465   3.547   2.009   5.384
 3189SOL    HW110466   3.507   2.020   5.293
 3189SOL    HW210467   3.579   2.097   5.417
 3190SOL     OW10468   5.755   6.238   4.884
 3190SOL    HW110469   5.701   6.239   4.800
 3190SOL    HW210470   5.737   6.321   4.937
 3191SOL     OW10471   4.343   5.604   1.462
 3191SOL    HW110472   4.414   5.544   1.498
 3191SOL    HW210473   4.284   5.552   1.401
 3192SOL     OW10474   5.839   2.172   2.723
 3192SOL    HW110475   5.871   2.115   2.799
 3192SOL    HW210476   5.750   2.210   2.745
 3193SOL     OW10477   3.443   0.158   5.337
 3193SOL    HW110478   3.465   0.217   5.259
 3193SOL    HW210479   3.478   0.066   5.320
 3194SOL     OW10480   1.849   0.375   6.643
 3194SOL    HW110481   1.905   0.313   6.588
 3194SOL    HW210482   1.808   0.324   6.719
 3195SOL     OW10483   6.884   1.813   1.379
 3195SOL    HW110484   6.927   1.902   1.391
 3195SOL    HW210485   6.942   1.741   1.417
 3196SOL     OW10486   6.203   0.653   3.759
 3196SOL    HW110487   6.245   0.586   3.821
 3196SOL    HW210488   6.137   0.708   3.810
 3197SOL     OW10489   1.998   1.147   6.538
 3197SOL    HW110490   2.018   1.077   6.470
 3197SOL    HW210491   1.967   1.103   6.623
 3198SOL     OW10492   5.700   2.880   3.066
 3198SOL    HW110493   5.739   2.797   3.106
 3198SOL    HW210494   5.756   2.911   2.990
 3199SOL     OW10495   5.461   3.565   3.318
 3199SOL    HW110496   5.445   3.610   3.231
 3199SOL    HW210497   5.388   3.498   3.335
 3200SOL     OW10498   5.460   3.097   3.974
 3200SOL    HW110499   5.468   3.194   3.953
 3200SOL    HW210500   5.455   3.044   3.890
 3201SOL     OW10501   5.991   4.561   2.867
 3201SOL    HW110502   5.917   4.495   2.875
 3201SOL    HW210503   6.068   4.532   2.924
 3202SOL     OW10504   1.614   4.119   6.751
 3202SOL    HW110505   1.640   4.109   6.655
 3202SOL    HW210506   1.515   4.130   6.759
 3203SOL     OW10507   3.304   6.714   1.680
 3203SOL    HW110508   3.234   6.786   1.691
 3203SOL    HW210509   3.352   6.728   1.594
 3204SOL     OW10510   3.159   1.479   2.955
 3204SOL    HW110511   3.227   1.530   3.006
 3204SOL    HW210512   3.093   1.438   3.018
 3205SOL     OW10513   5.003   3.523   5.497
 3205SOL    HW110514   4.989   3.617   5.467
 3205SOL    HW210515   4.924   3.467   5.472
 3206SOL     OW10516   3.297   3.424   1.086
 3206SOL    HW110517   3.297   3.516   1.125
 3206SOL    HW210518   3.365   3.368   1.133
 3207SOL     OW10519   1.415   5.559   5.522
 3207SOL    HW110520   1.316   5.577   5.517
 3207SOL    HW210521   1.451   5.599   5.606
 3208SOL     OW10522   6.282   5.317   6.165
 3208SOL    HW110523   6.380   5.324   6.149
 3208SOL    HW210524   6.235   5.392   6.117
 3209SOL     OW10525   5.256   5.893   6.724
 3209SOL    HW110526   5.352   5.872   6.705
 3209SOL    HW210527   5.227   5.972   6.670
 3210SOL     OW10528   6.063   5.827   1.970
 3210SOL    HW110529   6.130   5.817   2.044
 3210SOL    HW210530   5.974   5.847   2.010
 3211SOL     OW10531   1.035   5.086   6.122
 3211SOL    HW110532   0.980   5.009   6.156
 3211SOL    HW210533   1.131   5.060   6.119
 3212SOL     OW10534   1.990   0.627   3.176
 3212SOL    HW110535   2.069   0.569   3.195
 3212SOL    HW210536   1.906   0.578   3.202
 3213SOL     OW10537   1.648   0.557   6.531
 3213SOL    HW110538   1.622   0.532   6.438
 3213SOL    HW210539   1.733   0.511   6.556
 3214SOL     OW10540   3.254   1.099   2.908
 3214SOL    HW110541   3.322   1.171   2.895
 3214SOL    HW210542   3.203   1.117   2.992
 3215SOL     OW10543   2.157   3.167   1.008
 3215SOL    HW110544   2.181   3.247   0.952
 3215SOL    HW210545   2.238   3.113   1.027
 3216SOL     OW10546   6.054   4.550   0.473
 3216SOL    HW110547   6.066   4.477   0.406
 3216SOL    HW210548   6.059   4.511   0.565
 3217SOL     OW10549   0.534   5.990   2.569
 3217SOL    HW110550   0.629   6.016   2.556
 3217SOL    HW210551   0.520   5.959   2.662
 3218SOL     OW10552   5.403   0.925   2.881
 3218SOL    HW110553   5.488   0.941   2.829
 3218SOL    HW210554   5.426   0.896   2.974
 3219SOL     OW10555   6.020   1.114   5.667
 3219SOL    HW110556   6.095   1.178   5.654
 3219SOL    HW210557   5.944   1.139   5.607
 3220SOL     OW10558   0.206   4.571   6.595
 3220SOL    HW110559   0.227   4.584   6.499
 3220SOL    HW210560   0.115   4.608   6.615
 3221SOL     OW10561   3.423   0.619   1.292
 3221SOL    HW110562   3.342   0.661   1.251
 3221SOL    HW210563   3.418   0.628   1.392
 3222SOL     OW10564   3.609   1.795   3.001
 3222SOL    HW110565   3.671   1.805   2.923
 3222SOL    HW210566   3.534   1.860   2.993
 3223SOL     OW10567   1.312   6.385   1.001
 3223SOL    HW110568   1.283   6.416   1.091
 3223SOL    HW210569   1.284   6.451   0.932
 3224SOL     OW10570   3.584   1.914   3.901
 3224SOL    HW110571   3.552   1.941   3.992
 3224SOL    HW210572   3.543   1.827   3.875
 3225SOL     OW10573   3.923   0.724   3.869
 3225SOL    HW110574   3.888   0.771   3.788
 3225SOL    HW210575   4.021   0.707   3.858
 3226SOL     OW10576   0.004   0.438   1.174
 3226SOL    HW110577   0.036   0.421   1.267
 3226SOL    HW210578   6.949   0.504   1.176
 3227SOL     OW10579   4.922   4.257   5.163
 3227SOL    HW110580   4.975   4.230   5.083
 3227SOL    HW210581   4.983   4.278   5.239
 3228SOL     OW10582   2.521   3.696   0.240
 3228SOL    HW110583   2.579   3.739   0.172
 3228SOL    HW210584   2.425   3.712   0.218
 3229SOL     OW10585   1.539   1.623   0.754
 3229SOL    HW110586   1.577   1.655   0.667
 3229SOL    HW210587   1.502   1.701   0.805
 3230SOL     OW10588   2.879   5.932   5.646
 3230SOL    HW110589   2.874   5.844   5.694
 3230SOL    HW210590   2.966   5.937   5.595
 3231SOL     OW10591   2.121   1.914   2.320
 3231SOL    HW110592   2.063   1.994   2.304
 3231SOL    HW210593   2.216   1.944   2.329
 3232SOL     OW10594   3.960   5.155   4.121
 3232SOL    HW110595   4.042   5.161   4.065
 3232SOL    HW210596   3.985   5.162   4.218
 3233SOL     OW10597   0.148   1.910   0.506
 3233SOL    HW110598   0.204   1.874   0.580
 3233SOL    HW210599   0.174   1.866   0.420
 3234SOL     OW10600   2.419   2.743   0.737
 3234SOL    HW110601   2.476   2.685   0.796
 3234SOL    HW210602   2.455   2.836   0.737
 3235SOL     OW10603   0.658   6.906   2.611
 3235SOL    HW110604   0.722   6.890   2.535
 3235SOL    HW210605   0.586   6.968   2.582
 3236SOL     OW10606   3.633   2.363   0.141
 3236SOL    HW110607   3.672   2.275   0.117
 3236SOL    HW210608   3.673   2.395   0.227
 3237SOL     OW10609   5.910   1.471   4.987
 3237SOL    HW110610   5.913   1.388   5.043
 3237SOL    HW210611   5.934   1.550   5.044
 3238SOL     OW10612   6.646   4.993   1.749
 3238SOL    HW110613   6.552   5.025   1.758
 3238SOL    HW210614   6.707   5.071   1.741
 3239SOL     OW10615   6.739   6.903   4.542
 3239SOL    HW110616   6.653   6.952   4.561
 3239SOL    HW210617   6.803   6.964   4.497
 3240SOL     OW10618   0.561   0.648   6.957
 3240SOL    HW110619   0.571   0.656   6.858
 3240SOL    HW210620   0.480   0.698   6.987
 3241SOL     OW10621   6.173   1.900   5.660
 3241SOL    HW110622   6.108   1.854   5.600
 3241SOL    HW210623   6.123   1.962   5.721
 3242SOL     OW10624   5.626   3.955   4.887
 3242SOL    HW110625   5.695   3.976   4.957
 3242SOL    HW210626   5.649   4.004   4.803
 3243SOL     OW10627   5.552   4.738   4.979
 3243SOL    HW110628   5.637   4.790   4.971
 3243SOL    HW210629   5.488   4.788   5.036
 3244SOL     OW10630   5.232   0.098   6.737
 3244SOL    HW110631   5.188   0.037   6.803
 3244SOL    HW210632   5.282   0.170   6.785
 3245SOL     OW10633   3.938   0.878   5.603
 3245SOL    HW110634   3.921   0.783   5.573
 3245SOL    HW210635   3.891   0.894   5.690
 3246SOL     OW10636   6.462   0.191   2.846
 3246SOL    HW110637   6.368   0.206   2.877
 3246SOL    HW210638   6.484   0.094   2.851
 3247SOL     OW10639   0.318   4.575   3.380
 3247SOL    HW110640   0.415   4.558   3.400
 3247SOL    HW210641   0.294   4.527   3.295
 3248SOL     OW10642   5.281   2.202   4.012
 3248SOL    HW110643   5.364   2.239   4.052
 3248SOL    HW210644   5.305   2.126   3.951
 3249SOL     OW10645   3.134   4.006   3.902
 3249SOL    HW110646   3.081   3.965   3.828
 3249SOL    HW210647   3.081   4.079   3.945
 3250SOL     OW10648   4.644   5.399   2.263
 3250SOL    HW110649   4.598   5.469   2.208
 3250SOL    HW210650   4.581   5.361   2.330
 3251SOL     OW10651   2.376   1.365   2.781
 3251SOL    HW110652   2.299   1.351   2.842
 3251SOL    HW210653   2.417   1.277   2.758
 3252SOL     OW10654   2.187   1.212   2.956
 3252SOL    HW110655   2.212   1.116   2.943
 3252SOL    HW210656   2.126   1.220   3.034
 3253SOL     OW10657   6.861   3.704   0.643
 3253SOL    HW110658   6.899   3.777   0.586
 3253SOL    HW210659   6.796   3.651   0.589
 3254SOL     OW10660   6.124   0.344   1.019
 3254SOL    HW110661   6.203   0.384   0.971
 3254SOL    HW210662   6.143   0.342   1.117
 3255SOL     OW10663   4.839   5.736   1.051
 3255SOL    HW110664   4.746   5.744   1.015
 3255SOL    HW210665   4.902   5.787   0.992
 3256SOL     OW10666   4.940   1.967   1.290
 3256SOL    HW110667   4.995   2.049   1.277
 3256SOL    HW210668   4.851   1.980   1.247
 3257SOL     OW10669   2.623   2.186   3.079
 3257SOL    HW110670   2.676   2.248   3.021
 3257SOL    HW210671   2.684   2.142   3.145
 3258SOL     OW10672   2.435   5.877   3.814
 3258SOL    HW110673   2.528   5.914   3.820
 3258SOL    HW210674   2.411   5.862   3.718
 3259SOL     OW10675   4.775   4.287   3.522
 3259SOL    HW110676   4.819   4.354   3.462
 3259SOL    HW210677   4.691   4.326   3.561
 3260SOL     OW10678   0.760   4.371   2.739
 3260SOL    HW110679   0.707   4.432   2.681
 3260SOL    HW210680   0.769   4.411   2.830
 3261SOL     OW10681   5.448   6.905   3.738
 3261SOL    HW110682   5.483   6.935   3.827
 3261SOL    HW210683   5.522   6.865   3.684
 3262SOL     OW10684   3.235   2.138   2.541
 3262SOL    HW110685   3.207   2.185   2.457
 3262SOL    HW210686   3.309   2.075   2.520
 3263SOL     OW10687   0.193   1.697   2.447
 3263SOL    HW110688   0.178   1.795   2.438
 3263SOL    HW210689   0.290   1.679   2.463
 3264SOL     OW10690   1.628   5.067   0.440
 3264SOL    HW110691   1.628   5.050   0.341
 3264SOL    HW210692   1.552   5.019   0.482
 3265SOL     OW10693   5.985   4.837   6.434
 3265SOL    HW110694   5.927   4.772   6.384
 3265SOL    HW210695   5.927   4.904   6.481
 3266SOL     OW10696   3.190   5.010   6.878
 3266SOL    HW110697   3.114   5.040   6.820
 3266SOL    HW210698   3.270   5.066   6.859
 3267SOL     OW10699   4.237   6.791   0.958
 3267SOL    HW110700   4.204   6.884   0.976
 3267SOL    HW210701   4.297   6.762   1.033
 3268SOL     OW10702   6.351   5.456   1.873
 3268SOL    HW110703   6.302   5.368   1.875
 3268SOL    HW210704   6.333   5.506   1.957
 3269SOL     OW10705   1.454   4.936   1.945
 3269SOL    HW110706   1.446   5.026   1.901
 3269SOL    HW210707   1.435   4.946   2.043
 3270SOL     OW10708   0.651   3.306   5.452
 3270SOL    HW110709   0.565   3.266   5.422
 3270SOL    HW210710   0.713   3.234   5.483
 3271SOL     OW10711   0.484   2.900   2.892
 3271SOL    HW110712   0.394   2.912   2.851
 3271SOL    HW210713   0.475   2.879   2.989
 3272SOL     OW10714   4.280   6.140   0.704
 3272SOL    HW110715   4.370   6.152   0.662
 3272SOL    HW210716   4.243   6.229   0.729
 3273SOL     OW10717   5.171   2.377   6.179
 3273SOL    HW110718   5.190   2.356   6.083
 3273SOL    HW210719   5.074   2.397   6.190
 3274SOL     OW10720   5.674   0.367   0.324
 3274SOL    HW110721   5.704   0.436   0.259
 3274SOL    HW210722   5.584   0.333   0.298
 3275SOL     OW10723   4.373   0.452   1.194
 3275SOL    HW110724   4.329   0.386   1.256
 3275SOL    HW210725   4.448   0.407   1.146
 3276SOL     OW10726   5.136   0.372   0.558
 3276SOL    HW110727   5.108   0.366   0.654
 3276SOL    HW210728   5.076   0.315   0.502
 3277SOL     OW10729   3.816   2.022   1.947
 3277SOL    HW110730   3.825   2.032   1.848
 3277SOL    HW210731   3.733   2.069   1.978
 3278SOL     OW10732   6.962   0.252   0.385
 3278SOL    HW110733   6.911   0.290   0.308
 3278SOL    HW210734   0.016   0.315   0.411
 3279SOL     OW10735   3.398   0.104   1.815
 3279SOL    HW110736   3.299   0.114   1.813
 3279SOL    HW210737   3.433   0.136   1.904
 3280SOL     OW10738   5.754   4.118   4.168
 3280SOL    HW110739   5.751   4.218   4.164
 3280SOL    HW210740   5.677   4.085   4.223
 3281SOL     OW10741   6.096   3.379   1.264
 3281SOL    HW110742   6.063   3.452   1.323
 3281SOL    HW210743   6.023   3.349   1.203
 3282SOL     OW10744   0.594   4.864   3.982
 3282SOL    HW110745   0.656   4.923   3.929
 3282SOL    HW210746   0.600   4.771   3.947
 3283SOL     OW10747   3.602   1.694   0.397
 3283SOL    HW110748   3.674   1.726   0.337
 3283SOL    HW210749   3.607   1.594   0.405
 3284SOL     OW10750   1.766   6.202   4.118
 3284SOL    HW110751   1.775   6.152   4.204
 3284SOL    HW210752   1.840   6.175   4.055
 3285SOL     OW10753   4.108   1.559   5.095
 3285SOL    HW110754   4.107   1.650   5.137
 3285SOL    HW210755   4.152   1.494   5.156
 3286SOL     OW10756   3.121   1.459   1.427
 3286SOL    HW110757   3.184   1.534   1.446
 3286SOL    HW210758   3.042   1.466   1.489
 3287SOL     OW10759   2.228   0.041   6.673
 3287SOL    HW110760   2.311   0.095   6.660
 3287SOL    HW210761   2.159   0.096   6.721
 3288SOL     OW10762   1.972   6.417   1.696
 3288SOL    HW110763   1.883   6.412   1.650
 3288SOL    HW210764   2.030   6.484   1.648
 3289SOL     OW10765   4.142   1.604   7.018
 3289SOL    HW110766   4.234   1.565   0.000
 3289SOL    HW210767   4.085   1.562   0.069
 3290SOL     OW10768   0.499   5.497   0.256
 3290SOL    HW110769   0.556   5.578   0.274
 3290SOL    HW210770   0.505   5.434   0.333
 3291SOL     OW10771   4.799   6.409   5.373
 3291SOL    HW110772   4.763   6.341   5.437
 3291SOL    HW210773   4.863   6.365   5.310
 3292SOL     OW10774   6.733   2.141   1.291
 3292SOL    HW110775   6.716   2.082   1.212
 3292SOL    HW210776   6.772   2.228   1.260
 3293SOL     OW10777   5.695   5.653   3.207
 3293SOL    HW110778   5.631   5.709   3.154
 3293SOL    HW210779   5.772   5.628   3.148
 3294SOL     OW10780   5.116   2.335   5.139
 3294SOL    HW110781   5.076   2.410   5.193
 3294SOL    HW210782   5.070   2.250   5.161
 3295SOL     OW10783   1.276   2.815   2.250
 3295SOL    HW110784   1.366   2.851   2.225
 3295SOL    HW210785   1.212   2.831   2.174
 3296SOL     OW10786   2.074   0.361   5.777
 3296SOL    HW110787   1.990   0.308   5.792
 3296SOL    HW210788   2.143   0.302   5.735
 3297SOL     OW10789   3.233   1.374   4.789
 3297SOL    HW110790   3.237   1.310   4.865
 3297SOL    HW210791   3.160   1.348   4.727
 3298SOL     OW10792   5.617   4.107   5.709
 3298SOL    HW110793   5.664   4.158   5.638
 3298SOL    HW210794   5.684   4.058   5.765
 3299SOL     OW10795   2.757   4.730   4.438
 3299SOL    HW110796   2.844   4.758   4.396
 3299SOL    HW210797   2.762   4.743   4.537
 3300SOL     OW10798   1.636   0.178   4.243
 3300SOL    HW110799   1.571   0.114   4.282
 3300SOL    HW210800   1.729   0.142   4.252
 3301SOL     OW10801   1.189   1.203   2.897
 3301SOL    HW110802   1.260   1.228   2.832
 3301SOL    HW210803   1.126   1.280   2.909
 3302SOL     OW10804   2.502   5.317   6.244
 3302SOL    HW110805   2.510   5.280   6.336
 3302SOL    HW210806   2.556   5.401   6.237
 3303SOL     OW10807   3.762   2.920   6.992
 3303SOL    HW110808   3.696   2.994   6.978
 3303SOL    HW210809   3.755   2.856   6.916
 3304SOL     OW10810   2.977   5.161   6.678
 3304SOL    HW110811   2.925   5.242   6.650
 3304SOL    HW210812   2.914   5.091   6.711
 3305SOL     OW10813   3.267   2.410   0.923
 3305SOL    HW110814   3.317   2.463   0.992
 3305SOL    HW210815   3.308   2.319   0.915
 3306SOL     OW10816   2.225   0.602   0.145
 3306SOL    HW110817   2.135   0.644   0.130
 3306SOL    HW210818   2.282   0.666   0.198
 3307SOL     OW10819   1.890   6.829   5.073
 3307SOL    HW110820   1.988   6.831   5.090
 3307SOL    HW210821   1.862   6.737   5.047
 3308SOL     OW10822   3.941   4.280   1.104
 3308SOL    HW110823   4.007   4.223   1.153
 3308SOL    HW210824   3.849   4.265   1.140
 3309SOL     OW10825   5.936   3.321   3.857
 3309SOL    HW110826   5.840   3.331   3.830
 3309SOL    HW210827   5.975   3.411   3.878
 3310SOL     OW10828   6.425   5.502   5.798
 3310SOL    HW110829   6.326   5.510   5.785
 3310SOL    HW210830   6.450   5.542   5.886
 3311SOL     OW10831   3.409   3.300   0.293
 3311SOL    HW110832   3.487   3.263   0.343
 3311SOL    HW210833   3.332   3.237   0.298
 3312SOL     OW10834   4.371   2.372   6.103
 3312SOL    HW110835   4.274   2.361   6.123
 3312SOL    HW210836   4.420   2.400   6.185
 3313SOL     OW10837   1.143   1.034   3.383
 3313SOL    HW110838   1.218   0.987   3.430
 3313SOL    HW210839   1.156   1.029   3.284
 3314SOL     OW10840   2.611   5.584   2.770
 3314SOL    HW110841   2.525   5.635   2.772
 3314SOL    HW210842   2.686   5.646   2.794
 3315SOL     OW10843   0.200   5.528   5.031
 3315SOL    HW110844   0.170   5.566   4.944
 3315SOL    HW210845   0.248   5.598   5.084
 3316SOL     OW10846   3.241   2.193   5.848
 3316SOL    HW110847   3.202   2.109   5.887
 3316SOL    HW210848   3.335   2.176   5.819
 3317SOL     OW10849   4.875   2.441   3.036
 3317SOL    HW110850   4.806   2.504   3.002
 3317SOL    HW210851   4.862   2.428   3.135
 3318SOL     OW10852   3.402   2.184   0.901
 3318SOL    HW110853   3.346   2.101   0.891
 3318SOL    HW210854   3.494   2.165   0.867
 3319SOL     OW10855   6.891   6.083   3.514
 3319SOL    HW110856   6.909   6.165   3.460
 3319SOL    HW210857   6.949   6.009   3.481
 3320SOL     OW10858   6.047   0.127   1.459
 3320SOL    HW110859   6.059   0.027   1.457
 3320SOL    HW210860   5.957   0.149   1.497
 3321SOL     OW10861   4.686   1.134   0.567
 3321SOL    HW110862   4.772   1.089   0.591
 3321SOL    HW210863   4.624   1.067   0.526
 3322SOL     OW10864   6.631   4.057   0.963
 3322SOL    HW110865   6.625   4.060   1.063
 3322SOL    HW210866   6.707   4.113   0.932
 3323SOL     OW10867   1.409   2.378   1.679
 3323SOL    HW110868   1.465   2.297   1.660
 3323SOL    HW210869   1.347   2.358   1.754
 3324SOL     OW10870   5.242   5.567   5.959
 3324SOL    HW110871   5.196   5.611   5.883
 3324SOL    HW210872   5.276   5.636   6.023
 3325SOL     OW10873   2.402   4.190   6.347
 3325SOL    HW110874   2.306   4.175   6.323
 3325SOL    HW210875   2.456   4.111   6.319
 3326SOL     OW10876   4.615   0.868   2.909
 3326SOL    HW110877   4.586   0.781   2.869
 3326SOL    HW210878   4.543   0.903   2.970
 3327SOL     OW10879   1.231   5.328   0.954
 3327SOL    HW110880   1.223   5.421   0.919
 3327SOL    HW210881   1.174   5.318   1.036
 3328SOL     OW10882   4.569   2.242   0.053
 3328SOL    HW110883   4.615   2.272   6.990
 3328SOL    HW210884   4.476   2.279   0.055
 3329SOL     OW10885   6.812   5.543   5.732
 3329SOL    HW110886   6.905   5.522   5.760
 3329SOL    HW210887   6.751   5.470   5.761
 3330SOL     OW10888   6.370   3.479   2.280
 3330SOL    HW110889   6.345   3.428   2.362
 3330SOL    HW210890   6.389   3.416   2.205
 3331SOL     OW10891   2.242   2.876   0.883
 3331SOL    HW110892   2.304   2.833   0.818
 3331SOL    HW210893   2.178   2.808   0.919
 3332SOL     OW10894   5.862   4.671   0.869
 3332SOL    HW110895   5.936   4.648   0.805
 3332SOL    HW210896   5.859   4.770   0.883
 3333SOL     OW10897   4.369   4.760   5.995
 3333SOL    HW110898   4.270   4.747   6.003
 3333SOL    HW210899   4.407   4.782   6.084
 3334SOL     OW10900   2.486   4.446   1.650
 3334SOL    HW110901   2.415   4.376   1.659
 3334SOL    HW210902   2.466   4.503   1.570
 3335SOL     OW10903   5.317   4.775   5.356
 3335SOL    HW110904   5.305   4.808   5.450
 3335SOL    HW210905   5.230   4.738   5.323
 3336SOL     OW10906   3.446   5.453   6.084
 3336SOL    HW110907   3.428   5.445   5.986
 3336SOL    HW210908   3.376   5.403   6.134
 3337SOL     OW10909   3.375   1.797   0.860
 3337SOL    HW110910   3.365   1.768   0.956
 3337SOL    HW210911   3.306   1.866   0.838
 3338SOL     OW10912   0.187   4.654   1.098
 3338SOL    HW110913   0.091   4.680   1.085
 3338SOL    HW210914   0.202   4.627   1.193
 3339SOL     OW10915   0.016   5.813   0.016
 3339SOL    HW110916   0.088   5.847   0.075
 3339SOL    HW210917   0.047   5.814   6.941
 3340SOL     OW10918   3.464   6.382   1.341
 3340SOL    HW110919   3.525   6.444   1.290
 3340SOL    HW210920   3.383   6.433   1.369
 3341SOL     OW10921   0.856   0.955   2.215
 3341SOL    HW110922   0.827   0.914   2.128
 3341SOL    HW210923   0.879   0.882   2.280
 3342SOL     OW10924   2.397   6.605   4.364
 3342SOL    HW110925   2.462   6.530   4.373
 3342SOL    HW210926   2.304   6.569   4.370
 3343SOL     OW10927   5.480   3.133   0.607
 3343SOL    HW110928   5.470   3.218   0.658
 3343SOL    HW210929   5.391   3.103   0.574
 3344SOL     OW10930   0.047   3.820   5.788
 3344SOL    HW110931   6.994   3.756   5.764
 3344SOL    HW210932   0.028   3.909   5.747
 3345SOL     OW10933   3.119   3.223   5.666
 3345SOL    HW110934   3.143   3.129   5.641
 3345SOL    HW210935   3.200   3.281   5.658
 3346SOL     OW10936   1.092   0.014   2.064
 3346SOL    HW110937   1.108   0.045   1.970
 3346SOL    HW210938   1.012   6.974   2.066
 3347SOL     OW10939   5.723   4.264   5.517
 3347SOL    HW110940   5.649   4.305   5.464
 3347SOL    HW210941   5.764   4.190   5.464
 3348SOL     OW10942   3.563   2.903   3.844
 3348SOL    HW110943   3.651   2.929   3.806
 3348SOL    HW210944   3.489   2.932   3.783
 3349SOL     OW10945   6.245   4.055   5.094
 3349SOL    HW110946   6.263   3.957   5.099
 3349SOL    HW210947   6.316   4.105   5.145
 3350SOL     OW10948   1.469   1.152   1.245
 3350SOL    HW110949   1.392   1.098   1.280
 3350SOL    HW210950   1.528   1.178   1.322
 3351SOL     OW10951   5.173   1.842   2.005
 3351SOL    HW110952   5.130   1.796   1.927
 3351SOL    HW210953   5.103   1.885   2.062
 3352SOL     OW10954   0.232   3.735   1.011
 3352SOL    HW110955   0.269   3.643   1.027
 3352SOL    HW210956   0.194   3.739   0.918
 3353SOL     OW10957   2.258   6.750   5.823
 3353SOL    HW110958   2.182   6.809   5.851
 3353SOL    HW210959   2.301   6.711   5.903
 3354SOL     OW10960   0.928   1.945   3.154
 3354SOL    HW110961   0.920   1.880   3.078
 3354SOL    HW210962   0.837   1.981   3.176
 3355SOL     OW10963   6.756   1.255   2.806
 3355SOL    HW110964   6.722   1.289   2.894
 3355SOL    HW210965   6.813   1.174   2.821
 3356SOL     OW10966   2.561   3.193   6.912
 3356SOL    HW110967   2.627   3.268   6.910
 3356SOL    HW210968   2.511   3.194   6.998
 3357SOL     OW10969   2.588   4.996   2.006
 3357SOL    HW110970   2.667   4.994   1.944
 3357SOL    HW210971   2.504   5.010   1.953
 3358SOL     OW10972   5.191   4.888   2.289
 3358SOL    HW110973   5.132   4.829   2.345
 3358SOL    HW210974   5.141   4.972   2.265
 3359SOL     OW10975   1.551   1.457   2.577
 3359SOL    HW110976   1.594   1.399   2.507
 3359SOL    HW210977   1.609   1.459   2.658
 3360SOL     OW10978   1.181   0.477   6.918
 3360SOL    HW110979   1.098   0.488   6.863
 3360SOL    HW210980   1.222   0.567   6.935
 3361SOL     OW10981   5.700   0.055   2.908
 3361SOL    HW110982   5.785   0.003   2.901
 3361SOL    HW210983   5.622   7.012   2.910
 3362SOL     OW10984   1.767   1.135   5.954
 3362SOL    HW110985   1.776   1.177   5.864
 3362SOL    HW210986   1.710   1.194   6.012
 3363SOL     OW10987   0.480   0.949   6.537
 3363SOL    HW110988   0.450   0.963   6.443
 3363SOL    HW210989   0.533   1.029   6.567
 3364SOL     OW10990   1.931   4.850   6.326
 3364SOL    HW110991   1.982   4.861   6.241
 3364SOL    HW210992   1.872   4.769   6.319
 3365SOL     OW10993   6.488   2.013   5.319
 3365SOL    HW110994   6.552   1.959   5.264
 3365SOL    HW210995   6.456   1.957   5.396
 3366SOL     OW10996   5.700   0.945   6.062
 3366SOL    HW110997   5.636   1.014   6.028
 3366SOL    HW210998   5.791   0.961   6.023
 3367SOL     OW10999   0.874   0.644   2.104
 3367SOL    HW111000   0.841   0.569   2.046
 3367SOL    HW211001   0.813   0.654   2.183
 3368SOL     OW11002   6.919   5.761   5.995
 3368SOL    HW111003   6.894   5.786   5.902
 3368SOL    HW211004   6.860   5.809   6.060
 3369SOL     OW11005   4.397   7.000   6.429
 3369SOL    HW111006   4.340   6.959   6.358
 3369SOL    HW211007   4.345   7.007   6.514
 3370SOL     OW11008   5.925   6.465   5.634
 3370SOL    HW111009   5.880   6.478   5.546
 3370SOL    HW211010   5.856   6.441   5.703
 3371SOL     OW11011   0.619   5.491   1.852
 3371SOL    HW111012   0.677   5.424   1.900
 3371SOL    HW211013   0.611   5.574   1.908
 3372SOL     OW11014   0.570   1.206   2.808
 3372SOL    HW111015   0.549   1.216   2.711
 3372SOL    HW211016   0.667   1.187   2.820
 3373SOL     OW11017   6.401   2.153   5.125
 3373SOL    HW111018   6.305   2.126   5.117
 3373SOL    HW211019   6.438   2.116   5.211
 3374SOL     OW11020   3.274   4.968   5.301
 3374SOL    HW111021   3.248   5.053   5.255
 3374SOL    HW211022   3.208   4.896   5.277
 3375SOL     OW11023   4.654   4.584   5.549
 3375SOL    HW111024   4.663   4.494   5.592
 3375SOL    HW211025   4.743   4.616   5.519
 3376SOL     OW11026   3.406   3.567   2.125
 3376SOL    HW111027   3.460   3.553   2.043
 3376SOL    HW211028   3.347   3.488   2.141
 3377SOL     OW11029   1.526   6.412   5.596
 3377SOL    HW111030   1.538   6.425   5.694
 3377SOL    HW211031   1.484   6.322   5.579
 3378SOL     OW11032   6.584   1.656   0.985
 3378SOL    HW111033   6.669   1.649   0.933
 3378SOL    HW211034   6.521   1.717   0.937
 3379SOL     OW11035   0.639   4.520   5.552
 3379SOL    HW111036   0.651   4.568   5.465
 3379SOL    HW211037   0.593   4.433   5.537
 3380SOL     OW11038   0.174   4.218   6.381
 3380SOL    HW111039   0.122   4.136   6.405
 3380SOL    HW211040   0.171   4.282   6.458
 3381SOL     OW11041   2.977   2.157   0.444
 3381SOL    HW111042   3.067   2.123   0.416
 3381SOL    HW211043   2.920   2.171   0.364
 3382SOL     OW11044   6.964   1.004   1.054
 3382SOL    HW111045   6.965   1.044   0.962
 3382SOL    HW211046   6.880   1.031   1.101
 3383SOL     OW11047   5.995   5.274   2.665
 3383SOL    HW111048   6.028   5.280   2.571
 3383SOL    HW211049   5.925   5.203   2.671
 3384SOL     OW11050   3.888   3.052   4.186
 3384SOL    HW111051   3.868   3.113   4.263
 3384SOL    HW211052   3.955   2.984   4.214
 3385SOL     OW11053   6.305   3.581   3.361
 3385SOL    HW111054   6.331   3.675   3.384
 3385SOL    HW211055   6.385   3.521   3.367
 3386SOL     OW11056   6.111   4.424   5.296
 3386SOL    HW111057   6.026   4.460   5.260
 3386SOL    HW211058   6.188   4.473   5.256
 3387SOL     OW11059   2.312   2.171   2.556
 3387SOL    HW111060   2.304   2.106   2.632
 3387SOL    HW211061   2.238   2.238   2.562
 3388SOL     OW11062   5.771   2.428   1.359
 3388SOL    HW111063   5.721   2.416   1.273
 3388SOL    HW211064   5.708   2.461   1.429
 3389SOL     OW11065   5.512   4.415   3.509
 3389SOL    HW111066   5.538   4.325   3.476
 3389SOL    HW211067   5.434   4.407   3.570
 3390SOL     OW11068   4.627   2.917   5.665
 3390SOL    HW111069   4.533   2.924   5.629
 3390SOL    HW211070   4.634   2.835   5.722
 3391SOL     OW11071   3.910   2.183   4.810
 3391SOL    HW111072   3.926   2.101   4.865
 3391SOL    HW211073   3.883   2.156   4.718
 3392SOL     OW11074   3.472   6.930   4.077
 3392SOL    HW111075   3.463   6.830   4.077
 3392SOL    HW211076   3.466   6.964   4.171
 3393SOL     OW11077   6.697   6.936   6.944
 3393SOL    HW111078   6.725   6.977   0.010
 3393SOL    HW211079   6.613   6.882   6.957
 3394SOL     OW11080   5.733   2.747   1.308
 3394SOL    HW111081   5.820   2.797   1.310
 3394SOL    HW211082   5.752   2.649   1.322
 3395SOL     OW11083   1.510   3.514   5.084
 3395SOL    HW111084   1.467   3.592   5.038
 3395SOL    HW211085   1.601   3.540   5.116
 3396SOL     OW11086   0.148   4.374   3.929
 3396SOL    HW111087   0.140   4.426   4.013
 3396SOL    HW211088   0.078   4.404   3.864
 3397SOL     OW11089   3.707   6.458   5.864
 3397SOL    HW111090   3.796   6.455   5.909
 3397SOL    HW211091   3.671   6.365   5.855
 3398SOL     OW11092   0.940   6.874   4.422
 3398SOL    HW111093   1.037   6.849   4.423
 3398SOL    HW211094   0.885   6.793   4.406
 3399SOL     OW11095   5.145   4.812   4.275
 3399SOL    HW111096   5.221   4.783   4.216
 3399SOL    HW211097   5.069   4.747   4.266
 3400SOL     OW11098   5.161   2.320   0.381
 3400SOL    HW111099   5.092   2.253   0.352
 3400SOL    HW211100   5.209   2.354   0.300
 3401SOL     OW11101   5.940   4.098   0.119
 3401SOL    HW111102   6.030   4.066   0.151
 3401SOL    HW211103   5.948   4.192   0.085
 3402SOL     OW11104   5.461   5.786   1.707
 3402SOL    HW111105   5.407   5.783   1.623
 3402SOL    HW211106   5.545   5.838   1.690
 3403SOL     OW11107   3.598   1.096   5.412
 3403SOL    HW111108   3.538   1.078   5.334
 3403SOL    HW211109   3.690   1.064   5.391
 3404SOL     OW11110   4.570   0.934   0.391
 3404SOL    HW111111   4.489   0.877   0.406
 3404SOL    HW211112   4.579   0.954   0.293
 3405SOL     OW11113   6.946   3.527   6.579
 3405SOL    HW111114   6.880   3.593   6.614
 3405SOL    HW211115   6.957   3.452   6.645
 3406SOL     OW11116   1.656   3.787   2.611
 3406SOL    HW111117   1.562   3.762   2.636
 3406SOL    HW211118   1.657   3.817   2.515
 3407SOL     OW11119   1.316   5.954   2.363
 3407SOL    HW111120   1.316   6.047   2.400
 3407SOL    HW211121   1.316   5.958   2.263
 3408SOL     OW11122   5.232   4.522   2.440
 3408SOL    HW111123   5.240   4.423   2.452
 3408SOL    HW211124   5.222   4.543   2.343
 3409SOL     OW11125   3.827   0.607   5.575
 3409SOL    HW111126   3.733   0.643   5.569
 3409SOL    HW211127   3.852   0.566   5.488
 3410SOL     OW11128   6.546   6.882   0.617
 3410SOL    HW111129   6.580   6.803   0.668
 3410SOL    HW211130   6.463   6.916   0.660
 3411SOL     OW11131   4.828   2.163   3.050
 3411SOL    HW111132   4.858   2.258   3.058
 3411SOL    HW211133   4.755   2.157   2.982
 3412SOL     OW11134   3.684   4.335   0.011
 3412SOL    HW111135   3.605   4.372   6.984
 3412SOL    HW211136   3.715   4.400   0.081
 3413SOL     OW11137   3.571   1.668   3.794
 3413SOL    HW111138   3.504   1.663   3.720
 3413SOL    HW211139   3.663   1.652   3.757
 3414SOL     OW11140   2.954   2.183   5.135
 3414SOL    HW111141   2.990   2.090   5.140
 3414SOL    HW211142   3.031   2.248   5.134
 3415SOL     OW11143   0.509   4.592   3.918
 3415SOL    HW111144   0.538   4.498   3.933
 3415SOL    HW211145   0.409   4.598   3.924
 3416SOL     OW11146   1.414   5.612   5.166
 3416SOL    HW111147   1.454   5.688   5.217
 3416SOL    HW211148   1.375   5.647   5.081
 3417SOL     OW11149   6.945   6.976   2.493
 3417SOL    HW111150   6.992   6.999   2.578
 3417SOL    HW211151   6.886   6.896   2.508
 3418SOL     OW11152   2.995   1.502   5.357
 3418SOL    HW111153   3.005   1.567   5.433
 3418SOL    HW211154   2.901   1.506   5.322
 3419SOL     OW11155   4.191   4.619   0.275
 3419SOL    HW111156   4.164   4.713   0.294
 3419SOL    HW211157   4.211   4.609   0.178
 3420SOL     OW11158   4.083   2.172   3.810
 3420SOL    HW111159   3.992   2.214   3.802
 3420SOL    HW211160   4.095   2.105   3.737
 3421SOL     OW11161   0.282   5.847   5.416
 3421SOL    HW111162   0.227   5.808   5.490
 3421SOL    HW211163   0.305   5.942   5.439
 3422SOL     OW11164   3.410   1.295   1.712
 3422SOL    HW111165   3.387   1.392   1.713
 3422SOL    HW211166   3.492   1.280   1.656
 3423SOL     OW11167   2.408   0.496   1.014
 3423SOL    HW111168   2.371   0.544   0.935
 3423SOL    HW211169   2.506   0.482   1.001
 3424SOL     OW11170   4.846   1.021   3.351
 3424SOL    HW111171   4.912   1.044   3.279
 3424SOL    HW211172   4.782   0.953   3.316
 3425SOL     OW11173   4.581   4.452   1.781
 3425SOL    HW111174   4.531   4.378   1.825
 3425SOL    HW211175   4.517   4.521   1.747
 3426SOL     OW11176   4.144   3.785   0.669
 3426SOL    HW111177   4.196   3.748   0.592
 3426SOL    HW211178   4.203   3.790   0.750
 3427SOL     OW11179   0.518   1.124   0.393
 3427SOL    HW111180   0.514   1.038   0.342
 3427SOL    HW211181   0.425   1.154   0.416
 3428SOL     OW11182   4.089   4.735   2.119
 3428SOL    HW111183   4.116   4.831   2.109
 3428SOL    HW211184   4.016   4.728   2.187
 3429SOL     OW11185   1.524   3.293   0.374
 3429SOL    HW111186   1.458   3.356   0.415
 3429SOL    HW211187   1.605   3.343   0.346
 3430SOL     OW11188   1.777   6.962   0.262
 3430SOL    HW111189   1.773   6.881   0.203
 3430SOL    HW211190   1.725   6.945   0.345
 3431SOL     OW11191   0.810   6.019   0.800
 3431SOL    HW111192   0.721   6.059   0.779
 3431SOL    HW211193   0.872   6.032   0.723
 3432SOL     OW11194   2.960   1.715   5.917
 3432SOL    HW111195   2.878   1.730   5.863
 3432SOL    HW211196   2.936   1.702   6.013
 3433SOL     OW11197   3.537   0.764   5.094
 3433SOL    HW111198   3.470   0.719   5.037
 3433SOL    HW211199   3.504   0.855   5.119
 3434SOL     OW11200   4.815   2.819   2.169
 3434SOL    HW111201   4.802   2.897   2.107
 3434SOL    HW211202   4.881   2.844   2.240
 3435SOL     OW11203   0.118   2.108   2.123
 3435SOL    HW111204   0.032   2.158   2.123
 3435SOL    HW211205   0.125   2.054   2.039
 3436SOL     OW11206   3.974   6.827   4.688
 3436SOL    HW111207   4.047   6.859   4.749
 3436SOL    HW211208   3.950   6.733   4.712
 3437SOL     OW11209   4.125   6.970   5.513
 3437SOL    HW111210   4.096   0.045   5.507
 3437SOL    HW211211   4.053   6.915   5.556
 3438SOL     OW11212   1.089   2.790   6.406
 3438SOL    HW111213   1.077   2.700   6.365
 3438SOL    HW211214   1.011   2.811   6.465
 3439SOL     OW11215   2.469   6.482   4.100
 3439SOL    HW111216   2.512   6.480   4.190
 3439SOL    HW211217   2.443   6.576   4.077
 3440SOL     OW11218   4.750   3.329   0.763
 3440SOL    HW111219   4.751   3.297   0.858
 3440SOL    HW211220   4.655   3.341   0.733
 3441SOL     OW11221   2.884   0.236   3.757
 3441SOL    HW111222   2.979   0.228   3.729
 3441SOL    HW211223   2.861   0.333   3.769
 3442SOL     OW11224   1.864   4.906   3.547
 3442SOL    HW111225   1.899   4.934   3.458
 3442SOL    HW211226   1.782   4.959   3.569
 3443SOL     OW11227   6.387   1.558   2.913
 3443SOL    HW111228   6.333   1.634   2.950
 3443SOL    HW211229   6.412   1.578   2.818
 3444SOL     OW11230   4.904   5.608   0.073
 3444SOL    HW111231   4.929   5.704   0.086
 3444SOL    HW211232   4.805   5.597   0.082
 3445SOL     OW11233   6.393   4.775   4.160
 3445SOL    HW111234   6.491   4.776   4.142
 3445SOL    HW211235   6.373   4.706   4.230
 3446SOL     OW11236   3.858   0.113   2.524
 3446SOL    HW111237   3.763   0.117   2.555
 3446SOL    HW211238   3.862   0.131   2.426
 3447SOL     OW11239   5.398   6.508   0.058
 3447SOL    HW111240   5.458   6.551   7.011
 3447SOL    HW211241   5.355   6.427   0.018
 3448SOL     OW11242   3.685   0.620   1.542
 3448SOL    HW111243   3.598   0.648   1.500
 3448SOL    HW211244   3.667   0.576   1.630
 3449SOL     OW11245   6.765   6.523   2.927
 3449SOL    HW111246   6.732   6.618   2.922
 3449SOL    HW211247   6.823   6.504   2.847
 3450SOL     OW11248   0.884   1.533   1.535
 3450SOL    HW111249   0.821   1.459   1.561
 3450SOL    HW211250   0.956   1.496   1.476
 3451SOL     OW11251   1.091   5.844   4.052
 3451SOL    HW111252   1.135   5.886   4.131
 3451SOL    HW211253   1.161   5.806   3.991
 3452SOL     OW11254   5.997   1.369   0.375
 3452SOL    HW111255   6.050   1.350   0.458
 3452SOL    HW211256   5.978   1.283   0.327
 3453SOL     OW11257   5.224   5.819   4.747
 3453SOL    HW111258   5.260   5.745   4.803
 3453SOL    HW211259   5.292   5.892   4.739
 3454SOL     OW11260   1.027   0.965   0.862
 3454SOL    HW111261   0.930   0.950   0.840
 3454SOL    HW211262   1.049   1.061   0.846
 3455SOL     OW11263   1.932   2.549   4.292
 3455SOL    HW111264   1.892   2.462   4.263
 3455SOL    HW211265   1.899   2.572   4.383
 3456SOL     OW11266   5.564   6.937   1.370
 3456SOL    HW111267   5.604   6.861   1.319
 3456SOL    HW211268   5.525   7.003   1.306
 3457SOL     OW11269   2.671   4.620   3.649
 3457SOL    HW111270   2.698   4.588   3.558
 3457SOL    HW211271   2.727   4.698   3.675
 3458SOL     OW11272   5.820   6.780   1.009
 3458SOL    HW111273   5.748   6.738   1.066
 3458SOL    HW211274   5.829   6.729   0.924
 3459SOL     OW11275   0.307   5.136   3.692
 3459SOL    HW111276   0.398   5.110   3.660
 3459SOL    HW211277   0.239   5.073   3.654
 3460SOL     OW11278   4.516   2.770   6.996
 3460SOL    HW111279   4.532   2.848   0.037
 3460SOL    HW211280   4.481   2.693   0.030
 3461SOL     OW11281   3.998   6.155   4.033
 3461SOL    HW111282   3.940   6.236   4.029
 3461SOL    HW211283   4.056   6.160   4.115
 3462SOL     OW11284   4.861   3.502   3.111
 3462SOL    HW111285   4.876   3.583   3.054
 3462SOL    HW211286   4.879   3.526   3.207
 3463SOL     OW11287   2.377   2.924   1.109
 3463SOL    HW111288   2.344   2.890   1.021
 3463SOL    HW211289   2.405   3.019   1.099
 3464SOL     OW11290   5.046   3.152   6.317
 3464SOL    HW111291   5.137   3.113   6.303
 3464SOL    HW211292   4.991   3.091   6.374
 3465SOL     OW11293   2.059   3.690   1.895
 3465SOL    HW111294   2.119   3.623   1.939
 3465SOL    HW211295   2.054   3.773   1.950
 3466SOL     OW11296   6.049   4.759   4.787
 3466SOL    HW111297   5.975   4.826   4.780
 3466SOL    HW211298   6.136   4.806   4.802
 3467SOL     OW11299   2.934   2.775   0.957
 3467SOL    HW111300   3.029   2.805   0.947
 3467SOL    HW211301   2.922   2.732   1.047
 3468SOL     OW11302   4.602   1.516   1.514
 3468SOL    HW111303   4.578   1.603   1.472
 3468SOL    HW211304   4.625   1.450   1.443
 3469SOL     OW11305   4.573   6.758   5.564
 3469SOL    HW111306   4.474   6.752   5.576
 3469SOL    HW211307   4.604   6.850   5.587
 3470SOL     OW11308   0.150   2.851   2.036
 3470SOL    HW111309   0.104   2.919   2.092
 3470SOL    HW211310   0.242   2.834   2.073
 3471SOL     OW11311   4.838   3.995   2.982
 3471SOL    HW111312   4.861   4.027   2.891
 3471SOL    HW211313   4.777   4.062   3.026
 3472SOL     OW11314   4.613   1.858   3.371
 3472SOL    HW111315   4.667   1.774   3.375
 3472SOL    HW211316   4.671   1.934   3.341
 3473SOL     OW11317   0.010   3.871   3.291
 3473SOL    HW111318   6.974   3.911   3.364
 3473SOL    HW211319   0.003   3.772   3.294
 3474SOL     OW11320   6.288   5.369   4.612
 3474SOL    HW111321   6.364   5.399   4.554
 3474SOL    HW211322   6.203   5.373   4.559
 3475SOL     OW11323   6.755   4.163   4.354
 3475SOL    HW111324   6.822   4.128   4.420
 3475SOL    HW211325   6.788   4.249   4.315
 3476SOL     OW11326   1.366   1.810   3.503
 3476SOL    HW111327   1.286   1.838   3.451
 3476SOL    HW211328   1.449   1.829   3.450
 3477SOL     OW11329   0.319   3.767   1.303
 3477SOL    HW111330   0.289   3.797   1.213
 3477SOL    HW211331   0.337   3.847   1.361
 3478SOL     OW11332   2.500   6.877   0.094
 3478SOL    HW111333   2.426   6.899   0.159
 3478SOL    HW211334   2.521   6.958   0.040
 3479SOL     OW11335   0.670   3.373   3.671
 3479SOL    HW111336   0.746   3.347   3.730
 3479SOL    HW211337   0.683   3.334   3.580
 3480SOL     OW11338   1.102   5.543   6.868
 3480SOL    HW111339   1.034   5.492   6.921
 3480SOL    HW211340   1.092   5.641   6.887
 3481SOL     OW11341   6.559   0.535   6.528
 3481SOL    HW111342   6.482   0.594   6.551
 3481SOL    HW211343   6.535   0.478   6.450
 3482SOL     OW11344   6.000   3.830   4.862
 3482SOL    HW111345   5.987   3.735   4.835
 3482SOL    HW211346   5.980   3.890   4.785
 3483SOL     OW11347   4.613   1.839   3.713
 3483SOL    HW111348   4.554   1.863   3.636
 3483SOL    HW211349   4.662   1.921   3.744
 3484SOL     OW11350   2.120   3.484   6.013
 3484SOL    HW111351   2.145   3.573   5.974
 3484SOL    HW211352   2.165   3.471   6.101
 3485SOL     OW11353   0.232   1.835   5.720
 3485SOL    HW111354   0.243   1.747   5.768
 3485SOL    HW211355   0.135   1.856   5.712
 3486SOL     OW11356   2.318   0.345   4.766
 3486SOL    HW111357   2.221   0.326   4.749
 3486SOL    HW211358   2.369   0.334   4.680
 3487SOL     OW11359   6.151   1.772   6.579
 3487SOL    HW111360   6.122   1.868   6.586
 3487SOL    HW211361   6.071   1.715   6.563
 3488SOL     OW11362   6.125   0.789   4.252
 3488SOL    HW111363   6.144   0.710   4.194
 3488SOL    HW211364   6.027   0.790   4.275
 3489SOL     OW11365   3.204   0.188   0.843
 3489SOL    HW111366   3.294   0.230   0.829
 3489SOL    HW211367   3.164   0.165   0.754
 3490SOL     OW11368   4.206   5.068   0.716
 3490SOL    HW111369   4.283   5.015   0.679
 3490SOL    HW211370   4.124   5.049   0.663
 3491SOL     OW11371   4.904   4.101   0.476
 3491SOL    HW111372   4.804   4.099   0.471
 3491SOL    HW211373   4.942   4.059   0.393
 3492SOL     OW11374   5.773   4.276   2.580
 3492SOL    HW111375   5.723   4.353   2.540
 3492SOL    HW211376   5.870   4.284   2.559
 3493SOL     OW11377   6.185   3.500   4.532
 3493SOL    HW111378   6.169   3.476   4.628
 3493SOL    HW211379   6.274   3.544   4.524
 3494SOL     OW11380   3.514   1.697   2.363
 3494SOL    HW111381   3.506   1.768   2.293
 3494SOL    HW211382   3.426   1.652   2.375
 3495SOL     OW11383   1.369   3.436   1.817
 3495SOL    HW111384   1.350   3.534   1.821
 3495SOL    HW211385   1.447   3.419   1.757
 3496SOL     OW11386   6.454   5.005   0.932
 3496SOL    HW111387   6.394   5.040   0.860
 3496SOL    HW211388   6.440   5.058   1.016
 3497SOL     OW11389   4.200   0.590   2.319
 3497SOL    HW111390   4.288   0.607   2.363
 3497SOL    HW211391   4.172   0.495   2.335
 3498SOL     OW11392   1.841   2.064   1.468
 3498SOL    HW111393   1.863   1.983   1.522
 3498SOL    HW211394   1.877   2.145   1.514
 3499SOL     OW11395   5.685   5.518   5.579
 3499SOL    HW111396   5.734   5.570   5.509
 3499SOL    HW211397   5.721   5.541   5.669
 3500SOL     OW11398   1.555   2.045   3.699
 3500SOL    HW111399   1.595   1.969   3.750
 3500SOL    HW211400   1.469   2.073   3.742
 3501SOL     OW11401   2.137   6.969   6.419
 3501SOL    HW111402   2.234   6.953   6.401
 3501SOL    HW211403   2.127   7.009   6.511
 3502SOL     OW11404   5.009   3.654   1.681
 3502SOL    HW111405   4.939   3.709   1.637
 3502SOL    HW211406   5.075   3.713   1.727
 3503SOL     OW11407   6.742   5.910   6.151
 3503SOL    HW111408   6.669   5.964   6.110
 3503SOL    HW211409   6.792   5.966   6.217
 3504SOL     OW11410   1.614   0.583   1.893
 3504SOL    HW111411   1.614   0.682   1.902
 3504SOL    HW211412   1.532   0.554   1.843
 3505SOL     OW11413   5.664   5.068   5.515
 3505SOL    HW111414   5.656   5.088   5.612
 3505SOL    HW211415   5.678   4.970   5.502
 3506SOL     OW11416   5.134   4.521   4.475
 3506SOL    HW111417   5.209   4.492   4.416
 3506SOL    HW211418   5.049   4.529   4.422
 3507SOL     OW11419   2.468   0.078   0.488
 3507SOL    HW111420   2.513   0.150   0.540
 3507SOL    HW211421   2.499   7.009   0.521
 3508SOL     OW11422   3.005   2.456   5.392
 3508SOL    HW111423   3.036   2.386   5.328
 3508SOL    HW211424   2.995   2.543   5.344
 3509SOL     OW11425   4.235   5.780   6.908
 3509SOL    HW111426   4.335   5.774   6.904
 3509SOL    HW211427   4.209   5.857   6.965
 3510SOL     OW11428   2.005   0.654   0.777
 3510SOL    HW111429   1.982   0.751   0.782
 3510SOL    HW211430   2.068   0.630   0.850
 3511SOL     OW11431   2.438   4.565   1.389
 3511SOL    HW111432   2.347   4.529   1.373
 3511SOL    HW211433   2.482   4.586   1.302
 3512SOL     OW11434   1.319   4.048   6.939
 3512SOL    HW111435   1.281   4.015   0.004
 3512SOL    HW211436   1.250   4.102   6.890
 3513SOL     OW11437   5.840   2.181   0.591
 3513SOL    HW111438   5.891   2.260   0.625
 3513SOL    HW211439   5.761   2.165   0.649
 3514SOL     OW11440   4.836   0.783   2.668
 3514SOL    HW111441   4.809   0.689   2.689
 3514SOL    HW211442   4.841   0.836   2.753
 3515SOL     OW11443   5.678   5.921   4.620
 3515SOL    HW111444   5.614   5.950   4.691
 3515SOL    HW211445   5.654   5.965   4.534
 3516SOL     OW11446   5.182   0.104   0.986
 3516SOL    HW111447   5.233   0.176   0.939
 3516SOL    HW211448   5.244   0.029   1.011
 3517SOL     OW11449   6.546   1.585   0.524
 3517SOL    HW111450   6.451   1.558   0.510
 3517SOL    HW211451   6.565   1.668   0.471
 3518SOL     OW11452   5.995   1.673   5.116
 3518SOL    HW111453   5.938   1.755   5.115
 3518SOL    HW211454   5.999   1.636   5.208
 3519SOL     OW11455   3.094   0.693   0.278
 3519SOL    HW111456   3.134   0.619   0.331
 3519SOL    HW211457   3.031   0.745   0.336
 3520SOL     OW11458   3.093   5.370   5.320
 3520SOL    HW111459   3.132   5.373   5.411
 3520SOL    HW211460   3.076   5.464   5.288
 3521SOL     OW11461   3.015   3.224   7.003
 3521SOL    HW111462   3.041   3.149   0.044
 3521SOL    HW211463   2.933   3.269   0.017
 3522SOL     OW11464   0.058   5.491   0.027
 3522SOL    HW111465   0.045   5.589   0.038
 3522SOL    HW211466   7.015   5.457   6.977
 3523SOL     OW11467   1.024   5.230   5.669
 3523SOL    HW111468   1.092   5.237   5.742
 3523SOL    HW211469   0.954   5.163   5.695
 3524SOL     OW11470   6.320   1.859   2.995
 3524SOL    HW111471   6.351   1.805   3.074
 3524SOL    HW211472   6.398   1.902   2.951
 3525SOL     OW11473   6.010   4.715   3.970
 3525SOL    HW111474   6.010   4.800   4.021
 3525SOL    HW211475   6.052   4.643   4.025
 3526SOL     OW11476   1.110   5.751   3.250
 3526SOL    HW111477   1.052   5.782   3.326
 3526SOL    HW211478   1.202   5.790   3.260
 3527SOL     OW11479   6.763   2.774   6.009
 3527SOL    HW111480   6.667   2.786   6.034
 3527SOL    HW211481   6.777   2.805   5.915
 3528SOL     OW11482   2.611   6.342   5.510
 3528SOL    HW111483   2.707   6.361   5.534
 3528SOL    HW211484   2.606   6.314   5.414
 3529SOL     OW11485   4.999   5.772   6.741
 3529SOL    HW111486   4.973   5.678   6.761
 3529SOL    HW211487   5.098   5.779   6.736
 3530SOL     OW11488   6.986   6.289   2.057
 3530SOL    HW111489   6.888   6.293   2.035
 3530SOL    HW211490   7.010   6.195   2.082
 3531SOL     OW11491   4.660   1.518   1.992
 3531SOL    HW111492   4.703   1.475   1.913
 3531SOL    HW211493   4.597   1.454   2.036
 3532SOL     OW11494   2.267   1.172   2.290
 3532SOL    HW111495   2.177   1.165   2.334
 3532SOL    HW211496   2.322   1.240   2.339
 3533SOL     OW11497   6.518   1.546   2.232
 3533SOL    HW111498   6.437   1.491   2.212
 3533SOL    HW211499   6.590   1.486   2.268
 3534SOL     OW11500   0.284   2.137   1.855
 3534SOL    HW111501   0.340   2.068   1.900
 3534SOL    HW211502   0.309   2.228   1.890
 3535SOL     OW11503   2.914   5.105   5.036
 3535SOL    HW111504   2.965   5.025   5.003
 3535SOL    HW211505   2.959   5.141   5.118
 3536SOL     OW11506   3.226   1.850   3.034
 3536SOL    HW111507   3.147   1.839   2.974
 3536SOL    HW211508   3.213   1.930   3.092
 3537SOL     OW11509   1.556   5.979   2.979
 3537SOL    HW111510   1.618   6.057   2.990
 3537SOL    HW211511   1.607   5.894   2.993
 3538SOL     OW11512   3.226   5.410   4.947
 3538SOL    HW111513   3.160   5.482   4.928
 3538SOL    HW211514   3.317   5.438   4.917
 3539SOL     OW11515   3.845   4.063   4.394
 3539SOL    HW111516   3.913   4.021   4.455
 3539SOL    HW211517   3.786   4.123   4.446
 3540SOL     OW11518   1.974   2.125   4.093
 3540SOL    HW111519   1.984   2.037   4.047
 3540SOL    HW211520   1.877   2.146   4.105
 3541SOL     OW11521   3.176   3.502   5.036
 3541SOL    HW111522   3.084   3.472   5.011
 3541SOL    HW211523   3.192   3.594   4.999
 3542SOL     OW11524   1.398   4.926   2.585
 3542SOL    HW111525   1.482   4.872   2.597
 3542SOL    HW211526   1.353   4.937   2.673
 3543SOL     OW11527   5.365   2.677   4.319
 3543SOL    HW111528   5.411   2.622   4.390
 3543SOL    HW211529   5.267   2.657   4.321
 3544SOL     OW11530   2.134   4.196   6.277
 3544SOL    HW111531   2.124   4.293   6.254
 3544SOL    HW211532   2.045   4.152   6.272
 3545SOL     OW11533   4.313   5.514   6.364
 3545SOL    HW111534   4.338   5.590   6.425
 3545SOL    HW211535   4.260   5.550   6.287
 3546SOL     OW11536   6.917   5.677   3.361
 3546SOL    HW111537   6.931   5.776   3.370
 3546SOL    HW211538   6.846   5.647   3.425
 3547SOL     OW11539   4.505   5.211   4.431
 3547SOL    HW111540   4.524   5.248   4.521
 3547SOL    HW211541   4.588   5.214   4.375
 3548SOL     OW11542   4.783   2.612   5.619
 3548SOL    HW111543   4.807   2.608   5.716
 3548SOL    HW211544   4.688   2.583   5.607
 3549SOL     OW11545   6.387   4.649   3.229
 3549SOL    HW111546   6.388   4.559   3.272
 3549SOL    HW211547   6.479   4.672   3.199
 3550SOL     OW11548   5.144   2.151   3.062
 3550SOL    HW111549   5.205   2.224   3.031
 3550SOL    HW211550   5.093   2.182   3.142
 3551SOL     OW11551   3.088   6.566   2.822
 3551SOL    HW111552   3.086   6.560   2.722
 3551SOL    HW211553   3.144   6.491   2.859
 3552SOL     OW11554   5.518   6.176   2.639
 3552SOL    HW111555   5.586   6.215   2.702
 3552SOL    HW211556   5.437   6.150   2.691
 3553SOL     OW11557   5.484   2.369   2.435
 3553SOL    HW111558   5.554   2.433   2.466
 3553SOL    HW211559   5.403   2.378   2.493
 3554SOL     OW11560   4.237   4.731   6.667
 3554SOL    HW111561   4.209   4.674   6.744
 3554SOL    HW211562   4.159   4.742   6.604
 3555SOL     OW11563   0.996   3.113   3.056
 3555SOL    HW111564   1.059   3.069   3.119
 3555SOL    HW211565   0.931   3.045   3.021
 3556SOL     OW11566   2.993   0.486   5.420
 3556SOL    HW111567   2.991   0.484   5.320
 3556SOL    HW211568   3.060   0.555   5.449
 3557SOL     OW11569   1.890   0.434   4.685
 3557SOL    HW111570   1.946   0.364   4.730
 3557SOL    HW211571   1.819   0.389   4.630
 3558SOL     OW11572   7.016   6.095   1.789
 3558SOL    HW111573   0.025   6.075   1.883
 3558SOL    HW211574   0.054   6.166   1.750
 3559SOL     OW11575   0.823   0.886   4.666
 3559SOL    HW111576   0.801   0.981   4.642
 3559SOL    HW211577   0.782   0.865   4.755
 3560SOL     OW11578   0.940   5.512   1.422
 3560SOL    HW111579   0.893   5.501   1.510
 3560SOL    HW211580   1.028   5.557   1.437
 3561SOL     OW11581   4.898   4.510   5.891
 3561SOL    HW111582   4.835   4.436   5.914
 3561SOL    HW211583   4.848   4.596   5.885
 3562SOL     OW11584   5.824   0.432   3.783
 3562SOL    HW111585   5.825   0.449   3.685
 3562SOL    HW211586   5.784   0.342   3.801
 3563SOL     OW11587   5.372   1.201   1.150
 3563SOL    HW111588   5.412   1.291   1.136
 3563SOL    HW211589   5.273   1.206   1.137
 3564SOL     OW11590   0.193   4.467   4.246
 3564SOL    HW111591   0.239   4.556   4.238
 3564SOL    HW211592   0.254   4.403   4.292
 3565SOL     OW11593   2.768   0.863   4.739
 3565SOL    HW111594   2.807   0.952   4.716
 3565SOL    HW211595   2.842   0.796   4.750
 3566SOL     OW11596   0.123   3.109   6.050
 3566SOL    HW111597   0.044   3.069   6.098
 3566SOL    HW211598   0.112   3.208   6.045
 3567SOL     OW11599   0.096   3.194   0.696
 3567SOL    HW111600   0.085   3.249   0.779
 3567SOL    HW211601   0.194   3.175   0.682
 3568SOL     OW11602   4.390   4.595   3.223
 3568SOL    HW111603   4.363   4.631   3.313
 3568SOL    HW211604   4.399   4.496   3.228
 3569SOL     OW11605   2.991   3.866   4.724
 3569SOL    HW111606   2.956   3.857   4.817
 3569SOL    HW211607   2.914   3.876   4.661
 3570SOL     OW11608   6.826   1.627   5.754
 3570SOL    HW111609   6.878   1.636   5.669
 3570SOL    HW211610   6.751   1.562   5.741
 3571SOL     OW11611   1.943   6.530   5.273
 3571SOL    HW111612   2.041   6.542   5.258
 3571SOL    HW211613   1.901   6.617   5.298
 3572SOL     OW11614   5.014   4.536   1.413
 3572SOL    HW111615   5.052   4.458   1.363
 3572SOL    HW211616   5.069   4.553   1.495
 3573SOL     OW11617   6.586   3.558   2.129
 3573SOL    HW111618   6.642   3.635   2.159
 3573SOL    HW211619   6.501   3.557   2.181
 3574SOL     OW11620   2.796   3.103   6.060
 3574SOL    HW111621   2.844   3.026   6.101
 3574SOL    HW211622   2.816   3.186   6.112
 3575SOL     OW11623   5.411   0.001   0.194
 3575SOL    HW111624   5.327   0.049   0.221
 3575SOL    HW211625   5.474   0.066   0.152
 3576SOL     OW11626   0.849   3.108   6.856
 3576SOL    HW111627   0.841   3.203   6.827
 3576SOL    HW211628   0.938   3.094   6.901
 3577SOL     OW11629   2.493   2.797   5.624
 3577SOL    HW111630   2.586   2.831   5.633
 3577SOL    HW211631   2.449   2.840   5.545
 3578SOL     OW11632   3.302   3.064   6.716
 3578SOL    HW111633   3.336   2.977   6.682
 3578SOL    HW211634   3.289   3.127   6.639
 3579SOL     OW11635   0.436   3.358   2.600
 3579SOL    HW111636   0.406   3.346   2.506
 3579SOL    HW211637   0.536   3.363   2.603
 3580SOL     OW11638   0.593   3.527   1.619
 3580SOL    HW111639   0.600   3.492   1.525
 3580SOL    HW211640   0.498   3.528   1.647
 3581SOL     OW11641   0.631   0.340   2.584
 3581SOL    HW111642   0.549   0.397   2.590
 3581SOL    HW211643   0.620   0.271   2.513
 3582SOL     OW11644   3.573   3.715   5.839
 3582SOL    HW111645   3.614   3.650   5.903
 3582SOL    HW211646   3.617   3.706   5.750
 3583SOL     OW11647   0.574   4.745   0.906
 3583SOL    HW111648   0.484   4.708   0.927
 3583SOL    HW211649   0.608   4.796   0.985
 3584SOL     OW11650   5.699   4.362   5.013
 3584SOL    HW111651   5.771   4.295   5.000
 3584SOL    HW211652   5.656   4.382   4.924
 3585SOL     OW11653   2.903   1.787   3.621
 3585SOL    HW111654   2.851   1.797   3.706
 3585SOL    HW211655   2.976   1.856   3.619
 3586SOL     OW11656   6.295   2.919   4.287
 3586SOL    HW111657   6.216   2.974   4.259
 3586SOL    HW211658   6.280   2.885   4.380
 3587SOL     OW11659   3.426   6.731   6.322
 3587SOL    HW111660   3.388   6.815   6.362
 3587SOL    HW211661   3.370   6.653   6.349
 3588SOL     OW11662   6.549   4.403   4.252
 3588SOL    HW111663   6.629   4.427   4.196
 3588SOL    HW211664   6.538   4.304   4.253
 3589SOL     OW11665   0.226   6.997   6.244
 3589SOL    HW111666   0.131   6.968   6.261
 3589SOL    HW211667   0.276   6.998   6.331
 3590SOL     OW11668   6.757   4.933   0.699
 3590SOL    HW111669   6.784   4.843   0.664
 3590SOL    HW211670   6.722   4.988   0.624
 3591SOL     OW11671   5.423   2.306   6.815
 3591SOL    HW111672   5.378   2.364   6.747
 3591SOL    HW211673   5.504   2.264   6.776
 3592SOL     OW11674   1.730   7.004   1.593
 3592SOL    HW111675   1.784   6.928   1.629
 3592SOL    HW211676   1.653   6.969   1.540
 3593SOL     OW11677   4.933   3.143   6.058
 3593SOL    HW111678   4.987   3.133   5.975
 3593SOL    HW211679   4.991   3.130   6.138
 3594SOL     OW11680   4.395   4.971   4.323
 3594SOL    HW111681   4.424   5.050   4.376
 3594SOL    HW211682   4.372   4.896   4.385
 3595SOL     OW11683   5.504   6.152   6.022
 3595SOL    HW111684   5.409   6.183   6.028
 3595SOL    HW211685   5.540   6.173   5.931
 3596SOL     OW11686   3.785   1.500   3.389
 3596SOL    HW111687   3.731   1.579   3.359
 3596SOL    HW211688   3.880   1.527   3.402
 3597SOL     OW11689   2.157   3.227   5.109
 3597SOL    HW111690   2.182   3.150   5.051
 3597SOL    HW211691   2.225   3.239   5.181
 3598SOL     OW11692   1.522   5.412   4.699
 3598SOL    HW111693   1.426   5.393   4.717
 3598SOL    HW211694   1.557   5.476   4.768
 3599SOL     OW11695   4.844   1.681   4.899
 3599SOL    HW111696   4.791   1.762   4.874
 3599SOL    HW211697   4.908   1.659   4.826
 3600SOL     OW11698   3.505   3.215   0.733
 3600SOL    HW111699   3.546   3.124   0.738
 3600SOL    HW211700   3.552   3.276   0.798
 3601SOL     OW11701   5.027   0.872   5.223
 3601SOL    HW111702   4.942   0.911   5.257
 3601SOL    HW211703   5.102   0.937   5.238
 3602SOL     OW11704   2.194   2.061   1.192
 3602SOL    HW111705   2.261   2.001   1.149
 3602SOL    HW211706   2.205   2.057   1.292
 3603SOL     OW11707   3.042   1.454   5.904
 3603SOL    HW111708   3.031   1.407   5.816
 3603SOL    HW211709   2.994   1.541   5.901
 3604SOL     OW11710   6.684   0.591   3.608
 3604SOL    HW111711   6.777   0.556   3.617
 3604SOL    HW211712   6.663   0.651   3.685
 3605SOL     OW11713   0.686   5.696   3.463
 3605SOL    HW111714   0.734   5.738   3.540
 3605SOL    HW211715   0.687   5.760   3.385
 3606SOL     OW11716   2.326   6.752   1.783
 3606SOL    HW111717   2.300   6.727   1.877
 3606SOL    HW211718   2.416   6.715   1.762
 3607SOL     OW11719   5.262   2.771   3.031
 3607SOL    HW111720   5.248   2.691   2.973
 3607SOL    HW211721   5.177   2.793   3.079
 3608SOL     OW11722   3.109   1.844   4.831
 3608SOL    HW111723   3.141   1.937   4.813
 3608SOL    HW211724   3.021   1.831   4.786
 3609SOL     OW11725   2.296   6.986   4.484
 3609SOL    HW111726   2.290   6.949   4.576
 3609SOL    HW211727   2.338   6.918   4.423
 3610SOL     OW11728   2.612   6.509   5.022
 3610SOL    HW111729   2.701   6.523   5.067
 3610SOL    HW211730   2.591   6.588   4.965
 3611SOL     OW11731   5.297   4.812   3.005
 3611SOL    HW111732   5.302   4.796   3.104
 3611SOL    HW211733   5.277   4.908   2.988
 3612SOL     OW11734   6.071   1.335   6.596
 3612SOL    HW111735   6.009   1.390   6.653
 3612SOL    HW211736   6.144   1.298   6.653
 3613SOL     OW11737   3.954   5.365   1.321
 3613SOL    HW111738   4.030   5.425   1.295
 3613SOL    HW211739   3.892   5.356   1.243
 3614SOL     OW11740   4.015   4.257   6.467
 3614SOL    HW111741   4.110   4.262   6.499
 3614SOL    HW211742   4.014   4.237   6.369
 3615SOL     OW11743   6.101   2.403   5.550
 3615SOL    HW111744   6.064   2.432   5.639
 3615SOL    HW211745   6.184   2.455   5.530
 3616SOL     OW11746   1.401   1.844   6.780
 3616SOL    HW111747   1.307   1.869   6.759
 3616SOL    HW211748   1.460   1.868   6.702
 3617SOL     OW11749   3.640   6.384   6.527
 3617SOL    HW111750   3.662   6.428   6.439
 3617SOL    HW211751   3.628   6.286   6.513
 3618SOL     OW11752   2.255   4.193   4.534
 3618SOL    HW111753   2.288   4.098   4.535
 3618SOL    HW211754   2.179   4.201   4.469
 3619SOL     OW11755   5.469   2.722   1.318
 3619SOL    HW111756   5.562   2.758   1.303
 3619SOL    HW211757   5.417   2.787   1.373
 3620SOL     OW11758   6.188   6.265   4.845
 3620SOL    HW111759   6.116   6.288   4.910
 3620SOL    HW211760   6.271   6.241   4.895
 3621SOL     OW11761   2.986   3.294   3.476
 3621SOL    HW111762   3.025   3.222   3.533
 3621SOL    HW211763   2.977   3.261   3.382
 3622SOL     OW11764   0.858   6.550   0.259
 3622SOL    HW111765   0.769   6.506   0.274
 3622SOL    HW211766   0.889   6.593   0.344
 3623SOL     OW11767   1.191   4.688   6.103
 3623SOL    HW111768   1.263   4.627   6.136
 3623SOL    HW211769   1.230   4.759   6.045
 3624SOL     OW11770   3.656   0.977   1.776
 3624SOL    HW111771   3.579   0.914   1.780
 3624SOL    HW211772   3.649   1.043   1.850
 3625SOL     OW11773   6.757   2.428   0.438
 3625SOL    HW111774   6.690   2.463   0.372
 3625SOL    HW211775   6.727   2.449   0.531
 3626SOL     OW11776   1.234   2.375   5.056
 3626SOL    HW111777   1.199   2.431   5.131
 3626SOL    HW211778   1.199   2.409   4.969
 3627SOL     OW11779   3.892   2.318   1.664
 3627SOL    HW111780   3.919   2.414   1.658
 3627SOL    HW211781   3.850   2.301   1.753
 3628SOL     OW11782   6.662   2.060   2.017
 3628SOL    HW111783   6.681   2.030   1.923
 3628SOL    HW211784   6.685   1.986   2.081
 3629SOL     OW11785   1.487   1.523   4.396
 3629SOL    HW111786   1.581   1.497   4.419
 3629SOL    HW211787   1.465   1.491   4.304
 3630SOL     OW11788   6.832   2.471   3.639
 3630SOL    HW111789   6.862   2.389   3.688
 3630SOL    HW211790   6.732   2.475   3.638
 3631SOL     OW11791   1.994   6.523   2.225
 3631SOL    HW111792   1.965   6.521   2.129
 3631SOL    HW211793   2.049   6.605   2.241
 3632SOL     OW11794   4.880   4.085   1.026
 3632SOL    HW111795   4.872   4.026   0.945
 3632SOL    HW211796   4.808   4.154   1.023
 3633SOL     OW11797   3.672   3.181   6.487
 3633SOL    HW111798   3.641   3.095   6.447
 3633SOL    HW211799   3.611   3.255   6.458
 3634SOL     OW11800   3.290   5.361   6.698
 3634SOL    HW111801   3.312   5.287   6.762
 3634SOL    HW211802   3.248   5.437   6.747
 3635SOL     OW11803   2.661   0.142   1.184
 3635SOL    HW111804   2.566   0.172   1.183
 3635SOL    HW211805   2.666   0.045   1.161
 3636SOL     OW11806   1.226   4.887   0.083
 3636SOL    HW111807   1.174   4.811   0.123
 3636SOL    HW211808   1.249   4.866   7.009
 3637SOL     OW11809   6.809   3.066   6.684
 3637SOL    HW111810   6.815   2.968   6.662
 3637SOL    HW211811   6.719   3.086   6.723
 3638SOL     OW11812   5.911   4.801   2.765
 3638SOL    HW111813   5.812   4.791   2.753
 3638SOL    HW211814   5.947   4.718   2.808
 3639SOL     OW11815   3.863   3.694   4.356
 3639SOL    HW111816   3.954   3.688   4.397
 3639SOL    HW211817   3.798   3.726   4.424
 3640SOL     OW11818   5.270   2.184   0.849
 3640SOL    HW111819   5.206   2.260   0.840
 3640SOL    HW211820   5.228   2.100   0.814
 3641SOL     OW11821   5.974   3.469   2.140
 3641SOL    HW111822   5.933   3.471   2.231
 3641SOL    HW211823   5.904   3.487   2.071
 3642SOL     OW11824   6.107   2.945   6.252
 3642SOL    HW111825   6.054   2.892   6.185
 3642SOL    HW211826   6.053   3.022   6.284
 3643SOL     OW11827   4.142   5.338   5.642
 3643SOL    HW111828   4.080   5.412   5.670
 3643SOL    HW211829   4.233   5.354   5.682
 3644SOL     OW11830   2.941   0.697   1.801
 3644SOL    HW111831   3.037   0.669   1.809
 3644SOL    HW211832   2.925   0.732   1.709
 3645SOL     OW11833   1.502   4.428   3.572
 3645SOL    HW111834   1.410   4.461   3.591
 3645SOL    HW211835   1.566   4.472   3.635
 3646SOL     OW11836   2.415   4.400   4.635
 3646SOL    HW111837   2.441   4.376   4.729
 3646SOL    HW211838   2.346   4.336   4.603
 3647SOL     OW11839   3.254   6.758   6.829
 3647SOL    HW111840   3.237   6.852   6.799
 3647SOL    HW211841   3.329   6.719   6.775
 3648SOL     OW11842   4.416   5.517   3.373
 3648SOL    HW111843   4.359   5.542   3.295
 3648SOL    HW211844   4.512   5.510   3.344
 3649SOL     OW11845   5.813   2.896   0.066
 3649SOL    HW111846   5.890   2.853   0.019
 3649SOL    HW211847   5.728   2.847   0.044
 3650SOL     OW11848   5.280   5.617   0.199
 3650SOL    HW111849   5.373   5.584   0.182
 3650SOL    HW211850   5.220   5.588   0.124
 3651SOL     OW11851   1.223   1.946   5.671
 3651SOL    HW111852   1.258   2.034   5.704
 3651SOL    HW211853   1.264   1.872   5.724
 3652SOL     OW11854   4.285   1.422   2.198
 3652SOL    HW111855   4.361   1.390   2.141
 3652SOL    HW211856   4.198   1.396   2.155
 3653SOL     OW11857   0.764   1.399   1.147
 3653SOL    HW111858   0.700   1.396   1.071
 3653SOL    HW211859   0.730   1.461   1.218
 3654SOL     OW11860   5.479   0.309   0.668
 3654SOL    HW111861   5.447   0.303   0.762
 3654SOL    HW211862   5.578   0.303   0.666
 3655SOL     OW11863   1.710   2.218   4.298
 3655SOL    HW111864   1.690   2.270   4.381
 3655SOL    HW211865   1.714   2.280   4.220
 3656SOL     OW11866   6.800   6.850   1.564
 3656SOL    HW111867   6.832   6.759   1.591
 3656SOL    HW211868   6.766   6.899   1.644
 3657SOL     OW11869   5.065   6.097   5.013
 3657SOL    HW111870   5.015   6.031   5.069
 3657SOL    HW211871   5.047   6.079   4.916
 3658SOL     OW11872   1.779   4.722   5.954
 3658SOL    HW111873   1.867   4.767   5.966
 3658SOL    HW211874   1.721   4.778   5.894
 3659SOL     OW11875   6.723   1.822   6.219
 3659SOL    HW111876   6.692   1.749   6.280
 3659SOL    HW211877   6.664   1.826   6.139
 3660SOL     OW11878   5.713   5.614   6.694
 3660SOL    HW111879   5.686   5.579   6.604
 3660SOL    HW211880   5.646   5.584   6.762
 3661SOL     OW11881   0.310   2.287   4.803
 3661SOL    HW111882   0.243   2.296   4.877
 3661SOL    HW211883   0.311   2.371   4.748
 3662SOL     OW11884   2.745   1.737   5.602
 3662SOL    HW111885   2.721   1.817   5.546
 3662SOL    HW211886   2.670   1.671   5.599
 3663SOL     OW11887   2.729   2.081   6.748
 3663SOL    HW111888   2.688   2.171   6.763
 3663SOL    HW211889   2.757   2.073   6.653
 3664SOL     OW11890   3.882   1.193   1.979
 3664SOL    HW111891   3.783   1.184   1.970
 3664SOL    HW211892   3.905   1.287   2.004
 3665SOL     OW11893   1.047   5.864   5.872
 3665SOL    HW111894   1.055   5.939   5.937
 3665SOL    HW211895   1.092   5.889   5.786
 3666SOL     OW11896   2.254   2.519   4.542
 3666SOL    HW111897   2.207   2.604   4.569
 3666SOL    HW211898   2.344   2.540   4.505
 3667SOL     OW11899   1.691   0.606   1.541
 3667SOL    HW111900   1.727   0.578   1.630
 3667SOL    HW211901   1.730   0.694   1.515
 3668SOL     OW11902   0.528   1.117   1.872
 3668SOL    HW111903   0.483   1.207   1.876
 3668SOL    HW211904   0.624   1.127   1.898
 3669SOL     OW11905   0.551   1.366   3.692
 3669SOL    HW111906   0.502   1.296   3.743
 3669SOL    HW211907   0.521   1.365   3.596
 3670SOL     OW11908   3.121   5.679   1.988
 3670SOL    HW111909   3.080   5.751   2.045
 3670SOL    HW211910   3.072   5.593   2.003
 3671SOL     OW11911   6.351   0.421   3.855
 3671SOL    HW111912   6.266   0.368   3.856
 3671SOL    HW211913   6.429   0.359   3.839
 3672SOL     OW11914   4.090   6.782   2.716
 3672SOL    HW111915   4.027   6.824   2.781
 3672SOL    HW211916   4.062   6.804   2.623
 3673SOL     OW11917   3.770   5.993   1.273
 3673SOL    HW111918   3.687   5.982   1.327
 3673SOL    HW211919   3.796   6.090   1.272
 3674SOL     OW11920   1.399   4.549   6.197
 3674SOL    HW111921   1.455   4.540   6.279
 3674SOL    HW211922   1.457   4.543   6.116
 3675SOL     OW11923   1.276   0.665   4.208
 3675SOL    HW111924   1.228   0.736   4.156
 3675SOL    HW211925   1.347   0.708   4.264
 3676SOL     OW11926   4.067   1.773   3.934
 3676SOL    HW111927   4.011   1.793   3.854
 3676SOL    HW211928   4.028   1.817   4.015
 3677SOL     OW11929   2.476   0.584   4.209
 3677SOL    HW111930   2.491   0.501   4.155
 3677SOL    HW211931   2.564   0.616   4.245
 3678SOL     OW11932   1.076   0.861   3.641
 3678SOL    HW111933   1.101   0.767   3.663
 3678SOL    HW211934   1.073   0.873   3.542
 3679SOL     OW11935   4.368   0.855   2.586
 3679SOL    HW111936   4.409   0.764   2.581
 3679SOL    HW211937   4.290   0.853   2.648
 3680SOL     OW11938   3.883   1.315   4.507
 3680SOL    HW111939   3.915   1.276   4.421
 3680SOL    HW211940   3.835   1.400   4.489
 3681SOL     OW11941   1.807   6.369   4.592
 3681SOL    HW111942   1.901   6.334   4.597
 3681SOL    HW211943   1.758   6.321   4.519
 3682SOL     OW11944   5.438   1.758   1.893
 3682SOL    HW111945   5.396   1.775   1.982
 3682SOL    HW211946   5.393   1.813   1.823
 3683SOL     OW11947   5.830   1.432   5.781
 3683SOL    HW111948   5.752   1.469   5.832
 3683SOL    HW211949   5.885   1.374   5.842
 3684SOL     OW11950   2.173   6.753   5.545
 3684SOL    HW111951   2.255   6.725   5.495
 3684SOL    HW211952   2.189   6.744   5.643
 3685SOL     OW11953   2.057   6.264   5.603
 3685SOL    HW111954   1.977   6.274   5.544
 3685SOL    HW211955   2.136   6.306   5.559
 3686SOL     OW11956   0.671   3.919   3.368
 3686SOL    HW111957   0.617   3.835   3.381
 3686SOL    HW211958   0.768   3.898   3.382
 3687SOL     OW11959   5.471   5.598   4.512
 3687SOL    HW111960   5.421   5.511   4.515
 3687SOL    HW211961   5.432   5.656   4.440
 3688SOL     OW11962   6.003   2.411   0.640
 3688SOL    HW111963   5.954   2.497   0.631
 3688SOL    HW211964   6.006   2.384   0.737
 3689SOL     OW11965   1.738   6.682   5.748
 3689SOL    HW111966   1.825   6.721   5.717
 3689SOL    HW211967   1.664   6.714   5.689
 3690SOL     OW11968   4.999   5.480   1.442
 3690SOL    HW111969   4.947   5.564   1.426
 3690SOL    HW211970   5.090   5.490   1.402
 3691SOL     OW11971   1.763   2.600   0.728
 3691SOL    HW111972   1.856   2.590   0.764
 3691SOL    HW211973   1.751   2.693   0.692
 3692SOL     OW11974   0.718   3.487   5.812
 3692SOL    HW111975   0.695   3.435   5.895
 3692SOL    HW211976   0.813   3.468   5.787
 3693SOL     OW11977   6.616   0.944   2.100
 3693SOL    HW111978   6.542   0.978   2.158
 3693SOL    HW211979   6.581   0.873   2.040
 3694SOL     OW11980   6.662   0.587   2.434
 3694SOL    HW111981   6.576   0.631   2.409
 3694SOL    HW211982   6.660   0.492   2.403
 3695SOL     OW11983   5.803   3.272   2.878
 3695SOL    HW111984   5.842   3.231   2.796
 3695SOL    HW211985   5.841   3.227   2.959
 3696SOL     OW11986   4.537   0.788   4.744
 3696SOL    HW111987   4.604   0.797   4.670
 3696SOL    HW211988   4.581   0.811   4.831
 3697SOL     OW11989   0.295   6.225   2.752
 3697SOL    HW111990   0.222   6.280   2.793
 3697SOL    HW211991   0.263   6.130   2.741
 3698SOL     OW11992   1.661   0.434   2.967
 3698SOL    HW111993   1.682   0.348   2.920
 3698SOL    HW211994   1.620   0.415   3.056
 3699SOL     OW11995   2.541   2.555   3.816
 3699SOL    HW111996   2.618   2.513   3.863
 3699SOL    HW211997   2.456   2.530   3.862
 3700SOL     OW11998   1.107   4.742   4.006
 3700SOL    HW111999   1.020   4.777   3.970
 3700SOL    HW212000   1.089   4.665   4.067
 3701SOL     OW12001   1.456   0.554   2.194
 3701SOL    HW112002   1.484   0.529   2.101
 3701SOL    HW212003   1.385   0.491   2.225
 3702SOL     OW12004   5.310   4.492   3.309
 3702SOL    HW112005   5.234   4.428   3.317
 3702SOL    HW212006   5.391   4.452   3.352
 3703SOL     OW12007   1.075   1.490   4.470
 3703SOL    HW112008   1.056   1.533   4.559
 3703SOL    HW212009   1.173   1.470   4.464
 3704SOL     OW12010   6.475   2.385   0.857
 3704SOL    HW112011   6.480   2.409   0.761
 3704SOL    HW212012   6.405   2.441   0.902
 3705SOL     OW12013   4.931   4.887   2.731
 3705SOL    HW112014   4.884   4.937   2.658
 3705SOL    HW212015   4.864   4.834   2.783
 3706SOL     OW12016   0.274   3.936   0.299
 3706SOL    HW112017   0.183   3.971   0.277
 3706SOL    HW212018   0.343   3.997   0.259
 3707SOL     OW12019   1.129   4.873   3.646
 3707SOL    HW112020   1.054   4.832   3.697
 3707SOL    HW212021   1.116   4.858   3.548
 3708SOL     OW12022   2.964   6.520   0.778
 3708SOL    HW112023   2.947   6.611   0.741
 3708SOL    HW212024   2.888   6.493   0.837
 3709SOL     OW12025   1.428   1.513   2.213
 3709SOL    HW112026   1.339   1.542   2.250
 3709SOL    HW212027   1.485   1.594   2.198
 3710SOL     OW12028   0.448   4.634   5.153
 3710SOL    HW112029   0.502   4.675   5.226
 3710SOL    HW212030   0.387   4.704   5.115
 3711SOL     OW12031   1.303   5.795   4.488
 3711SOL    HW112032   1.343   5.781   4.578
 3711SOL    HW212033   1.341   5.729   4.423
 3712SOL     OW12034   2.000   5.255   4.485
 3712SOL    HW112035   1.916   5.223   4.441
 3712SOL    HW212036   2.050   5.178   4.523
 3713SOL     OW12037   5.586   0.145   4.247
 3713SOL    HW112038   5.524   0.092   4.189
 3713SOL    HW212039   5.664   0.088   4.273
 3714SOL     OW12040   0.444   4.503   0.755
 3714SOL    HW112041   0.542   4.522   0.750
 3714SOL    HW212042   0.408   4.488   0.663
 3715SOL     OW12043   5.379   5.584   3.628
 3715SOL    HW112044   5.438   5.504   3.626
 3715SOL    HW212045   5.370   5.622   3.536
 3716SOL     OW12046   5.031   5.858   4.095
 3716SOL    HW112047   5.070   5.772   4.062
 3716SOL    HW212048   4.999   5.912   4.017
 3717SOL     OW12049   4.329   1.241   0.890
 3717SOL    HW112050   4.423   1.213   0.866
 3717SOL    HW212051   4.312   1.334   0.858
 3718SOL     OW12052   6.883   0.277   5.821
 3718SOL    HW112053   6.873   0.376   5.826
 3718SOL    HW212054   6.820   0.240   5.752
 3719SOL     OW12055   3.582   4.094   0.249
 3719SOL    HW112056   3.671   4.135   0.229
 3719SOL    HW212057   3.550   4.043   0.170
 3720SOL     OW12058   0.200   2.750   1.252
 3720SOL    HW112059   0.182   2.702   1.338
 3720SOL    HW212060   0.297   2.745   1.230
 3721SOL     OW12061   6.497   5.561   6.075
 3721SOL    HW112062   6.455   5.644   6.110
 3721SOL    HW212063   6.545   5.514   6.149
 3722SOL     OW12064   4.983   6.114   2.933
 3722SOL    HW112065   4.965   6.192   2.992
 3722SOL    HW212066   4.902   6.054   2.930
 3723SOL     OW12067   4.669   3.528   0.259
 3723SOL    HW112068   4.683   3.436   0.223
 3723SOL    HW212069   4.594   3.572   0.210
 3724SOL     OW12070   1.313   4.659   4.865
 3724SOL    HW112071   1.256   4.679   4.945
 3724SOL    HW212072   1.398   4.712   4.870
 3725SOL     OW12073   0.844   5.496   6.953
 3725SOL    HW112074   0.762   5.463   6.998
 3725SOL    HW212075   0.827   5.587   6.914
 3726SOL     OW12076   6.285   3.925   4.832
 3726SOL    HW112077   6.270   3.980   4.915
 3726SOL    HW212078   6.207   3.863   4.820
 3727SOL     OW12079   6.536   3.811   3.829
 3727SOL    HW112080   6.460   3.847   3.884
 3727SOL    HW212081   6.623   3.837   3.871
 3728SOL     OW12082   3.441   2.461   6.968
 3728SOL    HW112083   3.362   2.460   0.008
 3728SOL    HW212084   3.518   2.416   7.013
 3729SOL     OW12085   0.580   0.479   5.219
 3729SOL    HW112086   0.598   0.560   5.163
 3729SOL    HW212087   0.638   0.404   5.188
 3730SOL     OW12088   4.039   5.875   4.228
 3730SOL    HW112089   4.044   5.901   4.325
 3730SOL    HW212090   3.983   5.941   4.179
 3731SOL     OW12091   0.310   2.019   6.734
 3731SOL    HW112092   0.263   2.077   6.801
 3731SOL    HW212093   0.285   2.047   6.641
 3732SOL     OW12094   3.171   1.774   6.427
 3732SOL    HW112095   3.250   1.821   6.467
 3732SOL    HW212096   3.087   1.822   6.452
 3733SOL     OW12097   2.311   1.322   3.877
 3733SOL    HW112098   2.289   1.297   3.971
 3733SOL    HW212099   2.309   1.240   3.819
 3734SOL     OW12100   3.927   6.527   0.770
 3734SOL    HW112101   3.946   6.439   0.814
 3734SOL    HW212102   4.006   6.555   0.716
 3735SOL     OW12103   3.953   6.829   2.455
 3735SOL    HW112104   3.872   6.776   2.427
 3735SOL    HW212105   3.934   6.926   2.446
 3736SOL     OW12106   6.709   1.062   1.124
 3736SOL    HW112107   6.720   1.157   1.095
 3736SOL    HW212108   6.635   1.057   1.192
 3737SOL     OW12109   6.878   2.488   2.911
 3737SOL    HW112110   6.831   2.535   2.836
 3737SOL    HW212111   6.950   2.547   2.948
 3738SOL     OW12112   6.862   0.048   1.104
 3738SOL    HW112113   6.916   0.035   1.188
 3738SOL    HW212114   6.911   0.108   1.041
 3739SOL     OW12115   3.066   3.979   0.718
 3739SOL    HW112116   3.044   3.949   0.811
 3739SOL    HW212117   3.095   3.900   0.663
 3740SOL     OW12118   5.184   5.596   6.463
 3740SOL    HW112119   5.245   5.539   6.408
 3740SOL    HW212120   5.094   5.598   6.421
 3741SOL     OW12121   5.416   3.388   0.434
 3741SOL    HW112122   5.489   3.452   0.460
 3741SOL    HW212123   5.356   3.373   0.512
 3742SOL     OW12124   3.595   5.430   0.064
 3742SOL    HW112125   3.602   5.434   6.985
 3742SOL    HW212126   3.651   5.354   0.099
 3743SOL     OW12127   4.057   3.481   1.531
 3743SOL    HW112128   3.977   3.432   1.496
 3743SOL    HW212129   4.074   3.454   1.626
 3744SOL     OW12130   0.649   0.109   2.386
 3744SOL    HW112131   0.740   0.071   2.398
 3744SOL    HW212132   0.656   0.203   2.354
 3745SOL     OW12133   4.866   3.736   2.327
 3745SOL    HW112134   4.769   3.718   2.317
 3745SOL    HW212135   4.918   3.652   2.310
 3746SOL     OW12136   6.108   0.601   4.665
 3746SOL    HW112137   6.092   0.698   4.678
 3746SOL    HW212138   6.059   0.569   4.583
 3747SOL     OW12139   3.371   6.853   5.628
 3747SOL    HW112140   3.434   6.782   5.659
 3747SOL    HW212141   3.399   6.941   5.666
 3748SOL     OW12142   4.970   1.768   2.768
 3748SOL    HW112143   5.023   1.849   2.745
 3748SOL    HW212144   4.891   1.795   2.823
 3749SOL     OW12145   6.873   6.390   2.381
 3749SOL    HW112146   6.788   6.443   2.380
 3749SOL    HW212147   6.855   6.297   2.351
 3750SOL     OW12148   5.931   4.151   0.694
 3750SOL    HW112149   5.903   4.245   0.674
 3750SOL    HW212150   6.015   4.130   0.644
 3751SOL     OW12151   2.034   3.927   2.202
 3751SOL    HW112152   2.095   3.968   2.134
 3751SOL    HW212153   2.055   3.830   2.213
 3752SOL     OW12154   0.631   6.299   6.835
 3752SOL    HW112155   0.654   6.263   6.744
 3752SOL    HW212156   0.569   6.377   6.825
 3753SOL     OW12157   6.561   6.630   4.712
 3753SOL    HW112158   6.520   6.621   4.621
 3753SOL    HW212159   6.645   6.684   4.705
 3754SOL     OW12160   6.653   6.861   1.194
 3754SOL    HW112161   6.669   6.763   1.196
 3754SOL    HW212162   6.738   6.909   1.172
 3755SOL     OW12163   5.202   3.612   3.202
 3755SOL    HW112164   5.192   3.519   3.166
 3755SOL    HW212165   5.249   3.669   3.135
 3756SOL     OW12166   3.051   0.461   0.142
 3756SOL    HW112167   3.069   0.543   0.195
 3756SOL    HW212168   3.027   0.486   0.048
 3757SOL     OW12169   2.850   5.420   6.674
 3757SOL    HW112170   2.846   5.509   6.719
 3757SOL    HW212171   2.757   5.382   6.666
 3758SOL     OW12172   2.046   1.451   4.340
 3758SOL    HW112173   2.113   1.525   4.344
 3758SOL    HW212174   1.968   1.478   4.284
 3759SOL     OW12175   4.811   4.688   6.232
 3759SOL    HW112176   4.774   4.634   6.307
 3759SOL    HW212177   4.766   4.777   6.229
 3760SOL     OW12178   1.453   2.633   5.039
 3760SOL    HW112179   1.541   2.680   5.026
 3760SOL    HW212180   1.468   2.545   5.083
 3761SOL     OW12181   0.064   6.378   4.342
 3761SOL    HW112182   7.002   6.371   4.397
 3761SOL    HW212183   0.117   6.294   4.349
 3762SOL     OW12184   0.076   4.148   0.048
 3762SOL    HW112185   0.122   4.095   6.997
 3762SOL    HW212186   0.004   4.093   0.089
 3763SOL     OW12187   6.876   3.385   6.368
 3763SOL    HW112188   6.878   3.294   6.408
 3763SOL    HW212189   6.890   3.453   6.440
 3764SOL     OW12190   2.300   6.874   3.329
 3764SOL    HW112191   2.244   6.821   3.266
 3764SOL    HW212192   2.328   6.817   3.406
 3765SOL     OW12193   5.891   0.651   4.493
 3765SOL    HW112194   5.867   0.717   4.422
 3765SOL    HW212195   5.810   0.627   4.545
 3766SOL     OW12196   1.479   0.818   5.099
 3766SOL    HW112197   1.443   0.847   5.011
 3766SOL    HW212198   1.428   0.737   5.130
 3767SOL     OW12199   1.095   5.098   0.839
 3767SOL    HW112200   1.031   5.054   0.901
 3767SOL    HW212201   1.065   5.192   0.822
 3768SOL     OW12202   4.365   6.656   0.339
 3768SOL    HW112203   4.292   6.671   0.272
 3768SOL    HW212204   4.434   6.727   0.330
 3769SOL     OW12205   4.356   6.427   5.171
 3769SOL    HW112206   4.420   6.351   5.181
 3769SOL    HW212207   4.390   6.507   5.221
 3770SOL     OW12208   1.787   1.839   6.852
 3770SOL    HW112209   1.756   1.924   6.810
 3770SOL    HW212210   1.859   1.859   6.919
 3771SOL     OW12211   5.637   2.383   6.244
 3771SOL    HW112212   5.670   2.434   6.164
 3771SOL    HW212213   5.714   2.365   6.306
 3772SOL     OW12214   5.202   1.204   2.206
 3772SOL    HW112215   5.254   1.253   2.276
 3772SOL    HW212216   5.228   1.238   2.116
 3773SOL     OW12217   6.652   2.654   6.363
 3773SOL    HW112218   6.622   2.736   6.314
 3773SOL    HW212219   6.713   2.681   6.438
 3774SOL     OW12220   0.528   1.066   1.578
 3774SOL    HW112221   0.452   1.107   1.528
 3774SOL    HW212222   0.510   1.073   1.677
 3775SOL     OW12223   5.519   3.945   3.944
 3775SOL    HW112224   5.609   3.964   3.903
 3775SOL    HW212225   5.531   3.888   4.025
 3776SOL     OW12226   2.401   3.411   0.977
 3776SOL    HW112227   2.383   3.503   1.013
 3776SOL    HW212228   2.488   3.411   0.928
 3777SOL     OW12229   2.061   4.532   3.845
 3777SOL    HW112230   2.031   4.597   3.775
 3777SOL    HW212231   2.136   4.572   3.898
 3778SOL     OW12232   2.849   5.620   1.972
 3778SOL    HW112233   2.804   5.657   2.053
 3778SOL    HW212234   2.813   5.528   1.953
 3779SOL     OW12235   2.781   5.167   6.362
 3779SOL    HW112236   2.799   5.264   6.373
 3779SOL    HW212237   2.771   5.146   6.265
 3780SOL     OW12238   3.194   6.676   5.045
 3780SOL    HW112239   3.212   6.775   5.037
 3780SOL    HW212240   3.245   6.640   5.122
 3781SOL     OW12241   2.949   5.521   4.914
 3781SOL    HW112242   2.873   5.462   4.887
 3781SOL    HW212243   2.960   5.594   4.847
 3782SOL     OW12244   2.456   1.528   3.656
 3782SOL    HW112245   2.381   1.488   3.708
 3782SOL    HW212246   2.486   1.612   3.700
 3783SOL     OW12247   5.310   6.168   5.272
 3783SOL    HW112248   5.353   6.232   5.209
 3783SOL    HW212249   5.355   6.079   5.266
 3784SOL     OW12250   5.555   1.576   3.385
 3784SOL    HW112251   5.552   1.647   3.454
 3784SOL    HW212252   5.639   1.522   3.397
 3785SOL     OW12253   2.023   1.698   1.264
 3785SOL    HW112254   1.945   1.722   1.321
 3785SOL    HW212255   2.103   1.751   1.293
 3786SOL     OW12256   3.159   5.320   3.222
 3786SOL    HW112257   3.068   5.349   3.251
 3786SOL    HW212258   3.154   5.280   3.130
 3787SOL     OW12259   3.877   1.313   3.843
 3787SOL    HW112260   3.807   1.268   3.898
 3787SOL    HW212261   3.842   1.401   3.810
 3788SOL     OW12262   5.343   3.050   2.135
 3788SOL    HW112263   5.369   2.956   2.158
 3788SOL    HW212264   5.369   3.069   2.041
 3789SOL     OW12265   1.576   4.887   3.433
 3789SOL    HW112266   1.488   4.853   3.467
 3789SOL    HW212267   1.627   4.811   3.392
 3790SOL     OW12268   1.781   3.291   3.529
 3790SOL    HW112269   1.682   3.287   3.542
 3790SOL    HW212270   1.809   3.386   3.518
 3791SOL     OW12271   4.525   0.108   1.531
 3791SOL    HW112272   4.515   0.014   1.564
 3791SOL    HW212273   4.439   0.139   1.491
 3792SOL     OW12274   6.597   6.384   5.368
 3792SOL    HW112275   6.618   6.429   5.455
 3792SOL    HW212276   6.579   6.287   5.385
 3793SOL     OW12277   1.901   0.757   2.621
 3793SOL    HW112278   1.836   0.712   2.560
 3793SOL    HW212279   1.929   0.693   2.693
 3794SOL     OW12280   4.626   6.316   1.660
 3794SOL    HW112281   4.630   6.366   1.746
 3794SOL    HW212282   4.544   6.342   1.610
 3795SOL     OW12283   5.751   6.981   6.293
 3795SOL    HW112284   5.810   6.936   6.360
 3795SOL    HW212285   5.738   6.920   6.215
 3796SOL     OW12286   1.334   3.140   2.237
 3796SOL    HW112287   1.417   3.112   2.286
 3796SOL    HW212288   1.357   3.162   2.142
 3797SOL     OW12289   0.458   5.125   2.912
 3797SOL    HW112290   0.496   5.180   2.837
 3797SOL    HW212291   0.416   5.185   2.980
 3798SOL     OW12292   1.888   4.878   2.142
 3798SOL    HW112293   1.898   4.967   2.098
 3798SOL    HW212294   1.860   4.810   2.075
 3799SOL     OW12295   2.286   0.219   5.674
 3799SOL    HW112296   2.310   0.122   5.673
 3799SOL    HW212297   2.361   0.271   5.714
 3800SOL     OW12298   4.470   2.497   4.656
 3800SOL    HW112299   4.553   2.455   4.618
 3800SOL    HW212300   4.492   2.587   4.693
 3801SOL     OW12301   0.116   6.792   5.878
 3801SOL    HW112302   0.127   6.786   5.978
 3801SOL    HW212303   0.167   6.871   5.844
 3802SOL     OW12304   1.679   1.595   5.366
 3802SOL    HW112305   1.611   1.524   5.382
 3802SOL    HW212306   1.766   1.567   5.407
 3803SOL     OW12307   3.699   0.879   1.339
 3803SOL    HW112308   3.694   0.803   1.403
 3803SOL    HW212309   3.618   0.937   1.349
 3804SOL     OW12310   4.709   1.910   4.200
 3804SOL    HW112311   4.629   1.864   4.237
 3804SOL    HW212312   4.791   1.855   4.217
 3805SOL     OW12313   2.706   4.282   1.683
 3805SOL    HW112314   2.768   4.344   1.731
 3805SOL    HW212315   2.620   4.329   1.664
 3806SOL     OW12316   2.730   1.483   0.189
 3806SOL    HW112317   2.647   1.538   0.193
 3806SOL    HW212318   2.718   1.400   0.243
 3807SOL     OW12319   1.596   6.620   3.560
 3807SOL    HW112320   1.637   6.682   3.626
 3807SOL    HW212321   1.497   6.628   3.564
 3808SOL     OW12322   2.934   0.033   1.469
 3808SOL    HW112323   2.875   0.099   1.423
 3808SOL    HW212324   3.007   0.004   1.406
 3809SOL     OW12325   5.332   1.131   6.729
 3809SOL    HW112326   5.377   1.119   6.818
 3809SOL    HW212327   5.376   1.072   6.662
 3810SOL     OW12328   2.974   3.054   5.276
 3810SOL    HW112329   2.990   3.149   5.305
 3810SOL    HW212330   3.008   3.042   5.183
 3811SOL     OW12331   0.689   5.536   4.942
 3811SOL    HW112332   0.683   5.616   5.002
 3811SOL    HW212333   0.600   5.491   4.938
 3812SOL     OW12334   5.482   1.601   5.250
 3812SOL    HW112335   5.433   1.658   5.184
 3812SOL    HW212336   5.501   1.654   5.333
 3813SOL     OW12337   3.273   5.043   0.885
 3813SOL    HW112338   3.309   4.964   0.934
 3813SOL    HW212339   3.198   5.084   0.937
 3814SOL     OW12340   0.220   6.222   2.390
 3814SOL    HW112341   0.313   6.248   2.419
 3814SOL    HW212342   0.210   6.240   2.293
 3815SOL     OW12343   5.283   2.509   1.501
 3815SOL    HW112344   5.344   2.465   1.567
 3815SOL    HW212345   5.308   2.481   1.408
 3816SOL     OW12346   1.499   0.025   0.979
 3816SOL    HW112347   1.552   6.961   0.979
 3816SOL    HW212348   1.500   0.066   0.887
 3817SOL     OW12349   5.284   2.285   5.440
 3817SOL    HW112350   5.321   2.277   5.532
 3817SOL    HW212351   5.351   2.249   5.374
 3818SOL     OW12352   4.608   5.189   1.674
 3818SOL    HW112353   4.683   5.234   1.625
 3818SOL    HW212354   4.643   5.144   1.756
 3819SOL     OW12355   5.316   4.619   0.364
 3819SOL    HW112356   5.311   4.546   0.432
 3819SOL    HW212357   5.401   4.671   0.378
 3820SOL     OW12358   5.244   6.537   4.207
 3820SOL    HW112359   5.189   6.615   4.175
 3820SOL    HW212360   5.205   6.453   4.171
 3821SOL     OW12361   1.170   4.181   2.113
 3821SOL    HW112362   1.187   4.089   2.147
 3821SOL    HW212363   1.232   4.201   2.038
 3822SOL     OW12364   2.776   5.691   1.471
 3822SOL    HW112365   2.808   5.733   1.556
 3822SOL    HW212366   2.849   5.636   1.431
 3823SOL     OW12367   3.555   2.757   5.686
 3823SOL    HW112368   3.588   2.766   5.592
 3823SOL    HW212369   3.521   2.845   5.718
 3824SOL     OW12370   0.110   2.444   5.966
 3824SOL    HW112371   0.078   2.480   6.053
 3824SOL    HW212372   0.210   2.439   5.967
 3825SOL     OW12373   6.640   6.878   6.408
 3825SOL    HW112374   6.687   6.881   6.496
 3825SOL    HW212375   6.698   6.829   6.342
 3826SOL     OW12376   6.817   2.939   1.796
 3826SOL    HW112377   6.770   2.886   1.726
 3826SOL    HW212378   6.912   2.954   1.768
 3827SOL     OW12379   4.058   3.319   0.990
 3827SOL    HW112380   4.018   3.367   1.068
 3827SOL    HW212381   4.132   3.374   0.951
 3828SOL     OW12382   4.503   1.094   2.714
 3828SOL    HW112383   4.428   1.074   2.652
 3828SOL    HW212384   4.523   1.013   2.769
 3829SOL     OW12385   2.108   4.938   3.927
 3829SOL    HW112386   2.028   4.968   3.980
 3829SOL    HW212387   2.087   4.852   3.882
 3830SOL     OW12388   2.819   1.231   5.387
 3830SOL    HW112389   2.910   1.208   5.353
 3830SOL    HW212390   2.795   1.169   5.463
 3831SOL     OW12391   3.648   1.238   2.225
 3831SOL    HW112392   3.611   1.207   2.137
 3831SOL    HW212393   3.697   1.324   2.213
 3832SOL     OW12394   6.922   0.679   2.328
 3832SOL    HW112395   6.852   0.608   2.328
 3832SOL    HW212396   6.974   0.675   2.414
 3833SOL     OW12397   1.568   4.722   0.164
 3833SOL    HW112398   1.544   4.679   0.076
 3833SOL    HW212399   1.640   4.668   0.209
 3834SOL     OW12400   2.509   1.893   0.037
 3834SOL    HW112401   2.488   1.796   0.051
 3834SOL    HW212402   2.603   1.902   0.004
 3835SOL     OW12403   4.047   5.314   5.330
 3835SOL    HW112404   4.038   5.325   5.429
 3835SOL    HW212405   3.996   5.387   5.283
 3836SOL     OW12406   0.874   3.528   6.141
 3836SOL    HW112407   0.913   3.570   6.059
 3836SOL    HW212408   0.815   3.594   6.187
 3837SOL     OW12409   3.647   2.810   0.494
 3837SOL    HW112410   3.590   2.766   0.424
 3837SOL    HW212411   3.687   2.739   0.553
 3838SOL     OW12412   6.263   3.237   5.342
 3838SOL    HW112413   6.216   3.295   5.275
 3838SOL    HW212414   6.202   3.164   5.371
 3839SOL     OW12415   6.544   6.485   5.915
 3839SOL    HW112416   6.637   6.518   5.931
 3839SOL    HW212417   6.502   6.459   6.002
 3840SOL     OW12418   1.657   0.882   4.230
 3840SOL    HW112419   1.645   0.944   4.152
 3840SOL    HW212420   1.567   0.862   4.270
 3841SOL     OW12421   0.556   3.659   4.763
 3841SOL    HW112422   0.599   3.720   4.696
 3841SOL    HW212423   0.533   3.711   4.846
 3842SOL     OW12424   0.809   5.370   6.701
 3842SOL    HW112425   0.842   5.420   6.781
 3842SOL    HW212426   0.775   5.434   6.632
 3843SOL     OW12427   5.525   3.032   1.092
 3843SOL    HW112428   5.440   2.998   1.131
 3843SOL    HW212429   5.541   3.126   1.124
 3844SOL     OW12430   2.122   4.816   6.142
 3844SOL    HW112431   2.211   4.840   6.179
 3844SOL    HW212432   2.109   4.862   6.054
 3845SOL     OW12433   3.697   4.014   3.873
 3845SOL    HW112434   3.629   3.951   3.912
 3845SOL    HW212435   3.655   4.065   3.798
 3846SOL     OW12436   6.913   4.539   3.748
 3846SOL    HW112437   6.938   4.569   3.840
 3846SOL    HW212438   6.931   4.612   3.683
 3847SOL     OW12439   0.539   0.030   0.520
 3847SOL    HW112440   0.485   0.078   0.452
 3847SOL    HW212441   0.594   6.979   0.476
 3848SOL     OW12442   2.511   5.306   0.667
 3848SOL    HW112443   2.592   5.332   0.718
 3848SOL    HW212444   2.431   5.309   0.727
 3849SOL     OW12445   1.595   2.387   5.890
 3849SOL    HW112446   1.632   2.473   5.925
 3849SOL    HW212447   1.563   2.331   5.966
 3850SOL     OW12448   2.890   3.811   1.691
 3850SOL    HW112449   2.945   3.787   1.770
 3850SOL    HW212450   2.887   3.911   1.681
 3851SOL     OW12451   2.578   2.543   1.575
 3851SOL    HW112452   2.623   2.555   1.663
 3851SOL    HW212453   2.494   2.598   1.573
 3852SOL     OW12454   3.798   0.697   5.019
 3852SOL    HW112455   3.701   0.713   5.040
 3852SOL    HW212456   3.806   0.669   4.923
 3853SOL     OW12457   1.458   3.011   1.810
 3853SOL    HW112458   1.523   2.972   1.875
 3853SOL    HW212459   1.503   3.024   1.722
 3854SOL     OW12460   1.301   3.050   3.986
 3854SOL    HW112461   1.385   3.065   3.934
 3854SOL    HW212462   1.324   3.015   4.077
 3855SOL     OW12463   0.027   2.182   5.315
 3855SOL    HW112464   0.074   2.199   5.402
 3855SOL    HW212465   6.949   2.193   5.327
 3856SOL     OW12466   0.474   6.549   5.739
 3856SOL    HW112467   0.557   6.601   5.716
 3856SOL    HW212468   0.479   6.520   5.835
 3857SOL     OW12469   0.406   6.814   5.743
 3857SOL    HW112470   0.438   6.720   5.759
 3857SOL    HW212471   0.392   6.828   5.645
 3858SOL     OW12472   2.127   5.357   0.137
 3858SOL    HW112473   2.030   5.332   0.132
 3858SOL    HW212474   2.177   5.289   0.190
 3859SOL     OW12475   6.871   2.493   1.907
 3859SOL    HW112476   6.902   2.458   1.819
 3859SOL    HW212477   6.897   2.589   1.916
 3860SOL     OW12478   2.293   6.348   5.475
 3860SOL    HW112479   2.253   6.418   5.416
 3860SOL    HW212480   2.301   6.262   5.425
 3861SOL     OW12481   4.414   4.571   0.448
 3861SOL    HW112482   4.397   4.557   0.545
 3861SOL    HW212483   4.330   4.553   0.396
 3862SOL     OW12484   1.346   5.650   6.102
 3862SOL    HW112485   1.436   5.621   6.136
 3862SOL    HW212486   1.335   5.749   6.115
 3863SOL     OW12487   3.163   3.023   1.020
 3863SOL    HW112488   3.219   2.974   1.086
 3863SOL    HW212489   3.180   2.986   0.928
 3864SOL     OW12490   3.857   1.773   6.976
 3864SOL    HW112491   3.938   1.755   6.921
 3864SOL    HW212492   3.802   1.845   6.934
 3865SOL     OW12493   4.539   0.490   2.704
 3865SOL    HW112494   4.545   0.395   2.734
 3865SOL    HW212495   4.492   0.545   2.773
 3866SOL     OW12496   3.889   6.198   6.441
 3866SOL    HW112497   3.916   6.290   6.414
 3866SOL    HW212498   3.930   6.175   6.529
 3867SOL     OW12499   1.772   3.067   3.886
 3867SOL    HW112500   1.858   3.118   3.893
 3867SOL    HW212501   1.787   2.982   3.835
 3868SOL     OW12502   1.606   5.934   2.645
 3868SOL    HW112503   1.599   5.835   2.643
 3868SOL    HW212504   1.563   5.970   2.728
 3869SOL     OW12505   1.263   2.374   3.571
 3869SOL    HW112506   1.242   2.276   3.570
 3869SOL    HW212507   1.331   2.393   3.643
 3870SOL     OW12508   3.184   4.451   0.534
 3870SOL    HW112509   3.253   4.380   0.545
 3870SOL    HW212510   3.110   4.416   0.476
 3871SOL     OW12511   2.529   1.325   4.308
 3871SOL    HW112512   2.523   1.278   4.220
 3871SOL    HW212513   2.440   1.323   4.354
 3872SOL     OW12514   4.144   3.426   0.255
 3872SOL    HW112515   4.184   3.451   0.167
 3872SOL    HW212516   4.213   3.385   0.314
 3873SOL     OW12517   4.965   4.679   2.131
 3873SOL    HW112518   4.990   4.614   2.059
 3873SOL    HW212519   5.045   4.694   2.190
 3874SOL     OW12520   4.256   6.335   5.858
 3874SOL    HW112521   4.230   6.380   5.773
 3874SOL    HW212522   4.355   6.325   5.861
 3875SOL     OW12523   2.274   3.985   0.783
 3875SOL    HW112524   2.360   3.986   0.731
 3875SOL    HW212525   2.197   4.000   0.720
 3876SOL     OW12526   5.317   3.857   2.769
 3876SOL    HW112527   5.410   3.824   2.782
 3876SOL    HW212528   5.258   3.819   2.839
 3877SOL     OW12529   5.233   0.923   2.453
 3877SOL    HW112530   5.324   0.939   2.414
 3877SOL    HW212531   5.163   0.946   2.385
 3878SOL     OW12532   3.712   5.777   5.050
 3878SOL    HW112533   3.738   5.844   5.119
 3878SOL    HW212534   3.672   5.697   5.094
 3879SOL     OW12535   3.179   6.136   0.998
 3879SOL    HW112536   3.178   6.216   0.939
 3879SOL    HW212537   3.258   6.140   1.059
 3880SOL     OW12538   5.321   2.540   3.956
 3880SOL    HW112539   5.374   2.607   4.007
 3880SOL    HW212540   5.236   2.521   4.005
 3881SOL     OW12541   0.365   5.136   0.876
 3881SOL    HW112542   0.297   5.133   0.803
 3881SOL    HW212543   0.371   5.046   0.919
 3882SOL     OW12544   0.380   6.855   6.694
 3882SOL    HW112545   0.315   6.814   6.631
 3882SOL    HW212546   0.383   6.954   6.680
 3883SOL     OW12547   3.169   1.024   5.939
 3883SOL    HW112548   3.249   1.079   5.962
 3883SOL    HW212549   3.160   0.948   6.003
 3884SOL     OW12550   1.257   4.855   5.623
 3884SOL    HW112551   1.321   4.783   5.651
 3884SOL    HW212552   1.308   4.929   5.580
 3885SOL     OW12553   0.440   1.946   5.132
 3885SOL    HW112554   0.482   2.017   5.076
 3885SOL    HW212555   0.349   1.926   5.098
 3886SOL     OW12556   6.929   5.784   4.653
 3886SOL    HW112557   6.932   5.884   4.648
 3886SOL    HW212558   6.996   5.753   4.721
 3887SOL     OW12559   5.244   2.545   5.340
 3887SOL    HW112560   5.292   2.571   5.257
 3887SOL    HW212561   5.262   2.448   5.359
 3888SOL     OW12562   5.823   1.991   1.940
 3888SOL    HW112563   5.770   2.041   2.008
 3888SOL    HW212564   5.853   2.053   1.868
 3889SOL     OW12565   0.221   5.399   0.225
 3889SOL    HW112566   0.172   5.445   0.151
 3889SOL    HW212567   0.310   5.443   0.239
 3890SOL     OW12568   6.481   3.683   1.330
 3890SOL    HW112569   6.552   3.692   1.399
 3890SOL    HW212570   6.393   3.710   1.368
 3891SOL     OW12571   5.694   5.162   5.950
 3891SOL    HW112572   5.730   5.138   6.040
 3891SOL    HW212573   5.763   5.212   5.899
 3892SOL     OW12574   5.360   6.299   3.913
 3892SOL    HW112575   5.369   6.398   3.911
 3892SOL    HW212576   5.359   6.263   3.820
 3893SOL     OW12577   2.874   6.157   4.092
 3893SOL    HW112578   2.963   6.115   4.109
 3893SOL    HW212579   2.878   6.213   4.009
 3894SOL     OW12580   5.355   5.332   6.427
 3894SOL    HW112581   5.403   5.247   6.449
 3894SOL    HW212582   5.275   5.341   6.487
 3895SOL     OW12583   1.669   1.779   6.176
 3895SOL    HW112584   1.757   1.772   6.223
 3895SOL    HW212585   1.683   1.806   6.081
 3896SOL     OW12586   0.011   2.560   5.748
 3896SOL    HW112587   0.077   2.534   5.678
 3896SOL    HW212588   0.035   2.516   5.835
 3897SOL     OW12589   3.386   6.660   2.598
 3897SOL    HW112590   3.447   6.694   2.527
 3897SOL    HW212591   3.416   6.694   2.687
 3898SOL     OW12592   3.607   4.127   4.724
 3898SOL    HW112593   3.611   4.162   4.818
 3898SOL    HW212594   3.517   4.146   4.685
 3899SOL     OW12595   5.321   1.759   5.118
 3899SOL    HW112596   5.314   1.851   5.078
 3899SOL    HW212597   5.244   1.743   5.179
 3900SOL     OW12598   6.854   2.661   4.232
 3900SOL    HW112599   6.760   2.696   4.228
 3900SOL    HW212600   6.852   2.562   4.222
 3901SOL     OW12601   2.561   5.493   4.719
 3901SOL    HW112602   2.582   5.583   4.681
 3901SOL    HW212603   2.517   5.503   4.808
 3902SOL     OW12604   3.689   5.069   2.081
 3902SOL    HW112605   3.679   5.023   2.170
 3902SOL    HW212606   3.681   5.002   2.008
 3903SOL     OW12607   4.375   2.302   6.442
 3903SOL    HW112608   4.312   2.253   6.382
 3903SOL    HW212609   4.469   2.276   6.420
 3904SOL     OW12610   2.241   5.544   0.909
 3904SOL    HW112611   2.312   5.608   0.938
 3904SOL    HW212612   2.282   5.455   0.891
 3905SOL     OW12613   0.445   0.355   6.154
 3905SOL    HW112614   0.346   0.369   6.145
 3905SOL    HW212615   0.491   0.386   6.071
 3906SOL     OW12616   0.845   6.278   4.947
 3906SOL    HW112617   0.909   6.298   5.021
 3906SOL    HW212618   0.768   6.341   4.951
 3907SOL     OW12619   1.007   1.304   5.032
 3907SOL    HW112620   1.081   1.362   5.000
 3907SOL    HW212621   0.971   1.340   5.118
 3908SOL     OW12622   2.273   1.034   4.641
 3908SOL    HW112623   2.324   1.029   4.555
 3908SOL    HW212624   2.308   0.965   4.705
 3909SOL     OW12625   5.151   2.775   1.244
 3909SOL    HW112626   5.116   2.729   1.325
 3909SOL    HW212627   5.245   2.806   1.261
 3910SOL     OW12628   3.688   2.168   1.107
 3910SOL    HW112629   3.720   2.191   1.015
 3910SOL    HW212630   3.767   2.157   1.167
 3911SOL     OW12631   6.847   1.015   1.446
 3911SOL    HW112632   6.838   0.920   1.414
 3911SOL    HW212633   6.776   1.034   1.514
 3912SOL     OW12634   4.012   3.339   6.959
 3912SOL    HW112635   3.956   3.308   0.016
 3912SOL    HW212636   4.096   3.382   6.994
 3913SOL     OW12637   4.217   5.658   1.722
 3913SOL    HW112638   4.217   5.743   1.775
 3913SOL    HW212639   4.295   5.658   1.659
 3914SOL     OW12640   6.712   1.859   6.683
 3914SOL    HW112641   6.797   1.821   6.648
 3914SOL    HW212642   6.721   1.878   6.781
 3915SOL     OW12643   5.497   6.681   5.158
 3915SOL    HW112644   5.465   6.762   5.109
 3915SOL    HW212645   5.554   6.625   5.097
 3916SOL     OW12646   1.863   1.909   2.686
 3916SOL    HW112647   1.921   1.853   2.627
 3916SOL    HW212648   1.915   1.935   2.768
 3917SOL     OW12649   3.549   4.851   1.365
 3917SOL    HW112650   3.498   4.789   1.424
 3917SOL    HW212651   3.629   4.885   1.413
 3918SOL     OW12652   4.736   0.892   6.948
 3918SOL    HW112653   4.719   0.920   6.854
 3918SOL    HW212654   4.689   0.806   6.966
 3919SOL     OW12655   4.357   6.224   2.533
 3919SOL    HW112656   4.429   6.242   2.467
 3919SOL    HW212657   4.396   6.185   2.616
 3920SOL     OW12658   3.257   1.827   5.410
 3920SOL    HW112659   3.296   1.776   5.333
 3920SOL    HW212660   3.161   1.802   5.420
 3921SOL     OW12661   0.711   2.558   6.515
 3921SOL    HW112662   0.789   2.503   6.488
 3921SOL    HW212663   0.736   2.655   6.517
 3922SOL     OW12664   5.035   4.247   3.083
 3922SOL    HW112665   4.947   4.285   3.052
 3922SOL    HW212666   5.046   4.264   3.181
 3923SOL     OW12667   5.032   1.455   1.728
 3923SOL    HW112668   5.034   1.421   1.822
 3923SOL    HW212669   5.096   1.532   1.720
 3924SOL     OW12670   5.411   5.318   3.836
 3924SOL    HW112671   5.359   5.404   3.835
 3924SOL    HW212672   5.368   5.252   3.775
 3925SOL     OW12673   5.307   5.253   0.978
 3925SOL    HW112674   5.274   5.160   0.995
 3925SOL    HW212675   5.240   5.319   1.012
 3926SOL     OW12676   0.892   5.361   4.394
 3926SOL    HW112677   0.856   5.390   4.483
 3926SOL    HW212678   0.834   5.289   4.357
 3927SOL     OW12679   5.968   1.745   5.527
 3927SOL    HW112680   5.904   1.713   5.458
 3927SOL    HW212681   5.930   1.730   5.618
 3928SOL     OW12682   3.571   5.731   2.046
 3928SOL    HW112683   3.584   5.768   2.138
 3928SOL    HW212684   3.567   5.807   1.981
 3929SOL     OW12685   0.882   1.406   5.872
 3929SOL    HW112686   0.859   1.403   5.775
 3929SOL    HW212687   0.981   1.394   5.884
 3930SOL     OW12688   1.697   4.439   3.781
 3930SOL    HW112689   1.720   4.496   3.860
 3930SOL    HW212690   1.743   4.475   3.700
 3931SOL     OW12691   1.213   2.552   0.268
 3931SOL    HW112692   1.180   2.591   0.354
 3931SOL    HW212693   1.303   2.588   0.247
 3932SOL     OW12694   2.465   4.458   3.401
 3932SOL    HW112695   2.497   4.537   3.453
 3932SOL    HW212696   2.458   4.482   3.304
 3933SOL     OW12697   1.635   6.347   1.276
 3933SOL    HW112698   1.610   6.278   1.208
 3933SOL    HW212699   1.562   6.355   1.344
 3934SOL     OW12700   1.607   6.803   1.010
 3934SOL    HW112701   1.597   6.704   0.995
 3934SOL    HW212702   1.646   6.818   1.101
 3935SOL     OW12703   0.213   4.010   5.110
 3935SOL    HW112704   0.247   3.947   5.179
 3935SOL    HW212705   0.113   4.015   5.116
 3936SOL     OW12706   0.183   4.119   4.839
 3936SOL    HW112707   0.273   4.146   4.804
 3936SOL    HW212708   0.194   4.080   4.931
 3937SOL     OW12709   0.464   5.841   1.238
 3937SOL    HW112710   0.469   5.875   1.332
 3937SOL    HW212711   0.519   5.758   1.229
 3938SOL     OW12712   0.726   3.179   0.967
 3938SOL    HW112713   0.790   3.151   1.039
 3938SOL    HW212714   0.633   3.170   1.000
 3939SOL     OW12715   0.656   0.506   3.332
 3939SOL    HW112716   0.612   0.491   3.243
 3939SOL    HW212717   0.725   0.435   3.347
 3940SOL     OW12718   3.053   6.054   6.832
 3940SOL    HW112719   3.033   6.152   6.829
 3940SOL    HW212720   3.000   6.012   6.906
 3941SOL     OW12721   4.946   6.040   2.343
 3941SOL    HW112722   4.861   5.999   2.375
 3941SOL    HW212723   4.952   6.031   2.244
 3942SOL     OW12724   6.932   5.882   5.719
 3942SOL    HW112725   6.930   5.810   5.649
 3942SOL    HW212726   6.954   5.970   5.676
 3943SOL     OW12727   2.030   3.317   0.310
 3943SOL    HW112728   1.995   3.278   0.225
 3943SOL    HW212729   2.127   3.298   0.318
 3944SOL     OW12730   4.743   2.796   6.829
 3944SOL    HW112731   4.653   2.786   6.872
 3944SOL    HW212732   4.792   2.872   6.871
 3945SOL     OW12733   5.908   0.224   4.046
 3945SOL    HW112734   5.816   0.209   4.009
 3945SOL    HW212735   5.904   0.295   4.116
 3946SOL     OW12736   6.960   4.092   0.582
 3946SOL    HW112737   0.014   4.159   0.581
 3946SOL    HW212738   6.931   4.076   0.677
 3947SOL     OW12739   5.801   5.978   1.993
 3947SOL    HW112740   5.753   6.001   2.078
 3947SOL    HW212741   5.808   6.059   1.935
 3948SOL     OW12742   1.582   2.893   5.603
 3948SOL    HW112743   1.540   2.825   5.663
 3948SOL    HW212744   1.517   2.920   5.532
 3949SOL     OW12745   6.200   0.529   2.221
 3949SOL    HW112746   6.213   0.524   2.122
 3949SOL    HW212747   6.111   0.570   2.241
 3950SOL     OW12748   3.025   4.433   1.568
 3950SOL    HW112749   3.033   4.525   1.530
 3950SOL    HW212750   2.967   4.435   1.650
 3951SOL     OW12751   0.676   2.736   5.063
 3951SOL    HW112752   0.609   2.716   4.992
 3951SOL    HW212753   0.645   2.814   5.117
 3952SOL     OW12754   5.609   4.025   0.476
 3952SOL    HW112755   5.623   4.072   0.389
 3952SOL    HW212756   5.554   3.943   0.461
 3953SOL     OW12757   3.047   3.712   6.648
 3953SOL    HW112758   3.127   3.652   6.640
 3953SOL    HW212759   2.967   3.664   6.614
 3954SOL     OW12760   1.187   3.339   5.172
 3954SOL    HW112761   1.132   3.423   5.162
 3954SOL    HW212762   1.126   3.260   5.179
 3955SOL     OW12763   6.412   3.878   0.540
 3955SOL    HW112764   6.453   3.881   0.632
 3955SOL    HW212765   6.313   3.866   0.548
 3956SOL     OW12766   6.843   2.892   5.508
 3956SOL    HW112767   6.858   2.864   5.602
 3956SOL    HW212768   6.783   2.972   5.506
 3957SOL     OW12769   0.752   1.686   2.675
 3957SOL    HW112770   0.720   1.621   2.744
 3957SOL    HW212771   0.702   1.772   2.685
 3958SOL     OW12772   5.503   0.225   0.011
 3958SOL    HW112773   5.474   0.254   6.939
 3958SOL    HW212774   5.459   0.283   0.079
 3959SOL     OW12775   2.256   6.101   1.283
 3959SOL    HW112776   2.332   6.109   1.219
 3959SOL    HW212777   2.265   6.172   1.353
 3960SOL     OW12778   5.194   3.413   1.154
 3960SOL    HW112779   5.135   3.491   1.176
 3960SOL    HW212780   5.263   3.442   1.088
 3961SOL     OW12781   5.597   0.315   1.174
 3961SOL    HW112782   5.682   0.274   1.144
 3961SOL    HW212783   5.525   0.245   1.176
 3962SOL     OW12784   0.378   6.342   5.604
 3962SOL    HW112785   0.381   6.371   5.508
 3962SOL    HW212786   0.389   6.422   5.663
 3963SOL     OW12787   4.493   4.605   2.793
 3963SOL    HW112788   4.416   4.575   2.737
 3963SOL    HW212789   4.465   4.683   2.849
 3964SOL     OW12790   6.054   6.007   6.663
 3964SOL    HW112791   6.099   6.093   6.691
 3964SOL    HW212792   6.071   5.937   6.732
 3965SOL     OW12793   3.621   3.385   0.904
 3965SOL    HW112794   3.612   3.353   0.999
 3965SOL    HW212795   3.638   3.483   0.904
 3966SOL     OW12796   6.520   3.920   5.317
 3966SOL    HW112797   6.611   3.890   5.288
 3966SOL    HW212798   6.517   3.927   5.416
 3967SOL     OW12799   1.848   6.946   6.983
 3967SOL    HW112800   1.844   7.005   6.902
 3967SOL    HW212801   1.757   6.910   7.002
 3968SOL     OW12802   4.622   1.324   1.290
 3968SOL    HW112803   4.542   1.265   1.275
 3968SOL    HW212804   4.705   1.272   1.269
 3969SOL     OW12805   0.734   6.365   1.471
 3969SOL    HW112806   0.828   6.335   1.456
 3969SOL    HW212807   0.696   6.318   1.550
 3970SOL     OW12808   4.843   3.730   4.332
 3970SOL    HW112809   4.872   3.656   4.271
 3970SOL    HW212810   4.884   3.717   4.422
 3971SOL     OW12811   0.814   5.985   3.712
 3971SOL    HW112812   0.723   6.026   3.710
 3971SOL    HW212813   0.859   6.008   3.799
 3972SOL     OW12814   0.961   0.328   6.758
 3972SOL    HW112815   0.909   0.280   6.828
 3972SOL    HW212816   1.038   0.271   6.728
 3973SOL     OW12817   3.183   3.076   3.846
 3973SOL    HW112818   3.212   3.170   3.866
 3973SOL    HW212819   3.112   3.048   3.912
 3974SOL     OW12820   5.613   0.473   6.614
 3974SOL    HW112821   5.621   0.405   6.541
 3974SOL    HW212822   5.592   0.562   6.573
 3975SOL     OW12823   6.848   6.074   5.183
 3975SOL    HW112824   6.780   6.025   5.236
 3975SOL    HW212825   6.810   6.161   5.151
 3976SOL     OW12826   0.718   3.024   0.086
 3976SOL    HW112827   0.768   3.044   0.002
 3976SOL    HW212828   0.663   3.103   0.112
 3977SOL     OW12829   3.563   5.331   5.380
 3977SOL    HW112830   3.643   5.288   5.338
 3977SOL    HW212831   3.522   5.268   5.446
 3978SOL     OW12832   6.417   4.267   6.309
 3978SOL    HW112833   6.501   4.226   6.272
 3978SOL    HW212834   6.360   4.194   6.348
 3979SOL     OW12835   0.906   6.678   3.304
 3979SOL    HW112836   0.841   6.653   3.376
 3979SOL    HW212837   0.947   6.595   3.266
 3980SOL     OW12838   4.946   3.530   4.784
 3980SOL    HW112839   4.928   3.432   4.773
 3980SOL    HW212840   4.910   3.561   4.871
 3981SOL     OW12841   6.690   1.620   5.386
 3981SOL    HW112842   6.591   1.615   5.399
 3981SOL    HW212843   6.722   1.710   5.414
 3982SOL     OW12844   2.359   2.814   4.053
 3982SOL    HW112845   2.417   2.735   4.072
 3982SOL    HW212846   2.268   2.800   4.092
 3983SOL     OW12847   3.212   0.374   3.532
 3983SOL    HW112848   3.210   0.310   3.609
 3983SOL    HW212849   3.145   0.348   3.464
 3984SOL     OW12850   1.904   6.802   1.666
 3984SOL    HW112851   1.997   6.835   1.646
 3984SOL    HW212852   1.878   6.831   1.758
 3985SOL     OW12853   1.905   3.326   1.713
 3985SOL    HW112854   1.913   3.232   1.680
 3985SOL    HW212855   1.985   3.378   1.684
 3986SOL     OW12856   1.637   2.117   1.826
 3986SOL    HW112857   1.615   2.091   1.732
 3986SOL    HW212858   1.728   2.084   1.850
 3987SOL     OW12859   1.642   4.040   5.172
 3987SOL    HW112860   1.715   4.084   5.225
 3987SOL    HW212861   1.680   4.002   5.088
 3988SOL     OW12862   5.060   0.819   0.125
 3988SOL    HW112863   4.971   0.789   0.157
 3988SOL    HW212864   5.131   0.788   0.188
 3989SOL     OW12865   4.556   0.912   6.220
 3989SOL    HW112866   4.480   0.917   6.155
 3989SOL    HW212867   4.562   0.998   6.270
 3990SOL     OW12868   0.942   2.561   4.119
 3990SOL    HW112869   1.004   2.565   4.041
 3990SOL    HW212870   0.978   2.620   4.192
 3991SOL     OW12871   0.537   1.331   4.069
 3991SOL    HW112872   0.493   1.280   3.995
 3991SOL    HW212873   0.539   1.428   4.045
 3992SOL     OW12874   5.924   3.884   6.327
 3992SOL    HW112875   5.936   3.973   6.281
 3992SOL    HW212876   5.842   3.888   6.385
 3993SOL     OW12877   1.294   0.466   4.553
 3993SOL    HW112878   1.319   0.414   4.635
 3993SOL    HW212879   1.335   0.557   4.558
 3994SOL     OW12880   2.627   2.088   2.744
 3994SOL    HW112881   2.645   2.144   2.663
 3994SOL    HW212882   2.637   2.145   2.826
 3995SOL     OW12883   1.184   3.608   2.554
 3995SOL    HW112884   1.112   3.560   2.604
 3995SOL    HW212885   1.251   3.543   2.520
 3996SOL     OW12886   5.706   6.457   3.981
 3996SOL    HW112887   5.620   6.484   4.024
 3996SOL    HW212888   5.692   6.374   3.927
 3997SOL     OW12889   5.014   3.373   2.582
 3997SOL    HW112890   5.096   3.404   2.532
 3997SOL    HW212891   5.031   3.380   2.680
 3998SOL     OW12892   5.272   2.422   3.054
 3998SOL    HW112893   5.247   2.469   3.139
 3998SOL    HW212894   5.245   2.479   2.976
 3999SOL     OW12895   4.607   2.817   1.298
 3999SOL    HW112896   4.533   2.858   1.351
 3999SOL    HW212897   4.695   2.849   1.334
 4000SOL     OW12898   2.789   5.113   2.566
 4000SOL    HW112899   2.789   5.066   2.478
 4000SOL    HW212900   2.781   5.212   2.551
 4001SOL     OW12901   1.371   4.789   4.089
 4001SOL    HW112902   1.416   4.858   4.032
 4001SOL    HW212903   1.278   4.774   4.055
 4002SOL     OW12904   3.536   4.146   3.672
 4002SOL    HW112905   3.455   4.087   3.669
 4002SOL    HW212906   3.508   4.239   3.694
 4003SOL     OW12907   2.113   0.738   5.394
 4003SOL    HW112908   2.128   0.710   5.488
 4003SOL    HW212909   2.129   0.661   5.333
 4004SOL     OW12910   0.854   3.360   4.050
 4004SOL    HW112911   0.912   3.307   4.111
 4004SOL    HW212912   0.786   3.300   4.009
 4005SOL     OW12913   5.149   3.361   0.263
 4005SOL    HW112914   5.117   3.276   0.304
 4005SOL    HW212915   5.249   3.366   0.273
 4006SOL     OW12916   5.628   5.394   2.646
 4006SOL    HW112917   5.633   5.492   2.626
 4006SOL    HW212918   5.538   5.359   2.623
 4007SOL     OW12919   0.003   0.551   2.801
 4007SOL    HW112920   0.050   0.633   2.832
 4007SOL    HW212921   6.941   0.576   2.750
 4008SOL     OW12922   3.171   0.964   0.973
 4008SOL    HW112923   3.086   1.007   0.943
 4008SOL    HW212924   3.239   1.034   0.993
 4009SOL     OW12925   5.005   1.997   0.924
 4009SOL    HW112926   5.069   1.999   0.847
 4009SOL    HW212927   5.036   2.059   0.995
 4010SOL     OW12928   2.312   5.100   1.568
 4010SOL    HW112929   2.274   5.175   1.622
 4010SOL    HW212930   2.256   5.018   1.580
 4011SOL     OW12931   5.100   6.510   6.546
 4011SOL    HW112932   5.150   6.582   6.498
 4011SOL    HW212933   5.163   6.463   6.608
 4012SOL     OW12934   4.830   6.957   2.789
 4012SOL    HW112935   4.808   7.008   2.872
 4012SOL    HW212936   4.747   6.913   2.754
 4013SOL     OW12937   6.972   0.886   5.623
 4013SOL    HW112938   6.879   0.861   5.597
 4013SOL    HW212939   7.000   0.968   5.573
 4014SOL     OW12940   3.056   5.209   2.623
 4014SOL    HW112941   2.989   5.141   2.655
 4014SOL    HW212942   3.027   5.299   2.653
 4015SOL     OW12943   4.104   4.674   5.985
 4015SOL    HW112944   4.020   4.694   6.036
 4015SOL    HW212945   4.081   4.644   5.893
 4016SOL     OW12946   4.739   4.813   5.396
 4016SOL    HW112947   4.814   4.763   5.440
 4016SOL    HW212948   4.743   4.909   5.424
 4017SOL     OW12949   1.030   4.783   5.801
 4017SOL    HW112950   1.122   4.821   5.810
 4017SOL    HW212951   1.034   4.683   5.804
 4018SOL     OW12952   4.008   5.875   1.219
 4018SOL    HW112953   4.071   5.935   1.270
 4018SOL    HW212954   3.914   5.904   1.236
 4019SOL     OW12955   5.585   3.840   2.853
 4019SOL    HW112956   5.622   3.788   2.777
 4019SOL    HW212957   5.640   3.923   2.867
 4020SOL     OW12958   0.206   5.334   4.400
 4020SOL    HW112959   0.232   5.239   4.416
 4020SOL    HW212960   0.247   5.392   4.471
 4021SOL     OW12961   4.386   3.846   6.489
 4021SOL    HW112962   4.409   3.937   6.452
 4021SOL    HW212963   4.428   3.776   6.432
 4022SOL     OW12964   2.142   0.327   1.384
 4022SOL    HW112965   2.047   0.331   1.413
 4022SOL    HW212966   2.173   0.419   1.357
 4023SOL     OW12967   0.502   1.118   4.531
 4023SOL    HW112968   0.595   1.095   4.560
 4023SOL    HW212969   0.507   1.179   4.451
 4024SOL     OW12970   0.751   6.356   4.464
 4024SOL    HW112971   0.796   6.280   4.417
 4024SOL    HW212972   0.800   6.378   4.548
 4025SOL     OW12973   6.989   5.359   3.481
 4025SOL    HW112974   6.921   5.406   3.537
 4025SOL    HW212975   0.061   5.387   3.509
 4026SOL     OW12976   0.107   0.464   3.967
 4026SOL    HW112977   0.104   0.550   4.018
 4026SOL    HW212978   0.183   0.409   4.000
 4027SOL     OW12979   3.273   4.394   5.971
 4027SOL    HW112980   3.186   4.346   5.986
 4027SOL    HW212981   3.264   4.489   5.999
 4028SOL     OW12982   4.766   1.611   3.387
 4028SOL    HW112983   4.725   1.542   3.447
 4028SOL    HW212984   4.863   1.589   3.373
 4029SOL     OW12985   1.611   5.920   6.648
 4029SOL    HW112986   1.526   5.926   6.701
 4029SOL    HW212987   1.632   6.010   6.608
 4030SOL     OW12988   0.231   1.185   2.616
 4030SOL    HW112989   0.191   1.199   2.706
 4030SOL    HW212990   0.215   1.265   2.559
 4031SOL     OW12991   6.082   6.111   0.446
 4031SOL    HW112992   6.182   6.104   0.447
 4031SOL    HW212993   6.047   6.066   0.364
 4032SOL     OW12994   5.279   0.701   2.071
 4032SOL    HW112995   5.224   0.672   2.149
 4032SOL    HW212996   5.231   0.773   2.021
 4033SOL     OW12997   2.320   2.397   2.792
 4033SOL    HW112998   2.399   2.409   2.731
 4033SOL    HW212999   2.331   2.453   2.873
 4034SOL     OW13000   6.987   3.181   5.392
 4034SOL    HW113001   6.990   3.280   5.404
 4034SOL    HW213002   6.897   3.155   5.358
 4035SOL     OW13003   4.272   1.776   1.798
 4035SOL    HW113004   4.211   1.697   1.790
 4035SOL    HW213005   4.267   1.813   1.890
 4036SOL     OW13006   2.817   5.733   2.836
 4036SOL    HW113007   2.902   5.729   2.890
 4036SOL    HW213008   2.820   5.811   2.774
 4037SOL     OW13009   2.739   1.879   5.827
 4037SOL    HW113010   2.639   1.876   5.837
 4037SOL    HW213011   2.765   1.832   5.743
 4038SOL     OW13012   3.358   3.715   6.022
 4038SOL    HW113013   3.305   3.634   5.997
 4038SOL    HW213014   3.424   3.735   5.950
 4039SOL     OW13015   5.780   5.139   1.877
 4039SOL    HW113016   5.691   5.095   1.886
 4039SOL    HW213017   5.776   5.229   1.921
 4040SOL     OW13018   3.302   6.246   4.988
 4040SOL    HW113019   3.386   6.292   4.958
 4040SOL    HW213020   3.224   6.307   4.974
 4041SOL     OW13021   2.443   6.334   0.622
 4041SOL    HW113022   2.390   6.325   0.706
 4041SOL    HW213023   2.381   6.341   0.544
 4042SOL     OW13024   6.615   0.795   2.902
 4042SOL    HW113025   6.582   0.863   2.837
 4042SOL    HW213026   6.592   0.704   2.869
 4043SOL     OW13027   5.748   3.538   6.801
 4043SOL    HW113028   5.827   3.598   6.787
 4043SOL    HW213029   5.690   3.576   6.874
 4044SOL     OW13030   4.761   5.129   3.378
 4044SOL    HW113031   4.773   5.035   3.344
 4044SOL    HW213032   4.760   5.192   3.300
 4045SOL     OW13033   5.047   0.718   5.443
 4045SOL    HW113034   4.993   0.760   5.516
 4045SOL    HW213035   5.040   0.772   5.360
 4046SOL     OW13036   6.064   1.882   2.524
 4046SOL    HW113037   6.130   1.818   2.484
 4046SOL    HW213038   6.033   1.847   2.613
 4047SOL     OW13039   2.782   3.401   0.089
 4047SOL    HW113040   2.816   3.485   0.131
 4047SOL    HW213041   2.763   3.417   7.013
 4048SOL     OW13042   4.285   1.763   2.412
 4048SOL    HW113043   4.293   1.827   2.335
 4048SOL    HW213044   4.360   1.697   2.408
 4049SOL     OW13045   3.935   4.624   6.825
 4049SOL    HW113046   3.939   4.670   6.914
 4049SOL    HW213047   3.851   4.570   6.820
 4050SOL     OW13048   0.815   5.805   2.153
 4050SOL    HW113049   0.902   5.828   2.197
 4050SOL    HW213050   0.744   5.796   2.223
 4051SOL     OW13051   5.353   1.004   5.034
 4051SOL    HW113052   5.436   0.970   5.078
 4051SOL    HW213053   5.374   1.088   4.983
 4052SOL     OW13054   6.278   2.117   3.553
 4052SOL    HW113055   6.219   2.090   3.476
 4052SOL    HW213056   6.223   2.126   3.635
 4053SOL     OW13057   1.759   5.116   4.347
 4053SOL    HW113058   1.706   5.142   4.266
 4053SOL    HW213059   1.714   5.152   4.429
 4054SOL     OW13060   4.043   4.048   0.794
 4054SOL    HW113061   4.008   4.003   0.876
 4054SOL    HW213062   4.062   3.980   0.724
 4055SOL     OW13063   0.524   4.608   1.421
 4055SOL    HW113064   0.526   4.585   1.518
 4055SOL    HW213065   0.471   4.539   1.371
 4056SOL     OW13066   5.318   3.604   0.874
 4056SOL    HW113067   5.318   3.656   0.959
 4056SOL    HW213068   5.224   3.594   0.841
 4057SOL     OW13069   6.972   3.694   0.175
 4057SOL    HW113070   0.012   3.703   0.096
 4057SOL    HW213071   6.882   3.731   0.152
 4058SOL     OW13072   3.294   6.863   6.029
 4058SOL    HW113073   3.258   6.787   6.084
 4058SOL    HW213074   3.223   6.896   5.967
 4059SOL     OW13075   0.637   1.910   4.039
 4059SOL    HW113076   0.695   1.857   3.978
 4059SOL    HW213077   0.685   1.925   4.126
 4060SOL     OW13078   5.797   5.601   5.339
 4060SOL    HW113079   5.813   5.699   5.326
 4060SOL    HW213080   5.851   5.550   5.272
 4061SOL     OW13081   1.896   5.472   0.725
 4061SOL    HW113082   1.867   5.427   0.810
 4061SOL    HW213083   1.822   5.527   0.689
 4062SOL     OW13084   1.384   2.652   1.557
 4062SOL    HW113085   1.435   2.641   1.471
 4062SOL    HW213086   1.433   2.605   1.631
 4063SOL     OW13087   4.611   1.010   0.130
 4063SOL    HW113088   4.560   1.083   0.084
 4063SOL    HW213089   4.668   0.963   0.063
 4064SOL     OW13090   2.144   1.806   5.351
 4064SOL    HW113091   2.167   1.903   5.351
 4064SOL    HW213092   2.115   1.778   5.260
 4065SOL     OW13093   2.617   6.568   1.099
 4065SOL    HW113094   2.630   6.469   1.091
 4065SOL    HW213095   2.618   6.609   1.008
 4066SOL     OW13096   0.243   4.426   3.617
 4066SOL    HW113097   0.267   4.482   3.538
 4066SOL    HW213098   0.295   4.340   3.615
 4067SOL     OW13099   4.759   4.746   0.900
 4067SOL    HW113100   4.714   4.681   0.961
 4067SOL    HW213101   4.758   4.710   0.807
 4068SOL     OW13102   2.235   2.587   5.230
 4068SOL    HW113103   2.307   2.652   5.254
 4068SOL    HW213104   2.213   2.595   5.133
 4069SOL     OW13105   4.181   6.935   6.648
 4069SOL    HW113106   4.222   6.860   6.699
 4069SOL    HW213107   4.089   6.953   6.682
 4070SOL     OW13108   1.327   2.762   3.839
 4070SOL    HW113109   1.293   2.855   3.828
 4070SOL    HW213110   1.419   2.755   3.801
 4071SOL     OW13111   0.994   0.403   4.086
 4071SOL    HW113112   0.978   0.411   4.184
 4071SOL    HW213113   0.924   0.344   4.045
 4072SOL     OW13114   2.735   5.816   3.372
 4072SOL    HW113115   2.648   5.860   3.397
 4072SOL    HW213116   2.726   5.774   3.282
 4073SOL     OW13117   2.910   4.747   0.250
 4073SOL    HW113118   2.903   4.825   0.188
 4073SOL    HW213119   2.861   4.669   0.211
 4074SOL     OW13120   1.743   5.772   3.082
 4074SOL    HW113121   1.819   5.708   3.092
 4074SOL    HW213122   1.711   5.800   3.173
 4075SOL     OW13123   6.107   0.817   0.744
 4075SOL    HW113124   6.042   0.745   0.766
 4075SOL    HW213125   6.071   0.874   0.670
 4076SOL     OW13126   2.768   4.082   5.388
 4076SOL    HW113127   2.677   4.115   5.363
 4076SOL    HW213128   2.791   4.001   5.334
 4077SOL     OW13129   2.507   1.100   1.657
 4077SOL    HW113130   2.492   1.196   1.679
 4077SOL    HW213131   2.427   1.064   1.609
 4078SOL     OW13132   2.588   4.579   2.862
 4078SOL    HW113133   2.634   4.490   2.869
 4078SOL    HW213134   2.573   4.601   2.766
 4079SOL     OW13135   0.874   2.453   4.774
 4079SOL    HW113136   0.789   2.441   4.826
 4079SOL    HW213137   0.895   2.551   4.767
 4080SOL     OW13138   6.139   1.635   4.879
 4080SOL    HW113139   6.044   1.638   4.911
 4080SOL    HW213140   6.175   1.543   4.888
 4081SOL     OW13141   1.979   3.240   3.960
 4081SOL    HW113142   2.048   3.268   3.894
 4081SOL    HW213143   2.014   3.256   4.053
 4082SOL     OW13144   1.239   3.622   0.992
 4082SOL    HW113145   1.240   3.526   0.962
 4082SOL    HW213146   1.316   3.671   0.951
 4083SOL     OW13147   5.282   2.496   5.028
 4083SOL    HW113148   5.243   2.433   5.094
 4083SOL    HW213149   5.354   2.450   4.975
 4084SOL     OW13150   0.725   1.141   3.988
 4084SOL    HW113151   0.672   1.223   4.013
 4084SOL    HW213152   0.671   1.060   4.010
 4085SOL     OW13153   3.474   6.546   6.971
 4085SOL    HW113154   3.466   6.447   6.957
 4085SOL    HW213155   3.435   6.571   0.039
 4086SOL     OW13156   1.682   4.722   0.767
 4086SOL    HW113157   1.664   4.682   0.857
 4086SOL    HW213158   1.734   4.807   0.778
 4087SOL     OW13159   1.408   1.529   3.298
 4087SOL    HW113160   1.334   1.467   3.322
 4087SOL    HW213161   1.485   1.476   3.262
 4088SOL     OW13162   6.596   1.610   1.249
 4088SOL    HW113163   6.596   1.687   1.313
 4088SOL    HW213164   6.576   1.644   1.157
 4089SOL     OW13165   1.139   0.970   4.480
 4089SOL    HW113166   1.057   0.977   4.425
 4089SOL    HW213167   1.137   0.884   4.532
 4090SOL     OW13168   1.942   4.280   5.515
 4090SOL    HW113169   1.890   4.268   5.599
 4090SOL    HW213170   2.005   4.356   5.525
 4091SOL     OW13171   4.453   5.762   0.211
 4091SOL    HW113172   4.453   5.786   0.114
 4091SOL    HW213173   4.419   5.839   0.265
 4092SOL     OW13174   7.003   2.925   4.774
 4092SOL    HW113175   6.942   2.931   4.695
 4092SOL    HW213176   6.951   2.947   4.857
 4093SOL     OW13177   5.675   0.692   4.085
 4093SOL    HW113178   5.591   0.718   4.037
 4093SOL    HW213179   5.663   0.600   4.124
 4094SOL     OW13180   2.227   4.223   5.149
 4094SOL    HW113181   2.266   4.137   5.116
 4094SOL    HW213182   2.206   4.215   5.246
 4095SOL     OW13183   1.129   3.513   6.267
 4095SOL    HW113184   1.110   3.455   6.346
 4095SOL    HW213185   1.051   3.513   6.205
 4096SOL     OW13186   3.733   4.326   0.477
 4096SOL    HW113187   3.638   4.354   0.491
 4096SOL    HW213188   3.792   4.406   0.472
 4097SOL     OW13189   3.334   3.383   5.609
 4097SOL    HW113190   3.383   3.381   5.522
 4097SOL    HW213191   3.399   3.371   5.684
 4098SOL     OW13192   0.667   2.024   3.158
 4098SOL    HW113193   0.592   2.037   3.222
 4098SOL    HW213194   0.635   2.039   3.064
 4099SOL     OW13195   4.121   5.602   1.987
 4099SOL    HW113196   4.076   5.691   1.999
 4099SOL    HW213197   4.158   5.595   1.894
 4100SOL     OW13198   3.819   5.718   3.535
 4100SOL    HW113199   3.771   5.734   3.622
 4100SOL    HW213200   3.904   5.770   3.534
 4101SOL     OW13201   6.076   1.578   6.309
 4101SOL    HW113202   6.155   1.633   6.332
 4101SOL    HW213203   6.016   1.571   6.389
 4102SOL     OW13204   6.028   1.561   0.183
 4102SOL    HW113205   6.036   1.487   0.250
 4102SOL    HW213206   5.970   1.634   0.220
 4103SOL     OW13207   0.683   0.394   2.227
 4103SOL    HW113208   0.679   0.421   2.131
 4103SOL    HW213209   0.613   0.442   2.279
 4104SOL     OW13210   1.094   4.939   2.461
 4104SOL    HW113211   1.103   4.845   2.494
 4104SOL    HW213212   1.044   4.940   2.375
 4105SOL     OW13213   4.091   4.934   0.247
 4105SOL    HW113214   4.082   5.012   0.308
 4105SOL    HW213215   4.161   4.954   0.178
 4106SOL     OW13216   6.859   3.589   4.648
 4106SOL    HW113217   6.802   3.671   4.640
 4106SOL    HW213218   6.922   3.600   4.724
 4107SOL     OW13219   6.820   0.737   1.470
 4107SOL    HW113220   6.746   0.729   1.404
 4107SOL    HW213221   6.895   0.676   1.442
 4108SOL     OW13222   6.516   3.516   6.271
 4108SOL    HW113223   6.438   3.462   6.304
 4108SOL    HW213224   6.557   3.566   6.348
 4109SOL     OW13225   3.226   6.158   3.700
 4109SOL    HW113226   3.245   6.214   3.780
 4109SOL    HW213227   3.142   6.105   3.715
 4110SOL     OW13228   5.040   3.509   6.028
 4110SOL    HW113229   4.993   3.597   6.026
 4110SOL    HW213230   5.051   3.475   5.934
 4111SOL     OW13231   4.218   2.870   0.054
 4111SOL    HW113232   4.306   2.867   0.006
 4111SOL    HW213233   4.207   2.960   0.096
 4112SOL     OW13234   3.327   1.275   3.773
 4112SOL    HW113235   3.347   1.339   3.848
 4112SOL    HW213236   3.258   1.209   3.802
 4113SOL     OW13237   3.485   4.977   4.882
 4113SOL    HW113238   3.398   4.953   4.838
 4113SOL    HW213239   3.560   4.963   4.818
 4114SOL     OW13240   2.803   1.957   2.910
 4114SOL    HW113241   2.743   2.003   2.844
 4114SOL    HW213242   2.767   1.866   2.930
 4115SOL     OW13243   5.194   5.043   1.862
 4115SOL    HW113244   5.125   5.045   1.790
 4115SOL    HW213245   5.210   4.949   1.892
 4116SOL     OW13246   3.363   1.556   1.754
 4116SOL    HW113247   3.352   1.653   1.777
 4116SOL    HW213248   3.278   1.508   1.773
 4117SOL     OW13249   1.340   5.324   1.470
 4117SOL    HW113250   1.268   5.268   1.428
 4117SOL    HW213251   1.420   5.327   1.410
 4118SOL     OW13252   1.665   5.980   0.557
 4118SOL    HW113253   1.710   6.058   0.513
 4118SOL    HW213254   1.682   5.898   0.503
 4119SOL     OW13255   3.566   0.666   4.205
 4119SOL    HW113256   3.521   0.751   4.233
 4119SOL    HW213257   3.512   0.623   4.133
 4120SOL     OW13258   3.242   0.362   1.489
 4120SOL    HW113259   3.284   0.445   1.526
 4120SOL    HW213260   3.227   0.373   1.391
 4121SOL     OW13261   6.738   3.220   4.864
 4121SOL    HW113262   6.679   3.299   4.879
 4121SOL    HW213263   6.751   3.172   4.951
 4122SOL     OW13264   1.428   5.681   5.780
 4122SOL    HW113265   1.349   5.648   5.832
 4122SOL    HW213266   1.484   5.740   5.838
 4123SOL     OW13267   4.815   4.045   6.497
 4123SOL    HW113268   4.839   4.140   6.476
 4123SOL    HW213269   4.883   4.005   6.557
 4124SOL     OW13270   5.623   6.969   3.954
 4124SOL    HW113271   5.688   6.906   3.914
 4124SOL    HW213272   5.614   6.951   4.052
 4125SOL     OW13273   4.192   0.819   0.958
 4125SOL    HW113274   4.151   0.889   0.900
 4125SOL    HW213275   4.239   0.863   1.035
 4126SOL     OW13276   2.205   4.004   4.767
 4126SOL    HW113277   2.272   4.020   4.839
 4126SOL    HW213278   2.114   3.998   4.806
 4127SOL     OW13279   5.455   3.268   5.634
 4127SOL    HW113280   5.397   3.312   5.565
 4127SOL    HW213281   5.543   3.243   5.592
 4128SOL     OW13282   0.930   2.757   2.461
 4128SOL    HW113283   0.847   2.706   2.484
 4128SOL    HW213284   0.995   2.695   2.415
 4129SOL     OW13285   5.788   2.538   6.051
 4129SOL    HW113286   5.822   2.620   6.098
 4129SOL    HW213287   5.843   2.521   5.969
 4130SOL     OW13288   6.190   3.986   0.170
 4130SOL    HW113289   6.204   3.897   0.213
 4130SOL    HW213290   6.250   4.053   0.211
 4131SOL     OW13291   6.268   5.001   4.042
 4131SOL    HW113292   6.323   5.018   3.960
 4131SOL    HW213293   6.292   4.912   4.079
 4132SOL     OW13294   5.238   2.584   3.299
 4132SOL    HW113295   5.307   2.645   3.338
 4132SOL    HW213296   5.203   2.523   3.370
 4133SOL     OW13297   2.846   1.097   1.239
 4133SOL    HW113298   2.851   1.140   1.149
 4133SOL    HW213299   2.901   1.149   1.304
 4134SOL     OW13300   1.410   1.765   0.151
 4134SOL    HW113301   1.419   1.757   0.250
 4134SOL    HW213302   1.445   1.681   0.108
 4135SOL     OW13303   1.993   1.346   1.808
 4135SOL    HW113304   1.919   1.395   1.761
 4135SOL    HW213305   2.020   1.397   1.890
 4136SOL     OW13306   0.383   1.937   4.084
 4136SOL    HW113307   0.476   1.925   4.050
 4136SOL    HW213308   0.384   1.993   4.166
 4137SOL     OW13309   3.115   3.927   6.798
 4137SOL    HW113310   3.097   3.838   6.754
 4137SOL    HW213311   3.210   3.952   6.784
 4138SOL     OW13312   4.270   4.879   3.410
 4138SOL    HW113313   4.251   4.936   3.490
 4138SOL    HW213314   4.194   4.886   3.346
 4139SOL     OW13315   1.845   2.129   6.177
 4139SOL    HW113316   1.759   2.084   6.154
 4139SOL    HW213317   1.859   2.207   6.116
 4140SOL     OW13318   4.377   1.130   4.972
 4140SOL    HW113319   4.380   1.163   4.878
 4140SOL    HW213320   4.469   1.131   5.011
 4141SOL     OW13321   5.398   5.689   0.445
 4141SOL    HW113322   5.483   5.667   0.493
 4141SOL    HW213323   5.370   5.611   0.390
 4142SOL     OW13324   6.980   4.392   1.261
 4142SOL    HW113325   6.911   4.333   1.302
 4142SOL    HW213326   0.043   4.389   1.316
 4143SOL     OW13327   6.864   2.879   0.865
 4143SOL    HW113328   6.954   2.870   0.821
 4143SOL    HW213329   6.793   2.848   0.802
 4144SOL     OW13330   5.069   1.301   2.504
 4144SOL    HW113331   5.032   1.314   2.412
 4144SOL    HW213332   5.020   1.360   2.568
 4145SOL     OW13333   2.174   6.587   1.578
 4145SOL    HW113334   2.136   6.636   1.499
 4145SOL    HW213335   2.239   6.646   1.626
 4146SOL     OW13336   4.654   0.086   0.156
 4146SOL    HW113337   4.748   0.099   0.124
 4146SOL    HW213338   4.595   0.157   0.116
 4147SOL     OW13339   3.515   1.464   5.319
 4147SOL    HW113340   3.480   1.555   5.298
 4147SOL    HW213341   3.559   1.426   5.237
 4148SOL     OW13342   6.480   0.469   3.419
 4148SOL    HW113343   6.545   0.511   3.483
 4148SOL    HW213344   6.524   0.460   3.329
 4149SOL     OW13345   5.874   3.791   1.992
 4149SOL    HW113346   5.822   3.873   2.012
 4149SOL    HW213347   5.945   3.778   2.062
 4150SOL     OW13348   5.756   0.165   6.757
 4150SOL    HW113349   5.732   0.221   6.678
 4150SOL    HW213350   5.844   0.120   6.739
 4151SOL     OW13351   0.297   5.437   0.843
 4151SOL    HW113352   0.325   5.444   0.939
 4151SOL    HW213353   0.204   5.473   0.832
 4152SOL     OW13354   4.019   4.765   1.618
 4152SOL    HW113355   3.992   4.675   1.582
 4152SOL    HW213356   4.116   4.781   1.597
 4153SOL     OW13357   6.273   4.869   6.245
 4153SOL    HW113358   6.212   4.866   6.325
 4153SOL    HW213359   6.347   4.935   6.263
 4154SOL     OW13360   5.847   3.004   5.616
 4154SOL    HW113361   5.849   2.911   5.651
 4154SOL    HW213362   5.866   3.068   5.690
 4155SOL     OW13363   1.420   3.236   1.555
 4155SOL    HW113364   1.504   3.289   1.568
 4155SOL    HW213365   1.443   3.142   1.533
 4156SOL     OW13366   5.903   6.874   5.452
 4156SOL    HW113367   5.974   6.843   5.515
 4156SOL    HW213368   5.943   6.936   5.384
 4157SOL     OW13369   3.883   0.595   4.794
 4157SOL    HW113370   3.937   0.637   4.721
 4157SOL    HW213371   3.915   0.502   4.810
 4158SOL     OW13372   0.600   6.212   3.528
 4158SOL    HW113373   0.633   6.250   3.441
 4158SOL    HW213374   0.649   6.254   3.604
 4159SOL     OW13375   1.066   2.857   5.073
 4159SOL    HW113376   1.092   2.890   4.982
 4159SOL    HW213377   1.147   2.828   5.123
 4160SOL     OW13378   0.497   0.721   1.478
 4160SOL    HW113379   0.498   0.767   1.566
 4160SOL    HW213380   0.491   0.789   1.405
 4161SOL     OW13381   6.636   1.816   0.336
 4161SOL    HW113382   6.631   1.816   0.237
 4161SOL    HW213383   6.689   1.896   0.367
 4162SOL     OW13384   5.997   6.954   5.069
 4162SOL    HW113385   5.987   6.921   4.975
 4162SOL    HW213386   5.991   6.877   5.132
 4163SOL     OW13387   5.911   1.558   4.439
 4163SOL    HW113388   5.932   1.522   4.529
 4163SOL    HW213389   5.884   1.654   4.447
 4164SOL     OW13390   1.791   0.578   6.831
 4164SOL    HW113391   1.765   0.542   6.741
 4164SOL    HW213392   1.885   0.610   6.828
 4165SOL     OW13393   3.871   6.680   1.649
 4165SOL    HW113394   3.950   6.624   1.673
 4165SOL    HW213395   3.788   6.639   1.686
 4166SOL     OW13396   4.914   3.101   0.650
 4166SOL    HW113397   4.874   3.192   0.665
 4166SOL    HW213398   4.943   3.063   0.738
 4167SOL     OW13399   2.585   2.842   1.461
 4167SOL    HW113400   2.570   2.826   1.363
 4167SOL    HW213401   2.578   2.940   1.480
 4168SOL     OW13402   1.493   5.154   1.742
 4168SOL    HW113403   1.484   5.252   1.724
 4168SOL    HW213404   1.446   5.102   1.670
 4169SOL     OW13405   5.405   3.110   4.248
 4169SOL    HW113406   5.311   3.078   4.235
 4169SOL    HW213407   5.454   3.106   4.161
 4170SOL     OW13408   4.001   2.917   5.704
 4170SOL    HW113409   4.009   2.830   5.656
 4170SOL    HW213410   3.989   2.899   5.802
 4171SOL     OW13411   5.064   3.628   1.211
 4171SOL    HW113412   5.005   3.584   1.278
 4171SOL    HW213413   5.034   3.722   1.196
 4172SOL     OW13414   0.917   2.164   0.757
 4172SOL    HW113415   0.837   2.217   0.787
 4172SOL    HW213416   0.926   2.082   0.814
 4173SOL     OW13417   5.143   3.208   5.364
 4173SOL    HW113418   5.049   3.174   5.360
 4173SOL    HW213419   5.193   3.158   5.435
 4174SOL     OW13420   4.831   0.771   4.285
 4174SOL    HW113421   4.854   0.835   4.211
 4174SOL    HW213422   4.915   0.746   4.333
 4175SOL     OW13423   2.902   0.575   2.923
 4175SOL    HW113424   2.931   0.552   2.830
 4175SOL    HW213425   2.955   0.654   2.956
 4176SOL     OW13426   4.871   6.558   3.216
 4176SOL    HW113427   4.884   6.570   3.315
 4176SOL    HW213428   4.901   6.641   3.168
 4177SOL     OW13429   0.439   6.356   2.527
 4177SOL    HW113430   0.408   6.309   2.610
 4177SOL    HW213431   0.374   6.428   2.503
 4178SOL     OW13432   3.754   2.140   5.628
 4178SOL    HW113433   3.811   2.133   5.710
 4178SOL    HW213434   3.658   2.128   5.653
 4179SOL     OW13435   5.624   3.712   5.583
 4179SOL    HW113436   5.618   3.809   5.562
 4179SOL    HW213437   5.571   3.660   5.516
 4180SOL     OW13438   4.583   4.028   1.391
 4180SOL    HW113439   4.538   4.001   1.305
 4180SOL    HW213440   4.589   3.949   1.452
 4181SOL     OW13441   0.903   1.128   0.612
 4181SOL    HW113442   0.861   1.088   0.694
 4181SOL    HW213443   0.972   1.195   0.640
 4182SOL     OW13444   5.542   0.697   2.442
 4182SOL    HW113445   5.574   0.603   2.432
 4182SOL    HW213446   5.493   0.706   2.529
 4183SOL     OW13447   1.602   1.862   1.580
 4183SOL    HW113448   1.539   1.937   1.559
 4183SOL    HW213449   1.564   1.807   1.655
 4184SOL     OW13450   4.067   5.168   0.372
 4184SOL    HW113451   4.005   5.206   0.440
 4184SOL    HW213452   4.068   5.226   0.291
 4185SOL     OW13453   0.197   0.408   3.702
 4185SOL    HW113454   0.239   0.406   3.611
 4185SOL    HW213455   0.249   0.469   3.761
 4186SOL     OW13456   2.806   3.954   1.151
 4186SOL    HW113457   2.811   4.046   1.112
 4186SOL    HW213458   2.712   3.933   1.176
 4187SOL     OW13459   4.143   3.413   6.656
 4187SOL    HW113460   4.187   3.419   6.566
 4187SOL    HW213461   4.143   3.503   6.699
 4188SOL     OW13462   4.788   0.047   4.737
 4188SOL    HW113463   4.758   0.126   4.684
 4188SOL    HW213464   4.708   0.001   4.776
 4189SOL     OW13465   2.368   1.931   4.326
 4189SOL    HW113466   2.286   1.901   4.375
 4189SOL    HW213467   2.372   2.031   4.326
 4190SOL     OW13468   2.590   1.119   0.743
 4190SOL    HW113469   2.595   1.084   0.836
 4190SOL    HW213470   2.583   1.042   0.679
 4191SOL     OW13471   6.668   1.842   2.193
 4191SOL    HW113472   6.575   1.817   2.222
 4191SOL    HW213473   6.728   1.762   2.203
 4192SOL     OW13474   6.395   1.139   3.266
 4192SOL    HW113475   6.412   1.191   3.350
 4192SOL    HW213476   6.302   1.154   3.235
 4193SOL     OW13477   1.916   6.933   1.948
 4193SOL    HW113478   1.935   6.890   2.037
 4193SOL    HW213479   1.959   0.003   1.945
 4194SOL     OW13480   0.369   0.635   4.026
 4194SOL    HW113481   0.454   0.604   3.982
 4194SOL    HW213482   0.361   0.592   4.116
 4195SOL     OW13483   4.749   0.265   1.303
 4195SOL    HW113484   4.791   0.211   1.376
 4195SOL    HW213485   4.812   0.270   1.225
 4196SOL     OW13486   4.887   2.463   3.637
 4196SOL    HW113487   4.936   2.549   3.648
 4196SOL    HW213488   4.802   2.465   3.691
 4197SOL     OW13489   4.928   4.173   4.291
 4197SOL    HW113490   4.881   4.261   4.281
 4197SOL    HW213491   4.970   4.148   4.203
 4198SOL     OW13492   6.496   3.407   6.954
 4198SOL    HW113493   6.466   3.414   0.028
 4198SOL    HW213494   6.427   3.359   6.900
 4199SOL     OW13495   2.825   3.622   5.487
 4199SOL    HW113496   2.905   3.590   5.539
 4199SOL    HW213497   2.845   3.615   5.389
 4200SOL     OW13498   2.097   0.199   6.857
 4200SOL    HW113499   2.052   0.275   6.904
 4200SOL    HW213500   2.127   0.132   6.925
 4201SOL     OW13501   5.567   6.035   3.784
 4201SOL    HW113502   5.563   5.996   3.692
 4201SOL    HW213503   5.481   6.018   3.831
 4202SOL     OW13504   5.490   4.718   4.680
 4202SOL    HW113505   5.401   4.677   4.703
 4202SOL    HW213506   5.496   4.809   4.720
 4203SOL     OW13507   5.306   5.721   3.396
 4203SOL    HW113508   5.374   5.793   3.408
 4203SOL    HW213509   5.307   5.688   3.301
 4204SOL     OW13510   3.527   3.390   1.461
 4204SOL    HW113511   3.521   3.347   1.371
 4204SOL    HW213512   3.508   3.488   1.452
 4205SOL     OW13513   2.878   4.847   3.676
 4205SOL    HW113514   2.969   4.855   3.635
 4205SOL    HW213515   2.888   4.829   3.774
 4206SOL     OW13516   5.513   0.347   4.606
 4206SOL    HW113517   5.471   0.325   4.518
 4206SOL    HW213518   5.442   0.368   4.673
 4207SOL     OW13519   1.348   1.314   1.679
 4207SOL    HW113520   1.300   1.348   1.761
 4207SOL    HW213521   1.317   1.366   1.599
 4208SOL     OW13522   0.685   3.654   1.173
 4208SOL    HW113523   0.750   3.683   1.103
 4208SOL    HW213524   0.622   3.586   1.135
 4209SOL     OW13525   2.896   0.774   5.122
 4209SOL    HW113526   2.951   0.803   5.043
 4209SOL    HW213527   2.812   0.828   5.125
 4210SOL     OW13528   5.163   3.144   0.536
 4210SOL    HW113529   5.129   3.082   0.607
 4210SOL    HW213530   5.154   3.100   0.446
 4211SOL     OW13531   4.526   4.932   3.311
 4211SOL    HW113532   4.597   4.861   3.310
 4211SOL    HW213533   4.438   4.891   3.333
 4212SOL     OW13534   6.018   0.696   2.820
 4212SOL    HW113535   5.920   0.693   2.796
 4212SOL    HW213536   6.036   0.627   2.891
 4213SOL     OW13537   1.008   0.832   2.390
 4213SOL    HW113538   1.077   0.781   2.339
 4213SOL    HW213539   1.053   0.891   2.457
 4214SOL     OW13540   1.231   2.976   4.491
 4214SOL    HW113541   1.266   2.883   4.502
 4214SOL    HW213542   1.223   2.997   4.394
 4215SOL     OW13543   1.110   5.270   4.256
 4215SOL    HW113544   1.144   5.344   4.198
 4215SOL    HW213545   1.027   5.300   4.303
 4216SOL     OW13546   1.503   3.254   5.143
 4216SOL    HW113547   1.483   3.342   5.099
 4216SOL    HW213548   1.431   3.232   5.209
 4217SOL     OW13549   0.030   0.299   2.975
 4217SOL    HW113550   7.020   0.363   2.904
 4217SOL    HW213551   6.970   0.256   3.017
 4218SOL     OW13552   4.314   0.129   2.068
 4218SOL    HW113553   4.309   0.052   2.005
 4218SOL    HW213554   4.242   0.195   2.047
 4219SOL     OW13555   4.383   6.501   3.166
 4219SOL    HW113556   4.371   6.495   3.265
 4219SOL    HW213557   4.406   6.595   3.141
 4220SOL     OW13558   6.040   2.935   3.266
 4220SOL    HW113559   6.089   3.022   3.277
 4220SOL    HW213560   6.106   2.860   3.263
 4221SOL     OW13561   5.628   5.546   5.915
 4221SOL    HW113562   5.573   5.463   5.922
 4221SOL    HW213563   5.656   5.575   6.006
 4222SOL     OW13564   4.550   2.190   0.845
 4222SOL    HW113565   4.465   2.140   0.863
 4222SOL    HW213566   4.627   2.141   0.886
 4223SOL     OW13567   3.567   4.048   2.607
 4223SOL    HW113568   3.495   4.091   2.553
 4223SOL    HW213569   3.564   4.082   2.701
 4224SOL     OW13570   4.495   2.446   5.024
 4224SOL    HW113571   4.523   2.526   5.077
 4224SOL    HW213572   4.397   2.449   5.008
 4225SOL     OW13573   5.822   0.508   4.894
 4225SOL    HW113574   5.800   0.532   4.799
 4225SOL    HW213575   5.740   0.477   4.940
 4226SOL     OW13576   1.154   1.118   4.158
 4226SOL    HW113577   1.122   1.212   4.144
 4226SOL    HW213578   1.083   1.053   4.131
 4227SOL     OW13579   5.765   3.970   6.964
 4227SOL    HW113580   5.779   3.871   6.965
 4227SOL    HW213581   5.822   4.013   0.014
 4228SOL     OW13582   6.149   5.405   2.146
 4228SOL    HW113583   6.247   5.427   2.148
 4228SOL    HW213584   6.125   5.365   2.058
 4229SOL     OW13585   5.414   4.704   5.866
 4229SOL    HW113586   5.387   4.767   5.794
 4229SOL    HW213587   5.511   4.679   5.855
 4230SOL     OW13588   2.898   6.911   4.635
 4230SOL    HW113589   2.838   6.835   4.660
 4230SOL    HW213590   2.977   6.913   4.697
 4231SOL     OW13591   4.313   6.698   5.555
 4231SOL    HW113592   4.315   6.603   5.587
 4231SOL    HW213593   4.274   6.702   5.463
 4232SOL     OW13594   1.993   4.522   2.283
 4232SOL    HW113595   1.997   4.454   2.210
 4232SOL    HW213596   2.085   4.557   2.301
 4233SOL     OW13597   6.030   0.087   1.059
 4233SOL    HW113598   6.016   0.058   0.964
 4233SOL    HW213599   6.074   0.177   1.060
 4234SOL     OW13600   2.995   4.690   5.593
 4234SOL    HW113601   2.966   4.718   5.501
 4234SOL    HW213602   3.004   4.591   5.596
 4235SOL     OW13603   6.422   3.702   5.731
 4235SOL    HW113604   6.325   3.706   5.707
 4235SOL    HW213605   6.455   3.608   5.723
 4236SOL     OW13606   1.375   3.392   4.310
 4236SOL    HW113607   1.344   3.440   4.228
 4236SOL    HW213608   1.460   3.434   4.343
 4237SOL     OW13609   5.214   3.497   4.815
 4237SOL    HW113610   5.118   3.524   4.807
 4237SOL    HW213611   5.238   3.488   4.912
 4238SOL     OW13612   4.576   4.994   4.103
 4238SOL    HW113613   4.511   4.994   4.179
 4238SOL    HW213614   4.561   5.073   4.045
 4239SOL     OW13615   4.950   5.427   5.751
 4239SOL    HW113616   5.000   5.342   5.735
 4239SOL    HW213617   5.014   5.503   5.762
 4240SOL     OW13618   2.648   4.746   6.610
 4240SOL    HW113619   2.741   4.712   6.619
 4240SOL    HW213620   2.586   4.691   6.667
 4241SOL     OW13621   3.752   0.792   6.409
 4241SOL    HW113622   3.804   0.863   6.361
 4241SOL    HW213623   3.666   0.776   6.359
 4242SOL     OW13624   1.712   0.602   2.473
 4242SOL    HW113625   1.745   0.520   2.521
 4242SOL    HW213626   1.613   0.610   2.485
 4243SOL     OW13627   1.612   2.747   3.267
 4243SOL    HW113628   1.592   2.845   3.261
 4243SOL    HW213629   1.576   2.701   3.186
 4244SOL     OW13630   3.512   6.333   1.787
 4244SOL    HW113631   3.420   6.341   1.826
 4244SOL    HW213632   3.507   6.281   1.702
 4245SOL     OW13633   6.417   3.731   1.036
 4245SOL    HW113634   6.337   3.791   1.035
 4245SOL    HW213635   6.462   3.736   1.126
 4246SOL     OW13636   4.927   1.641   3.671
 4246SOL    HW113637   4.925   1.618   3.573
 4246SOL    HW213638   4.874   1.724   3.686
 4247SOL     OW13639   1.594   5.157   6.002
 4247SOL    HW113640   1.539   5.230   5.962
 4247SOL    HW213641   1.619   5.092   5.930
 4248SOL     OW13642   1.644   0.863   3.621
 4248SOL    HW113643   1.696   0.942   3.653
 4248SOL    HW213644   1.599   0.819   3.700
 4249SOL     OW13645   6.380   6.817   4.787
 4249SOL    HW113646   6.425   6.906   4.787
 4249SOL    HW213647   6.449   6.744   4.779
 4250SOL     OW13648   0.079   5.367   3.936
 4250SOL    HW113649   0.128   5.425   3.870
 4250SOL    HW213650   0.123   5.374   4.026
 4251SOL     OW13651   6.501   2.402   5.610
 4251SOL    HW113652   6.443   2.450   5.545
 4251SOL    HW213653   6.568   2.467   5.647
 4252SOL     OW13654   7.008   6.671   6.890
 4252SOL    HW113655   7.014   6.766   6.858
 4252SOL    HW213656   0.064   6.619   6.851
 4253SOL     OW13657   4.960   5.453   2.598
 4253SOL    HW113658   4.898   5.513   2.649
 4253SOL    HW213659   4.968   5.365   2.646
 4254SOL     OW13660   1.681   3.340   6.892
 4254SOL    HW113661   1.689   3.245   6.860
 4254SOL    HW213662   1.615   3.344   6.967
 4255SOL     OW13663   1.270   3.390   3.250
 4255SOL    HW113664   1.266   3.416   3.153
 4255SOL    HW213665   1.220   3.459   3.304
 4256SOL     OW13666   0.897   5.994   1.947
 4256SOL    HW113667   0.929   6.085   1.924
 4256SOL    HW213668   0.953   5.955   2.019
 4257SOL     OW13669   6.235   0.417   4.371
 4257SOL    HW113670   6.183   0.332   4.376
 4257SOL    HW213671   6.294   0.426   4.451
 4258SOL     OW13672   3.400   6.022   0.709
 4258SOL    HW113673   3.437   6.115   0.707
 4258SOL    HW213674   3.309   6.022   0.667
 4259SOL     OW13675   1.231   0.193   1.346
 4259SOL    HW113676   1.316   0.148   1.316
 4259SOL    HW213677   1.253   0.276   1.396
 4260SOL     OW13678   5.478   1.540   4.743
 4260SOL    HW113679   5.529   1.487   4.811
 4260SOL    HW213680   5.518   1.631   4.734
 4261SOL     OW13681   2.231   6.351   4.179
 4261SOL    HW113682   2.331   6.345   4.184
 4261SOL    HW213683   2.204   6.416   4.108
 4262SOL     OW13684   2.441   4.135   6.787
 4262SOL    HW113685   2.450   4.165   6.882
 4262SOL    HW213686   2.451   4.035   6.783
 4263SOL     OW13687   2.598   1.336   3.803
 4263SOL    HW113688   2.523   1.293   3.854
 4263SOL    HW213689   2.561   1.412   3.748
 4264SOL     OW13690   5.050   1.347   5.357
 4264SOL    HW113691   5.094   1.385   5.276
 4264SOL    HW213692   4.951   1.350   5.345
 4265SOL     OW13693   3.028   0.022   6.757
 4265SOL    HW113694   2.963   0.059   6.691
 4265SOL    HW213695   2.986   0.022   6.848
 4266SOL     OW13696   1.130   5.617   1.062
 4266SOL    HW113697   1.186   5.669   1.127
 4266SOL    HW213698   1.076   5.680   1.007
 4267SOL     OW13699   1.571   4.729   4.639
 4267SOL    HW113700   1.528   4.699   4.554
 4267SOL    HW213701   1.669   4.741   4.624
 4268SOL     OW13702   1.093   4.189   6.855
 4268SOL    HW113703   1.015   4.235   6.899
 4268SOL    HW213704   1.101   4.220   6.760
 4269SOL     OW13705   3.154   1.339   5.067
 4269SOL    HW113706   3.122   1.433   5.057
 4269SOL    HW213707   3.129   1.304   5.158
 4270SOL     OW13708   3.647   2.979   0.733
 4270SOL    HW113709   3.666   2.916   0.808
 4270SOL    HW213710   3.599   2.931   0.660
 4271SOL     OW13711   0.138   1.144   1.790
 4271SOL    HW113712   0.149   1.113   1.696
 4271SOL    HW213713   0.075   1.222   1.793
 4272SOL     OW13714   0.282   1.258   6.645
 4272SOL    HW113715   0.232   1.177   6.676
 4272SOL    HW213716   0.379   1.248   6.669
 4273SOL     OW13717   3.046   6.101   4.628
 4273SOL    HW113718   2.950   6.074   4.630
 4273SOL    HW213719   3.090   6.075   4.713
 4274SOL     OW13720   6.729   1.576   1.966
 4274SOL    HW113721   6.737   1.481   1.997
 4274SOL    HW213722   6.779   1.635   2.030
 4275SOL     OW13723   6.808   2.931   3.519
 4275SOL    HW113724   6.767   2.941   3.610
 4275SOL    HW213725   6.781   2.843   3.480
 4276SOL     OW13726   2.199   5.891   3.441
 4276SOL    HW113727   2.284   5.843   3.462
 4276SOL    HW213728   2.124   5.848   3.490
 4277SOL     OW13729   6.072   5.712   2.595
 4277SOL    HW113730   6.039   5.685   2.504
 4277SOL    HW213731   6.002   5.690   2.663
 4278SOL     OW13732   1.658   6.902   2.014
 4278SOL    HW113733   1.614   6.990   2.031
 4278SOL    HW213734   1.757   6.914   2.011
 4279SOL     OW13735   1.032   1.505   3.520
 4279SOL    HW113736   1.129   1.518   3.544
 4279SOL    HW213737   1.020   1.413   3.483
 4280SOL     OW13738   1.387   6.831   6.540
 4280SOL    HW113739   1.327   6.756   6.568
 4280SOL    HW213740   1.348   6.878   6.461
 4281SOL     OW13741   5.189   5.613   3.158
 4281SOL    HW113742   5.124   5.660   3.100
 4281SOL    HW213743   5.190   5.515   3.135
 4282SOL     OW13744   3.766   4.435   0.837
 4282SOL    HW113745   3.802   4.500   0.771
 4282SOL    HW213746   3.711   4.366   0.790
 4283SOL     OW13747   4.857   1.198   4.784
 4283SOL    HW113748   4.763   1.208   4.750
 4283SOL    HW213749   4.920   1.239   4.719
 4284SOL     OW13750   4.574   5.453   6.281
 4284SOL    HW113751   4.486   5.491   6.311
 4284SOL    HW213752   4.585   5.361   6.318
 4285SOL     OW13753   3.573   0.685   5.581
 4285SOL    HW113754   3.508   0.716   5.650
 4285SOL    HW213755   3.537   0.705   5.489
 4286SOL     OW13756   6.211   0.596   6.219
 4286SOL    HW113757   6.139   0.530   6.243
 4286SOL    HW213758   6.219   0.601   6.120
 4287SOL     OW13759   3.884   6.998   0.449
 4287SOL    HW113760   3.849   7.003   0.355
 4287SOL    HW213761   3.976   6.958   0.448
 4288SOL     OW13762   6.940   6.545   2.689
 4288SOL    HW113763   7.017   6.601   2.721
 4288SOL    HW213764   6.975   6.460   2.649
 4289SOL     OW13765   0.358   4.092   4.165
 4289SOL    HW113766   0.358   4.162   4.237
 4289SOL    HW213767   0.389   4.005   4.203
 4290SOL     OW13768   0.776   1.356   3.490
 4290SOL    HW113769   0.819   1.406   3.566
 4290SOL    HW213770   0.705   1.296   3.526
 4291SOL     OW13771   4.693   3.601   6.073
 4291SOL    HW113772   4.641   3.546   6.008
 4291SOL    HW213773   4.745   3.671   6.023
 4292SOL     OW13774   6.365   2.369   1.201
 4292SOL    HW113775   6.391   2.272   1.204
 4292SOL    HW213776   6.346   2.394   1.106
 4293SOL     OW13777   4.065   3.686   0.292
 4293SOL    HW113778   4.140   3.714   0.353
 4293SOL    HW213779   4.067   3.586   0.281
 4294SOL     OW13780   1.606   2.114   6.608
 4294SOL    HW113781   1.688   2.124   6.552
 4294SOL    HW213782   1.558   2.201   6.614
 4295SOL     OW13783   3.939   6.203   3.030
 4295SOL    HW113784   3.945   6.279   3.094
 4295SOL    HW213785   3.973   6.232   2.941
 4296SOL     OW13786   3.046   6.801   3.224
 4296SOL    HW113787   3.017   6.794   3.129
 4296SOL    HW213788   3.132   6.852   3.230
 4297SOL     OW13789   5.539   5.216   0.327
 4297SOL    HW113790   5.501   5.128   0.298
 4297SOL    HW213791   5.638   5.207   0.342
 4298SOL     OW13792   2.159   6.630   0.742
 4298SOL    HW113793   2.091   6.656   0.674
 4298SOL    HW213794   2.245   6.677   0.723
 4299SOL     OW13795   0.635   2.759   6.984
 4299SOL    HW113796   0.539   2.773   7.007
 4299SOL    HW213797   0.689   2.836   0.001
 4300SOL     OW13798   2.741   0.874   1.119
 4300SOL    HW113799   2.797   0.953   1.147
 4300SOL    HW213800   2.719   0.819   1.200
 4301SOL     OW13801   2.647   6.193   0.181
 4301SOL    HW113802   2.628   6.223   0.274
 4301SOL    HW213803   2.608   6.102   0.166
 4302SOL     OW13804   2.355   5.823   6.146
 4302SOL    HW113805   2.280   5.872   6.103
 4302SOL    HW213806   2.319   5.761   6.216
 4303SOL     OW13807   5.922   5.568   3.033
 4303SOL    HW113808   5.937   5.478   2.994
 4303SOL    HW213809   5.995   5.630   3.004
 4304SOL     OW13810   3.713   3.706   1.363
 4304SOL    HW113811   3.711   3.754   1.275
 4304SOL    HW213812   3.620   3.696   1.397
 4305SOL     OW13813   1.279   6.733   5.521
 4305SOL    HW113814   1.330   6.652   5.494
 4305SOL    HW213815   1.193   6.737   5.469
 4306SOL     OW13816   6.016   4.141   5.176
 4306SOL    HW113817   6.105   4.102   5.151
 4306SOL    HW213818   6.026   4.239   5.192
 4307SOL     OW13819   0.456   1.522   6.030
 4307SOL    HW113820   0.468   1.439   5.975
 4307SOL    HW213821   0.375   1.571   5.999
 4308SOL     OW13822   4.939   5.975   6.564
 4308SOL    HW113823   4.881   6.022   6.630
 4308SOL    HW213824   4.963   5.884   6.598
 4309SOL     OW13825   0.961   1.839   0.700
 4309SOL    HW113826   0.928   1.864   0.791
 4309SOL    HW213827   0.894   1.866   0.631
 4310SOL     OW13828   7.012   2.219   2.729
 4310SOL    HW113829   0.022   2.270   2.810
 4310SOL    HW213830   6.997   2.124   2.754
 4311SOL     OW13831   0.746   0.357   1.687
 4311SOL    HW113832   0.767   0.271   1.640
 4311SOL    HW213833   0.729   0.429   1.619
 4312SOL     OW13834   0.009   4.702   2.409
 4312SOL    HW113835   6.982   4.764   2.471
 4312SOL    HW213836   0.103   4.689   2.440
 4313SOL     OW13837   0.135   2.802   6.656
 4313SOL    HW113838   0.142   2.723   6.595
 4313SOL    HW213839   0.215   2.805   6.715
 4314SOL     OW13840   0.471   1.274   5.898
 4314SOL    HW113841   0.517   1.288   5.810
 4314SOL    HW213842   0.390   1.218   5.885
 4315SOL     OW13843   2.973   1.041   4.383
 4315SOL    HW113844   2.874   1.038   4.400
 4315SOL    HW213845   2.992   1.011   4.290
 4316SOL     OW13846   5.125   5.932   1.351
 4316SOL    HW113847   5.192   5.925   1.278
 4316SOL    HW213848   5.072   6.016   1.340
 4317SOL     OW13849   4.784   0.835   5.844
 4317SOL    HW113850   4.860   0.843   5.909
 4317SOL    HW213851   4.770   0.739   5.821
 4318SOL     OW13852   0.794   0.076   4.381
 4318SOL    HW113853   0.849   7.013   4.388
 4318SOL    HW213854   0.853   0.153   4.354
 4319SOL     OW13855   1.564   5.224   2.781
 4319SOL    HW113856   1.607   5.213   2.870
 4319SOL    HW213857   1.485   5.162   2.775
 4320SOL     OW13858   3.295   6.793   1.235
 4320SOL    HW113859   3.372   6.828   1.181
 4320SOL    HW213860   3.254   6.715   1.188
 4321SOL     OW13861   6.346   6.802   3.041
 4321SOL    HW113862   6.289   6.820   2.962
 4321SOL    HW213863   6.297   6.828   3.124
 4322SOL     OW13864   1.613   2.974   5.139
 4322SOL    HW113865   1.672   2.979   5.220
 4322SOL    HW213866   1.621   3.059   5.087
 4323SOL     OW13867   3.860   4.864   0.023
 4323SOL    HW113868   3.883   4.951   6.999
 4323SOL    HW213869   3.884   4.868   0.120
 4324SOL     OW13870   0.592   4.300   5.828
 4324SOL    HW113871   0.643   4.385   5.844
 4324SOL    HW213872   0.640   4.244   5.761
 4325SOL     OW13873   2.326   0.884   2.653
 4325SOL    HW113874   2.374   0.899   2.566
 4325SOL    HW213875   2.352   0.794   2.690
 4326SOL     OW13876   5.312   2.204   2.660
 4326SOL    HW113877   5.291   2.302   2.660
 4326SOL    HW213878   5.235   2.154   2.619
 4327SOL     OW13879   2.814   6.109   3.583
 4327SOL    HW113880   2.887   6.055   3.541
 4327SOL    HW213881   2.848   6.201   3.604
 4328SOL     OW13882   6.483   0.104   4.397
 4328SOL    HW113883   6.443   0.079   4.309
 4328SOL    HW213884   6.416   0.088   4.470
 4329SOL     OW13885   0.131   1.818   6.237
 4329SOL    HW113886   0.223   1.847   6.209
 4329SOL    HW213887   0.137   1.769   6.324
 4330SOL     OW13888   3.333   4.918   4.483
 4330SOL    HW113889   3.306   4.822   4.491
 4330SOL    HW213890   3.335   4.959   4.574
 4331SOL     OW13891   5.688   1.060   1.993
 4331SOL    HW113892   5.654   0.967   1.976
 4331SOL    HW213893   5.743   1.090   1.915
 4332SOL     OW13894   0.551   5.185   2.160
 4332SOL    HW113895   0.567   5.121   2.235
 4332SOL    HW213896   0.580   5.143   2.074
 4333SOL     OW13897   3.797   2.208   5.921
 4333SOL    HW113898   3.779   2.300   5.884
 4333SOL    HW213899   3.730   2.187   5.992
 4334SOL     OW13900   6.938   3.021   4.478
 4334SOL    HW113901   6.853   3.038   4.427
 4334SOL    HW213902   6.946   3.088   4.551
 4335SOL     OW13903   2.653   3.856   1.585
 4335SOL    HW113904   2.591   3.806   1.646
 4335SOL    HW213905   2.746   3.822   1.597
 4336SOL     OW13906   2.623   5.579   5.591
 4336SOL    HW113907   2.577   5.512   5.650
 4336SOL    HW213908   2.563   5.603   5.515
 4337SOL     OW13909   1.309   5.133   4.142
 4337SOL    HW113910   1.270   5.085   4.064
 4337SOL    HW213911   1.237   5.177   4.195
 4338SOL     OW13912   3.700   1.441   5.562
 4338SOL    HW113913   3.779   1.441   5.501
 4338SOL    HW213914   3.618   1.464   5.509
 4339SOL     OW13915   4.117   3.704   6.371
 4339SOL    HW113916   4.057   3.627   6.347
 4339SOL    HW213917   4.129   3.708   6.470
 4340SOL     OW13918   6.320   4.047   0.823
 4340SOL    HW113919   6.232   4.040   0.869
 4340SOL    HW213920   6.377   3.969   0.848
 4341SOL     OW13921   6.699   0.110   2.427
 4341SOL    HW113922   6.734   0.189   2.478
 4341SOL    HW213923   6.773   0.047   2.406
 4342SOL     OW13924   5.148   3.734   2.444
 4342SOL    HW113925   5.160   3.829   2.473
 4342SOL    HW213926   5.065   3.726   2.390
 4343SOL     OW13927   3.988   6.416   5.940
 4343SOL    HW113928   3.984   6.506   5.983
 4343SOL    HW213929   4.080   6.379   5.948
 4344SOL     OW13930   6.845   3.411   3.719
 4344SOL    HW113931   6.820   3.424   3.815
 4344SOL    HW213932   6.835   3.314   3.695
 4345SOL     OW13933   3.036   3.179   2.689
 4345SOL    HW113934   3.002   3.272   2.676
 4345SOL    HW213935   3.010   3.123   2.610
 4346SOL     OW13936   1.278   3.370   2.476
 4346SOL    HW113937   1.182   3.344   2.486
 4346SOL    HW213938   1.335   3.289   2.488
 4347SOL     OW13939   6.417   5.769   0.524
 4347SOL    HW113940   6.414   5.670   0.535
 4347SOL    HW213941   6.423   5.792   0.427
 4348SOL     OW13942   5.694   5.262   3.833
 4348SOL    HW113943   5.736   5.259   3.742
 4348SOL    HW213944   5.595   5.273   3.822
 4349SOL     OW13945   0.136   3.663   4.152
 4349SOL    HW113946   0.039   3.654   4.131
 4349SOL    HW213947   0.169   3.577   4.192
 4350SOL     OW13948   4.004   1.554   4.851
 4350SOL    HW113949   4.043   1.556   4.943
 4350SOL    HW213950   4.077   1.566   4.784
 4351SOL     OW13951   1.272   6.272   0.487
 4351SOL    HW113952   1.220   6.341   0.538
 4351SOL    HW213953   1.227   6.255   0.399
 4352SOL     OW13954   3.697   4.129   0.953
 4352SOL    HW113955   3.608   4.150   0.913
 4352SOL    HW213956   3.770   4.160   0.892
 4353SOL     OW13957   3.003   2.894   1.396
 4353SOL    HW113958   2.961   2.819   1.448
 4353SOL    HW213959   2.934   2.964   1.378
 4354SOL     OW13960   5.831   0.476   3.504
 4354SOL    HW113961   5.793   0.421   3.430
 4354SOL    HW213962   5.908   0.530   3.469
 4355SOL     OW13963   1.887   5.947   2.670
 4355SOL    HW113964   1.904   5.858   2.712
 4355SOL    HW213965   1.789   5.955   2.647
 4356SOL     OW13966   5.427   2.347   5.650
 4356SOL    HW113967   5.391   2.405   5.722
 4356SOL    HW213968   5.503   2.394   5.604
 4357SOL     OW13969   5.764   0.630   2.084
 4357SOL    HW113970   5.675   0.588   2.066
 4357SOL    HW213971   5.794   0.606   2.177
 4358SOL     OW13972   2.463   0.002   6.876
 4358SOL    HW113973   2.375   0.001   6.828
 4358SOL    HW213974   2.537   7.018   6.810
 4359SOL     OW13975   2.570   2.131   0.324
 4359SOL    HW113976   2.594   2.092   0.412
 4359SOL    HW213977   2.604   2.225   0.318
 4360SOL     OW13978   1.827   3.769   3.635
 4360SOL    HW113979   1.747   3.822   3.606
 4360SOL    HW213980   1.813   3.736   3.728
 4361SOL     OW13981   6.423   1.813   0.844
 4361SOL    HW113982   6.487   1.832   0.769
 4361SOL    HW213983   6.371   1.896   0.864
 4362SOL     OW13984   0.970   5.500   3.281
 4362SOL    HW113985   1.022   5.579   3.250
 4362SOL    HW213986   0.979   5.491   3.380
 4363SOL     OW13987   4.684   1.307   2.735
 4363SOL    HW113988   4.645   1.389   2.777
 4363SOL    HW213989   4.623   1.229   2.752
 4364SOL     OW13990   3.890   3.457   2.570
 4364SOL    HW113991   3.970   3.510   2.600
 4364SOL    HW213992   3.868   3.389   2.640
 4365SOL     OW13993   2.297   2.006   1.507
 4365SOL    HW113994   2.321   2.098   1.476
 4365SOL    HW213995   2.293   2.004   1.606
 4366SOL     OW13996   4.463   6.036   4.857
 4366SOL    HW113997   4.477   6.031   4.956
 4366SOL    HW213998   4.520   5.967   4.812
 4367SOL     OW13999   2.865   5.494   3.060
 4367SOL    HW114000   2.796   5.566   3.068
 4367SOL    HW214001   2.949   5.524   3.105
 4368SOL     OW14002   4.868   4.081   3.310
 4368SOL    HW114003   4.868   4.141   3.391
 4368SOL    HW214004   4.825   4.129   3.234
 4369SOL     OW14005   4.548   4.390   3.319
 4369SOL    HW114006   4.577   4.482   3.346
 4369SOL    HW214007   4.510   4.342   3.398
 4370SOL     OW14008   3.681   4.649   1.682
 4370SOL    HW114009   3.713   4.573   1.738
 4370SOL    HW214010   3.637   4.718   1.740
 4371SOL     OW14011   2.999   1.893   0.706
 4371SOL    HW114012   2.962   1.821   0.648
 4371SOL    HW214013   2.925   1.950   0.741
 4372SOL     OW14014   1.884   3.369   4.837
 4372SOL    HW114015   1.978   3.335   4.831
 4372SOL    HW214016   1.838   3.357   4.749
 4373SOL     OW14017   3.925   1.379   6.241
 4373SOL    HW114018   3.881   1.341   6.159
 4373SOL    HW214019   3.953   1.473   6.224
 4374SOL     OW14020   2.224   0.552   1.243
 4374SOL    HW114021   2.147   0.543   1.181
 4374SOL    HW214022   2.309   0.563   1.191
 4375SOL     OW14023   4.492   1.650   4.283
 4375SOL    HW114024   4.579   1.601   4.272
 4375SOL    HW214025   4.453   1.669   4.192
 4376SOL     OW14026   1.739   6.161   6.893
 4376SOL    HW114027   1.816   6.141   6.832
 4376SOL    HW214028   1.682   6.079   6.902
 4377SOL     OW14029   6.031   0.060   6.368
 4377SOL    HW114030   5.991   6.992   6.392
 4377SOL    HW214031   6.125   0.046   6.338
 4378SOL     OW14032   2.551   5.654   2.339
 4378SOL    HW114033   2.511   5.718   2.405
 4378SOL    HW214034   2.633   5.695   2.299
 4379SOL     OW14035   1.078   0.613   1.767
 4379SOL    HW114036   1.048   0.522   1.796
 4379SOL    HW214037   1.174   0.626   1.792
 4380SOL     OW14038   2.187   5.379   4.765
 4380SOL    HW114039   2.152   5.463   4.724
 4380SOL    HW214040   2.193   5.308   4.695
 4381SOL     OW14041   4.168   6.062   5.625
 4381SOL    HW114042   4.143   5.977   5.579
 4381SOL    HW214043   4.085   6.108   5.658
 4382SOL     OW14044   4.930   3.567   3.422
 4382SOL    HW114045   4.898   3.565   3.517
 4382SOL    HW214046   4.954   3.660   3.397
 4383SOL     OW14047   1.241   2.241   0.259
 4383SOL    HW114048   1.241   2.327   0.309
 4383SOL    HW214049   1.333   2.222   0.225
 4384SOL     OW14050   3.806   6.260   1.302
 4384SOL    HW114051   3.786   6.325   1.229
 4384SOL    HW214052   3.856   6.307   1.375
 4385SOL     OW14053   6.776   1.627   2.529
 4385SOL    HW114054   6.795   1.719   2.496
 4385SOL    HW214055   6.850   1.598   2.591
 4386SOL     OW14056   1.236   3.638   7.004
 4386SOL    HW114057   1.270   3.659   0.075
 4386SOL    HW214058   1.151   3.687   6.988
 4387SOL     OW14059   6.457   3.178   1.817
 4387SOL    HW114060   6.387   3.166   1.747
 4387SOL    HW214061   6.535   3.227   1.777
 4388SOL     OW14062   3.443   1.728   5.197
 4388SOL    HW114063   3.519   1.697   5.140
 4388SOL    HW214064   3.361   1.739   5.141
 4389SOL     OW14065   4.627   2.499   2.711
 4389SOL    HW114066   4.536   2.458   2.721
 4389SOL    HW214067   4.695   2.428   2.699
 4390SOL     OW14068   4.793   2.635   2.391
 4390SOL    HW114069   4.777   2.707   2.323
 4390SOL    HW214070   4.729   2.648   2.467
 4391SOL     OW14071   0.708   5.818   0.991
 4391SOL    HW114072   0.755   5.907   0.986
 4391SOL    HW214073   0.614   5.828   0.960
 4392SOL     OW14074   5.375   3.391   4.615
 4392SOL    HW114075   5.450   3.340   4.655
 4392SOL    HW214076   5.312   3.420   4.686
 4393SOL     OW14077   4.641   6.676   3.434
 4393SOL    HW114078   4.647   6.731   3.351
 4393SOL    HW214079   4.716   6.610   3.436
 4394SOL     OW14080   5.060   0.993   2.239
 4394SOL    HW114081   4.964   1.013   2.257
 4394SOL    HW214082   5.109   1.078   2.224
 4395SOL     OW14083   4.638   1.804   1.851
 4395SOL    HW114084   4.590   1.832   1.934
 4395SOL    HW214085   4.657   1.706   1.855
 4396SOL     OW14086   1.693   0.409   4.131
 4396SOL    HW114087   1.604   0.454   4.121
 4396SOL    HW214088   1.679   0.316   4.165
 4397SOL     OW14089   6.514   0.646   6.239
 4397SOL    HW114090   6.562   0.722   6.284
 4397SOL    HW214091   6.446   0.683   6.176
 4398SOL     OW14092   6.381   4.813   4.471
 4398SOL    HW114093   6.369   4.766   4.558
 4398SOL    HW214094   6.292   4.844   4.438
 4399SOL     OW14095   2.354   1.512   1.857
 4399SOL    HW114096   2.328   1.552   1.769
 4399SOL    HW214097   2.352   1.583   1.928
 4400SOL     OW14098   3.294   6.301   4.638
 4400SOL    HW114099   3.215   6.240   4.640
 4400SOL    HW214100   3.307   6.336   4.546
 4401SOL     OW14101   5.221   6.437   4.931
 4401SOL    HW114102   5.231   6.494   4.849
 4401SOL    HW214103   5.285   6.360   4.926
 4402SOL     OW14104   6.794   0.234   3.491
 4402SOL    HW114105   6.704   0.264   3.522
 4402SOL    HW214106   6.785   0.188   3.403
 4403SOL     OW14107   0.936   6.992   2.753
 4403SOL    HW114108   0.919   7.002   2.851
 4403SOL    HW214109   0.850   6.997   2.703
 4404SOL     OW14110   1.458   3.991   3.298
 4404SOL    HW114111   1.407   4.068   3.336
 4404SOL    HW214112   1.543   4.025   3.257
 4405SOL     OW14113   3.528   4.286   5.950
 4405SOL    HW114114   3.437   4.327   5.954
 4405SOL    HW214115   3.520   4.187   5.956
 4406SOL     OW14116   5.262   3.979   1.461
 4406SOL    HW114117   5.165   3.959   1.457
 4406SOL    HW214118   5.312   3.911   1.407
 4407SOL     OW14119   6.485   6.759   6.953
 4407SOL    HW114120   6.502   6.700   0.012
 4407SOL    HW214121   6.533   6.722   6.873
 4408SOL     OW14122   4.777   5.908   6.837
 4408SOL    HW114123   4.844   5.853   6.787
 4408SOL    HW214124   4.711   5.947   6.772
 4409SOL     OW14125   3.213   1.486   2.035
 4409SOL    HW114126   3.179   1.579   2.042
 4409SOL    HW214127   3.190   1.448   1.946
 4410SOL     OW14128   2.581   5.404   1.737
 4410SOL    HW114129   2.610   5.312   1.764
 4410SOL    HW214130   2.567   5.407   1.638
 4411SOL     OW14131   3.758   3.094   2.422
 4411SOL    HW114132   3.686   3.058   2.362
 4411SOL    HW214133   3.716   3.131   2.505
 4412SOL     OW14134   3.531   2.379   6.473
 4412SOL    HW114135   3.594   2.436   6.420
 4412SOL    HW214136   3.485   2.434   6.542
 4413SOL     OW14137   3.744   5.726   4.516
 4413SOL    HW114138   3.764   5.676   4.432
 4413SOL    HW214139   3.688   5.669   4.576
 4414SOL     OW14140   3.561   5.132   2.400
 4414SOL    HW114141   3.520   5.042   2.384
 4414SOL    HW214142   3.500   5.188   2.456
 4415SOL     OW14143   5.150   2.781   0.312
 4415SOL    HW114144   5.105   2.722   0.379
 4415SOL    HW214145   5.125   2.752   0.220
 4416SOL     OW14146   3.959   0.800   3.415
 4416SOL    HW114147   4.000   0.738   3.348
 4416SOL    HW214148   4.001   0.890   3.407
 4417SOL     OW14149   0.397   0.098   1.519
 4417SOL    HW114150   0.421   0.167   1.587
 4417SOL    HW214151   0.388   0.142   1.429
 4418SOL     OW14152   3.821   6.872   3.612
 4418SOL    HW114153   3.894   6.892   3.678
 4418SOL    HW214154   3.783   6.957   3.577
 4419SOL     OW14155   0.537   5.135   6.896
 4419SOL    HW114156   0.479   5.069   6.944
 4419SOL    HW214157   0.582   5.194   6.963
 4420SOL     OW14158   5.145   1.270   6.532
 4420SOL    HW114159   5.094   1.188   6.505
 4420SOL    HW214160   5.227   1.244   6.583
 4421SOL     OW14161   2.164   1.621   3.685
 4421SOL    HW114162   2.088   1.680   3.659
 4421SOL    HW214163   2.210   1.587   3.603
 4422SOL     OW14164   2.444   3.776   5.883
 4422SOL    HW114165   2.415   3.687   5.849
 4422SOL    HW214166   2.377   3.810   5.950
 4423SOL     OW14167   0.873   1.799   6.526
 4423SOL    HW114168   0.789   1.818   6.576
 4423SOL    HW214169   0.851   1.768   6.433
 4424SOL     OW14170   0.236   6.987   3.212
 4424SOL    HW114171   0.334   6.966   3.209
 4424SOL    HW214172   0.185   6.901   3.217
 4425SOL     OW14173   4.622   4.314   0.061
 4425SOL    HW114174   4.718   4.290   0.050
 4425SOL    HW214175   4.571   4.288   7.000
 4426SOL     OW14176   1.000   0.562   5.654
 4426SOL    HW114177   1.062   0.533   5.581
 4426SOL    HW214178   1.052   0.573   5.739
 4427SOL     OW14179   0.862   0.128   3.692
 4427SOL    HW114180   0.921   0.059   3.651
 4427SOL    HW214181   0.768   0.092   3.699
 4428SOL     OW14182   2.964   5.987   3.386
 4428SOL    HW114183   2.891   5.930   3.348
 4428SOL    HW214184   3.037   5.928   3.422
 4429SOL     OW14185   4.175   6.873   3.124
 4429SOL    HW114186   4.270   6.853   3.145
 4429SOL    HW214187   4.117   6.798   3.157
 4430SOL     OW14188   1.593   0.962   1.620
 4430SOL    HW114189   1.614   1.050   1.577
 4430SOL    HW214190   1.558   0.899   1.551
 4431SOL     OW14191   1.812   2.039   3.190
 4431SOL    HW114192   1.756   2.069   3.268
 4431SOL    HW214193   1.906   2.071   3.202
 4432SOL     OW14194   2.928   3.422   2.900
 4432SOL    HW114195   2.858   3.352   2.911
 4432SOL    HW214196   2.999   3.410   2.969
 4433SOL     OW14197   6.319   0.356   3.245
 4433SOL    HW114198   6.334   0.413   3.164
 4433SOL    HW214199   6.377   0.388   3.320
 4434SOL     OW14200   5.474   2.304   4.696
 4434SOL    HW114201   5.408   2.232   4.717
 4434SOL    HW214202   5.464   2.379   4.762
 4435SOL     OW14203   3.535   2.867   1.789
 4435SOL    HW114204   3.596   2.926   1.842
 4435SOL    HW214205   3.467   2.827   1.850
 4436SOL     OW14206   5.054   0.789   6.841
 4436SOL    HW114207   5.053   0.803   6.940
 4436SOL    HW214208   4.990   0.716   6.817
 4437SOL     OW14209   3.400   6.899   4.751
 4437SOL    HW114210   3.395   6.986   4.701
 4437SOL    HW214211   3.494   6.883   4.781
 4438SOL     OW14212   4.284   3.414   6.428
 4438SOL    HW114213   4.332   3.327   6.416
 4438SOL    HW214214   4.239   3.439   6.342
 4439SOL     OW14215   2.436   5.521   2.127
 4439SOL    HW114216   2.484   5.553   2.208
 4439SOL    HW214217   2.489   5.543   2.045
 4440SOL     OW14218   0.180   0.792   6.297
 4440SOL    HW114219   0.267   0.753   6.325
 4440SOL    HW214220   0.105   0.739   6.337
 4441SOL     OW14221   6.153   2.566   2.917
 4441SOL    HW114222   6.158   2.468   2.936
 4441SOL    HW214223   6.129   2.580   2.821
 4442SOL     OW14224   2.631   6.709   2.902
 4442SOL    HW114225   2.536   6.717   2.870
 4442SOL    HW214226   2.660   6.795   2.943
 4443SOL     OW14227   2.550   1.755   5.201
 4443SOL    HW114228   2.545   1.852   5.178
 4443SOL    HW214229   2.458   1.716   5.198
 4444SOL     OW14230   5.092   0.634   2.275
 4444SOL    HW114231   5.113   0.556   2.335
 4444SOL    HW214232   4.998   0.664   2.291
 4445SOL     OW14233   1.618   1.181   6.361
 4445SOL    HW114234   1.583   1.232   6.440
 4445SOL    HW214235   1.589   1.226   6.277
 4446SOL     OW14236   6.691   6.250   3.743
 4446SOL    HW114237   6.777   6.211   3.776
 4446SOL    HW214238   6.692   6.349   3.756
 4447SOL     OW14239   4.937   2.993   5.433
 4447SOL    HW114240   4.999   2.915   5.445
 4447SOL    HW214241   4.899   3.019   5.522
 4448SOL     OW14242   2.696   2.901   6.371
 4448SOL    HW114243   2.735   2.873   6.459
 4448SOL    HW214244   2.686   2.821   6.312
 4449SOL     OW14245   0.893   1.364   5.258
 4449SOL    HW114246   0.934   1.447   5.296
 4449SOL    HW214247   0.811   1.340   5.310
 4450SOL     OW14248   3.727   4.075   3.477
 4450SOL    HW114249   3.682   4.096   3.563
 4450SOL    HW214250   3.706   4.146   3.410
 4451SOL     OW14251   6.268   4.409   2.008
 4451SOL    HW114252   6.294   4.458   2.091
 4451SOL    HW214253   6.168   4.405   2.001
 4452SOL     OW14254   6.253   5.861   6.303
 4452SOL    HW114255   6.285   5.920   6.378
 4452SOL    HW214256   6.207   5.781   6.341
 4453SOL     OW14257   5.585   1.905   1.562
 4453SOL    HW114258   5.679   1.935   1.577
 4453SOL    HW214259   5.573   1.878   1.466
 4454SOL     OW14260   5.036   3.188   1.435
 4454SOL    HW114261   5.033   3.120   1.509
 4454SOL    HW214262   5.069   3.275   1.471
 4455SOL     OW14263   4.120   1.546   1.887
 4455SOL    HW114264   4.194   1.489   1.922
 4455SOL    HW214265   4.033   1.512   1.922
 4456SOL     OW14266   0.922   5.715   2.998
 4456SOL    HW114267   0.967   5.734   3.085
 4456SOL    HW214268   0.967   5.767   2.925
 4457SOL     OW14269   5.258   2.100   6.415
 4457SOL    HW114270   5.312   2.172   6.372
 4457SOL    HW214271   5.284   2.092   6.512
 4458SOL     OW14272   3.938   1.615   5.977
 4458SOL    HW114273   3.868   1.653   6.037
 4458SOL    HW214274   3.960   1.682   5.906
 4459SOL     OW14275   4.835   6.028   5.334
 4459SOL    HW114276   4.889   6.087   5.393
 4459SOL    HW214277   4.851   6.052   5.238
 4460SOL     OW14278   1.915   1.760   6.268
 4460SOL    HW114279   1.989   1.811   6.224
 4460SOL    HW214280   1.921   1.771   6.367
 4461SOL     OW14281   2.327   0.180   1.816
 4461SOL    HW114282   2.286   0.167   1.726
 4461SOL    HW214283   2.393   0.255   1.812
 4462SOL     OW14284   6.716   5.566   1.764
 4462SOL    HW114285   6.638   5.525   1.718
 4462SOL    HW214286   6.796   5.562   1.703
 4463SOL     OW14287   1.606   3.514   5.995
 4463SOL    HW114288   1.643   3.447   5.930
 4463SOL    HW214289   1.532   3.472   6.048
 4464SOL     OW14290   5.663   3.188   6.506
 4464SOL    HW114291   5.605   3.270   6.505
 4464SOL    HW214292   5.757   3.215   6.488
 4465SOL     OW14293   1.518   6.184   2.315
 4465SOL    HW114294   1.571   6.099   2.325
 4465SOL    HW214295   1.487   6.193   2.221
 4466SOL     OW14296   0.772   2.197   3.929
 4466SOL    HW114297   0.749   2.128   3.861
 4466SOL    HW214298   0.709   2.190   4.007
 4467SOL     OW14299   0.838   6.817   3.048
 4467SOL    HW114300   0.876   6.909   3.040
 4467SOL    HW214301   0.875   6.773   3.129
 4468SOL     OW14302   1.546   2.607   0.422
 4468SOL    HW114303   1.541   2.556   0.337
 4468SOL    HW214304   1.625   2.669   0.419
 4469SOL     OW14305   4.468   0.295   0.093
 4469SOL    HW114306   4.432   0.373   0.041
 4469SOL    HW214307   4.414   0.284   0.176
 4470SOL     OW14308   4.663   4.682   1.353
 4470SOL    HW114309   4.601   4.647   1.284
 4470SOL    HW214310   4.757   4.657   1.329
 4471SOL     OW14311   6.466   3.372   0.575
 4471SOL    HW114312   6.462   3.380   0.475
 4471SOL    HW214313   6.501   3.457   0.614
 4472SOL     OW14314   1.787   4.677   1.976
 4472SOL    HW114315   1.695   4.644   1.955
 4472SOL    HW214316   1.854   4.608   1.948
 4473SOL     OW14317   0.293   6.527   5.412
 4473SOL    HW114318   0.226   6.540   5.486
 4473SOL    HW214319   0.279   6.597   5.342
 4474SOL     OW14320   5.323   0.740   3.567
 4474SOL    HW114321   5.255   0.671   3.592
 4474SOL    HW214322   5.404   0.694   3.530
 4475SOL     OW14323   1.873   4.152   0.296
 4475SOL    HW114324   1.919   4.231   0.255
 4475SOL    HW214325   1.880   4.158   0.396
 4476SOL     OW14326   4.567   6.517   1.837
 4476SOL    HW114327   4.596   6.486   1.928
 4476SOL    HW214328   4.628   6.589   1.805
 4477SOL     OW14329   1.383   1.387   0.635
 4477SOL    HW114330   1.427   1.452   0.697
 4477SOL    HW214331   1.416   1.402   0.542
 4478SOL     OW14332   1.833   5.592   1.859
 4478SOL    HW114333   1.830   5.574   1.957
 4478SOL    HW214334   1.747   5.632   1.829
 4479SOL     OW14335   0.503   0.170   4.902
 4479SOL    HW114336   0.463   0.260   4.921
 4479SOL    HW214337   0.436   0.113   4.856
 4480SOL     OW14338   0.583   4.482   3.460
 4480SOL    HW114339   0.615   4.454   3.369
 4480SOL    HW214340   0.550   4.402   3.510
 4481SOL     OW14341   1.140   0.092   4.535
 4481SOL    HW114342   1.151   0.111   4.437
 4481SOL    HW214343   1.083   0.162   4.577
 4482SOL     OW14344   6.776   4.159   3.825
 4482SOL    HW114345   6.779   4.222   3.903
 4482SOL    HW214346   6.868   4.126   3.806
 4483SOL     OW14347   5.556   2.719   2.192
 4483SOL    HW114348   5.610   2.636   2.202
 4483SOL    HW214349   5.461   2.695   2.172
 4484SOL     OW14350   4.021   2.673   5.575
 4484SOL    HW114351   4.022   2.699   5.478
 4484SOL    HW214352   3.969   2.588   5.586
 4485SOL     OW14353   5.240   1.509   6.468
 4485SOL    HW114354   5.207   1.417   6.487
 4485SOL    HW214355   5.163   1.573   6.468
 4486SOL     OW14356   6.313   2.585   4.365
 4486SOL    HW114357   6.336   2.537   4.281
 4486SOL    HW214358   6.376   2.662   4.378
 4487SOL     OW14359   3.201   3.225   6.491
 4487SOL    HW114360   3.143   3.149   6.460
 4487SOL    HW214361   3.207   3.293   6.418
 4488SOL     OW14362   0.639   1.351   5.301
 4488SOL    HW114363   0.561   1.296   5.270
 4488SOL    HW214364   0.611   1.446   5.311
 4489SOL     OW14365   6.371   0.073   4.130
 4489SOL    HW114366   6.281   0.040   4.102
 4489SOL    HW214367   6.440   0.044   4.063
 4490SOL     OW14368   6.893   2.244   3.761
 4490SOL    HW114369   6.866   2.283   3.849
 4490SOL    HW214370   6.924   2.150   3.774
 4491SOL     OW14371   1.431   3.084   2.724
 4491SOL    HW114372   1.502   3.153   2.715
 4491SOL    HW214373   1.351   3.124   2.769
 4492SOL     OW14374   4.505   3.563   6.671
 4492SOL    HW114375   4.440   3.640   6.668
 4492SOL    HW214376   4.595   3.595   6.643
 4493SOL     OW14377   5.916   5.163   3.981
 4493SOL    HW114378   5.822   5.189   3.961
 4493SOL    HW214379   5.950   5.218   4.058
 4494SOL     OW14380   6.075   3.987   3.923
 4494SOL    HW114381   5.996   3.927   3.930
 4494SOL    HW214382   6.130   3.979   4.006
 4495SOL     OW14383   5.039   6.517   0.919
 4495SOL    HW114384   4.944   6.495   0.943
 4495SOL    HW214385   5.042   6.555   0.826
 4496SOL     OW14386   4.989   3.998   5.544
 4496SOL    HW114387   5.027   4.022   5.634
 4496SOL    HW214388   5.002   4.074   5.481
 4497SOL     OW14389   5.944   5.011   0.395
 4497SOL    HW114390   6.013   4.991   0.326
 4497SOL    HW214391   5.923   5.109   0.394
 4498SOL     OW14392   0.208   3.950   6.920
 4498SOL    HW114393   0.206   3.865   6.971
 4498SOL    HW214394   0.292   3.956   6.866
 4499SOL     OW14395   6.936   3.007   6.199
 4499SOL    HW114396   6.956   2.910   6.210
 4499SOL    HW214397   6.928   3.050   6.289
 4500SOL     OW14398   3.431   4.097   4.300
 4500SOL    HW114399   3.353   4.069   4.245
 4500SOL    HW214400   3.507   4.121   4.240
 4501SOL     OW14401   0.692   4.016   4.965
 4501SOL    HW114402   0.656   4.098   4.919
 4501SOL    HW214403   0.750   3.966   4.902
 4502SOL     OW14404   0.183   3.304   0.276
 4502SOL    HW114405   0.227   3.346   0.355
 4502SOL    HW214406   0.216   3.346   0.192
 4503SOL     OW14407   1.873   1.789   3.354
 4503SOL    HW114408   1.775   1.777   3.333
 4503SOL    HW214409   1.892   1.885   3.371
 4504SOL     OW14410   5.056   2.101   4.813
 4504SOL    HW114411   4.978   2.087   4.753
 4504SOL    HW214412   5.048   2.190   4.858
 4505SOL     OW14413   1.878   5.401   6.100
 4505SOL    HW114414   1.892   5.494   6.133
 4505SOL    HW214415   1.795   5.397   6.044
 4506SOL     OW14416   4.040   0.208   5.541
 4506SOL    HW114417   3.953   0.197   5.589
 4506SOL    HW214418   4.054   0.305   5.521
 4507SOL     OW14419   6.353   4.277   0.477
 4507SOL    HW114420   6.367   4.263   0.575
 4507SOL    HW214421   6.385   4.369   0.452
 4508SOL     OW14422   1.451   3.843   0.579
 4508SOL    HW114423   1.362   3.813   0.613
 4508SOL    HW214424   1.496   3.767   0.532
 4509SOL     OW14425   1.692   1.539   4.065
 4509SOL    HW114426   1.608   1.486   4.068
 4509SOL    HW214427   1.770   1.479   4.084
 4510SOL     OW14428   3.827   6.477   5.085
 4510SOL    HW114429   3.887   6.462   5.164
 4510SOL    HW214430   3.883   6.498   5.005
 4511SOL     OW14431   5.907   2.575   0.289
 4511SOL    HW114432   5.892   2.477   0.301
 4511SOL    HW214433   5.893   2.621   0.377
 4512SOL     OW14434   2.519   5.153   6.889
 4512SOL    HW114435   2.608   5.193   6.912
 4512SOL    HW214436   2.458   5.162   6.967
 4513SOL     OW14437   4.970   0.775   1.926
 4513SOL    HW114438   4.978   0.678   1.947
 4513SOL    HW214439   5.024   0.796   1.844
 4514SOL     OW14440   3.733   1.530   4.897
 4514SOL    HW114441   3.672   1.541   4.819
 4514SOL    HW214442   3.828   1.540   4.866
 4515SOL     OW14443   0.414   5.076   1.233
 4515SOL    HW114444   0.321   5.114   1.240
 4515SOL    HW214445   0.422   4.996   1.293
 4516SOL     OW14446   1.183   0.511   4.905
 4516SOL    HW114447   1.085   0.527   4.905
 4516SOL    HW214448   1.218   0.512   4.999
 4517SOL     OW14449   3.504   6.922   5.305
 4517SOL    HW114450   3.578   6.855   5.304
 4517SOL    HW214451   3.424   6.885   5.260
 4518SOL     OW14452   1.166   1.869   4.370
 4518SOL    HW114453   1.191   1.960   4.337
 4518SOL    HW214454   1.069   1.869   4.398
 4519SOL     OW14455   6.381   2.866   4.004
 4519SOL    HW114456   6.432   2.822   4.077
 4519SOL    HW214457   6.367   2.963   4.025
 4520SOL     OW14458   6.809   3.906   2.773
 4520SOL    HW114459   6.826   3.966   2.695
 4520SOL    HW214460   6.833   3.812   2.749
 4521SOL     OW14461   6.018   2.013   6.565
 4521SOL    HW114462   6.060   2.082   6.624
 4521SOL    HW214463   5.921   2.005   6.585
 4522SOL     OW14464   5.969   0.680   3.945
 4522SOL    HW114465   5.884   0.627   3.941
 4522SOL    HW214466   6.041   0.624   3.984
 4523SOL     OW14467   3.761   3.391   0.096
 4523SOL    HW114468   3.759   3.481   0.140
 4523SOL    HW214469   3.810   3.326   0.155
 4524SOL     OW14470   5.950   6.834   4.806
 4524SOL    HW114471   6.020   6.813   4.737
 4524SOL    HW214472   5.928   6.931   4.802
 4525SOL     OW14473   6.850   1.552   4.945
 4525SOL    HW114474   6.906   1.620   4.992
 4525SOL    HW214475   6.788   1.508   5.010
 4526SOL     OW14476   4.269   0.553   0.941
 4526SOL    HW114477   4.233   0.645   0.926
 4526SOL    HW214478   4.318   0.550   1.029
 4527SOL     OW14479   4.878   0.962   2.894
 4527SOL    HW114480   4.788   0.928   2.923
 4527SOL    HW214481   4.885   1.060   2.913
 4528SOL     OW14482   6.183   0.285   6.745
 4528SOL    HW114483   6.122   0.364   6.741
 4528SOL    HW214484   6.140   0.208   6.697
 4529SOL     OW14485   3.609   6.484   2.850
 4529SOL    HW114486   3.614   6.440   2.760
 4529SOL    HW214487   3.625   6.416   2.921
 4530SOL     OW14488   0.526   3.512   5.603
 4530SOL    HW114489   0.577   3.450   5.544
 4530SOL    HW214490   0.576   3.527   5.688
 4531SOL     OW14491   0.075   3.954   4.125
 4531SOL    HW114492   0.174   3.940   4.118
 4531SOL    HW214493   0.029   3.866   4.121
 4532SOL     OW14494   6.077   1.900   1.079
 4532SOL    HW114495   6.109   1.994   1.091
 4532SOL    HW214496   6.100   1.846   1.160
 4533SOL     OW14497   2.752   6.425   2.523
 4533SOL    HW114498   2.653   6.408   2.531
 4533SOL    HW214499   2.781   6.484   2.598
 4534SOL     OW14500   5.966   4.002   5.656
 4534SOL    HW114501   5.909   3.978   5.577
 4534SOL    HW214502   6.031   4.073   5.630
 4535SOL     OW14503   4.954   2.883   1.867
 4535SOL    HW114504   4.873   2.932   1.899
 4535SOL    HW214505   4.943   2.785   1.883
 4536SOL     OW14506   6.582   1.135   4.344
 4536SOL    HW114507   6.655   1.078   4.307
 4536SOL    HW214508   6.494   1.089   4.329
 4537SOL     OW14509   3.569   2.967   6.380
 4537SOL    HW114510   3.469   2.972   6.385
 4537SOL    HW214511   3.599   2.877   6.412
 4538SOL     OW14512   3.025   1.114   2.762
 4538SOL    HW114513   3.109   1.127   2.815
 4538SOL    HW214514   3.038   1.149   2.669
 4539SOL     OW14515   1.714   1.533   2.803
 4539SOL    HW114516   1.812   1.532   2.820
 4539SOL    HW214517   1.684   1.626   2.782
 4540SOL     OW14518   3.470   2.912   4.648
 4540SOL    HW114519   3.543   2.848   4.670
 4540SOL    HW214520   3.413   2.927   4.729
 4541SOL     OW14521   4.981   1.550   1.410
 4541SOL    HW114522   5.070   1.590   1.431
 4541SOL    HW214523   4.969   1.467   1.464
 4542SOL     OW14524   4.566   0.480   3.082
 4542SOL    HW114525   4.656   0.441   3.061
 4542SOL    HW214526   4.547   0.471   3.179
 4543SOL     OW14527   5.720   1.703   1.866
 4543SOL    HW114528   5.766   1.790   1.849
 4543SOL    HW214529   5.621   1.718   1.870
 4544SOL     OW14530   3.717   4.886   6.330
 4544SOL    HW114531   3.741   4.826   6.254
 4544SOL    HW214532   3.711   4.981   6.298
 4545SOL     OW14533   4.059   2.155   5.477
 4545SOL    HW114534   4.156   2.159   5.504
 4545SOL    HW214535   4.043   2.070   5.427
 4546SOL     OW14536   1.302   6.493   6.049
 4546SOL    HW114537   1.377   6.557   6.036
 4546SOL    HW214538   1.241   6.495   5.970
 4547SOL     OW14539   4.558   1.819   2.114
 4547SOL    HW114540   4.504   1.734   2.111
 4547SOL    HW214541   4.537   1.868   2.199
 4548SOL     OW14542   0.930   3.276   3.763
 4548SOL    HW114543   0.968   3.248   3.675
 4548SOL    HW214544   0.998   3.263   3.835
 4549SOL     OW14545   6.389   2.806   2.700
 4549SOL    HW114546   6.387   2.767   2.792
 4549SOL    HW214547   6.359   2.736   2.634
 4550SOL     OW14548   1.245   5.959   4.252
 4550SOL    HW114549   1.250   5.906   4.337
 4550SOL    HW214550   1.322   5.934   4.193
 4551SOL     OW14551   1.013   2.894   5.806
 4551SOL    HW114552   0.951   2.970   5.828
 4551SOL    HW214553   1.012   2.829   5.882
 4552SOL     OW14554   0.159   3.359   4.737
 4552SOL    HW114555   0.075   3.329   4.694
 4552SOL    HW214556   0.224   3.388   4.667
 4553SOL     OW14557   4.882   4.843   0.335
 4553SOL    HW114558   4.876   4.760   0.280
 4553SOL    HW214559   4.974   4.851   0.373
 4554SOL     OW14560   5.195   6.952   2.630
 4554SOL    HW114561   5.122   7.015   2.601
 4554SOL    HW214562   5.154   6.866   2.660
 4555SOL     OW14563   5.332   1.874   6.929
 4555SOL    HW114564   5.395   1.799   6.950
 4555SOL    HW214565   5.239   1.837   6.920
 4556SOL     OW14566   4.918   1.165   4.194
 4556SOL    HW114567   4.900   1.073   4.159
 4556SOL    HW214568   4.869   1.231   4.138
 4557SOL     OW14569   4.986   0.154   5.514
 4557SOL    HW114570   4.970   0.143   5.612
 4557SOL    HW214571   4.999   0.065   5.472
 4558SOL     OW14572   6.352   2.830   6.328
 4558SOL    HW114573   6.374   2.895   6.401
 4558SOL    HW214574   6.264   2.854   6.287
 4559SOL     OW14575   1.230   6.983   1.052
 4559SOL    HW114576   1.328   6.999   1.037
 4559SOL    HW214577   1.177   0.038   1.013
 4560SOL     OW14578   4.943   3.445   2.845
 4560SOL    HW114579   4.893   3.527   2.871
 4560SOL    HW214580   4.888   3.364   2.867
 4561SOL     OW14581   2.980   0.203   6.512
 4561SOL    HW114582   2.974   0.272   6.440
 4561SOL    HW214583   3.067   0.213   6.561
 4562SOL     OW14584   3.009   4.847   6.433
 4562SOL    HW114585   2.931   4.849   6.370
 4562SOL    HW214586   3.056   4.935   6.430
 4563SOL     OW14587   6.197   2.527   6.624
 4563SOL    HW114588   6.221   2.464   6.698
 4563SOL    HW214589   6.272   2.531   6.557
 4564SOL     OW14590   1.427   5.668   0.254
 4564SOL    HW114591   1.405   5.574   0.279
 4564SOL    HW214592   1.438   5.674   0.155
 4565SOL     OW14593   2.603   0.290   5.260
 4565SOL    HW114594   2.512   0.281   5.220
 4565SOL    HW214595   2.649   0.370   5.220
 4566SOL     OW14596   6.972   1.772   6.588
 4566SOL    HW114597   0.010   1.717   6.529
 4566SOL    HW214598   7.004   1.766   6.682
 4567SOL     OW14599   0.248   1.019   0.682
 4567SOL    HW114600   0.330   1.002   0.736
 4567SOL    HW214601   0.245   1.115   0.655
 4568SOL     OW14602   3.851   4.466   5.340
 4568SOL    HW114603   3.899   4.491   5.424
 4568SOL    HW214604   3.814   4.549   5.296
 4569SOL     OW14605   0.485   2.109   4.864
 4569SOL    HW114606   0.413   2.157   4.815
 4569SOL    HW214607   0.565   2.098   4.805
 4570SOL     OW14608   0.793   5.064   3.836
 4570SOL    HW114609   0.811   5.118   3.918
 4570SOL    HW214610   0.755   5.124   3.765
 4571SOL     OW14611   3.402   2.987   4.891
 4571SOL    HW114612   3.468   2.963   4.962
 4571SOL    HW214613   3.392   3.087   4.888
 4572SOL     OW14614   1.607   6.100   1.063
 4572SOL    HW114615   1.536   6.068   1.000
 4572SOL    HW214616   1.687   6.128   1.011
 4573SOL     OW14617   4.959   6.980   0.944
 4573SOL    HW114618   5.035   0.024   0.955
 4573SOL    HW214619   4.975   6.924   0.862
 4574SOL     OW14620   0.417   4.411   2.413
 4574SOL    HW114621   0.375   4.321   2.411
 4574SOL    HW214622   0.516   4.403   2.397
 4575SOL     OW14623   6.167   0.253   2.900
 4575SOL    HW114624   6.080   0.257   2.850
 4575SOL    HW214625   6.193   0.345   2.929
 4576SOL     OW14626   2.818   5.609   5.318
 4576SOL    HW114627   2.796   5.706   5.322
 4576SOL    HW214628   2.877   5.592   5.239
 4577SOL     OW14629   0.855   3.007   3.477
 4577SOL    HW114630   0.920   3.083   3.485
 4577SOL    HW214631   0.901   2.928   3.436
 4578SOL     OW14632   6.466   4.100   3.794
 4578SOL    HW114633   6.563   4.122   3.793
 4578SOL    HW214634   6.434   4.099   3.889
 4579SOL     OW14635   5.724   1.817   3.855
 4579SOL    HW114636   5.739   1.906   3.812
 4579SOL    HW214637   5.755   1.744   3.794
 4580SOL     OW14638   0.022   5.795   0.867
 4580SOL    HW114639   6.961   5.826   0.917
 4580SOL    HW214640   0.041   5.700   0.890
 4581SOL     OW14641   3.660   5.855   2.975
 4581SOL    HW114642   3.574   5.845   2.927
 4581SOL    HW214643   3.691   5.950   2.970
 4582SOL     OW14644   4.608   6.535   2.125
 4582SOL    HW114645   4.588   6.620   2.175
 4582SOL    HW214646   4.530   6.473   2.133
 4583SOL     OW14647   4.468   1.548   5.761
 4583SOL    HW114648   4.401   1.610   5.719
 4583SOL    HW214649   4.435   1.454   5.756
 4584SOL     OW14650   0.426   5.544   5.352
 4584SOL    HW114651   0.416   5.576   5.446
 4584SOL    HW214652   0.386   5.453   5.344
 4585SOL     OW14653   4.068   6.381   2.579
 4585SOL    HW114654   3.979   6.423   2.590
 4585SOL    HW214655   4.124   6.398   2.661
 4586SOL     OW14656   3.335   5.162   2.596
 4586SOL    HW114657   3.236   5.176   2.601
 4586SOL    HW214658   3.358   5.075   2.639
 4587SOL     OW14659   1.905   4.132   1.791
 4587SOL    HW114660   1.861   4.157   1.877
 4587SOL    HW214661   1.906   4.211   1.730
 4588SOL     OW14662   4.222   3.624   5.235
 4588SOL    HW114663   4.211   3.629   5.136
 4588SOL    HW214664   4.168   3.696   5.278
 4589SOL     OW14665   6.623   2.428   4.704
 4589SOL    HW114666   6.537   2.424   4.754
 4589SOL    HW214667   6.657   2.335   4.689
 4590SOL     OW14668   4.817   5.622   2.440
 4590SOL    HW114669   4.849   5.668   2.357
 4590SOL    HW214670   4.833   5.523   2.432
 4591SOL     OW14671   5.490   6.018   5.467
 4591SOL    HW114672   5.453   6.107   5.493
 4591SOL    HW214673   5.419   5.948   5.475
 4592SOL     OW14674   3.928   2.080   6.326
 4592SOL    HW114675   3.882   2.010   6.271
 4592SOL    HW214676   3.888   2.082   6.418
 4593SOL     OW14677   3.848   6.000   2.780
 4593SOL    HW114678   3.872   5.909   2.813
 4593SOL    HW214679   3.928   6.060   2.785
 4594SOL     OW14680   2.622   0.758   1.733
 4594SOL    HW114681   2.644   0.661   1.746
 4594SOL    HW214682   2.523   0.768   1.719
 4595SOL     OW14683   3.912   2.551   5.955
 4595SOL    HW114684   3.934   2.648   5.963
 4595SOL    HW214685   3.937   2.504   6.040
 4596SOL     OW14686   5.609   0.123   1.663
 4596SOL    HW114687   5.527   0.174   1.689
 4596SOL    HW214688   5.680   0.188   1.633
 4597SOL     OW14689   6.269   4.847   6.786
 4597SOL    HW114690   6.198   4.899   6.833
 4597SOL    HW214691   6.310   4.781   6.850
 4598SOL     OW14692   2.736   4.602   6.898
 4598SOL    HW114693   2.832   4.607   6.871
 4598SOL    HW214694   2.705   4.507   6.892
 4599SOL     OW14695   1.286   4.605   0.376
 4599SOL    HW114696   1.313   4.686   0.324
 4599SOL    HW214697   1.286   4.626   0.473
 4600SOL     OW14698   3.178   5.671   1.279
 4600SOL    HW114699   3.276   5.686   1.269
 4600SOL    HW214700   3.129   5.757   1.264
 4601SOL     OW14701   2.095   6.149   5.046
 4601SOL    HW114702   2.044   6.088   4.984
 4601SOL    HW214703   2.148   6.214   4.991
 4602SOL     OW14704   1.748   0.577   1.101
 4602SOL    HW114705   1.777   0.657   1.154
 4602SOL    HW214706   1.653   0.590   1.071
 4603SOL     OW14707   3.591   6.552   1.621
 4603SOL    HW114708   3.539   6.594   1.546
 4603SOL    HW214709   3.540   6.474   1.657
 4604SOL     OW14710   3.306   6.536   2.267
 4604SOL    HW114711   3.333   6.630   2.250
 4604SOL    HW214712   3.279   6.526   2.363
 4605SOL     OW14713   5.043   6.884   4.803
 4605SOL    HW114714   5.122   6.938   4.834
 4605SOL    HW214715   4.961   6.915   4.851
 4606SOL     OW14716   6.994   6.197   5.506
 4606SOL    HW114717   6.907   6.204   5.554
 4606SOL    HW214718   0.049   6.207   5.571
 4607SOL     OW14719   3.052   2.067   1.162
 4607SOL    HW114720   2.963   2.049   1.120
 4607SOL    HW214721   3.039   2.122   1.244
 4608SOL     OW14722   1.585   3.890   5.492
 4608SOL    HW114723   1.546   3.977   5.461
 4608SOL    HW214724   1.556   3.817   5.431
 4609SOL     OW14725   4.567   6.536   6.626
 4609SOL    HW114726   4.482   6.486   6.645
 4609SOL    HW214727   4.589   6.594   6.704
 4610SOL     OW14728   0.589   3.127   6.543
 4610SOL    HW114729   0.579   3.064   6.621
 4610SOL    HW214730   0.523   3.102   6.473
 4611SOL     OW14731   0.736   4.133   0.194
 4611SOL    HW114732   0.650   4.140   0.145
 4611SOL    HW214733   0.742   4.043   0.237
 4612SOL     OW14734   2.295   6.781   6.708
 4612SOL    HW114735   2.276   6.878   6.693
 4612SOL    HW214736   2.345   6.744   6.630
 4613SOL     OW14737   3.212   5.098   1.921
 4613SOL    HW114738   3.266   5.028   1.968
 4613SOL    HW214739   3.268   5.179   1.906
 4614SOL     OW14740   1.490   5.719   7.014
 4614SOL    HW114741   1.429   5.705   6.936
 4614SOL    HW214742   1.582   5.738   6.981
 4615SOL     OW14743   0.239   2.441   0.307
 4615SOL    HW114744   0.140   2.452   0.314
 4615SOL    HW214745   0.277   2.511   0.247
 4616SOL     OW14746   5.823   0.967   6.697
 4616SOL    HW114747   5.848   0.909   6.620
 4616SOL    HW214748   5.773   1.047   6.663
 4617SOL     OW14749   0.330   2.759   2.363
 4617SOL    HW114750   0.295   2.839   2.411
 4617SOL    HW214751   0.403   2.787   2.301
 4618SOL     OW14752   0.855   2.207   6.058
 4618SOL    HW114753   0.790   2.171   5.991
 4618SOL    HW214754   0.936   2.148   6.061
 4619SOL     OW14755   3.552   0.726   3.790
 4619SOL    HW114756   3.545   0.673   3.875
 4619SOL    HW214757   3.539   0.823   3.811
 4620SOL     OW14758   2.307   3.911   6.501
 4620SOL    HW114759   2.365   3.839   6.539
 4620SOL    HW214760   2.335   3.999   6.539
 4621SOL     OW14761   0.046   5.957   6.531
 4621SOL    HW114762   0.070   5.936   6.625
 4621SOL    HW214763   6.982   6.011   6.529
 4622SOL     OW14764   2.342   3.983   1.389
 4622SOL    HW114765   2.315   3.933   1.470
 4622SOL    HW214766   2.437   4.011   1.396
 4623SOL     OW14767   5.992   4.377   2.063
 4623SOL    HW114768   5.982   4.397   2.160
 4623SOL    HW214769   5.984   4.462   2.010
 4624SOL     OW14770   4.765   6.601   4.957
 4624SOL    HW114771   4.737   6.561   4.870
 4624SOL    HW214772   4.683   6.631   5.008
 4625SOL     OW14773   0.807   3.390   6.834
 4625SOL    HW114774   0.852   3.475   6.807
 4625SOL    HW214775   0.776   3.398   6.928
 4626SOL     OW14776   6.394   5.298   1.463
 4626SOL    HW114777   6.412   5.362   1.387
 4626SOL    HW214778   6.399   5.204   1.429
 4627SOL     OW14779   3.074   0.008   6.292
 4627SOL    HW114780   3.152   6.997   6.347
 4627SOL    HW214781   3.022   0.075   6.345
 4628SOL     OW14782   0.287   3.761   1.886
 4628SOL    HW114783   0.290   3.711   1.972
 4628SOL    HW214784   0.193   3.785   1.864
 4629SOL     OW14785   2.646   5.089   5.561
 4629SOL    HW114786   2.746   5.096   5.554
 4629SOL    HW214787   2.622   4.995   5.584
 4630SOL     OW14788   1.768   6.798   2.698
 4630SOL    HW114789   1.717   6.824   2.780
 4630SOL    HW214790   1.856   6.845   2.697
 4631SOL     OW14791   3.199   6.967   2.451
 4631SOL    HW114792   3.172   6.871   2.458
 4631SOL    HW214793   3.177   7.001   2.360
 4632SOL     OW14794   5.172   5.644   4.011
 4632SOL    HW114795   5.180   5.578   3.936
 4632SOL    HW214796   5.232   5.618   4.086
 4633SOL     OW14797   6.489   2.380   5.003
 4633SOL    HW114798   6.456   2.290   5.033
 4633SOL    HW214799   6.499   2.441   5.081
 4634SOL     OW14800   3.274   4.192   0.685
 4634SOL    HW114801   3.195   4.135   0.709
 4634SOL    HW214802   3.291   4.186   0.587
 4635SOL     OW14803   5.471   3.955   1.670
 4635SOL    HW114804   5.556   3.903   1.664
 4635SOL    HW214805   5.406   3.920   1.603
 4636SOL     OW14806   2.264   4.936   0.636
 4636SOL    HW114807   2.266   4.939   0.536
 4636SOL    HW214808   2.257   4.842   0.668
 4637SOL     OW14809   1.488   1.010   5.303
 4637SOL    HW114810   1.487   1.101   5.261
 4637SOL    HW214811   1.497   0.940   5.232
 4638SOL     OW14812   5.264   3.452   5.466
 4638SOL    HW114813   5.196   3.513   5.506
 4638SOL    HW214814   5.217   3.381   5.413
 4639SOL     OW14815   6.945   3.991   5.071
 4639SOL    HW114816   6.864   3.971   5.015
 4639SOL    HW214817   6.920   4.050   5.147
 4640SOL     OW14818   5.936   3.910   2.566
 4640SOL    HW114819   5.836   3.913   2.576
 4640SOL    HW214820   5.969   3.997   2.531
 4641SOL     OW14821   2.109   4.912   5.442
 4641SOL    HW114822   2.168   4.832   5.431
 4641SOL    HW214823   2.134   4.981   5.374
 4642SOL     OW14824   5.517   6.171   4.109
 4642SOL    HW114825   5.454   6.188   4.033
 4642SOL    HW214826   5.480   6.215   4.191
 4643SOL     OW14827   4.105   1.770   1.296
 4643SOL    HW114828   4.017   1.807   1.264
 4643SOL    HW214829   4.147   1.836   1.359
 4644SOL     OW14830   2.007   5.573   4.929
 4644SOL    HW114831   1.961   5.486   4.949
 4644SOL    HW214832   2.063   5.599   5.007
 4645SOL     OW14833   1.948   5.988   4.883
 4645SOL    HW114834   1.852   5.974   4.907
 4645SOL    HW214835   1.987   5.901   4.853
 4646SOL     OW14836   3.823   0.232   1.500
 4646SOL    HW114837   3.752   0.222   1.570
 4646SOL    HW214838   3.789   0.199   1.412
 4647SOL     OW14839   6.683   0.423   4.720
 4647SOL    HW114840   6.663   0.352   4.788
 4647SOL    HW214841   6.695   0.380   4.630
 4648SOL     OW14842   2.303   5.940   2.926
 4648SOL    HW114843   2.309   5.989   3.013
 4648SOL    HW214844   2.222   5.970   2.876
 4649SOL     OW14845   5.970   0.033   5.784
 4649SOL    HW114846   5.966   0.050   5.883
 4649SOL    HW214847   5.931   0.111   5.735
 4650SOL     OW14848   6.333   4.586   2.233
 4650SOL    HW114849   6.395   4.582   2.312
 4650SOL    HW214850   6.349   4.671   2.182
 4651SOL     OW14851   7.017   2.429   1.680
 4651SOL    HW114852   0.062   2.432   1.756
 4651SOL    HW214853   0.045   2.447   1.594
 4652SOL     OW14854   0.079   6.075   6.192
 4652SOL    HW114855   0.073   6.150   6.126
 4652SOL    HW214856   7.007   6.052   6.225
 4653SOL     OW14857   0.466   5.897   6.958
 4653SOL    HW114858   0.508   5.969   7.013
 4653SOL    HW214859   0.479   5.809   7.002
 4654SOL     OW14860   1.153   1.043   6.867
 4654SOL    HW114861   1.152   1.065   6.964
 4654SOL    HW214862   1.148   1.127   6.813
 4655SOL     OW14863   0.197   5.024   3.454
 4655SOL    HW114864   0.105   5.049   3.487
 4655SOL    HW214865   0.244   5.106   3.423
 4656SOL     OW14866   1.730   6.507   3.376
 4656SOL    HW114867   1.664   6.543   3.441
 4656SOL    HW214868   1.823   6.524   3.409
 4657SOL     OW14869   6.148   0.399   0.416
 4657SOL    HW114870   6.074   0.355   0.366
 4657SOL    HW214871   6.195   0.465   0.357
 4658SOL     OW14872   5.527   0.549   3.538
 4658SOL    HW114873   5.577   0.573   3.621
 4658SOL    HW214874   5.591   0.514   3.469
 4659SOL     OW14875   2.103   2.372   5.028
 4659SOL    HW114876   2.081   2.321   5.111
 4659SOL    HW214877   2.024   2.370   4.967
 4660SOL     OW14878   0.187   0.483   6.106
 4660SOL    HW114879   0.181   0.383   6.102
 4660SOL    HW214880   0.094   0.521   6.110
 4661SOL     OW14881   4.130   3.728   3.539
 4661SOL    HW114882   4.068   3.805   3.553
 4661SOL    HW214883   4.222   3.754   3.568
 4662SOL     OW14884   4.846   0.537   5.220
 4662SOL    HW114885   4.782   0.614   5.230
 4662SOL    HW214886   4.813   0.460   5.274
 4663SOL     OW14887   0.238   2.139   2.663
 4663SOL    HW114888   0.309   2.201   2.696
 4663SOL    HW214889   0.150   2.164   2.704
 4664SOL     OW14890   3.057   2.097   6.624
 4664SOL    HW114891   3.156   2.106   6.610
 4664SOL    HW214892   3.017   2.188   6.636
 4665SOL     OW14893   5.643   0.641   0.224
 4665SOL    HW114894   5.625   0.738   0.210
 4665SOL    HW214895   5.556   0.593   0.239
 4666SOL     OW14896   2.018   1.219   0.800
 4666SOL    HW114897   2.116   1.206   0.814
 4666SOL    HW214898   1.990   1.306   0.841
 4667SOL     OW14899   0.756   5.586   6.114
 4667SOL    HW114900   0.828   5.528   6.076
 4667SOL    HW214901   0.669   5.536   6.113
 4668SOL     OW14902   6.464   1.824   3.926
 4668SOL    HW114903   6.393   1.851   3.991
 4668SOL    HW214904   6.513   1.744   3.962
 4669SOL     OW14905   2.544   0.302   0.642
 4669SOL    HW114906   2.599   0.384   0.660
 4669SOL    HW214907   2.530   0.252   0.728
 4670SOL     OW14908   2.132   1.543   3.964
 4670SOL    HW114909   2.170   1.630   3.994
 4670SOL    HW214910   2.153   1.529   3.867
 4671SOL     OW14911   5.621   3.749   0.973
 4671SOL    HW114912   5.536   3.797   0.996
 4671SOL    HW214913   5.653   3.780   0.883
 4672SOL     OW14914   2.158   3.700   5.729
 4672SOL    HW114915   2.220   3.622   5.736
 4672SOL    HW214916   2.201   3.773   5.676
 4673SOL     OW14917   4.168   0.642   2.938
 4673SOL    HW114918   4.167   0.714   2.867
 4673SOL    HW214919   4.079   0.639   2.983
 4674SOL     OW14920   4.590   6.013   6.370
 4674SOL    HW114921   4.655   5.999   6.296
 4674SOL    HW214922   4.592   6.109   6.399
 4675SOL     OW14923   0.620   4.338   6.986
 4675SOL    HW114924   0.588   4.400   0.037
 4675SOL    HW214925   0.704   4.293   7.016
 4676SOL     OW14926   0.851   5.704   4.033
 4676SOL    HW114927   0.872   5.608   4.014
 4676SOL    HW214928   0.936   5.756   4.036
 4677SOL     OW14929   1.445   3.035   0.326
 4677SOL    HW114930   1.406   3.048   0.235
 4677SOL    HW214931   1.473   3.124   0.363
 4678SOL     OW14932   2.498   4.559   2.321
 4678SOL    HW114933   2.487   4.569   2.420
 4678SOL    HW214934   2.587   4.594   2.294
 4679SOL     OW14935   5.007   7.016   1.597
 4679SOL    HW114936   4.994   0.073   1.658
 4679SOL    HW214937   4.951   6.939   1.629
 4680SOL     OW14938   2.185   1.342   1.604
 4680SOL    HW114939   2.113   1.312   1.540
 4680SOL    HW214940   2.155   1.325   1.698
 4681SOL     OW14941   4.951   4.775   1.293
 4681SOL    HW114942   4.978   4.694   1.345
 4681SOL    HW214943   4.971   4.857   1.346
 4682SOL     OW14944   3.905   3.682   6.810
 4682SOL    HW114945   3.885   3.766   6.759
 4682SOL    HW214946   3.950   3.705   6.896
 4683SOL     OW14947   6.263   4.475   3.502
 4683SOL    HW114948   6.228   4.385   3.476
 4683SOL    HW214949   6.189   4.542   3.500
 4684SOL     OW14950   5.197   6.853   6.834
 4684SOL    HW114951   5.238   6.844   6.924
 4684SOL    HW214952   5.235   6.783   6.773
 4685SOL     OW14953   2.984   3.310   5.884
 4685SOL    HW114954   3.035   3.278   5.804
 4685SOL    HW214955   2.894   3.341   5.856
 4686SOL     OW14956   2.953   5.278   0.026
 4686SOL    HW114957   3.052   5.289   0.035
 4686SOL    HW214958   2.926   5.294   6.951
 4687SOL     OW14959   2.761   1.047   3.335
 4687SOL    HW114960   2.667   1.075   3.312
 4687SOL    HW214961   2.803   1.005   3.254
 4688SOL     OW14962   5.663   3.152   5.473
 4688SOL    HW114963   5.719   3.094   5.532
 4688SOL    HW214964   5.637   3.102   5.391
 4689SOL     OW14965   5.609   1.378   1.755
 4689SOL    HW114966   5.679   1.375   1.827
 4689SOL    HW214967   5.652   1.399   1.668
 4690SOL     OW14968   2.375   1.947   0.587
 4690SOL    HW114969   2.465   1.957   0.545
 4690SOL    HW214970   2.335   1.859   0.561
 4691SOL     OW14971   6.882   4.161   2.159
 4691SOL    HW114972   6.967   4.113   2.182
 4691SOL    HW214973   6.823   4.162   2.240
 4692SOL     OW14974   5.534   3.929   2.181
 4692SOL    HW114975   5.577   4.018   2.162
 4692SOL    HW214976   5.437   3.933   2.156
 4693SOL     OW14977   2.037   1.120   3.897
 4693SOL    HW114978   1.969   1.050   3.916
 4693SOL    HW214979   2.104   1.123   3.971
 4694SOL     OW14980   1.895   1.161   0.254
 4694SOL    HW114981   1.885   1.218   0.335
 4694SOL    HW214982   1.809   1.161   0.202
 4695SOL     OW14983   0.974   6.061   1.597
 4695SOL    HW114984   1.014   6.152   1.595
 4695SOL    HW214985   0.902   6.054   1.528
 4696SOL     OW14986   1.178   5.443   5.784
 4696SOL    HW114987   1.145   5.445   5.690
 4696SOL    HW214988   1.117   5.496   5.842
 4697SOL     OW14989   3.670   4.896   0.911
 4697SOL    HW114990   3.728   4.931   0.985
 4697SOL    HW214991   3.585   4.862   0.949
 4698SOL     OW14992   5.568   1.193   3.263
 4698SOL    HW114993   5.567   1.105   3.310
 4698SOL    HW214994   5.657   1.236   3.274
 4699SOL     OW14995   1.185   0.048   2.826
 4699SOL    HW114996   1.092   0.022   2.798
 4699SOL    HW214997   1.249   0.028   2.752
 4700SOL     OW14998   6.430   2.103   2.619
 4700SOL    HW114999   6.347   2.102   2.562
 4700SOL    HW215000   6.510   2.096   2.560
 4701SOL     OW15001   3.253   2.175   1.820
 4701SOL    HW115002   3.260   2.263   1.773
 4701SOL    HW215003   3.339   2.125   1.810
 4702SOL     OW15004   5.615   4.525   6.534
 4702SOL    HW115005   5.706   4.485   6.544
 4702SOL    HW215006   5.551   4.455   6.501
 4703SOL     OW15007   0.773   5.250   3.564
 4703SOL    HW115008   0.855   5.216   3.519
 4703SOL    HW215009   0.716   5.301   3.498
 4704SOL     OW15010   1.144   4.701   5.101
 4704SOL    HW115011   1.091   4.620   5.123
 4704SOL    HW215012   1.083   4.781   5.096
 4705SOL     OW15013   3.360   2.364   1.589
 4705SOL    HW115014   3.444   2.326   1.626
 4705SOL    HW215015   3.378   2.406   1.500
 4706SOL     OW15016   2.128   0.353   0.445
 4706SOL    HW115017   2.227   0.361   0.434
 4706SOL    HW215018   2.096   0.270   0.399
 4707SOL     OW15019   1.879   5.744   1.593
 4707SOL    HW115020   1.973   5.778   1.601
 4707SOL    HW215021   1.879   5.645   1.597
 4708SOL     OW15022   0.787   3.072   4.351
 4708SOL    HW115023   0.822   2.984   4.319
 4708SOL    HW215024   0.695   3.088   4.313
 4709SOL     OW15025   4.784   3.784   5.321
 4709SOL    HW115026   4.724   3.863   5.323
 4709SOL    HW215027   4.767   3.730   5.239
 4710SOL     OW15028   6.197   6.413   4.452
 4710SOL    HW115029   6.229   6.403   4.358
 4710SOL    HW215030   6.182   6.323   4.492
 4711SOL     OW15031   5.652   3.290   3.255
 4711SOL    HW115032   5.728   3.315   3.196
 4711SOL    HW215033   5.625   3.369   3.310
 4712SOL     OW15034   4.545   3.996   5.282
 4712SOL    HW115035   4.543   4.062   5.357
 4712SOL    HW215036   4.457   3.950   5.276
 4713SOL     OW15037   6.172   4.320   1.317
 4713SOL    HW115038   6.091   4.270   1.349
 4713SOL    HW215039   6.222   4.263   1.251
 4714SOL     OW15040   5.617   1.369   6.110
 4714SOL    HW115041   5.648   1.446   6.055
 4714SOL    HW215042   5.530   1.392   6.154
 4715SOL     OW15043   6.367   1.353   1.856
 4715SOL    HW115044   6.393   1.348   1.760
 4715SOL    HW215045   6.332   1.445   1.877
 4716SOL     OW15046   3.803   4.280   6.019
 4716SOL    HW115047   3.704   4.270   6.007
 4716SOL    HW215048   3.839   4.339   5.946
 4717SOL     OW15049   2.714   5.321   5.026
 4717SOL    HW115050   2.775   5.241   5.028
 4717SOL    HW215051   2.639   5.304   4.962
 4718SOL     OW15052   4.853   4.451   0.379
 4718SOL    HW115053   4.855   4.526   0.313
 4718SOL    HW215054   4.931   4.391   0.363
 4719SOL     OW15055   0.033   4.127   3.903
 4719SOL    HW115056   0.028   4.069   3.985
 4719SOL    HW215057   0.089   4.207   3.923
 4720SOL     OW15058   2.718   3.874   0.087
 4720SOL    HW115059   2.797   3.883   0.025
 4720SOL    HW215060   2.737   3.922   0.173
 4721SOL     OW15061   6.125   3.220   3.591
 4721SOL    HW115062   6.190   3.202   3.665
 4721SOL    HW215063   6.057   3.146   3.588
 4722SOL     OW15064   1.843   4.416   6.851
 4722SOL    HW115065   1.794   4.354   6.912
 4722SOL    HW215066   1.849   4.375   6.760
 4723SOL     OW15067   3.765   4.110   6.836
 4723SOL    HW115068   3.773   4.191   6.893
 4723SOL    HW215069   3.762   4.137   6.739
 4724SOL     OW15070   1.207   6.679   4.700
 4724SOL    HW115071   1.112   6.652   4.687
 4724SOL    HW215072   1.213   6.743   4.776
 4725SOL     OW15073   5.024   6.001   0.329
 4725SOL    HW115074   4.976   6.044   0.252
 4725SOL    HW215075   4.961   5.940   0.377
 4726SOL     OW15076   1.172   3.235   5.675
 4726SOL    HW115077   1.208   3.302   5.741
 4726SOL    HW215078   1.228   3.153   5.678
 4727SOL     OW15079   0.786   5.635   0.768
 4727SOL    HW115080   0.743   5.705   0.826
 4727SOL    HW215081   0.812   5.676   0.680
 4728SOL     OW15082   6.506   1.933   4.895
 4728SOL    HW115083   6.454   1.968   4.973
 4728SOL    HW215084   6.487   1.835   4.884
 4729SOL     OW15085   5.888   1.174   1.832
 4729SOL    HW115086   5.862   1.228   1.912
 4729SOL    HW215087   5.977   1.131   1.848
 4730SOL     OW15088   3.253   6.947   5.069
 4730SOL    HW115089   3.331   6.991   5.022
 4730SOL    HW215090   3.210   7.014   5.130
 4731SOL     OW15091   3.552   0.246   0.292
 4731SOL    HW115092   3.605   0.237   0.377
 4731SOL    HW215093   3.599   0.309   0.230
 4732SOL     OW15094   0.165   4.811   3.991
 4732SOL    HW115095   0.146   4.906   3.965
 4732SOL    HW215096   0.196   4.761   3.910
 4733SOL     OW15097   1.910   3.798   3.327
 4733SOL    HW115098   1.912   3.798   3.427
 4733SOL    HW215099   1.996   3.761   3.293
 4734SOL     OW15100   4.974   3.279   0.034
 4734SOL    HW115101   4.928   3.343   6.993
 4734SOL    HW215102   4.997   3.326   0.119
 4735SOL     OW15103   6.964   0.178   5.253
 4735SOL    HW115104   6.868   0.173   5.225
 4735SOL    HW215105   0.003   0.171   5.173
 4736SOL     OW15106   6.882   2.046   3.513
 4736SOL    HW115107   6.836   2.002   3.436
 4736SOL    HW215108   6.827   2.036   3.596
 4737SOL     OW15109   2.417   4.448   1.038
 4737SOL    HW115110   2.388   4.393   1.117
 4737SOL    HW215111   2.342   4.452   0.972
 4738SOL     OW15112   1.818   6.387   3.741
 4738SOL    HW115113   1.844   6.400   3.837
 4738SOL    HW215114   1.823   6.475   3.693
 4739SOL     OW15115   5.690   3.415   3.845
 4739SOL    HW115116   5.693   3.514   3.861
 4739SOL    HW215117   5.596   3.385   3.833
 4740SOL     OW15118   0.768   1.211   1.642
 4740SOL    HW115119   0.795   1.190   1.736
 4740SOL    HW215120   0.698   1.146   1.612
 4741SOL     OW15121   4.270   4.387   1.726
 4741SOL    HW115122   4.343   4.328   1.760
 4741SOL    HW215123   4.258   4.464   1.788
 4742SOL     OW15124   2.845   6.275   1.818
 4742SOL    HW115125   2.886   6.312   1.735
 4742SOL    HW215126   2.786   6.197   1.794
 4743SOL     OW15127   2.270   2.536   0.637
 4743SOL    HW115128   2.308   2.495   0.554
 4743SOL    HW215129   2.335   2.604   0.673
 4744SOL     OW15130   1.787   3.314   5.384
 4744SOL    HW115131   1.705   3.365   5.360
 4744SOL    HW215132   1.850   3.314   5.306
 4745SOL     OW15133   3.047   5.586   5.166
 4745SOL    HW115134   3.070   5.683   5.173
 4745SOL    HW215135   3.034   5.562   5.069
 4746SOL     OW15136   6.412   0.759   0.668
 4746SOL    HW115137   6.480   0.723   0.732
 4746SOL    HW215138   6.353   0.824   0.714
 4747SOL     OW15139   6.266   2.513   0.966
 4747SOL    HW115140   6.279   2.597   1.020
 4747SOL    HW215141   6.169   2.490   0.963
 4748SOL     OW15142   1.604   0.856   1.871
 4748SOL    HW115143   1.606   0.893   1.779
 4748SOL    HW215144   1.565   0.923   1.934
 4749SOL     OW15145   1.526   6.783   6.797
 4749SOL    HW115146   1.436   6.797   6.755
 4749SOL    HW215147   1.517   6.781   6.896
 4750SOL     OW15148   0.006   1.035   4.405
 4750SOL    HW115149   6.979   1.055   4.491
 4750SOL    HW215150   0.081   0.972   4.423
 4751SOL     OW15151   1.269   3.740   6.537
 4751SOL    HW115152   1.315   3.697   6.460
 4751SOL    HW215153   1.290   3.837   6.540
 4752SOL     OW15154   2.956   5.821   1.278
 4752SOL    HW115155   2.865   5.826   1.320
 4752SOL    HW215156   2.948   5.795   1.182
 4753SOL     OW15157   6.400   6.484   5.190
 4753SOL    HW115158   6.442   6.463   5.102
 4753SOL    HW215159   6.472   6.495   5.259
 4754SOL     OW15160   1.085   0.232   5.675
 4754SOL    HW115161   1.061   0.325   5.648
 4754SOL    HW215162   1.026   0.203   5.751
 4755SOL     OW15163   2.477   1.924   6.662
 4755SOL    HW115164   2.444   1.864   6.735
 4755SOL    HW215165   2.529   2.000   6.703
 4756SOL     OW15166   4.950   2.772   1.060
 4756SOL    HW115167   5.006   2.802   1.137
 4756SOL    HW215168   4.999   2.701   1.009
 4757SOL     OW15169   1.972   2.198   1.089
 4757SOL    HW115170   2.052   2.147   1.120
 4757SOL    HW215171   1.971   2.202   0.989
 4758SOL     OW15172   5.310   4.911   5.735
 4758SOL    HW115173   5.374   4.980   5.771
 4758SOL    HW215174   5.265   4.947   5.653
 4759SOL     OW15175   5.471   5.429   5.480
 4759SOL    HW115176   5.555   5.452   5.530
 4759SOL    HW215177   5.490   5.352   5.418
 4760SOL     OW15178   1.446   2.009   1.293
 4760SOL    HW115179   1.447   2.061   1.378
 4760SOL    HW215180   1.540   1.986   1.267
 4761SOL     OW15181   0.700   5.995   5.948
 4761SOL    HW115182   0.604   6.012   5.927
 4761SOL    HW215183   0.752   6.080   5.936
 4762SOL     OW15184   2.804   5.953   2.656
 4762SOL    HW115185   2.825   6.046   2.687
 4762SOL    HW215186   2.764   5.957   2.564
 4763SOL     OW15187   6.219   5.850   4.080
 4763SOL    HW115188   6.270   5.841   4.166
 4763SOL    HW215189   6.179   5.762   4.055
 4764SOL     OW15190   3.724   3.635   4.121
 4764SOL    HW115191   3.788   3.611   4.048
 4764SOL    HW215192   3.775   3.663   4.202
 4765SOL     OW15193   5.580   5.811   4.923
 4765SOL    HW115194   5.496   5.835   4.875
 4765SOL    HW215195   5.565   5.731   4.980
 4766SOL     OW15196   3.385   0.874   2.634
 4766SOL    HW115197   3.389   0.782   2.595
 4766SOL    HW215198   3.469   0.923   2.610
 4767SOL     OW15199   4.205   5.824   6.637
 4767SOL    HW115200   4.199   5.921   6.616
 4767SOL    HW215201   4.196   5.810   6.736
 4768SOL     OW15202   0.038   0.566   5.178
 4768SOL    HW115203   6.971   0.534   5.142
 4768SOL    HW215204   0.071   0.503   5.248
 4769SOL     OW15205   3.672   6.901   1.665
 4769SOL    HW115206   3.620   6.930   1.585
 4769SOL    HW215207   3.748   6.843   1.636
 4770SOL     OW15208   2.526   0.577   3.214
 4770SOL    HW115209   2.589   0.610   3.144
 4770SOL    HW215210   2.444   0.634   3.214
 4771SOL     OW15211   3.875   4.187   5.268
 4771SOL    HW115212   3.898   4.279   5.237
 4771SOL    HW215213   3.835   4.135   5.192
 4772SOL     OW15214   2.547   2.266   1.621
 4772SOL    HW115215   2.575   2.271   1.717
 4772SOL    HW215216   2.579   2.347   1.572
 4773SOL     OW15217   0.135   5.950   3.833
 4773SOL    HW115218   0.106   5.862   3.796
 4773SOL    HW215219   0.182   5.936   3.920
 4774SOL     OW15220   0.571   4.197   1.340
 4774SOL    HW115221   0.626   4.184   1.258
 4774SOL    HW215222   0.516   4.115   1.357
 4775SOL     OW15223   3.676   0.679   2.035
 4775SOL    HW115224   3.728   0.608   1.987
 4775SOL    HW215225   3.734   0.760   2.048
 4776SOL     OW15226   3.071   5.398   2.052
 4776SOL    HW115227   3.166   5.373   2.070
 4776SOL    HW215228   3.017   5.384   2.135
 4777SOL     OW15229   3.230   4.345   1.196
 4777SOL    HW115230   3.163   4.334   1.269
 4777SOL    HW215231   3.232   4.262   1.140
 4778SOL     OW15232   4.861   4.021   1.952
 4778SOL    HW115233   4.831   4.112   1.924
 4778SOL    HW215234   4.916   4.029   2.036
 4779SOL     OW15235   5.146   0.882   2.975
 4779SOL    HW115236   5.074   0.904   2.908
 4779SOL    HW215237   5.235   0.891   2.931
 4780SOL     OW15238   1.366   6.274   6.210
 4780SOL    HW115239   1.445   6.319   6.253
 4780SOL    HW215240   1.318   6.340   6.152
 4781SOL     OW15241   2.187   5.278   1.759
 4781SOL    HW115242   2.232   5.238   1.839
 4781SOL    HW215243   2.176   5.376   1.772
 4782SOL     OW15244   5.755   6.388   6.301
 4782SOL    HW115245   5.833   6.432   6.256
 4782SOL    HW215246   5.723   6.312   6.245
 4783SOL     OW15247   5.678   4.578   1.487
 4783SOL    HW115248   5.737   4.568   1.406
 4783SOL    HW215249   5.641   4.489   1.512
 4784SOL     OW15250   5.911   5.374   4.479
 4784SOL    HW115251   5.944   5.468   4.474
 4784SOL    HW215252   5.812   5.373   4.462
 4785SOL     OW15253   6.551   0.720   1.312
 4785SOL    HW115254   6.526   0.806   1.355
 4785SOL    HW215255   6.551   0.731   1.212
 4786SOL     OW15256   1.696   2.957   1.915
 4786SOL    HW115257   1.698   2.902   1.998
 4786SOL    HW215258   1.767   2.924   1.852
 4787SOL     OW15259   3.910   2.125   3.000
 4787SOL    HW115260   3.938   2.213   2.961
 4787SOL    HW215261   3.827   2.094   2.955
 4788SOL     OW15262   1.590   5.173   4.130
 4788SOL    HW115263   1.585   5.178   4.030
 4788SOL    HW215264   1.500   5.153   4.167
 4789SOL     OW15265   5.843   0.693   0.685
 4789SOL    HW115266   5.866   0.598   0.669
 4789SOL    HW215267   5.821   0.738   0.598
 4790SOL     OW15268   5.420   1.811   6.502
 4790SOL    HW115269   5.323   1.834   6.509
 4790SOL    HW215270   5.443   1.737   6.565
 4791SOL     OW15271   5.249   6.891   2.108
 4791SOL    HW115272   5.186   6.815   2.122
 4791SOL    HW215273   5.323   6.887   2.176
 4792SOL     OW15274   2.271   2.499   1.872
 4792SOL    HW115275   2.212   2.438   1.924
 4792SOL    HW215276   2.367   2.481   1.895
 4793SOL     OW15277   1.205   6.921   6.343
 4793SOL    HW115278   1.129   6.973   6.304
 4793SOL    HW215279   1.192   6.824   6.324
 4794SOL     OW15280   3.061   0.940   2.358
 4794SOL    HW115281   3.031   0.847   2.335
 4794SOL    HW215282   3.065   0.995   2.275
 4795SOL     OW15283   6.096   3.107   4.224
 4795SOL    HW115284   6.042   3.054   4.289
 4795SOL    HW215285   6.047   3.190   4.200
 4796SOL     OW15286   5.569   4.481   1.153
 4796SOL    HW115287   5.499   4.518   1.214
 4796SOL    HW215288   5.654   4.468   1.203
 4797SOL     OW15289   0.306   5.080   4.918
 4797SOL    HW115290   0.347   5.125   4.997
 4797SOL    HW215291   0.218   5.124   4.897
 4798SOL     OW15292   6.765   4.354   4.033
 4798SOL    HW115293   6.833   4.370   4.104
 4798SOL    HW215294   6.721   4.441   4.010
 4799SOL     OW15295   3.911   1.880   4.871
 4799SOL    HW115296   3.994   1.824   4.867
 4799SOL    HW215297   3.842   1.833   4.925
 4800SOL     OW15298   1.901   2.129   4.702
 4800SOL    HW115299   1.897   2.180   4.788
 4800SOL    HW215300   1.907   2.193   4.625
 4801SOL     OW15301   0.605   2.140   0.971
 4801SOL    HW115302   0.654   2.197   0.905
 4801SOL    HW215303   0.640   2.047   0.967
 4802SOL     OW15304   2.733   0.520   1.810
 4802SOL    HW115305   2.802   0.588   1.834
 4802SOL    HW215306   2.776   0.446   1.759
 4803SOL     OW15307   1.128   6.691   0.504
 4803SOL    HW115308   1.049   6.752   0.514
 4803SOL    HW215309   1.175   6.713   0.419
 4804SOL     OW15310   4.024   5.081   6.589
 4804SOL    HW115311   4.091   5.108   6.658
 4804SOL    HW215312   3.987   4.991   6.612
 4805SOL     OW15313   6.850   1.753   0.767
 4805SOL    HW115314   6.769   1.795   0.728
 4805SOL    HW215315   6.893   1.693   0.699
 4806SOL     OW15316   0.759   2.868   2.873
 4806SOL    HW115317   0.661   2.880   2.888
 4806SOL    HW215318   0.800   2.829   2.955
 4807SOL     OW15319   6.953   7.013   1.364
 4807SOL    HW115320   6.927   6.941   1.427
 4807SOL    HW215321   0.003   0.051   1.406
 4808SOL     OW15322   4.817   3.261   1.283
 4808SOL    HW115323   4.729   3.217   1.302
 4808SOL    HW215324   4.891   3.209   1.326
 4809SOL     OW15325   4.050   5.580   6.635
 4809SOL    HW115326   3.999   5.548   6.555
 4809SOL    HW215327   4.112   5.653   6.607
 4810SOL     OW15328   0.965   0.142   1.256
 4810SOL    HW115329   0.972   0.224   1.199
 4810SOL    HW215330   1.057   0.114   1.285
 4811SOL     OW15331   4.074   5.602   2.265
 4811SOL    HW115332   4.152   5.571   2.321
 4811SOL    HW215333   4.096   5.590   2.168
 4812SOL     OW15334   6.845   5.934   4.364
 4812SOL    HW115335   6.876   5.980   4.447
 4812SOL    HW215336   6.840   6.000   4.289
 4813SOL     OW15337   5.706   2.577   3.443
 4813SOL    HW115338   5.743   2.590   3.351
 4813SOL    HW215339   5.647   2.654   3.466
 4814SOL     OW15340   6.851   3.238   1.821
 4814SOL    HW115341   6.795   3.252   1.903
 4814SOL    HW215342   6.852   3.141   1.797
 4815SOL     OW15343   4.545   6.254   1.296
 4815SOL    HW115344   4.597   6.169   1.312
 4815SOL    HW215345   4.532   6.267   1.198
 4816SOL     OW15346   5.153   4.951   3.498
 4816SOL    HW115347   5.250   4.941   3.473
 4816SOL    HW215348   5.099   4.969   3.416
 4817SOL     OW15349   0.496   1.628   6.558
 4817SOL    HW115350   0.545   1.590   6.480
 4817SOL    HW215351   0.474   1.554   6.622
 4818SOL     OW15352   0.629   0.432   4.313
 4818SOL    HW115353   0.565   0.372   4.265
 4818SOL    HW215354   0.715   0.384   4.330
 4819SOL     OW15355   1.748   3.434   0.299
 4819SOL    HW115356   1.751   3.431   0.199
 4819SOL    HW215357   1.831   3.393   0.336
 4820SOL     OW15358   6.594   2.997   1.962
 4820SOL    HW115359   6.529   3.055   1.912
 4820SOL    HW215360   6.678   2.988   1.909
 4821SOL     OW15361   0.088   5.605   2.268
 4821SOL    HW115362   0.055   5.563   2.183
 4821SOL    HW215363   0.012   5.619   2.331
 4822SOL     OW15364   1.269   3.509   4.090
 4822SOL    HW115365   1.220   3.462   4.017
 4822SOL    HW215366   1.207   3.568   4.141
 4823SOL     OW15367   2.024   3.065   1.297
 4823SOL    HW115368   1.925   3.059   1.294
 4823SOL    HW215369   2.053   3.160   1.283
 4824SOL     OW15370   6.165   1.543   5.480
 4824SOL    HW115371   6.167   1.456   5.530
 4824SOL    HW215372   6.097   1.604   5.521
 4825SOL     OW15373   1.816   0.012   3.862
 4825SOL    HW115374   1.764   6.985   3.933
 4825SOL    HW215375   1.894   0.059   3.904
 4826SOL     OW15376   3.947   0.494   1.487
 4826SOL    HW115377   3.871   0.557   1.471
 4826SOL    HW215378   3.912   0.402   1.501
 4827SOL     OW15379   6.595   1.857   1.397
 4827SOL    HW115380   6.684   1.845   1.442
 4827SOL    HW215381   6.574   1.954   1.388
 4828SOL     OW15382   5.112   0.745   4.119
 4828SOL    HW115383   5.134   0.842   4.106
 4828SOL    HW215384   5.097   0.727   4.216
 4829SOL     OW15385   4.242   6.751   4.909
 4829SOL    HW115386   4.322   6.724   4.856
 4829SOL    HW215387   4.216   6.845   4.883
 4830SOL     OW15388   3.016   5.878   3.053
 4830SOL    HW115389   2.936   5.931   3.081
 4830SOL    HW215390   3.032   5.804   3.119
 4831SOL     OW15391   3.143   4.757   5.226
 4831SOL    HW115392   3.055   4.743   5.272
 4831SOL    HW215393   3.208   4.687   5.255
 4832SOL     OW15394   3.802   2.936   4.590
 4832SOL    HW115395   3.734   2.906   4.524
 4832SOL    HW215396   3.871   2.992   4.543
 4833SOL     OW15397   6.668   3.316   4.254
 4833SOL    HW115398   6.706   3.270   4.174
 4833SOL    HW215399   6.742   3.363   4.303
 4834SOL     OW15400   1.088   5.373   1.174
 4834SOL    HW115401   1.104   5.462   1.131
 4834SOL    HW215402   0.992   5.366   1.201
 4835SOL     OW15403   6.769   2.096   5.375
 4835SOL    HW115404   6.707   2.089   5.297
 4835SOL    HW215405   6.747   2.178   5.429
 4836SOL     OW15406   5.076   1.043   5.495
 4836SOL    HW115407   5.147   0.983   5.459
 4836SOL    HW215408   5.067   1.124   5.437
 4837SOL     OW15409   0.388   4.138   3.870
 4837SOL    HW115410   0.461   4.197   3.904
 4837SOL    HW215411   0.332   4.107   3.947
 4838SOL     OW15412   2.517   4.440   6.316
 4838SOL    HW115413   2.515   4.451   6.216
 4838SOL    HW215414   2.465   4.358   6.341
 4839SOL     OW15415   2.528   1.280   0.538
 4839SOL    HW115416   2.554   1.223   0.616
 4839SOL    HW215417   2.450   1.239   0.491
 4840SOL     OW15418   5.901   3.967   4.355
 4840SOL    HW115419   5.861   4.040   4.299
 4840SOL    HW215420   5.848   3.883   4.341
 4841SOL     OW15421   3.321   6.438   2.941
 4841SOL    HW115422   3.390   6.510   2.937
 4841SOL    HW215423   3.326   6.391   3.029
 4842SOL     OW15424   3.332   5.507   3.081
 4842SOL    HW115425   3.289   5.466   3.001
 4842SOL    HW215426   3.367   5.434   3.141
 4843SOL     OW15427   0.166   1.847   0.958
 4843SOL    HW115428   0.153   1.875   1.053
 4843SOL    HW215429   0.077   1.843   0.912
 4844SOL     OW15430   1.499   5.375   5.307
 4844SOL    HW115431   1.456   5.411   5.390
 4844SOL    HW215432   1.510   5.449   5.241
 4845SOL     OW15433   4.981   3.851   4.896
 4845SOL    HW115434   4.986   3.821   4.801
 4845SOL    HW215435   4.946   3.776   4.952
 4846SOL     OW15436   6.705   3.789   4.572
 4846SOL    HW115437   6.608   3.804   4.554
 4846SOL    HW215438   6.744   3.872   4.612
 4847SOL     OW15439   2.800   5.887   6.547
 4847SOL    HW115440   2.805   5.985   6.565
 4847SOL    HW215441   2.707   5.863   6.518
 4848SOL     OW15442   3.401   0.701   4.665
 4848SOL    HW115443   3.453   0.784   4.644
 4848SOL    HW215444   3.360   0.666   4.581
 4849SOL     OW15445   2.065   6.725   1.342
 4849SOL    HW115446   1.975   6.682   1.348
 4849SOL    HW215447   2.057   6.823   1.361
 4850SOL     OW15448   4.308   0.293   0.321
 4850SOL    HW115449   4.351   0.351   0.390
 4850SOL    HW215450   4.214   0.323   0.306
 4851SOL     OW15451   3.785   4.179   6.586
 4851SOL    HW115452   3.870   4.212   6.544
 4851SOL    HW215453   3.725   4.141   6.515
 4852SOL     OW15454   5.267   5.335   4.682
 4852SOL    HW115455   5.237   5.406   4.619
 4852SOL    HW215456   5.363   5.314   4.665
 4853SOL     OW15457   4.143   6.797   2.104
 4853SOL    HW115458   4.131   6.698   2.091
 4853SOL    HW215459   4.208   6.831   2.037
 4854SOL     OW15460   4.969   6.662   1.653
 4854SOL    HW115461   5.032   6.619   1.588
 4854SOL    HW215462   4.959   6.604   1.734
 4855SOL     OW15463   5.418   4.968   6.047
 4855SOL    HW115464   5.389   5.049   6.098
 4855SOL    HW215465   5.351   4.948   5.975
 4856SOL     OW15466   0.192   3.915   2.857
 4856SOL    HW115467   0.144   4.000   2.878
 4856SOL    HW215468   0.217   3.914   2.760
 4857SOL     OW15469   2.514   1.806   4.747
 4857SOL    HW115470   2.574   1.781   4.823
 4857SOL    HW215471   2.511   1.906   4.739
 4858SOL     OW15472   0.650   6.066   4.805
 4858SOL    HW115473   0.733   6.118   4.826
 4858SOL    HW215474   0.595   6.055   4.888
 4859SOL     OW15475   0.651   6.540   2.533
 4859SOL    HW115476   0.583   6.467   2.531
 4859SOL    HW215477   0.622   6.612   2.596
 4860SOL     OW15478   4.561   5.074   1.112
 4860SOL    HW115479   4.557   5.142   1.186
 4860SOL    HW215480   4.655   5.046   1.097
 4861SOL     OW15481   0.461   4.146   6.334
 4861SOL    HW115482   0.368   4.181   6.324
 4861SOL    HW215483   0.484   4.090   6.255
 4862SOL     OW15484   2.122   5.690   5.162
 4862SOL    HW115485   2.036   5.699   5.212
 4862SOL    HW215486   2.195   5.733   5.216
 4863SOL     OW15487   4.397   2.066   3.120
 4863SOL    HW115488   4.326   1.998   3.134
 4863SOL    HW215489   4.355   2.156   3.105
 4864SOL     OW15490   1.929   1.446   1.386
 4864SOL    HW115491   1.841   1.466   1.345
 4864SOL    HW215492   2.003   1.478   1.326
 4865SOL     OW15493   3.699   6.128   5.729
 4865SOL    HW115494   3.607   6.151   5.696
 4865SOL    HW215495   3.704   6.030   5.746
 4866SOL     OW15496   0.090   4.292   2.300
 4866SOL    HW115497   0.026   4.242   2.240
 4866SOL    HW215498   0.157   4.228   2.337
 4867SOL     OW15499   4.689   5.785   3.227
 4867SOL    HW115500   4.680   5.700   3.279
 4867SOL    HW215501   4.602   5.834   3.227
 4868SOL     OW15502   0.748   6.209   1.202
 4868SOL    HW115503   0.762   6.204   1.301
 4868SOL    HW215504   0.668   6.156   1.176
 4869SOL     OW15505   6.322   1.179   1.046
 4869SOL    HW115506   6.381   1.251   1.082
 4869SOL    HW215507   6.299   1.115   1.120
 4870SOL     OW15508   6.502   6.897   1.713
 4870SOL    HW115509   6.591   6.928   1.747
 4870SOL    HW215510   6.472   6.956   1.638
 4871SOL     OW15511   1.008   3.172   4.202
 4871SOL    HW115512   1.061   3.089   4.184
 4871SOL    HW215513   0.932   3.151   4.264
 4872SOL     OW15514   0.895   0.639   3.399
 4872SOL    HW115515   0.816   0.580   3.384
 4872SOL    HW215516   0.941   0.611   3.484
 4873SOL     OW15517   0.977   6.286   5.188
 4873SOL    HW115518   0.927   6.246   5.264
 4873SOL    HW215519   1.010   6.377   5.213
 4874SOL     OW15520   5.142   3.384   3.453
 4874SOL    HW115521   5.063   3.445   3.450
 4874SOL    HW215522   5.115   3.297   3.494
 4875SOL     OW15523   6.054   2.919   6.559
 4875SOL    HW115524   6.074   2.909   6.462
 4875SOL    HW215525   6.082   2.836   6.608
 4876SOL     OW15526   0.548   1.205   6.664
 4876SOL    HW115527   0.600   1.285   6.635
 4876SOL    HW215528   0.606   1.147   6.722
 4877SOL     OW15529   6.607   1.427   0.756
 4877SOL    HW115530   6.535   1.361   0.735
 4877SOL    HW215531   6.602   1.504   0.692
 4878SOL     OW15532   6.641   2.125   1.537
 4878SOL    HW115533   6.683   2.136   1.447
 4878SOL    HW215534   6.580   2.202   1.556
 4879SOL     OW15535   4.105   6.084   3.229
 4879SOL    HW115536   4.019   6.108   3.183
 4879SOL    HW215537   4.119   6.145   3.307
 4880SOL     OW15538   5.869   2.135   6.087
 4880SOL    HW115539   5.900   2.202   6.155
 4880SOL    HW215540   5.867   2.044   6.129
 4881SOL     OW15541   3.382   5.813   6.609
 4881SOL    HW115542   3.339   5.852   6.691
 4881SOL    HW215543   3.479   5.796   6.628
 4882SOL     OW15544   5.182   0.791   5.950
 4882SOL    HW115545   5.164   0.764   5.856
 4882SOL    HW215546   5.277   0.769   5.973
 4883SOL     OW15547   0.165   6.107   0.986
 4883SOL    HW115548   0.224   6.093   0.906
 4883SOL    HW215549   0.168   6.026   1.044
 4884SOL     OW15550   3.155   6.477   2.042
 4884SOL    HW115551   3.232   6.531   2.077
 4884SOL    HW215552   3.125   6.412   2.112
 4885SOL     OW15553   2.010   0.164   1.916
 4885SOL    HW115554   2.044   0.246   1.963
 4885SOL    HW215555   2.033   0.169   1.819
 4886SOL     OW15556   6.393   0.713   5.929
 4886SOL    HW115557   6.298   0.681   5.929
 4886SOL    HW215558   6.445   0.659   5.862
 4887SOL     OW15559   0.745   2.096   5.187
 4887SOL    HW115560   0.814   2.163   5.159
 4887SOL    HW215561   0.662   2.144   5.216
 4888SOL     OW15562   2.879   5.282   1.874
 4888SOL    HW115563   2.953   5.303   1.938
 4888SOL    HW215564   2.856   5.185   1.881
 4889SOL     OW15565   1.407   2.510   6.938
 4889SOL    HW115566   1.390   2.607   6.954
 4889SOL    HW215567   1.504   2.497   6.914
 4890SOL     OW15568   1.347   0.351   4.780
 4890SOL    HW115569   1.271   0.400   4.824
 4890SOL    HW215570   1.433   0.395   4.803
 4891SOL     OW15571   1.188   3.960   0.906
 4891SOL    HW115572   1.150   3.895   0.973
 4891SOL    HW215573   1.281   3.984   0.934
 4892SOL     OW15574   1.514   5.975   1.276
 4892SOL    HW115575   1.536   6.027   1.193
 4892SOL    HW215576   1.598   5.940   1.316
 4893SOL     OW15577   1.092   3.349   6.495
 4893SOL    HW115578   0.994   3.335   6.478
 4893SOL    HW215579   1.115   3.317   6.587
 4894SOL     OW15580   2.272   1.092   3.738
 4894SOL    HW115581   2.185   1.076   3.784
 4894SOL    HW215582   2.335   1.017   3.758
 4895SOL     OW15583   6.701   3.720   0.037
 4895SOL    HW115584   6.640   3.677   0.105
 4895SOL    HW215585   6.738   3.650   6.996
 4896SOL     OW15586   4.415   5.690   3.580
 4896SOL    HW115587   4.418   5.639   3.493
 4896SOL    HW215588   4.440   5.628   3.655
 4897SOL     OW15589   3.167   5.628   5.775
 4897SOL    HW115590   3.104   5.633   5.697
 4897SOL    HW215591   3.232   5.704   5.771
 4898SOL     OW15592   5.627   2.507   5.549
 4898SOL    HW115593   5.714   2.462   5.533
 4898SOL    HW215594   5.626   2.596   5.504
 4899SOL     OW15595   5.429   4.394   5.117
 4899SOL    HW115596   5.363   4.467   5.102
 4899SOL    HW215597   5.483   4.379   5.034
 4900SOL     OW15598   1.297   6.754   5.186
 4900SOL    HW115599   1.283   6.782   5.281
 4900SOL    HW215600   1.215   6.773   5.132
 4901SOL     OW15601   1.272   6.390   3.314
 4901SOL    HW115602   1.304   6.460   3.250
 4901SOL    HW215603   1.319   6.402   3.402
 4902SOL     OW15604   2.951   4.811   1.991
 4902SOL    HW115605   3.038   4.802   1.941
 4902SOL    HW215606   2.893   4.733   1.971
 4903SOL     OW15607   5.008   6.333   6.362
 4903SOL    HW115608   5.051   6.409   6.411
 4903SOL    HW215609   4.909   6.337   6.374
 4904SOL     OW15610   3.291   6.174   3.359
 4904SOL    HW115611   3.199   6.198   3.331
 4904SOL    HW215612   3.297   6.173   3.459
 4905SOL     OW15613   6.162   3.168   3.320
 4905SOL    HW115614   6.186   3.196   3.412
 4905SOL    HW215615   6.239   3.184   3.258
 4906SOL     OW15616   5.794   1.137   1.553
 4906SOL    HW115617   5.808   1.040   1.537
 4906SOL    HW215618   5.812   1.159   1.649
 4907SOL     OW15619   2.781   1.124   2.386
 4907SOL    HW115620   2.705   1.135   2.450
 4907SOL    HW215621   2.865   1.106   2.436
 4908SOL     OW15622   3.604   5.462   6.818
 4908SOL    HW115623   3.546   5.398   6.768
 4908SOL    HW215624   3.586   5.555   6.787
 4909SOL     OW15625   6.547   0.448   5.230
 4909SOL    HW115626   6.631   0.497   5.210
 4909SOL    HW215627   6.486   0.453   5.151
 4910SOL     OW15628   6.205   0.304   5.322
 4910SOL    HW115629   6.161   0.356   5.394
 4910SOL    HW215630   6.172   0.336   5.233
 4911SOL     OW15631   0.383   3.089   6.144
 4911SOL    HW115632   0.384   3.112   6.241
 4911SOL    HW215633   0.289   3.073   6.115
 4912SOL     OW15634   2.504   2.434   2.024
 4912SOL    HW115635   2.566   2.380   1.966
 4912SOL    HW215636   2.557   2.483   2.092
 4913SOL     OW15637   2.922   3.318   2.366
 4913SOL    HW115638   2.946   3.341   2.460
 4913SOL    HW215639   2.823   3.304   2.359
 4914SOL     OW15640   1.589   6.262   3.419
 4914SOL    HW115641   1.539   6.257   3.333
 4914SOL    HW215642   1.675   6.311   3.406
 4915SOL     OW15643   3.423   5.759   3.171
 4915SOL    HW115644   3.392   5.671   3.135
 4915SOL    HW215645   3.501   5.792   3.117
 4916SOL     OW15646   2.029   1.429   2.565
 4916SOL    HW115647   1.950   1.390   2.518
 4916SOL    HW215648   2.113   1.400   2.519
 4917SOL     OW15649   1.574   5.242   0.047
 4917SOL    HW115650   1.488   5.217   0.091
 4917SOL    HW215651   1.624   5.159   0.021
 4918SOL     OW15652   2.445   0.333   2.271
 4918SOL    HW115653   2.396   0.274   2.206
 4918SOL    HW215654   2.510   0.279   2.323
 4919SOL     OW15655   2.539   2.830   1.723
 4919SOL    HW115656   2.558   2.812   1.627
 4919SOL    HW215657   2.616   2.799   1.779
 4920SOL     OW15658   4.363   0.630   0.128
 4920SOL    HW115659   4.286   0.578   0.090
 4920SOL    HW215660   4.330   0.717   0.164
 4921SOL     OW15661   1.571   4.601   1.765
 4921SOL    HW115662   1.573   4.667   1.690
 4921SOL    HW215663   1.482   4.604   1.810
 4922SOL     OW15664   1.012   2.775   6.045
 4922SOL    HW115665   1.110   2.795   6.045
 4922SOL    HW215666   0.992   2.706   6.114
 4923SOL     OW15667   3.647   1.483   1.056
 4923SOL    HW115668   3.644   1.544   0.976
 4923SOL    HW215669   3.739   1.485   1.096
 4924SOL     OW15670   0.627   4.203   4.310
 4924SOL    HW115671   0.723   4.219   4.330
 4924SOL    HW215672   0.606   4.105   4.321
 4925SOL     OW15673   4.484   5.748   6.151
 4925SOL    HW115674   4.563   5.690   6.131
 4925SOL    HW215675   4.505   5.807   6.229
 4926SOL     OW15676   4.443   2.437   1.847
 4926SOL    HW115677   4.458   2.535   1.838
 4926SOL    HW215678   4.530   2.392   1.868
 4927SOL     OW15679   3.820   3.981   2.925
 4927SOL    HW115680   3.814   3.963   3.023
 4927SOL    HW215681   3.743   4.039   2.897
 4928SOL     OW15682   0.885   6.420   0.781
 4928SOL    HW115683   0.881   6.391   0.877
 4928SOL    HW215684   0.805   6.385   0.733
 4929SOL     OW15685   0.671   4.817   4.257
 4929SOL    HW115686   0.767   4.788   4.254
 4929SOL    HW215687   0.646   4.857   4.168
 4930SOL     OW15688   6.657   2.132   0.831
 4930SOL    HW115689   6.599   2.212   0.814
 4930SOL    HW215690   6.751   2.151   0.803
 4931SOL     OW15691   0.179   0.840   1.384
 4931SOL    HW115692   0.265   0.790   1.381
 4931SOL    HW215693   0.114   0.801   1.319
 4932SOL     OW15694   3.638   2.143   0.743
 4932SOL    HW115695   3.735   2.131   0.761
 4932SOL    HW215696   3.602   2.061   0.698
 4933SOL     OW15697   2.469   1.025   5.235
 4933SOL    HW115698   2.447   1.122   5.240
 4933SOL    HW215699   2.499   0.993   5.325
 4934SOL     OW15700   1.328   6.406   5.008
 4934SOL    HW115701   1.369   6.471   4.944
 4934SOL    HW215702   1.281   6.456   5.081
 4935SOL     OW15703   1.587   1.111   0.682
 4935SOL    HW115704   1.510   1.152   0.633
 4935SOL    HW215705   1.637   1.183   0.732
 4936SOL     OW15706   3.706   5.858   0.633
 4936SOL    HW115707   3.747   5.922   0.698
 4936SOL    HW215708   3.773   5.830   0.565
 4937SOL     OW15709   0.780   3.036   6.309
 4937SOL    HW115710   0.758   3.127   6.345
 4937SOL    HW215711   0.835   3.046   6.226
 4938SOL     OW15712   3.424   4.622   1.462
 4938SOL    HW115713   3.450   4.625   1.559
 4938SOL    HW215714   3.424   4.527   1.430
 4939SOL     OW15715   1.289   1.935   2.368
 4939SOL    HW115716   1.215   1.885   2.323
 4939SOL    HW215717   1.263   2.032   2.376
 4940SOL     OW15718   6.988   2.145   4.893
 4940SOL    HW115719   6.987   2.243   4.877
 4940SOL    HW215720   6.945   2.125   4.981
 4941SOL     OW15721   4.155   1.803   5.493
 4941SOL    HW115722   4.193   1.783   5.402
 4941SOL    HW215723   4.056   1.809   5.487
 4942SOL     OW15724   0.259   1.557   3.395
 4942SOL    HW115725   0.323   1.482   3.409
 4942SOL    HW215726   0.168   1.531   3.427
 4943SOL     OW15727   4.976   3.034   6.712
 4943SOL    HW115728   4.926   3.057   6.795
 4943SOL    HW215729   5.061   3.087   6.708
 4944SOL     OW15730   0.914   4.841   0.507
 4944SOL    HW115731   0.967   4.921   0.479
 4944SOL    HW215732   0.887   4.850   0.603
 4945SOL     OW15733   2.479   0.631   5.327
 4945SOL    HW115734   2.535   0.598   5.250
 4945SOL    HW215735   2.385   0.644   5.296
 4946SOL     OW15736   2.719   4.837   0.016
 4946SOL    HW115737   2.804   4.890   0.018
 4946SOL    HW215738   2.733   4.752   6.986
 4947SOL     OW15739   1.338   0.719   1.920
 4947SOL    HW115740   1.277   0.796   1.936
 4947SOL    HW215741   1.424   0.753   1.881
 4948SOL     OW15742   1.760   2.759   1.517
 4948SOL    HW115743   1.764   2.666   1.481
 4948SOL    HW215744   1.804   2.762   1.607
 4949SOL     OW15745   0.187   4.826   6.847
 4949SOL    HW115746   0.197   4.829   6.748
 4949SOL    HW215747   0.183   4.731   6.877
 4950SOL     OW15748   2.911   3.854   5.759
 4950SOL    HW115749   2.906   3.854   5.858
 4950SOL    HW215750   2.998   3.815   5.729
 4951SOL     OW15751   5.323   5.393   3.381
 4951SOL    HW115752   5.261   5.321   3.414
 4951SOL    HW215753   5.270   5.474   3.356
 4952SOL     OW15754   0.767   6.954   6.458
 4952SOL    HW115755   0.786   6.891   6.534
 4952SOL    HW215756   0.811   0.022   6.476
 4953SOL     OW15757   0.853   1.790   4.842
 4953SOL    HW115758   0.852   1.806   4.940
 4953SOL    HW215759   0.853   1.877   4.794
 4954SOL     OW15760   3.371   3.955   5.073
 4954SOL    HW115761   3.325   4.008   5.002
 4954SOL    HW215762   3.337   3.982   5.163
 4955SOL     OW15763   3.915   5.173   6.043
 4955SOL    HW115764   3.988   5.186   5.976
 4955SOL    HW215765   3.883   5.078   6.039
 4956SOL     OW15766   2.957   0.184   4.722
 4956SOL    HW115767   2.999   0.274   4.725
 4956SOL    HW215768   3.026   0.114   4.745
 4957SOL     OW15769   5.859   4.432   6.521
 4957SOL    HW115770   5.950   4.445   6.481
 4957SOL    HW215771   5.860   4.350   6.579
 4958SOL     OW15772   3.592   6.328   0.308
 4958SOL    HW115773   3.611   6.254   0.372
 4958SOL    HW215774   3.651   6.320   0.228
 4959SOL     OW15775   0.807   2.219   2.821
 4959SOL    HW115776   0.822   2.245   2.916
 4959SOL    HW215777   0.841   2.291   2.760
 4960SOL     OW15778   4.406   4.742   4.006
 4960SOL    HW115779   4.441   4.711   4.095
 4960SOL    HW215780   4.434   4.837   3.991
 4961SOL     OW15781   3.457   0.963   0.655
 4961SOL    HW115782   3.453   1.059   0.626
 4961SOL    HW215783   3.390   0.910   0.603
 4962SOL     OW15784   1.474   3.976   0.989
 4962SOL    HW115785   1.469   3.959   1.087
 4962SOL    HW215786   1.530   4.057   0.971
 4963SOL     OW15787   1.337   3.687   6.245
 4963SOL    HW115788   1.260   3.622   6.251
 4963SOL    HW215789   1.415   3.650   6.294
 4964SOL     OW15790   2.442   6.996   4.743
 4964SOL    HW115791   2.514   0.020   4.689
 4964SOL    HW215792   2.452   6.897   4.737
 4965SOL     OW15793   1.839   6.091   3.291
 4965SOL    HW115794   1.827   5.994   3.309
 4965SOL    HW215795   1.828   6.142   3.376
 4966SOL     OW15796   2.664   0.079   4.611
 4966SOL    HW115797   2.637   0.075   4.515
 4966SOL    HW215798   2.744   0.019   4.625
 4967SOL     OW15799   4.447   4.731   5.058
 4967SOL    HW115800   4.449   4.749   5.156
 4967SOL    HW215801   4.431   4.633   5.043
 4968SOL     OW15802   6.434   2.799   3.214
 4968SOL    HW115803   6.516   2.744   3.225
 4968SOL    HW215804   6.365   2.771   3.282
 4969SOL     OW15805   0.702   6.293   3.291
 4969SOL    HW115806   0.690   6.382   3.247
 4969SOL    HW215807   0.732   6.226   3.223
 4970SOL     OW15808   0.477   1.672   1.296
 4970SOL    HW115809   0.424   1.722   1.365
 4970SOL    HW215810   0.476   1.574   1.318
 4971SOL     OW15811   6.922   6.109   2.797
 4971SOL    HW115812   6.970   6.052   2.730
 4971SOL    HW215813   6.886   6.051   2.870
 4972SOL     OW15814   0.820   4.316   0.865
 4972SOL    HW115815   0.852   4.409   0.848
 4972SOL    HW215816   0.898   4.254   0.872
 4973SOL     OW15817   6.784   0.881   0.754
 4973SOL    HW115818   6.798   0.979   0.759
 4973SOL    HW215819   6.691   0.861   0.726
 4974SOL     OW15820   3.519   5.606   5.176
 4974SOL    HW115821   3.426   5.606   5.211
 4974SOL    HW215822   3.555   5.513   5.175
 4975SOL     OW15823   5.746   4.425   0.889
 4975SOL    HW115824   5.776   4.521   0.896
 4975SOL    HW215825   5.646   4.422   0.893
 4976SOL     OW15826   1.639   6.822   3.284
 4976SOL    HW115827   1.668   6.781   3.370
 4976SOL    HW215828   1.543   6.802   3.267
 4977SOL     OW15829   2.015   4.580   6.053
 4977SOL    HW115830   1.927   4.584   6.007
 4977SOL    HW215831   2.039   4.670   6.089
 4978SOL     OW15832   5.126   4.274   4.587
 4978SOL    HW115833   5.038   4.226   4.589
 4978SOL    HW215834   5.110   4.371   4.569
 4979SOL     OW15835   2.498   6.988   5.942
 4979SOL    HW115836   2.441   0.046   5.968
 4979SOL    HW215837   2.484   6.913   6.006
 4980SOL     OW15838   5.324   3.508   3.634
 4980SOL    HW115839   5.280   3.596   3.648
 4980SOL    HW215840   5.261   3.447   3.586
 4981SOL     OW15841   3.177   4.896   2.444
 4981SOL    HW115842   3.244   4.826   2.468
 4981SOL    HW215843   3.085   4.864   2.467
 4982SOL     OW15844   3.980   1.424   5.800
 4982SOL    HW115845   3.973   1.489   5.725
 4982SOL    HW215846   3.962   1.470   5.887
 4983SOL     OW15847   5.874   5.688   2.770
 4983SOL    HW115848   5.871   5.618   2.841
 4983SOL    HW215849   5.869   5.778   2.812
 4984SOL     OW15850   4.668   4.212   3.151
 4984SOL    HW115851   4.606   4.253   3.219
 4984SOL    HW215852   4.638   4.238   3.059
 4985SOL     OW15853   5.303   6.717   2.532
 4985SOL    HW115854   5.260   6.742   2.446
 4985SOL    HW215855   5.301   6.617   2.543
 4986SOL     OW15856   0.224   4.908   2.376
 4986SOL    HW115857   0.159   4.952   2.314
 4986SOL    HW215858   0.184   4.902   2.467
 4987SOL     OW15859   0.692   1.136   2.343
 4987SOL    HW115860   0.681   1.195   2.263
 4987SOL    HW215861   0.756   1.063   2.322
 4988SOL     OW15862   6.067   6.456   3.257
 4988SOL    HW115863   6.095   6.457   3.353
 4988SOL    HW215864   6.148   6.442   3.199
 4989SOL     OW15865   4.331   6.932   2.761
 4989SOL    HW115866   4.250   6.877   2.742
 4989SOL    HW215867   4.305   0.008   2.768
 4990SOL     OW15868   4.528   2.121   5.201
 4990SOL    HW115869   4.439   2.162   5.219
 4990SOL    HW215870   4.551   2.130   5.104
 4991SOL     OW15871   1.305   5.145   5.091
 4991SOL    HW115872   1.290   5.095   5.176
 4991SOL    HW215873   1.298   5.243   5.108
 4992SOL     OW15874   0.567   2.890   3.995
 4992SOL    HW115875   0.520   2.830   4.059
 4992SOL    HW215876   0.575   2.845   3.906
 4993SOL     OW15877   3.185   5.857   3.861
 4993SOL    HW115878   3.110   5.900   3.810
 4993SOL    HW215879   3.272   5.881   3.818
 4994SOL     OW15880   3.315   4.508   5.322
 4994SOL    HW115881   3.318   4.533   5.418
 4994SOL    HW215882   3.381   4.435   5.304
 4995SOL     OW15883   0.770   0.188   5.690
 4995SOL    HW115884   0.731   0.274   5.722
 4995SOL    HW215885   0.829   0.150   5.761
 4996SOL     OW15886   6.889   1.319   4.202
 4996SOL    HW115887   6.985   1.315   4.175
 4996SOL    HW215888   6.836   1.363   4.130
 4997SOL     OW15889   3.629   1.853   1.512
 4997SOL    HW115890   3.572   1.927   1.474
 4997SOL    HW215891   3.638   1.780   1.444
 4998SOL     OW15892   0.151   3.942   3.727
 4998SOL    HW115893   0.109   4.008   3.788
 4998SOL    HW215894   0.247   3.966   3.712
 4999SOL     OW15895   0.685   3.347   4.567
 4999SOL    HW115896   0.641   3.368   4.654
 4999SOL    HW215897   0.709   3.250   4.564
 5000SOL     OW15898   3.090   5.530   2.566
 5000SOL    HW115899   3.145   5.447   2.552
 5000SOL    HW215900   3.097   5.558   2.661
 5001SOL     OW15901   0.402   5.361   3.063
 5001SOL    HW115902   0.322   5.376   3.121
 5001SOL    HW215903   0.483   5.397   3.109
 5002SOL     OW15904   0.386   3.138   3.490
 5002SOL    HW115905   0.473   3.177   3.460
 5002SOL    HW215906   0.369   3.054   3.439
 5003SOL     OW15907   4.235   0.189   3.908
 5003SOL    HW115908   4.271   0.149   3.823
 5003SOL    HW215909   4.225   0.118   3.977
 5004SOL     OW15910   2.478   5.690   6.808
 5004SOL    HW115911   2.432   5.626   6.871
 5004SOL    HW215912   2.450   5.783   6.830
 5005SOL     OW15913   3.260   2.132   0.344
 5005SOL    HW115914   3.255   2.219   0.394
 5005SOL    HW215915   3.273   2.057   0.409
 5006SOL     OW15916   5.354   1.736   2.200
 5006SOL    HW115917   5.339   1.818   2.256
 5006SOL    HW215918   5.267   1.705   2.162
 5007SOL     OW15919   5.833   6.537   1.925
 5007SOL    HW115920   5.911   6.578   1.878
 5007SOL    HW215921   5.863   6.502   2.014
 5008SOL     OW15922   5.466   6.493   2.256
 5008SOL    HW115923   5.457   6.576   2.202
 5008SOL    HW215924   5.561   6.462   2.254
 5009SOL     OW15925   6.693   2.526   0.690
 5009SOL    HW115926   6.594   2.539   0.684
 5009SOL    HW215927   6.719   2.512   0.786
 5010SOL     OW15928   3.694   3.642   0.851
 5010SOL    HW115929   3.767   3.665   0.787
 5010SOL    HW215930   3.611   3.692   0.827
 5011SOL     OW15931   2.041   3.493   6.850
 5011SOL    HW115932   1.944   3.486   6.826
 5011SOL    HW215933   2.096   3.492   6.766
 5012SOL     OW15934   6.091   2.268   5.064
 5012SOL    HW115935   6.100   2.267   4.965
 5012SOL    HW215936   6.099   2.174   5.099
 5013SOL     OW15937   6.189   0.376   5.729
 5013SOL    HW115938   6.226   0.283   5.728
 5013SOL    HW215939   6.181   0.410   5.636
 5014SOL     OW15940   6.659   3.710   1.561
 5014SOL    HW115941   6.626   3.690   1.653
 5014SOL    HW215942   6.757   3.689   1.556
 5015SOL     OW15943   5.342   6.565   3.858
 5015SOL    HW115944   5.279   6.638   3.831
 5015SOL    HW215945   5.396   6.595   3.936
 5016SOL     OW15946   1.812   3.756   5.453
 5016SOL    HW115947   1.737   3.816   5.482
 5016SOL    HW215948   1.830   3.690   5.525
 5017SOL     OW15949   0.412   2.877   1.407
 5017SOL    HW115950   0.426   2.959   1.462
 5017SOL    HW215951   0.325   2.834   1.433
 5018SOL     OW15952   0.688   6.771   0.791
 5018SOL    HW115953   0.731   6.858   0.813
 5018SOL    HW215954   0.660   6.725   0.875
 5019SOL     OW15955   0.971   5.208   5.407
 5019SOL    HW115956   1.027   5.216   5.489
 5019SOL    HW215957   0.877   5.185   5.433
 5020SOL     OW15958   2.062   0.115   4.449
 5020SOL    HW115959   2.089   0.210   4.469
 5020SOL    HW215960   2.142   0.056   4.455
 5021SOL     OW15961   1.407   1.524   1.192
 5021SOL    HW115962   1.440   1.436   1.156
 5021SOL    HW215963   1.372   1.580   1.118
 5022SOL     OW15964   0.583   3.276   1.230
 5022SOL    HW115965   0.517   3.202   1.243
 5022SOL    HW215966   0.536   3.364   1.227
 5023SOL     OW15967   6.703   4.467   2.706
 5023SOL    HW115968   6.790   4.418   2.698
 5023SOL    HW215969   6.660   4.446   2.794
 5024SOL     OW15970   4.541   3.689   1.399
 5024SOL    HW115971   4.442   3.672   1.403
 5024SOL    HW215972   4.569   3.696   1.303
 5025SOL     OW15973   3.908   0.977   3.691
 5025SOL    HW115974   3.979   1.021   3.747
 5025SOL    HW215975   3.892   1.032   3.609
 5026SOL     OW15976   4.323   0.166   4.953
 5026SOL    HW115977   4.375   0.142   5.035
 5026SOL    HW215978   4.382   0.160   4.873
 5027SOL     OW15979   5.224   0.404   6.963
 5027SOL    HW115980   5.310   0.456   6.958
 5027SOL    HW215981   5.176   0.412   6.876
 5028SOL     OW15982   0.564   2.067   2.918
 5028SOL    HW115983   0.655   2.059   2.876
 5028SOL    HW215984   0.503   2.115   2.856
 5029SOL     OW15985   6.104   1.788   2.791
 5029SOL    HW115986   6.043   1.725   2.837
 5029SOL    HW215987   6.170   1.825   2.856
 5030SOL     OW15988   0.252   4.570   6.283
 5030SOL    HW115989   0.350   4.588   6.272
 5030SOL    HW215990   0.220   4.513   6.208
 5031SOL     OW15991   6.734   0.195   6.524
 5031SOL    HW115992   6.699   0.248   6.601
 5031SOL    HW215993   6.668   0.197   6.449
 5032SOL     OW15994   3.067   3.323   5.358
 5032SOL    HW115995   3.105   3.412   5.334
 5032SOL    HW215996   3.054   3.318   5.457
 5033SOL     OW15997   1.570   1.210   0.163
 5033SOL    HW115998   1.514   1.224   0.082
 5033SOL    HW215999   1.624   1.126   0.152
 5034SOL     OW16000   4.356   6.667   3.860
 5034SOL    HW116001   4.319   6.575   3.845
 5034SOL    HW216002   4.434   6.682   3.800
 5035SOL     OW16003   1.273   4.393   3.867
 5035SOL    HW116004   1.326   4.455   3.925
 5035SOL    HW216005   1.330   4.316   3.840
 5036SOL     OW16006   6.257   2.878   5.392
 5036SOL    HW116007   6.231   2.837   5.304
 5036SOL    HW216008   6.185   2.942   5.420
 5037SOL     OW16009   4.597   4.370   0.478
 5037SOL    HW116010   4.686   4.400   0.444
 5037SOL    HW216011   4.530   4.443   0.463
 5038SOL     OW16012   3.540   3.826   3.983
 5038SOL    HW116013   3.447   3.791   3.968
 5038SOL    HW216014   3.595   3.756   4.028
 5039SOL     OW16015   0.622   3.461   6.654
 5039SOL    HW116016   0.529   3.425   6.664
 5039SOL    HW216017   0.684   3.411   6.716
 5040SOL     OW16018   0.650   6.222   6.581
 5040SOL    HW116019   0.624   6.311   6.544
 5040SOL    HW216020   0.580   6.154   6.557
 5041SOL     OW16021   0.145   3.413   2.060
 5041SOL    HW116022   0.191   3.325   2.051
 5041SOL    HW216023   0.070   3.405   2.127
 5042SOL     OW16024   0.652   3.068   6.010
 5042SOL    HW116025   0.699   3.001   6.068
 5042SOL    HW216026   0.615   3.141   6.067
 5043SOL     OW16027   3.655   6.645   0.739
 5043SOL    HW116028   3.698   6.735   0.730
 5043SOL    HW216029   3.725   6.574   0.741
 5044SOL     OW16030   5.853   5.383   0.664
 5044SOL    HW116031   5.798   5.372   0.746
 5044SOL    HW216032   5.934   5.324   0.669
 5045SOL     OW16033   6.495   3.464   6.011
 5045SOL    HW116034   6.510   3.465   6.110
 5045SOL    HW216035   6.399   3.442   5.992
 5046SOL     OW16036   3.691   2.894   3.437
 5046SOL    HW116037   3.698   2.961   3.512
 5046SOL    HW216038   3.595   2.877   3.416
 5047SOL     OW16039   1.460   4.177   2.980
 5047SOL    HW116040   1.529   4.106   2.966
 5047SOL    HW216041   1.505   4.263   3.002
 5048SOL     OW16042   1.284   0.922   5.905
 5048SOL    HW116043   1.288   1.018   5.933
 5048SOL    HW216044   1.206   0.878   5.948
 5049SOL     OW16045   5.786   0.656   6.175
 5049SOL    HW116046   5.764   0.747   6.140
 5049SOL    HW216047   5.881   0.654   6.207
 5050SOL     OW16048   2.053   0.792   1.365
 5050SOL    HW116049   1.975   0.777   1.304
 5050SOL    HW216050   2.138   0.782   1.314
 5051SOL     OW16051   3.811   4.899   1.426
 5051SOL    HW116052   3.838   4.993   1.402
 5051SOL    HW216053   3.881   4.859   1.486
 5052SOL     OW16054   2.949   1.176   5.958
 5052SOL    HW116055   2.990   1.254   5.911
 5052SOL    HW216056   3.003   1.094   5.940
 5053SOL     OW16057   0.552   6.545   2.193
 5053SOL    HW116058   0.637   6.552   2.245
 5053SOL    HW216059   0.521   6.449   2.193
 5054SOL     OW16060   4.197   4.924   4.141
 5054SOL    HW116061   4.269   4.930   4.211
 5054SOL    HW216062   4.203   5.005   4.082
 5055SOL     OW16063   6.467   2.945   6.571
 5055SOL    HW116064   6.492   3.019   6.634
 5055SOL    HW216065   6.423   2.871   6.622
 5056SOL     OW16066   5.517   4.353   5.357
 5056SOL    HW116067   5.454   4.278   5.379
 5056SOL    HW216068   5.505   4.379   5.262
 5057SOL     OW16069   1.011   6.698   2.863
 5057SOL    HW116070   0.998   6.680   2.765
 5057SOL    HW216071   0.922   6.717   2.905
 5058SOL     OW16072   2.927   4.581   6.263
 5058SOL    HW116073   2.893   4.672   6.242
 5058SOL    HW216074   2.856   4.528   6.309
 5059SOL     OW16075   0.544   0.896   2.404
 5059SOL    HW116076   0.583   0.972   2.456
 5059SOL    HW216077   0.525   0.925   2.311
 5060SOL     OW16078   6.405   1.857   5.551
 5060SOL    HW116079   6.486   1.896   5.596
 5060SOL    HW216080   6.323   1.888   5.599
 5061SOL     OW16081   5.447   3.889   0.256
 5061SOL    HW116082   5.456   3.875   0.157
 5061SOL    HW216083   5.355   3.923   0.275
 5062SOL     OW16084   0.236   6.824   1.164
 5062SOL    HW116085   0.241   6.860   1.257
 5062SOL    HW216086   0.175   6.882   1.109
 5063SOL     OW16087   1.081   6.643   1.900
 5063SOL    HW116088   1.158   6.696   1.865
 5063SOL    HW216089   1.106   6.546   1.903
 5064SOL     OW16090   4.667   2.830   0.251
 5064SOL    HW116091   4.712   2.876   0.327
 5064SOL    HW216092   4.734   2.776   0.200
 5065SOL     OW16093   2.326   6.567   6.024
 5065SOL    HW116094   2.235   6.575   6.062
 5065SOL    HW216095   2.331   6.486   5.965
 5066SOL     OW16096   5.898   5.181   1.071
 5066SOL    HW116097   5.825   5.150   1.132
 5066SOL    HW216098   5.962   5.238   1.123
 5067SOL     OW16099   4.676   1.458   0.507
 5067SOL    HW116100   4.758   1.494   0.551
 5067SOL    HW216101   4.690   1.363   0.481
 5068SOL     OW16102   2.837   4.857   0.729
 5068SOL    HW116103   2.935   4.875   0.738
 5068SOL    HW216104   2.821   4.793   0.654
 5069SOL     OW16105   0.524   4.608   2.805
 5069SOL    HW116106   0.468   4.525   2.796
 5069SOL    HW216107   0.544   4.624   2.902
 5070SOL     OW16108   5.465   2.841   3.812
 5070SOL    HW116109   5.385   2.789   3.782
 5070SOL    HW216110   5.528   2.780   3.861
 5071SOL     OW16111   4.726   1.892   6.909
 5071SOL    HW116112   4.784   1.969   6.937
 5071SOL    HW216113   4.634   1.906   6.943
 5072SOL     OW16114   1.014   4.401   1.323
 5072SOL    HW116115   0.991   4.328   1.387
 5072SOL    HW216116   0.951   4.478   1.336
 5073SOL     OW16117   4.668   0.756   3.222
 5073SOL    HW116118   4.667   0.687   3.150
 5073SOL    HW216119   4.574   0.774   3.252
 5074SOL     OW16120   2.578   3.992   6.232
 5074SOL    HW116121   2.557   3.941   6.149
 5074SOL    HW216122   2.642   4.066   6.211
 5075SOL     OW16123   0.446   5.918   4.617
 5075SOL    HW116124   0.437   5.975   4.699
 5075SOL    HW216125   0.530   5.864   4.622
 5076SOL     OW16126   3.151   6.992   1.322
 5076SOL    HW116127   3.188   6.904   1.292
 5076SOL    HW216128   3.197   0.001   1.406
 5077SOL     OW16129   0.371   2.284   3.448
 5077SOL    HW116130   0.426   2.261   3.528
 5077SOL    HW216131   0.383   2.381   3.426
 5078SOL     OW16132   1.121   1.714   4.061
 5078SOL    HW116133   1.133   1.729   3.963
 5078SOL    HW216134   1.185   1.772   4.112
 5079SOL     OW16135   3.881   4.980   5.754
 5079SOL    HW116136   3.878   5.020   5.663
 5079SOL    HW216137   3.940   4.899   5.753
 5080SOL     OW16138   6.134   6.872   5.637
 5080SOL    HW116139   6.209   6.936   5.622
 5080SOL    HW216140   6.059   6.918   5.685
 5081SOL     OW16141   3.845   3.605   3.861
 5081SOL    HW116142   3.791   3.524   3.839
 5081SOL    HW216143   3.843   3.668   3.783
 5082SOL     OW16144   5.436   6.010   4.772
 5082SOL    HW116145   5.410   6.054   4.686
 5082SOL    HW216146   5.412   6.070   4.848
 5083SOL     OW16147   2.038   6.103   1.626
 5083SOL    HW116148   2.078   6.192   1.649
 5083SOL    HW216149   2.025   6.097   1.527
 5084SOL     OW16150   1.647   5.823   3.365
 5084SOL    HW116151   1.611   5.731   3.349
 5084SOL    HW216152   1.579   5.876   3.415
 5085SOL     OW16153   6.490   2.531   6.543
 5085SOL    HW116154   6.485   2.435   6.514
 5085SOL    HW216155   6.546   2.582   6.477
 5086SOL     OW16156   6.641   5.063   3.279
 5086SOL    HW116157   6.572   5.008   3.326
 5086SOL    HW216158   6.666   5.018   3.193
 5087SOL     OW16159   0.051   5.418   5.796
 5087SOL    HW116160   0.115   5.342   5.803
 5087SOL    HW216161   0.088   5.499   5.842
 5088SOL     OW16162   5.694   0.380   6.348
 5088SOL    HW116163   5.705   0.312   6.276
 5088SOL    HW216164   5.664   0.467   6.308
 5089SOL     OW16165   5.574   3.680   3.515
 5089SOL    HW116166   5.653   3.622   3.532
 5089SOL    HW216167   5.517   3.639   3.444
 5090SOL     OW16168   1.459   5.216   1.055
 5090SOL    HW116169   1.390   5.279   1.020
 5090SOL    HW216170   1.435   5.122   1.030
 5091SOL     OW16171   1.367   6.079   2.781
 5091SOL    HW116172   1.388   6.132   2.863
 5091SOL    HW216173   1.331   5.990   2.807
 5092SOL     OW16174   4.092   2.322   1.363
 5092SOL    HW116175   4.152   2.246   1.341
 5092SOL    HW216176   4.141   2.408   1.352
 5093SOL     OW16177   0.818   1.957   1.811
 5093SOL    HW116178   0.776   1.920   1.894
 5093SOL    HW216179   0.916   1.965   1.824
 5094SOL     OW16180   0.696   7.011   5.215
 5094SOL    HW116181   0.650   0.025   5.297
 5094SOL    HW216182   0.792   6.992   5.237
 5095SOL     OW16183   2.895   6.942   5.112
 5095SOL    HW116184   2.957   6.999   5.166
 5095SOL    HW216185   2.865   6.992   5.031
 5096SOL     OW16186   4.147   4.285   0.889
 5096SOL    HW116187   4.068   4.298   0.950
 5096SOL    HW216188   4.134   4.202   0.835
 5097SOL     OW16189   1.621   6.917   6.199
 5097SOL    HW116190   1.637   6.914   6.298
 5097SOL    HW216191   1.681   6.985   6.158
 5098SOL     OW16192   0.471   1.669   2.425
 5098SOL    HW116193   0.542   1.626   2.368
 5098SOL    HW216194   0.455   1.763   2.393
 5099SOL     OW16195   1.294   0.286   5.309
 5099SOL    HW116196   1.305   0.194   5.345
 5099SOL    HW216197   1.382   0.321   5.277
 5100SOL     OW16198   5.356   6.971   6.175
 5100SOL    HW116199   5.333   6.944   6.082
 5100SOL    HW216200   5.272   6.984   6.228
 5101SOL     OW16201   3.959   6.197   0.453
 5101SOL    HW116202   3.864   6.210   0.484
 5101SOL    HW216203   3.993   6.284   0.417
 5102SOL     OW16204   3.445   6.308   5.291
 5102SOL    HW116205   3.486   6.243   5.226
 5102SOL    HW216206   3.410   6.258   5.370
 5103SOL     OW16207   0.643   0.690   4.215
 5103SOL    HW116208   0.627   0.598   4.252
 5103SOL    HW216209   0.721   0.688   4.153
 5104SOL     OW16210   1.428   0.388   1.229
 5104SOL    HW116211   1.428   0.460   1.159
 5104SOL    HW216212   1.492   0.412   1.302
 5105SOL     OW16213   3.186   3.916   6.452
 5105SOL    HW116214   3.118   3.869   6.508
 5105SOL    HW216215   3.140   3.976   6.387
 5106SOL     OW16216   3.405   0.644   2.482
 5106SOL    HW116217   3.321   0.618   2.435
 5106SOL    HW216218   3.478   0.660   2.415
 5107SOL     OW16219   1.918   6.836   5.610
 5107SOL    HW116220   2.002   6.796   5.574
 5107SOL    HW216221   1.878   6.899   5.543
 5108SOL     OW16222   3.569   3.384   4.197
 5108SOL    HW116223   3.636   3.458   4.197
 5108SOL    HW216224   3.484   3.415   4.239
 5109SOL     OW16225   0.326   1.377   1.168
 5109SOL    HW116226   0.292   1.463   1.130
 5109SOL    HW216227   0.259   1.305   1.151
 5110SOL     OW16228   2.337   5.891   5.641
 5110SOL    HW116229   2.237   5.886   5.632
 5110SOL    HW216230   2.366   5.832   5.717
 5111SOL     OW16231   1.528   0.878   1.105
 5111SOL    HW116232   1.530   0.879   1.005
 5111SOL    HW216233   1.520   0.971   1.139
 5112SOL     OW16234   0.369   5.963   4.001
 5112SOL    HW116235   0.325   6.052   4.010
 5112SOL    HW216236   0.445   5.956   4.066
 5113SOL     OW16237   1.403   0.051   0.028
 5113SOL    HW116238   1.449   0.121   0.084
 5113SOL    HW216239   1.347   0.095   6.978
 5114SOL     OW16240   3.878   4.798   0.305
 5114SOL    HW116241   3.958   4.856   0.293
 5114SOL    HW216242   3.811   4.845   0.363
 5115SOL     OW16243   1.934   3.433   5.570
 5115SOL    HW116244   2.001   3.492   5.525
 5115SOL    HW216245   1.887   3.378   5.501
 5116SOL     OW16246   6.759   4.469   0.796
 5116SOL    HW116247   6.718   4.514   0.875
 5116SOL    HW216248   6.832   4.408   0.827
 5117SOL     OW16249   2.463   4.502   4.321
 5117SOL    HW116250   2.502   4.459   4.240
 5117SOL    HW216251   2.442   4.432   4.389
 5118SOL     OW16252   4.493   6.531   0.948
 5118SOL    HW116253   4.463   6.436   0.945
 5118SOL    HW216254   4.517   6.561   0.855
 5119SOL     OW16255   5.670   6.972   2.107
 5119SOL    HW116256   5.754   7.019   2.084
 5119SOL    HW216257   5.591   0.009   2.081
 5120SOL     OW16258   5.326   1.578   2.634
 5120SOL    HW116259   5.227   1.586   2.643
 5120SOL    HW216260   5.362   1.515   2.703
 5121SOL     OW16261   0.588   3.785   5.374
 5121SOL    HW116262   0.635   3.697   5.375
 5121SOL    HW216263   0.650   3.857   5.403
 5122SOL     OW16264   1.928   6.239   3.546
 5122SOL    HW116265   1.905   6.293   3.627
 5122SOL    HW216266   2.009   6.277   3.502
 5123SOL     OW16267   5.631   4.655   2.512
 5123SOL    HW116268   5.608   4.620   2.603
 5123SOL    HW216269   5.579   4.738   2.494
 5124SOL     OW16270   2.736   6.624   7.008
 5124SOL    HW116271   2.806   6.693   0.005
 5124SOL    HW216272   2.666   6.662   6.948
 5125SOL     OW16273   0.092   3.065   5.121
 5125SOL    HW116274   0.170   3.113   5.161
 5125SOL    HW216275   0.094   2.969   5.147
 5126SOL     OW16276   5.492   3.472   6.207
 5126SOL    HW116277   5.539   3.508   6.288
 5126SOL    HW216278   5.539   3.390   6.175
 5127SOL     OW16279   5.946   3.161   6.648
 5127SOL    HW116280   5.942   3.165   6.748
 5127SOL    HW216281   5.974   3.069   6.619
 5128SOL     OW16282   0.352   0.849   7.000
 5128SOL    HW116283   0.312   0.939   6.979
 5128SOL    HW216284   0.281   0.788   0.014
 5129SOL     OW16285   4.098   1.978   2.492
 5129SOL    HW116286   4.147   1.896   2.462
 5129SOL    HW216287   4.019   1.992   2.433
 5130SOL     OW16288   1.109   6.283   4.741
 5130SOL    HW116289   1.102   6.184   4.724
 5130SOL    HW216290   1.024   6.316   4.781
 5131SOL     OW16291   3.175   4.896   3.650
 5131SOL    HW116292   3.180   4.986   3.691
 5131SOL    HW216293   3.257   4.843   3.671
 5132SOL     OW16294   3.637   1.071   6.849
 5132SOL    HW116295   3.702   1.147   6.846
 5132SOL    HW216296   3.632   1.027   6.759
 5133SOL     OW16297   4.839   4.462   6.597
 5133SOL    HW116298   4.838   4.440   6.695
 5133SOL    HW216299   4.749   4.439   6.558
 5134SOL     OW16300   6.405   6.312   1.080
 5134SOL    HW116301   6.396   6.403   1.121
 5134SOL    HW216302   6.445   6.320   0.989
 5135SOL     OW16303   6.386   3.399   2.001
 5135SOL    HW116304   6.471   3.444   2.027
 5135SOL    HW216305   6.404   3.330   1.931
 5136SOL     OW16306   1.076   0.811   6.050
 5136SOL    HW116307   0.978   0.804   6.036
 5136SOL    HW216308   1.094   0.874   6.126
 5137SOL     OW16309   6.217   1.229   4.419
 5137SOL    HW116310   6.127   1.239   4.461
 5137SOL    HW216311   6.285   1.281   4.472
 5138SOL     OW16312   2.969   3.432   3.971
 5138SOL    HW116313   3.063   3.405   3.949
 5138SOL    HW216314   2.919   3.446   3.886
 5139SOL     OW16315   2.706   0.218   5.717
 5139SOL    HW116316   2.748   0.278   5.650
 5139SOL    HW216317   2.773   0.193   5.787
 5140SOL     OW16318   3.998   2.422   6.633
 5140SOL    HW116319   4.030   2.468   6.716
 5140SOL    HW216320   4.048   2.336   6.622
 5141SOL     OW16321   6.692   2.793   1.601
 5141SOL    HW116322   6.626   2.722   1.625
 5141SOL    HW216323   6.682   2.817   1.505
 5142SOL     OW16324   0.257   0.144   2.213
 5142SOL    HW116325   0.171   0.103   2.244
 5142SOL    HW216326   0.246   0.243   2.205
 5143SOL     OW16327   0.097   6.334   2.927
 5143SOL    HW116328   0.065   6.396   2.999
 5143SOL    HW216329   0.024   6.269   2.905
 5144SOL     OW16330   2.396   2.971   5.421
 5144SOL    HW116331   2.445   3.010   5.343
 5144SOL    HW216332   2.298   2.988   5.411
 5145SOL     OW16333   1.996   5.646   6.812
 5145SOL    HW116334   1.953   5.580   6.750
 5145SOL    HW216335   2.072   5.601   6.860
 5146SOL     OW16336   5.749   5.573   6.441
 5146SOL    HW116337   5.756   5.646   6.373
 5146SOL    HW216338   5.798   5.492   6.408
 5147SOL     OW16339   4.614   2.458   3.600
 5147SOL    HW116340   4.603   2.539   3.544
 5147SOL    HW216341   4.557   2.466   3.682
 5148SOL     OW16342   0.906   0.428   6.365
 5148SOL    HW116343   0.978   0.428   6.295
 5148SOL    HW216344   0.818   0.451   6.323
 5149SOL     OW16345   4.673   4.674   3.768
 5149SOL    HW116346   4.702   4.685   3.863
 5149SOL    HW216347   4.603   4.604   3.762
 5150SOL     OW16348   0.280   6.213   3.975
 5150SOL    HW116349   0.345   6.287   3.959
 5150SOL    HW216350   0.188   6.251   3.982
 5151SOL     OW16351   6.369   5.591   2.154
 5151SOL    HW116352   6.313   5.668   2.185
 5151SOL    HW216353   6.459   5.624   2.125
 5152SOL     OW16354   1.289   1.066   0.565
 5152SOL    HW116355   1.300   1.153   0.516
 5152SOL    HW216356   1.239   1.083   0.650
 5153SOL     OW16357   0.972   1.987   0.963
 5153SOL    HW116358   1.037   2.046   1.011
 5153SOL    HW216359   0.960   1.902   1.013
 5154SOL     OW16360   0.305   2.913   0.327
 5154SOL    HW116361   0.305   2.815   0.308
 5154SOL    HW216362   0.212   2.944   0.345
 5155SOL     OW16363   1.695   1.384   0.759
 5155SOL    HW116364   1.664   1.478   0.772
 5155SOL    HW216365   1.785   1.384   0.717
 5156SOL     OW16366   5.207   6.210   5.806
 5156SOL    HW116367   5.208   6.132   5.868
 5156SOL    HW216368   5.114   6.229   5.777
 5157SOL     OW16369   3.330   0.104   1.539
 5157SOL    HW116370   3.297   0.194   1.512
 5157SOL    HW216371   3.362   0.107   1.633
 5158SOL     OW16372   1.947   2.330   1.631
 5158SOL    HW116373   1.914   2.389   1.557
 5158SOL    HW216374   1.886   2.338   1.710
 5159SOL     OW16375   6.295   3.034   5.853
 5159SOL    HW116376   6.249   3.123   5.853
 5159SOL    HW216377   6.332   3.016   5.762
 5160SOL     OW16378   6.111   6.456   3.519
 5160SOL    HW116379   6.146   6.539   3.561
 5160SOL    HW216380   6.094   6.387   3.589
 5161SOL     OW16381   1.315   3.460   0.442
 5161SOL    HW116382   1.228   3.415   0.464
 5161SOL    HW216383   1.355   3.498   0.526
 5162SOL     OW16384   0.154   0.119   3.717
 5162SOL    HW116385   0.089   0.077   3.653
 5162SOL    HW216386   0.127   0.214   3.734
 5163SOL     OW16387   3.127   0.388   1.804
 5163SOL    HW116388   3.055   0.380   1.735
 5163SOL    HW216389   3.161   0.483   1.805
 5164SOL     OW16390   3.337   3.505   0.471
 5164SOL    HW116391   3.383   3.473   0.389
 5164SOL    HW216392   3.297   3.427   0.519
 5165SOL     OW16393   1.806   4.339   5.997
 5165SOL    HW116394   1.854   4.354   5.910
 5165SOL    HW216395   1.863   4.283   6.057
 5166SOL     OW16396   1.347   5.436   0.623
 5166SOL    HW116397   1.343   5.372   0.701
 5166SOL    HW216398   1.318   5.526   0.653
 5167SOL     OW16399   5.441   3.137   5.071
 5167SOL    HW116400   5.361   3.186   5.037
 5167SOL    HW216401   5.459   3.058   5.013
 5168SOL     OW16402   4.265   2.312   3.093
 5168SOL    HW116403   4.202   2.303   3.170
 5168SOL    HW216404   4.217   2.293   3.008
 5169SOL     OW16405   4.132   5.843   4.523
 5169SOL    HW116406   4.196   5.807   4.456
 5169SOL    HW216407   4.091   5.768   4.574
 5170SOL     OW16408   2.220   3.494   6.274
 5170SOL    HW116409   2.225   3.593   6.266
 5170SOL    HW216410   2.127   3.467   6.299
 5171SOL     OW16411   2.069   5.907   5.562
 5171SOL    HW116412   2.072   5.979   5.492
 5171SOL    HW216413   1.978   5.905   5.603
 5172SOL     OW16414   6.120   5.715   4.669
 5172SOL    HW116415   6.219   5.710   4.657
 5172SOL    HW216416   6.076   5.648   4.608
 5173SOL     OW16417   4.353   4.107   5.766
 5173SOL    HW116418   4.358   4.155   5.678
 5173SOL    HW216419   4.297   4.025   5.756
 5174SOL     OW16420   2.381   6.449   3.274
 5174SOL    HW116421   2.416   6.511   3.203
 5174SOL    HW216422   2.454   6.386   3.301
 5175SOL     OW16423   3.252   3.349   6.907
 5175SOL    HW116424   3.161   3.322   6.941
 5175SOL    HW216425   3.303   3.394   6.980
 5176SOL     OW16426   6.313   6.186   0.156
 5176SOL    HW116427   6.398   6.177   0.104
 5176SOL    HW216428   6.334   6.206   0.252
 5177SOL     OW16429   6.181   7.010   0.494
 5177SOL    HW116430   6.129   6.941   0.545
 5177SOL    HW216431   6.166   6.996   0.396
 5178SOL     OW16432   0.674   4.430   2.365
 5178SOL    HW116433   0.626   4.495   2.306
 5178SOL    HW216434   0.752   4.391   2.316
 5179SOL     OW16435   4.676   6.254   2.473
 5179SOL    HW116436   4.729   6.183   2.518
 5179SOL    HW216437   4.737   6.327   2.442
 5180SOL     OW16438   2.469   6.375   2.552
 5180SOL    HW116439   2.442   6.464   2.590
 5180SOL    HW216440   2.437   6.368   2.458
 5181SOL     OW16441   0.194   0.225   6.083
 5181SOL    HW116442   0.174   0.179   5.997
 5181SOL    HW216443   0.196   0.159   6.158
 5182SOL     OW16444   2.922   6.547   3.284
 5182SOL    HW116445   2.964   6.619   3.228
 5182SOL    HW216446   2.823   6.556   3.281
 5183SOL     OW16447   4.245   1.470   3.854
 5183SOL    HW116448   4.334   1.494   3.893
 5183SOL    HW216449   4.175   1.474   3.925
 5184SOL     OW16450   3.142   1.106   3.883
 5184SOL    HW116451   3.113   1.064   3.798
 5184SOL    HW216452   3.065   1.153   3.926
 5185SOL     OW16453   6.717   0.463   1.697
 5185SOL    HW116454   6.753   0.517   1.774
 5185SOL    HW216455   6.793   0.431   1.640
 5186SOL     OW16456   0.372   3.345   6.659
 5186SOL    HW116457   0.302   3.278   6.684
 5186SOL    HW216458   0.367   3.362   6.560
 5187SOL     OW16459   1.505   4.466   5.278
 5187SOL    HW116460   1.474   4.401   5.347
 5187SOL    HW216461   1.434   4.536   5.264
 5188SOL     OW16462   5.890   0.105   2.572
 5188SOL    HW116463   5.917   0.044   2.497
 5188SOL    HW216464   5.793   0.126   2.564
 5189SOL     OW16465   5.612   6.867   6.066
 5189SOL    HW116466   5.529   6.921   6.082
 5189SOL    HW216467   5.653   6.894   5.979
 5190SOL     OW16468   2.094   3.920   0.545
 5190SOL    HW116469   2.088   3.912   0.445
 5190SOL    HW216470   2.119   3.831   0.583
 5191SOL     OW16471   2.982   5.053   2.099
 5191SOL    HW116472   3.051   5.092   2.038
 5191SOL    HW216473   2.981   4.954   2.090
 5192SOL     OW16474   2.101   5.296   2.218
 5192SOL    HW116475   2.121   5.339   2.307
 5192SOL    HW216476   2.002   5.285   2.209
 5193SOL     OW16477   5.090   6.935   5.135
 5193SOL    HW116478   5.017   6.870   5.114
 5193SOL    HW216479   5.093   6.951   5.233
 5194SOL     OW16480   5.443   1.502   6.287
 5194SOL    HW116481   5.372   1.479   6.353
 5194SOL    HW216482   5.433   1.597   6.258
 5195SOL     OW16483   0.101   0.909   4.799
 5195SOL    HW116484   0.143   0.877   4.714
 5195SOL    HW216485   0.124   0.846   4.873
 5196SOL     OW16486   5.694   6.890   3.214
 5196SOL    HW116487   5.703   6.853   3.122
 5196SOL    HW216488   5.754   6.969   3.224
 5197SOL     OW16489   0.994   3.556   5.135
 5197SOL    HW116490   1.021   3.642   5.178
 5197SOL    HW216491   0.903   3.566   5.094
 5198SOL     OW16492   5.714   5.549   3.465
 5198SOL    HW116493   5.713   5.589   3.373
 5198SOL    HW216494   5.637   5.486   3.474
 5199SOL     OW16495   0.548   4.622   1.786
 5199SOL    HW116496   0.571   4.525   1.790
 5199SOL    HW216497   0.460   4.638   1.829
 5200SOL     OW16498   7.009   3.832   4.462
 5200SOL    HW116499   6.909   3.832   4.469
 5200SOL    HW216500   0.026   3.900   4.525
 5201SOL     OW16501   1.390   4.814   4.392
 5201SOL    HW116502   1.302   4.769   4.412
 5201SOL    HW216503   1.390   4.845   4.297
 5202SOL     OW16504   0.695   5.134   1.662
 5202SOL    HW116505   0.785   5.161   1.630
 5202SOL    HW216506   0.669   5.047   1.620
 5203SOL     OW16507   0.800   3.059   0.523
 5203SOL    HW116508   0.852   3.076   0.439
 5203SOL    HW216509   0.715   3.012   0.500
 5204SOL     OW16510   4.823   4.419   6.859
 5204SOL    HW116511   4.844   4.365   6.940
 5204SOL    HW216512   4.806   4.514   6.885
 5205SOL     OW16513   1.510   0.142   1.222
 5205SOL    HW116514   1.507   0.096   1.134
 5205SOL    HW216515   1.485   0.238   1.210
 5206SOL     OW16516   0.435   4.232   4.860
 5206SOL    HW116517   0.528   4.219   4.828
 5206SOL    HW216518   0.435   4.295   4.938
 5207SOL     OW16519   2.008   4.333   4.029
 5207SOL    HW116520   1.981   4.254   3.973
 5207SOL    HW216521   1.999   4.417   3.975
 5208SOL     OW16522   4.319   1.309   6.814
 5208SOL    HW116523   4.369   1.387   6.777
 5208SOL    HW216524   4.241   1.289   6.755
 5209SOL     OW16525   4.942   6.289   3.122
 5209SOL    HW116526   5.024   6.272   3.176
 5209SOL    HW216527   4.897   6.372   3.154
 5210SOL     OW16528   4.548   5.176   3.519
 5210SOL    HW116529   4.475   5.219   3.466
 5210SOL    HW216530   4.626   5.157   3.459
 5211SOL     OW16531   3.796   3.911   2.558
 5211SOL    HW116532   3.840   3.930   2.647
 5211SOL    HW216533   3.717   3.972   2.547
 5212SOL     OW16534   0.755   1.900   0.512
 5212SOL    HW116535   0.764   1.977   0.449
 5212SOL    HW216536   0.774   1.814   0.463
 5213SOL     OW16537   4.008   1.626   6.525
 5213SOL    HW116538   3.954   1.709   6.537
 5213SOL    HW216539   3.950   1.546   6.543
 5214SOL     OW16540   5.627   1.568   5.885
 5214SOL    HW116541   5.562   1.570   5.809
 5214SOL    HW216542   5.634   1.659   5.926
 5215SOL     OW16543   4.914   5.363   2.327
 5215SOL    HW116544   4.935   5.384   2.422
 5215SOL    HW216545   4.815   5.367   2.313
 5216SOL     OW16546   4.987   5.160   1.066
 5216SOL    HW116547   4.958   5.255   1.078
 5216SOL    HW216548   4.936   5.118   0.991
 5217SOL     OW16549   2.434   4.996   3.913
 5217SOL    HW116550   2.384   5.012   3.828
 5217SOL    HW216551   2.477   4.906   3.910
 5218SOL     OW16552   1.635   6.924   4.014
 5218SOL    HW116553   1.582   6.980   4.077
 5218SOL    HW216554   1.666   6.841   4.061
 5219SOL     OW16555   2.487   5.518   0.212
 5219SOL    HW116556   2.563   5.583   0.210
 5219SOL    HW216557   2.401   5.565   0.192
 5220SOL     OW16558   0.577   6.845   2.340
 5220SOL    HW116559   0.570   6.945   2.345
 5220SOL    HW216560   0.672   6.817   2.346
 5221SOL     OW16561   4.767   1.264   5.293
 5221SOL    HW116562   4.724   1.317   5.220
 5221SOL    HW216563   4.844   1.211   5.256
 5222SOL     OW16564   1.251   0.506   2.397
 5222SOL    HW116565   1.241   0.566   2.318
 5222SOL    HW216566   1.193   0.539   2.471
 5223SOL     OW16567   5.279   6.874   1.085
 5223SOL    HW116568   5.204   6.889   1.148
 5223SOL    HW216569   5.313   6.780   1.095
 5224SOL     OW16570   5.895   2.068   2.480
 5224SOL    HW116571   5.957   1.991   2.497
 5224SOL    HW216572   5.860   2.102   2.568
 5225SOL     OW16573   5.216   5.929   5.430
 5225SOL    HW116574   5.186   6.000   5.366
 5225SOL    HW216575   5.151   5.923   5.506
 5226SOL     OW16576   1.215   6.242   4.233
 5226SOL    HW116577   1.186   6.155   4.274
 5226SOL    HW216578   1.163   6.317   4.273
 5227SOL     OW16579   6.040   4.851   3.261
 5227SOL    HW116580   6.098   4.895   3.192
 5227SOL    HW216581   5.951   4.897   3.264
 5228SOL     OW16582   5.688   1.286   0.905
 5228SOL    HW116583   5.650   1.328   0.822
 5228SOL    HW216584   5.721   1.358   0.966
 5229SOL     OW16585   1.534   4.468   4.911
 5229SOL    HW116586   1.535   4.372   4.936
 5229SOL    HW216587   1.441   4.494   4.883
 5230SOL     OW16588   1.029   6.830   6.990
 5230SOL    HW116589   1.055   6.873   6.904
 5230SOL    HW216590   1.059   6.887   0.046
 5231SOL     OW16591   3.922   3.122   3.492
 5231SOL    HW116592   3.951   3.038   3.445
 5231SOL    HW216593   3.847   3.101   3.555
 5232SOL     OW16594   4.923   2.642   6.455
 5232SOL    HW116595   4.947   2.672   6.363
 5232SOL    HW216596   4.840   2.688   6.484
 5233SOL     OW16597   0.726   0.705   2.446
 5233SOL    HW116598   0.806   0.763   2.463
 5233SOL    HW216599   0.643   0.761   2.445
 5234SOL     OW16600   3.850   6.783   0.979
 5234SOL    HW116601   3.752   6.781   0.959
 5234SOL    HW216602   3.899   6.735   0.906
 5235SOL     OW16603   0.774   3.440   1.394
 5235SOL    HW116604   0.813   3.526   1.362
 5235SOL    HW216605   0.759   3.378   1.317
 5236SOL     OW16606   5.013   2.965   0.875
 5236SOL    HW116607   5.050   3.044   0.925
 5236SOL    HW216608   4.986   2.894   0.940
 5237SOL     OW16609   2.339   1.610   5.039
 5237SOL    HW116610   2.302   1.672   4.970
 5237SOL    HW216611   2.399   1.543   4.994
 5238SOL     OW16612   1.863   4.370   0.982
 5238SOL    HW116613   1.875   4.406   0.890
 5238SOL    HW216614   1.912   4.429   1.047
 5239SOL     OW16615   3.073   3.683   4.433
 5239SOL    HW116616   3.164   3.642   4.436
 5239SOL    HW216617   3.005   3.613   4.412
 5240SOL     OW16618   3.280   2.075   4.814
 5240SOL    HW116619   3.255   2.139   4.887
 5240SOL    HW216620   3.366   2.105   4.772
 5241SOL     OW16621   1.998   5.713   6.454
 5241SOL    HW116622   1.972   5.640   6.518
 5241SOL    HW216623   2.082   5.688   6.407
 5242SOL     OW16624   5.890   0.726   5.847
 5242SOL    HW116625   5.872   0.686   5.937
 5242SOL    HW216626   5.987   0.752   5.841
 5243SOL     OW16627   1.227   4.726   1.025
 5243SOL    HW116628   1.234   4.699   1.121
 5243SOL    HW216629   1.267   4.655   0.968
 5244SOL     OW16630   5.302   4.070   6.133
 5244SOL    HW116631   5.377   4.052   6.069
 5244SOL    HW216632   5.272   4.165   6.122
 5245SOL     OW16633   4.983   3.849   6.562
 5245SOL    HW116634   4.950   3.767   6.608
 5245SOL    HW216635   5.015   3.825   6.470
 5246SOL     OW16636   1.022   3.257   2.515
 5246SOL    HW116637   1.005   3.166   2.477
 5246SOL    HW216638   0.988   3.262   2.609
 5247SOL     OW16639   0.650   5.045   1.139
 5247SOL    HW116640   0.554   5.046   1.168
 5247SOL    HW216641   0.664   5.118   1.071
 5248SOL     OW16642   5.005   0.986   6.024
 5248SOL    HW116643   5.074   0.914   6.031
 5248SOL    HW216644   5.029   1.047   5.948
 5249SOL     OW16645   0.942   5.070   4.766
 5249SOL    HW116646   1.027   5.052   4.816
 5249SOL    HW216647   0.957   5.053   4.669
 5250SOL     OW16648   0.723   1.252   6.337
 5250SOL    HW116649   0.649   1.317   6.350
 5250SOL    HW216650   0.745   1.246   6.239
 5251SOL     OW16651   6.950   3.101   1.046
 5251SOL    HW116652   6.914   3.037   0.978
 5251SOL    HW216653   6.989   3.050   1.123
 5252SOL     OW16654   4.077   5.972   0.608
 5252SOL    HW116655   4.046   6.057   0.566
 5252SOL    HW216656   4.153   5.991   0.669
 5253SOL     OW16657   5.538   3.369   3.523
 5253SOL    HW116658   5.477   3.443   3.553
 5253SOL    HW216659   5.632   3.403   3.521
 5254SOL     OW16660   4.874   0.932   4.035
 5254SOL    HW116661   4.884   0.841   3.995
 5254SOL    HW216662   4.813   0.987   3.979
 5255SOL     OW16663   3.516   6.316   4.795
 5255SOL    HW116664   3.571   6.392   4.761
 5255SOL    HW216665   3.446   6.292   4.728
 5256SOL     OW16666   5.675   6.456   3.389
 5256SOL    HW116667   5.713   6.515   3.318
 5256SOL    HW216668   5.744   6.389   3.417
 5257SOL     OW16669   3.153   0.735   1.324
 5257SOL    HW116670   3.118   0.740   1.230
 5257SOL    HW216671   3.076   0.728   1.388
 5258SOL     OW16672   5.688   3.086   2.197
 5258SOL    HW116673   5.629   3.068   2.276
 5258SOL    HW216674   5.784   3.071   2.224
 5259SOL     OW16675   4.643   5.052   2.424
 5259SOL    HW116676   4.554   5.054   2.378
 5259SOL    HW216677   4.697   4.974   2.391
 5260SOL     OW16678   5.555   3.289   1.207
 5260SOL    HW116679   5.474   3.244   1.245
 5260SOL    HW216680   5.528   3.344   1.128
 5261SOL     OW16681   1.644   2.608   4.695
 5261SOL    HW116682   1.544   2.607   4.693
 5261SOL    HW216683   1.676   2.604   4.790
 5262SOL     OW16684   2.494   6.912   2.449
 5262SOL    HW116685   2.535   6.874   2.532
 5262SOL    HW216686   2.407   6.866   2.431
 5263SOL     OW16687   0.821   6.473   6.949
 5263SOL    HW116688   0.734   6.436   6.916
 5263SOL    HW216689   0.892   6.454   6.881
 5264SOL     OW16690   0.345   2.256   0.735
 5264SOL    HW116691   0.399   2.221   0.659
 5264SOL    HW216692   0.327   2.183   0.800
 5265SOL     OW16693   5.226   4.770   1.906
 5265SOL    HW116694   5.145   4.712   1.900
 5265SOL    HW216695   5.290   4.746   1.833
 5266SOL     OW16696   1.702   6.531   1.062
 5266SOL    HW116697   1.663   6.487   1.143
 5266SOL    HW216698   1.802   6.529   1.068
 5267SOL     OW16699   4.746   4.547   4.676
 5267SOL    HW116700   4.813   4.473   4.685
 5267SOL    HW216701   4.654   4.509   4.685
 5268SOL     OW16702   5.707   4.479   4.620
 5268SOL    HW116703   5.777   4.550   4.625
 5268SOL    HW216704   5.630   4.503   4.679
 5269SOL     OW16705   1.913   6.018   3.956
 5269SOL    HW116706   1.963   5.932   3.968
 5269SOL    HW216707   1.850   6.009   3.879
 5270SOL     OW16708   5.968   2.636   2.134
 5270SOL    HW116709   5.960   2.566   2.063
 5270SOL    HW216710   6.062   2.671   2.136
 5271SOL     OW16711   5.033   4.510   5.007
 5271SOL    HW116712   4.966   4.557   4.950
 5271SOL    HW216713   5.038   4.414   4.980
 5272SOL     OW16714   1.744   0.939   4.973
 5272SOL    HW116715   1.731   1.013   5.040
 5272SOL    HW216716   1.669   0.940   4.908
 5273SOL     OW16717   0.532   0.910   4.002
 5273SOL    HW116718   0.541   0.855   3.919
 5273SOL    HW216719   0.577   0.864   4.079
 5274SOL     OW16720   6.483   5.106   3.906
 5274SOL    HW116721   6.444   5.138   3.820
 5274SOL    HW216722   6.532   5.181   3.950
 5275SOL     OW16723   2.113   6.994   7.019
 5275SOL    HW116724   2.138   6.939   0.078
 5275SOL    HW216725   2.016   6.982   6.999
 5276SOL     OW16726   0.225   6.482   1.390
 5276SOL    HW116727   0.252   6.475   1.487
 5276SOL    HW216728   0.140   6.533   1.383
 5277SOL     OW16729   1.189   1.934   3.304
 5277SOL    HW116730   1.110   1.961   3.249
 5277SOL    HW216731   1.270   1.927   3.244
 5278SOL     OW16732   0.984   5.397   5.191
 5278SOL    HW116733   0.935   5.340   5.125
 5278SOL    HW216734   0.992   5.347   5.278
 5279SOL     OW16735   1.639   5.667   6.616
 5279SOL    HW116736   1.545   5.634   6.622
 5279SOL    HW216737   1.639   5.767   6.607
 5280SOL     OW16738   4.444   5.969   5.130
 5280SOL    HW116739   4.505   5.904   5.175
 5280SOL    HW216740   4.355   5.969   5.176
 5281SOL     OW16741   2.237   1.175   4.979
 5281SOL    HW116742   2.247   1.177   5.079
 5281SOL    HW216743   2.175   1.101   4.953
 5282SOL     OW16744   1.314   0.225   1.688
 5282SOL    HW116745   1.253   0.287   1.638
 5282SOL    HW216746   1.406   0.230   1.648
 5283SOL     OW16747   0.638   0.909   4.338
 5283SOL    HW116748   0.578   0.897   4.417
 5283SOL    HW216749   0.652   0.821   4.293
 5284SOL     OW16750   4.655   2.265   1.864
 5284SOL    HW116751   4.658   2.273   1.765
 5284SOL    HW216752   4.708   2.185   1.893
 5285SOL     OW16753   1.041   2.354   4.333
 5285SOL    HW116754   1.020   2.308   4.419
 5285SOL    HW216755   0.961   2.405   4.302
 5286SOL     OW16756   6.000   2.945   0.929
 5286SOL    HW116757   5.921   3.006   0.924
 5286SOL    HW216758   6.056   2.969   1.008
 5287SOL     OW16759   2.816   5.159   1.009
 5287SOL    HW116760   2.875   5.201   1.078
 5287SOL    HW216761   2.811   5.060   1.025
 5288SOL     OW16762   4.482   0.911   2.364
 5288SOL    HW116763   4.548   0.984   2.382
 5288SOL    HW216764   4.424   0.898   2.444
 5289SOL     OW16765   2.203   4.442   6.183
 5289SOL    HW116766   2.127   4.475   6.128
 5289SOL    HW216767   2.289   4.465   6.137
 5290SOL     OW16768   1.275   2.959   5.731
 5290SOL    HW116769   1.305   2.996   5.819
 5290SOL    HW216770   1.181   2.928   5.737
 5291SOL     OW16771   2.799   4.748   4.733
 5291SOL    HW116772   2.706   4.716   4.715
 5291SOL    HW216773   2.830   4.714   4.821
 5292SOL     OW16774   6.828   4.115   6.393
 5292SOL    HW116775   6.801   4.131   6.298
 5292SOL    HW216776   6.812   4.197   6.447
 5293SOL     OW16777   2.066   6.013   4.598
 5293SOL    HW116778   2.046   5.929   4.649
 5293SOL    HW216779   2.041   6.000   4.502
 5294SOL     OW16780   3.832   0.434   5.075
 5294SOL    HW116781   3.852   0.531   5.057
 5294SOL    HW216782   3.912   0.379   5.051
 5295SOL     OW16783   2.697   1.138   2.127
 5295SOL    HW116784   2.719   1.128   2.224
 5295SOL    HW216785   2.607   1.098   2.109
 5296SOL     OW16786   4.394   4.839   1.107
 5296SOL    HW116787   4.448   4.920   1.128
 5296SOL    HW216788   4.455   4.764   1.080
 5297SOL     OW16789   2.321   4.299   0.656
 5297SOL    HW116790   2.408   4.253   0.676
 5297SOL    HW216791   2.275   4.252   0.581
 5298SOL     OW16792   2.188   0.262   0.710
 5298SOL    HW116793   2.130   0.309   0.776
 5298SOL    HW216794   2.153   0.278   0.618
 5299SOL     OW16795   2.934   1.676   0.551
 5299SOL    HW116796   2.942   1.701   0.455
 5299SOL    HW216797   2.925   1.576   0.559
 5300SOL     OW16798   2.072   4.317   0.184
 5300SOL    HW116799   2.087   4.413   0.161
 5300SOL    HW216800   2.111   4.297   0.273
 5301SOL     OW16801   4.773   0.565   5.788
 5301SOL    HW116802   4.867   0.539   5.810
 5301SOL    HW216803   4.751   0.532   5.696
 5302SOL     OW16804   5.456   5.763   3.080
 5302SOL    HW116805   5.366   5.781   3.119
 5302SOL    HW216806   5.447   5.703   3.001
 5303SOL     OW16807   6.791   4.686   5.870
 5303SOL    HW116808   6.819   4.627   5.795
 5303SOL    HW216809   6.838   4.774   5.863
 5304SOL     OW16810   6.595   1.212   1.328
 5304SOL    HW116811   6.667   1.275   1.299
 5304SOL    HW216812   6.611   1.185   1.423
 5305SOL     OW16813   1.494   5.472   2.863
 5305SOL    HW116814   1.525   5.385   2.823
 5305SOL    HW216815   1.541   5.487   2.950
 5306SOL     OW16816   6.513   3.918   5.587
 5306SOL    HW116817   6.489   3.831   5.629
 5306SOL    HW216818   6.440   3.985   5.604
 5307SOL     OW16819   5.096   2.574   0.944
 5307SOL    HW116820   5.150   2.657   0.956
 5307SOL    HW216821   5.131   2.523   0.865
 5308SOL     OW16822   1.477   4.779   2.937
 5308SOL    HW116823   1.433   4.835   3.007
 5308SOL    HW216824   1.408   4.722   2.892
 5309SOL     OW16825   4.627   6.404   3.070
 5309SOL    HW116826   4.545   6.454   3.100
 5309SOL    HW216827   4.707   6.438   3.120
 5310SOL     OW16828   5.922   3.098   3.033
 5310SOL    HW116829   5.942   3.013   2.985
 5310SOL    HW216830   5.942   3.088   3.130
 5311SOL     OW16831   5.729   0.289   0.588
 5311SOL    HW116832   5.714   0.317   0.493
 5311SOL    HW216833   5.789   0.354   0.634
 5312SOL     OW16834   6.947   6.590   1.351
 5312SOL    HW116835   6.853   6.575   1.319
 5312SOL    HW216836   6.946   6.602   1.451
 5313SOL     OW16837   6.907   5.104   5.115
 5313SOL    HW116838   6.882   5.128   5.021
 5313SOL    HW216839   6.826   5.074   5.164
 5314SOL     OW16840   5.949   6.779   1.481
 5314SOL    HW116841   5.939   6.769   1.580
 5314SOL    HW216842   6.021   6.845   1.462
 5315SOL     OW16843   4.402   0.880   3.909
 5315SOL    HW116844   4.486   0.870   3.855
 5315SOL    HW216845   4.423   0.927   3.994
 5316SOL     OW16846   0.752   2.970   4.869
 5316SOL    HW116847   0.789   3.019   4.790
 5316SOL    HW216848   0.823   2.961   4.939
 5317SOL     OW16849   6.799   1.898   5.784
 5317SOL    HW116850   6.826   1.802   5.782
 5317SOL    HW216851   6.873   1.953   5.822
 5318SOL     OW16852   6.386   2.883   0.008
 5318SOL    HW116853   6.394   2.911   0.104
 5318SOL    HW216854   6.303   2.922   6.989
 5319SOL     OW16855   4.324   6.976   1.313
 5319SOL    HW116856   4.413   6.966   1.268
 5319SOL    HW216857   4.266   6.899   1.288
 5320SOL     OW16858   3.365   5.936   1.306
 5320SOL    HW116859   3.361   6.013   1.241
 5320SOL    HW216860   3.277   5.927   1.352
 5321SOL     OW16861   2.093   4.668   4.665
 5321SOL    HW116862   2.153   4.653   4.587
 5321SOL    HW216863   2.129   4.622   4.745
 5322SOL     OW16864   5.657   6.738   1.725
 5322SOL    HW116865   5.736   6.677   1.738
 5322SOL    HW216866   5.596   6.730   1.804
 5323SOL     OW16867   4.757   1.451   5.644
 5323SOL    HW116868   4.674   1.483   5.690
 5323SOL    HW216869   4.740   1.360   5.605
 5324SOL     OW16870   2.374   2.440   0.397
 5324SOL    HW116871   2.402   2.348   0.421
 5324SOL    HW216872   2.444   2.483   0.340
 5325SOL     OW16873   2.532   2.096   4.799
 5325SOL    HW116874   2.466   2.132   4.865
 5325SOL    HW216875   2.501   2.117   4.706
 5326SOL     OW16876   5.952   6.395   2.855
 5326SOL    HW116877   6.024   6.462   2.871
 5326SOL    HW216878   5.923   6.356   2.942
 5327SOL     OW16879   5.307   2.775   4.939
 5327SOL    HW116880   5.237   2.845   4.937
 5327SOL    HW216881   5.266   2.687   4.965
 5328SOL     OW16882   4.222   4.298   6.990
 5328SOL    HW116883   4.279   4.313   0.051
 5328SOL    HW216884   4.131   4.269   7.019
 5329SOL     OW16885   1.280   6.076   6.499
 5329SOL    HW116886   1.304   6.165   6.539
 5329SOL    HW216887   1.230   6.091   6.414
 5330SOL     OW16888   2.856   3.144   0.716
 5330SOL    HW116889   2.792   3.101   0.780
 5330SOL    HW216890   2.804   3.178   0.637
 5331SOL     OW16891   6.749   1.001   6.880
 5331SOL    HW116892   6.762   0.976   6.784
 5331SOL    HW216893   6.671   0.951   6.917
 5332SOL     OW16894   1.099   4.723   2.143
 5332SOL    HW116895   1.113   4.629   2.175
 5332SOL    HW216896   1.018   4.761   2.187
 5333SOL     OW16897   0.933   6.665   4.199
 5333SOL    HW116898   0.953   6.599   4.126
 5333SOL    HW216899   0.919   6.756   4.159
 5334SOL     OW16900   2.927   6.851   4.127
 5334SOL    HW116901   2.951   6.940   4.087
 5334SOL    HW216902   2.952   6.851   4.224
 5335SOL     OW16903   6.713   5.236   0.834
 5335SOL    HW116904   6.801   5.210   0.795
 5335SOL    HW216905   6.655   5.155   0.844
 5336SOL     OW16906   1.740   3.600   2.191
 5336SOL    HW116907   1.665   3.541   2.218
 5336SOL    HW216908   1.755   3.593   2.092
 5337SOL     OW16909   5.113   4.281   1.353
 5337SOL    HW116910   5.028   4.230   1.341
 5337SOL    HW216911   5.146   4.268   1.446
 5338SOL     OW16912   6.531   2.188   6.810
 5338SOL    HW116913   6.600   2.213   6.741
 5338SOL    HW216914   6.569   2.203   6.902
 5339SOL     OW16915   6.621   1.912   3.585
 5339SOL    HW116916   6.643   1.878   3.493
 5339SOL    HW216917   6.557   1.848   3.628
 5340SOL     OW16918   5.518   2.812   6.908
 5340SOL    HW116919   5.524   2.909   6.884
 5340SOL    HW216920   5.503   2.757   6.826
 5341SOL     OW16921   4.739   0.738   6.607
 5341SOL    HW116922   4.644   0.725   6.579
 5341SOL    HW216923   4.800   0.689   6.546
 5342SOL     OW16924   4.229   0.755   5.902
 5342SOL    HW116925   4.182   0.678   5.858
 5342SOL    HW216926   4.312   0.777   5.851
 5343SOL     OW16927   3.836   3.343   2.298
 5343SOL    HW116928   3.880   3.389   2.375
 5343SOL    HW216929   3.805   3.252   2.326
 5344SOL     OW16930   1.881   2.593   3.277
 5344SOL    HW116931   1.800   2.641   3.244
 5344SOL    HW216932   1.949   2.660   3.308
 5345SOL     OW16933   4.418   6.685   1.187
 5345SOL    HW116934   4.449   6.615   1.122
 5345SOL    HW216935   4.498   6.729   1.228
 5346SOL     OW16936   3.031   6.256   3.393
 5346SOL    HW116937   3.006   6.160   3.399
 5346SOL    HW216938   2.964   6.312   3.441
 5347SOL     OW16939   6.929   1.987   0.919
 5347SOL    HW116940   6.868   1.910   0.902
 5347SOL    HW216941   6.929   2.008   1.017
 5348SOL     OW16942   1.276   1.460   0.148
 5348SOL    HW116943   1.358   1.467   0.205
 5348SOL    HW216944   1.246   1.364   0.145
 5349SOL     OW16945   6.989   1.425   0.785
 5349SOL    HW116946   0.066   1.425   0.808
 5349SOL    HW216947   6.938   1.377   0.857
 5350SOL     OW16948   2.482   1.146   6.164
 5350SOL    HW116949   2.484   1.178   6.259
 5350SOL    HW216950   2.563   1.179   6.116
 5351SOL     OW16951   4.640   6.568   0.716
 5351SOL    HW116952   4.693   6.636   0.665
 5351SOL    HW216953   4.693   6.535   0.794
 5352SOL     OW16954   3.135   5.779   3.459
 5352SOL    HW116955   3.137   5.714   3.535
 5352SOL    HW216956   3.228   5.805   3.435
 5353SOL     OW16957   5.035   5.750   5.164
 5353SOL    HW116958   5.124   5.708   5.181
 5353SOL    HW216959   5.017   5.752   5.066
 5354SOL     OW16960   1.594   4.821   1.585
 5354SOL    HW116961   1.659   4.845   1.657
 5354SOL    HW216962   1.640   4.820   1.496
 5355SOL     OW16963   4.495   1.461   4.026
 5355SOL    HW116964   4.545   1.424   4.104
 5355SOL    HW216965   4.559   1.497   3.959
 5356SOL     OW16966   6.181   3.989   1.336
 5356SOL    HW116967   6.115   4.042   1.389
 5356SOL    HW216968   6.227   3.923   1.395
 5357SOL     OW16969   3.748   0.349   6.908
 5357SOL    HW116970   3.692   0.292   6.847
 5357SOL    HW216971   3.795   0.419   6.854
 5358SOL     OW16972   4.579   2.979   0.791
 5358SOL    HW116973   4.562   2.922   0.711
 5358SOL    HW216974   4.633   2.928   0.858
 5359SOL     OW16975   2.214   1.702   0.493
 5359SOL    HW116976   2.243   1.606   0.491
 5359SOL    HW216977   2.223   1.741   0.402
 5360SOL     OW16978   3.939   6.438   6.306
 5360SOL    HW116979   3.890   6.524   6.317
 5360SOL    HW216980   4.037   6.456   6.295
 5361SOL     OW16981   2.014   0.995   4.913
 5361SOL    HW116982   1.999   1.040   4.824
 5361SOL    HW216983   1.933   1.007   4.970
 5362SOL     OW16984   4.778   5.158   2.637
 5362SOL    HW116985   4.742   5.151   2.544
 5362SOL    HW216986   4.702   5.155   2.702
 5363SOL     OW16987   0.898   5.152   6.480
 5363SOL    HW116988   0.838   5.186   6.408
 5363SOL    HW216989   0.859   5.173   6.570
 5364SOL     OW16990   6.717   6.668   0.795
 5364SOL    HW116991   6.737   6.570   0.787
 5364SOL    HW216992   6.800   6.717   0.825
 5365SOL     OW16993   4.611   1.757   5.824
 5365SOL    HW116994   4.693   1.713   5.861
 5365SOL    HW216995   4.538   1.689   5.814
 5366SOL     OW16996   4.599   4.166   0.284
 5366SOL    HW116997   4.595   4.219   0.369
 5366SOL    HW216998   4.600   4.228   0.206
 5367SOL     OW16999   0.105   4.232   1.486
 5367SOL    HW117000   0.046   4.284   1.549
 5367SOL    HW217001   0.141   4.152   1.534
 5368SOL     OW17002   5.637   2.157   3.068
 5368SOL    HW117003   5.566   2.112   3.123
 5368SOL    HW217004   5.691   2.087   3.021
 5369SOL     OW17005   2.226   4.455   2.988
 5369SOL    HW117006   2.223   4.548   2.951
 5369SOL    HW217007   2.170   4.450   3.071
 5370SOL     OW17008   3.628   2.723   1.309
 5370SOL    HW117009   3.587   2.671   1.234
 5370SOL    HW217010   3.699   2.668   1.352
 5371SOL     OW17011   1.549   3.975   4.426
 5371SOL    HW117012   1.511   4.067   4.426
 5371SOL    HW217013   1.486   3.913   4.380
 5372SOL     OW17014   2.926   5.028   2.897
 5372SOL    HW117015   2.900   5.112   2.945
 5372SOL    HW217016   2.847   4.991   2.850
 5373SOL     OW17017   3.268   4.880   4.187
 5373SOL    HW117018   3.192   4.852   4.245
 5373SOL    HW217019   3.347   4.904   4.243
 5374SOL     OW17020   1.944   2.355   6.354
 5374SOL    HW117021   1.887   2.326   6.277
 5374SOL    HW217022   1.913   2.444   6.387
 5375SOL     OW17023   1.441   4.266   4.433
 5375SOL    HW117024   1.353   4.288   4.474
 5375SOL    HW217025   1.515   4.299   4.492
 5376SOL     OW17026   1.438   3.766   1.526
 5376SOL    HW117027   1.518   3.782   1.468
 5376SOL    HW217028   1.465   3.770   1.622
 5377SOL     OW17029   0.298   0.568   1.375
 5377SOL    HW117030   0.382   0.618   1.396
 5377SOL    HW217031   0.298   0.542   1.278
 5378SOL     OW17032   5.923   0.819   0.105
 5378SOL    HW117033   5.899   0.766   0.186
 5378SOL    HW217034   5.858   0.799   0.031
 5379SOL     OW17035   0.359   5.392   2.796
 5379SOL    HW117036   0.364   5.363   2.892
 5379SOL    HW217037   0.269   5.432   2.778
 5380SOL     OW17038   2.439   0.086   3.319
 5380SOL    HW117039   2.371   0.013   3.330
 5380SOL    HW217040   2.516   0.069   3.381
 5381SOL     OW17041   5.600   4.324   1.532
 5381SOL    HW117042   5.586   4.317   1.631
 5381SOL    HW217043   5.578   4.237   1.489
 5382SOL     OW17044   3.190   1.200   1.359
 5382SOL    HW117045   3.232   1.195   1.269
 5382SOL    HW217046   3.177   1.296   1.384
 5383SOL     OW17047   2.469   2.017   5.202
 5383SOL    HW117048   2.515   2.082   5.141
 5383SOL    HW217049   2.402   2.065   5.258
 5384SOL     OW17050   6.239   6.845   4.039
 5384SOL    HW117051   6.170   6.773   4.052
 5384SOL    HW217052   6.311   6.836   4.108
 5385SOL     OW17053   3.364   4.084   2.408
 5385SOL    HW117054   3.390   3.999   2.364
 5385SOL    HW217055   3.295   4.130   2.352
 5386SOL     OW17056   5.165   6.283   4.090
 5386SOL    HW117057   5.185   6.207   4.152
 5386SOL    HW217058   5.221   6.275   4.007
 5387SOL     OW17059   2.751   5.097   2.248
 5387SOL    HW117060   2.844   5.091   2.214
 5387SOL    HW217061   2.688   5.054   2.183
 5388SOL     OW17062   5.547   6.859   2.531
 5388SOL    HW117063   5.468   6.799   2.522
 5388SOL    HW217064   5.564   6.878   2.628
 5389SOL     OW17065   4.266   1.235   1.470
 5389SOL    HW117066   4.285   1.150   1.519
 5389SOL    HW217067   4.283   1.221   1.372
 5390SOL     OW17068   6.132   5.156   5.322
 5390SOL    HW117069   6.192   5.183   5.246
 5390SOL    HW217070   6.039   5.186   5.303
 5391SOL     OW17071   2.913   3.229   0.283
 5391SOL    HW117072   2.878   3.311   0.239
 5391SOL    HW217073   2.844   3.156   0.277
 5392SOL     OW17074   5.840   3.063   1.392
 5392SOL    HW117075   5.740   3.064   1.391
 5392SOL    HW217076   5.872   3.044   1.485
 5393SOL     OW17077   6.764   0.056   0.174
 5393SOL    HW117078   6.686   0.045   0.236
 5393SOL    HW217079   6.800   0.149   0.182
 5394SOL     OW17080   0.756   3.807   5.720
 5394SOL    HW117081   0.715   3.722   5.689
 5394SOL    HW217082   0.786   3.798   5.815
 5395SOL     OW17083   3.776   0.661   0.646
 5395SOL    HW117084   3.860   0.675   0.700
 5395SOL    HW217085   3.703   0.630   0.707
 5396SOL     OW17086   5.574   3.781   1.908
 5396SOL    HW117087   5.570   3.790   2.008
 5396SOL    HW217088   5.588   3.872   1.868
 5397SOL     OW17089   6.883   3.452   1.247
 5397SOL    HW117090   6.876   3.413   1.338
 5397SOL    HW217091   6.830   3.397   1.182
 5398SOL     OW17092   3.047   2.365   1.724
 5398SOL    HW117093   3.036   2.277   1.677
 5398SOL    HW217094   2.986   2.367   1.803
 5399SOL     OW17095   1.999   6.091   1.346
 5399SOL    HW117096   2.093   6.082   1.311
 5399SOL    HW217097   1.972   6.187   1.343
 5400SOL     OW17098   2.896   4.446   0.118
 5400SOL    HW117099   2.905   4.534   0.072
 5400SOL    HW217100   2.833   4.388   0.068
 5401SOL     OW17101   5.681   2.995   1.714
 5401SOL    HW117102   5.619   2.919   1.730
 5401SOL    HW217103   5.661   3.069   1.778
 5402SOL     OW17104   2.067   5.905   2.068
 5402SOL    HW117105   2.084   5.809   2.048
 5402SOL    HW217106   2.022   5.913   2.157
 5403SOL     OW17107   0.388   3.648   6.392
 5403SOL    HW117108   0.462   3.670   6.455
 5403SOL    HW217109   0.347   3.733   6.358
 5404SOL     OW17110   1.725   2.744   4.263
 5404SOL    HW117111   1.785   2.816   4.226
 5404SOL    HW217112   1.780   2.670   4.300
 5405SOL     OW17113   6.521   5.146   6.032
 5405SOL    HW117114   6.569   5.085   6.095
 5405SOL    HW217115   6.449   5.094   5.984
 5406SOL     OW17116   1.452   1.122   6.690
 5406SOL    HW117117   1.419   1.041   6.640
 5406SOL    HW217118   1.407   1.126   6.780
 5407SOL     OW17119   3.871   3.337   0.763
 5407SOL    HW117120   3.944   3.348   0.831
 5407SOL    HW217121   3.783   3.363   0.804
 5408SOL     OW17122   2.331   0.893   6.815
 5408SOL    HW117123   2.376   0.973   6.774
 5408SOL    HW217124   2.303   0.914   6.908
 5409SOL     OW17125   4.784   0.332   2.955
 5409SOL    HW117126   4.860   0.274   2.984
 5409SOL    HW217127   4.722   0.278   2.897
 5410SOL     OW17128   3.085   2.056   1.983
 5410SOL    HW117129   2.999   2.101   2.008
 5410SOL    HW217130   3.153   2.126   1.960
 5411SOL     OW17131   0.441   5.222   5.135
 5411SOL    HW117132   0.538   5.205   5.149
 5411SOL    HW217133   0.388   5.177   5.207
 5412SOL     OW17134   5.907   2.849   0.687
 5412SOL    HW117135   5.812   2.878   0.690
 5412SOL    HW217136   5.949   2.864   0.777
 5413SOL     OW17137   3.130   1.779   1.985
 5413SOL    HW117138   3.070   1.717   1.935
 5413SOL    HW217139   3.102   1.873   1.967
 5414SOL     OW17140   4.579   1.197   4.743
 5414SOL    HW117141   4.587   1.145   4.658
 5414SOL    HW217142   4.522   1.278   4.727
 5415SOL     OW17143   0.200   5.692   1.487
 5415SOL    HW117144   0.166   5.749   1.562
 5415SOL    HW217145   0.282   5.643   1.517
 5416SOL     OW17146   4.285   5.080   4.907
 5416SOL    HW117147   4.317   5.152   4.969
 5416SOL    HW217148   4.356   5.061   4.839
 5417SOL     OW17149   3.291   6.641   4.740
 5417SOL    HW117150   3.320   6.733   4.768
 5417SOL    HW217151   3.215   6.611   4.797
 5418SOL     OW17152   3.643   0.273   2.700
 5418SOL    HW117153   3.634   0.284   2.799
 5418SOL    HW217154   3.562   0.308   2.655
 5419SOL     OW17155   3.462   4.739   6.219
 5419SOL    HW117156   3.537   4.804   6.232
 5419SOL    HW217157   3.500   4.649   6.195
 5420SOL     OW17158   2.196   2.210   2.962
 5420SOL    HW117159   2.286   2.177   2.990
 5420SOL    HW217160   2.206   2.295   2.911
 5421SOL     OW17161   1.742   3.958   1.574
 5421SOL    HW117162   1.757   3.899   1.653
 5421SOL    HW217163   1.672   4.026   1.595
 5422SOL     OW17164   1.426   4.267   1.466
 5422SOL    HW117165   1.484   4.242   1.544
 5422SOL    HW217166   1.381   4.185   1.431
 5423SOL     OW17167   5.775   2.911   6.603
 5423SOL    HW117168   5.754   3.003   6.634
 5423SOL    HW217169   5.872   2.905   6.578
 5424SOL     OW17170   4.900   3.272   4.788
 5424SOL    HW117171   4.959   3.206   4.743
 5424SOL    HW217172   4.882   3.242   4.882
 5425SOL     OW17173   4.393   0.749   5.374
 5425SOL    HW117174   4.483   0.760   5.415
 5425SOL    HW217175   4.353   0.840   5.358
 5426SOL     OW17176   5.747   6.660   4.784
 5426SOL    HW117177   5.816   6.723   4.819
 5426SOL    HW217178   5.792   6.587   4.733
 5427SOL     OW17179   4.231   6.094   6.612
 5427SOL    HW117180   4.264   6.079   6.519
 5427SOL    HW217181   4.304   6.134   6.667
 5428SOL     OW17182   0.767   0.295   1.007
 5428SOL    HW117183   0.750   0.206   1.049
 5428SOL    HW217184   0.796   0.283   0.913
 5429SOL     OW17185   0.979   2.132   6.694
 5429SOL    HW117186   0.987   2.210   6.755
 5429SOL    HW217187   0.887   2.129   6.655
 5430SOL     OW17188   0.913   2.416   6.406
 5430SOL    HW117189   0.895   2.326   6.365
 5430SOL    HW217190   0.991   2.408   6.468
 5431SOL     OW17191   3.397   6.479   5.982
 5431SOL    HW117192   3.318   6.540   5.982
 5431SOL    HW217193   3.480   6.531   5.962
 5432SOL     OW17194   4.918   0.016   0.057
 5432SOL    HW117195   4.943   6.941   0.039
 5432SOL    HW217196   5.001   0.073   0.060
 5433SOL     OW17197   0.221   1.862   5.032
 5433SOL    HW117198   0.239   1.861   4.934
 5433SOL    HW217199   0.224   1.769   5.068
 5434SOL     OW17200   2.809   0.546   6.251
 5434SOL    HW117201   2.722   0.515   6.288
 5434SOL    HW217202   2.795   0.627   6.194
 5435SOL     OW17203   4.079   0.218   1.566
 5435SOL    HW117204   3.983   0.211   1.537
 5435SOL    HW217205   4.089   0.176   1.656
 5436SOL     OW17206   4.891   4.544   3.395
 5436SOL    HW117207   4.895   4.634   3.440
 5436SOL    HW217208   4.864   4.556   3.300
 5437SOL     OW17209   3.026   4.062   0.073
 5437SOL    HW117210   3.007   4.008   7.011
 5437SOL    HW217211   3.042   4.157   0.046
 5438SOL     OW17212   5.850   1.996   1.547
 5438SOL    HW117213   5.879   1.927   1.481
 5438SOL    HW217214   5.927   2.022   1.605
 5439SOL     OW17215   0.902   2.328   1.182
 5439SOL    HW117216   0.856   2.381   1.254
 5439SOL    HW217217   0.886   2.372   1.094
 5440SOL     OW17218   1.326   2.305   1.188
 5440SOL    HW117219   1.266   2.245   1.135
 5440SOL    HW217220   1.335   2.268   1.281
 5441SOL     OW17221   3.238   1.811   3.754
 5441SOL    HW117222   3.221   1.806   3.853
 5441SOL    HW217223   3.257   1.906   3.729
 5442SOL     OW17224   3.816   0.357   2.085
 5442SOL    HW117225   3.777   0.397   2.169
 5442SOL    HW217226   3.874   0.425   2.040
 5443SOL     OW17227   2.663   6.827   5.295
 5443SOL    HW117228   2.746   6.771   5.299
 5443SOL    HW217229   2.682   6.918   5.331
 5444SOL     OW17230   0.289   6.538   4.280
 5444SOL    HW117231   0.207   6.483   4.295
 5444SOL    HW217232   0.274   6.602   4.205
 5445SOL     OW17233   6.286   3.444   2.930
 5445SOL    HW117234   6.189   3.439   2.953
 5445SOL    HW217235   6.298   3.494   2.845
 5446SOL     OW17236   5.744   5.401   4.815
 5446SOL    HW117237   5.684   5.427   4.891
 5446SOL    HW217238   5.769   5.483   4.764
 5447SOL     OW17239   3.768   2.115   0.126
 5447SOL    HW117240   3.799   2.020   0.122
 5447SOL    HW217241   3.845   2.175   0.148
 5448SOL     OW17242   4.945   2.507   5.287
 5448SOL    HW117243   4.934   2.606   5.278
 5448SOL    HW217244   4.856   2.464   5.304
 5449SOL     OW17245   0.695   3.471   0.063
 5449SOL    HW117246   0.687   3.375   0.092
 5449SOL    HW217247   0.695   3.530   0.144
 5450SOL     OW17248   1.962   6.899   1.104
 5450SOL    HW117249   1.998   6.938   1.189
 5450SOL    HW217250   2.020   6.927   1.027
 5451SOL     OW17251   0.607   6.070   2.947
 5451SOL    HW117252   0.688   6.072   3.005
 5451SOL    HW217253   0.611   5.990   2.887
 5452SOL     OW17254   2.285   4.423   6.900
 5452SOL    HW117255   2.197   4.428   6.948
 5452SOL    HW217256   2.298   4.330   6.864
 5453SOL     OW17257   6.069   4.332   0.268
 5453SOL    HW117258   6.161   4.312   0.234
 5453SOL    HW217259   6.022   4.391   0.202
 5454SOL     OW17260   6.986   5.019   6.992
 5454SOL    HW117261   0.043   4.965   6.957
 5454SOL    HW217262   7.001   5.038   0.069
 5455SOL     OW17263   6.619   3.485   1.147
 5455SOL    HW117264   6.654   3.507   1.056
 5455SOL    HW217265   6.567   3.562   1.182
 5456SOL     OW17266   2.915   0.086   7.001
 5456SOL    HW117267   2.846   0.100   0.052
 5456SOL    HW217268   2.906   0.158   6.932
 5457SOL     OW17269   5.671   2.787   1.035
 5457SOL    HW117270   5.682   2.765   1.132
 5457SOL    HW217271   5.640   2.882   1.026
 5458SOL     OW17272   1.745   4.387   6.517
 5458SOL    HW117273   1.843   4.392   6.536
 5458SOL    HW217274   1.716   4.291   6.515
 5459SOL     OW17275   2.051   4.537   6.950
 5459SOL    HW117276   1.973   4.491   6.908
 5459SOL    HW217277   2.078   4.615   6.893
 5460SOL     OW17278   2.925   0.281   1.244
 5460SOL    HW117279   2.962   0.239   1.162
 5460SOL    HW217280   2.826   0.271   1.245
 5461SOL     OW17281   4.819   6.954   5.022
 5461SOL    HW117282   4.776   6.988   5.106
 5461SOL    HW217283   4.750   6.912   4.963
 5462SOL     OW17284   1.446   6.950   0.364
 5462SOL    HW117285   1.537   6.944   0.404
 5462SOL    HW217286   1.403   6.860   0.362
 5463SOL     OW17287   6.321   2.737   0.388
 5463SOL    HW117288   6.272   2.698   0.467
 5463SOL    HW217289   6.340   2.664   0.322
 5464SOL     OW17290   2.271   0.716   4.332
 5464SOL    HW117291   2.198   0.701   4.265
 5464SOL    HW217292   2.349   0.657   4.310
 5465SOL     OW17293   3.367   0.133   4.658
 5465SOL    HW117294   3.364   0.227   4.693
 5465SOL    HW217295   3.314   0.127   4.574
 5466SOL     OW17296   4.868   4.076   4.802
 5466SOL    HW117297   4.877   4.051   4.705
 5466SOL    HW217298   4.882   3.995   4.858
 5467SOL     OW17299   5.398   1.365   2.437
 5467SOL    HW117300   5.376   1.450   2.485
 5467SOL    HW217301   5.375   1.287   2.496
 5468SOL     OW17302   4.752   1.943   4.959
 5468SOL    HW117303   4.803   1.993   5.030
 5468SOL    HW217304   4.748   1.998   4.876
 5469SOL     OW17305   3.632   4.320   5.690
 5469SOL    HW117306   3.592   4.385   5.625
 5469SOL    HW217307   3.582   4.324   5.776
 5470SOL     OW17308   1.843   5.009   4.032
 5470SOL    HW117309   1.750   5.003   4.069
 5470SOL    HW217310   1.868   5.105   4.021
 5471SOL     OW17311   0.134   5.792   1.775
 5471SOL    HW117312   0.089   5.881   1.785
 5471SOL    HW217313   0.216   5.789   1.832
 5472SOL     OW17314   4.205   3.829   5.738
 5472SOL    HW117315   4.221   3.771   5.818
 5472SOL    HW217316   4.270   3.804   5.665
 5473SOL     OW17317   1.266   3.096   3.505
 5473SOL    HW117318   1.325   3.176   3.492
 5473SOL    HW217319   1.318   3.012   3.489
 5474SOL     OW17320   1.647   5.741   4.215
 5474SOL    HW117321   1.745   5.735   4.200
 5474SOL    HW217322   1.603   5.657   4.183
 5475SOL     OW17323   3.200   2.008   0.891
 5475SOL    HW117324   3.158   2.016   0.982
 5475SOL    HW217325   3.128   1.993   0.823
 5476SOL     OW17326   1.426   3.072   6.633
 5476SOL    HW117327   1.466   3.044   6.546
 5476SOL    HW217328   1.327   3.055   6.632
 5477SOL     OW17329   2.079   2.784   3.350
 5477SOL    HW117330   2.154   2.761   3.411
 5477SOL    HW217331   2.103   2.865   3.297
 5478SOL     OW17332   5.560   5.758   5.764
 5478SOL    HW117333   5.513   5.751   5.676
 5478SOL    HW217334   5.586   5.666   5.795
 5479SOL     OW17335   5.031   0.187   4.708
 5479SOL    HW117336   4.956   0.127   4.735
 5479SOL    HW217337   5.112   0.167   4.763
 5480SOL     OW17338   1.138   3.740   4.214
 5480SOL    HW117339   1.045   3.774   4.197
 5480SOL    HW217340   1.144   3.704   4.307
 5481SOL     OW17341   3.364   6.775   4.328
 5481SOL    HW117342   3.279   6.778   4.380
 5481SOL    HW217343   3.409   6.865   4.332
 5482SOL     OW17344   2.646   4.987   1.501
 5482SOL    HW117345   2.593   5.072   1.511
 5482SOL    HW217346   2.673   4.955   1.592
 5483SOL     OW17347   0.404   2.922   5.906
 5483SOL    HW117348   0.374   3.005   5.953
 5483SOL    HW217349   0.500   2.932   5.880
 5484SOL     OW17350   4.726   0.775   4.557
 5484SOL    HW117351   4.733   0.775   4.457
 5484SOL    HW217352   4.816   0.758   4.597
 5485SOL     OW17353   2.934   6.560   5.872
 5485SOL    HW117354   2.835   6.573   5.864
 5485SOL    HW217355   2.981   6.618   5.805
 5486SOL     OW17356   2.859   5.940   4.816
 5486SOL    HW117357   2.829   5.907   4.906
 5486SOL    HW217358   2.875   5.862   4.756
 5487SOL     OW17359   2.965   5.111   5.576
 5487SOL    HW117360   2.936   5.172   5.650
 5487SOL    HW217361   3.010   5.030   5.615
 5488SOL     OW17362   5.994   1.021   1.354
 5488SOL    HW117363   5.924   0.958   1.321
 5488SOL    HW217364   5.950   1.107   1.382
 5489SOL     OW17365   6.590   3.739   2.378
 5489SOL    HW117366   6.556   3.653   2.415
 5489SOL    HW217367   6.514   3.803   2.365
 5490SOL     OW17368   1.286   6.708   2.899
 5490SOL    HW117369   1.299   6.699   2.800
 5490SOL    HW217370   1.189   6.708   2.920
 5491SOL     OW17371   6.688   4.415   0.514
 5491SOL    HW117372   6.696   4.426   0.613
 5491SOL    HW217373   6.695   4.318   0.490
 5492SOL     OW17374   0.325   1.330   5.423
 5492SOL    HW117375   0.268   1.301   5.346
 5492SOL    HW217376   0.392   1.397   5.392
 5493SOL     OW17377   3.978   3.726   1.456
 5493SOL    HW117378   3.880   3.732   1.433
 5493SOL    HW217379   3.997   3.637   1.496
 5494SOL     OW17380   6.463   4.169   5.215
 5494SOL    HW117381   6.505   4.082   5.240
 5494SOL    HW217382   6.526   4.221   5.157
 5495SOL     OW17383   5.661   0.632   1.195
 5495SOL    HW117384   5.728   0.666   1.130
 5495SOL    HW217385   5.571   0.673   1.176
 5496SOL     OW17386   3.912   0.456   4.490
 5496SOL    HW117387   3.911   0.555   4.500
 5496SOL    HW217388   3.924   0.414   4.580
 5497SOL     OW17389   1.037   0.696   6.511
 5497SOL    HW117390   0.990   0.626   6.566
 5497SOL    HW217391   1.132   0.669   6.496
 5498SOL     OW17392   0.433   5.258   1.696
 5498SOL    HW117393   0.513   5.204   1.669
 5498SOL    HW217394   0.463   5.338   1.748
 5499SOL     OW17395   1.596   0.429   4.916
 5499SOL    HW117396   1.658   0.507   4.913
 5499SOL    HW217397   1.638   0.351   4.869
 5500SOL     OW17398   2.323   0.742   0.595
 5500SOL    HW117399   2.407   0.696   0.567
 5500SOL    HW217400   2.244   0.685   0.570
 5501SOL     OW17401   3.791   3.145   6.730
 5501SOL    HW117402   3.748   3.176   6.645
 5501SOL    HW217403   3.724   3.094   6.784
 5502SOL     OW17404   4.082   2.150   6.932
 5502SOL    HW117405   4.113   2.057   6.948
 5502SOL    HW217406   4.047   2.189   7.018
 5503SOL     OW17407   6.721   4.145   0.434
 5503SOL    HW117408   6.685   4.052   0.432
 5503SOL    HW217409   6.819   4.142   0.458
 5504SOL     OW17410   3.317   1.662   6.201
 5504SOL    HW117411   3.402   1.698   6.162
 5504SOL    HW217412   3.305   1.699   6.293
 5505SOL     OW17413   2.243   4.652   4.010
 5505SOL    HW117414   2.237   4.737   4.061
 5505SOL    HW217415   2.316   4.596   4.047
 5506SOL     OW17416   0.830   3.294   6.547
 5506SOL    HW117417   0.766   3.217   6.545
 5506SOL    HW217418   0.779   3.379   6.555
 5507SOL     OW17419   2.907   6.827   0.076
 5507SOL    HW117420   2.914   6.920   0.040
 5507SOL    HW217421   2.845   6.826   0.154
 5508SOL     OW17422   0.174   0.748   6.733
 5508SOL    HW117423   0.200   0.752   6.829
 5508SOL    HW217424   0.084   0.706   6.725
 5509SOL     OW17425   0.044   5.517   0.776
 5509SOL    HW117426   0.058   5.434   0.722
 5509SOL    HW217427   6.966   5.528   0.796
 5510SOL     OW17428   3.913   5.101   6.941
 5510SOL    HW117429   3.995   5.056   6.908
 5510SOL    HW217430   3.938   5.184   6.991
 5511SOL     OW17431   0.855   1.379   5.614
 5511SOL    HW117432   0.757   1.370   5.600
 5511SOL    HW217433   0.904   1.334   5.539
 5512SOL     OW17434   3.623   1.046   2.596
 5512SOL    HW117435   3.694   1.041   2.526
 5512SOL    HW217436   3.621   1.139   2.634
 5513SOL     OW17437   3.950   4.251   0.058
 5513SOL    HW117438   3.948   4.188   0.136
 5513SOL    HW217439   3.861   4.296   0.049
 5514SOL     OW17440   2.766   0.575   6.849
 5514SOL    HW117441   2.673   0.538   6.850
 5514SOL    HW217442   2.785   0.615   6.760
 5515SOL     OW17443   2.653   5.999   2.126
 5515SOL    HW117444   2.577   5.979   2.064
 5515SOL    HW217445   2.672   6.097   2.124
 5516SOL     OW17446   2.648   2.504   5.144
 5516SOL    HW117447   2.562   2.552   5.163
 5516SOL    HW217448   2.724   2.558   5.179
 5517SOL     OW17449   1.476   3.243   3.318
 5517SOL    HW117450   1.505   3.291   3.401
 5517SOL    HW217451   1.392   3.285   3.282
 5518SOL     OW17452   4.453   4.161   6.013
 5518SOL    HW117453   4.397   4.142   5.932
 5518SOL    HW217454   4.507   4.080   6.036
 5519SOL     OW17455   4.438   2.500   3.808
 5519SOL    HW117456   4.425   2.408   3.846
 5519SOL    HW217457   4.351   2.534   3.773
 5520SOL     OW17458   5.117   6.880   1.331
 5520SOL    HW117459   5.133   6.782   1.332
 5520SOL    HW217460   5.126   6.917   1.424
 5521SOL     OW17461   5.612   5.605   2.093
 5521SOL    HW117462   5.630   5.522   2.144
 5521SOL    HW217463   5.595   5.681   2.156
 5522SOL     OW17464   6.164   5.594   0.394
 5522SOL    HW117465   6.179   5.543   0.478
 5522SOL    HW217466   6.218   5.554   0.320
 5523SOL     OW17467   5.720   1.101   2.259
 5523SOL    HW117468   5.676   1.079   2.172
 5523SOL    HW217469   5.741   1.199   2.261
 5524SOL     OW17470   3.176   0.988   4.712
 5524SOL    HW117471   3.200   1.040   4.630
 5524SOL    HW217472   3.175   1.050   4.791
 5525SOL     OW17473   5.968   1.312   1.344
 5525SOL    HW117474   5.970   1.301   1.443
 5525SOL    HW217475   5.999   1.404   1.319
 5526SOL     OW17476   4.602   4.671   3.415
 5526SOL    HW117477   4.517   4.647   3.461
 5526SOL    HW217478   4.676   4.678   3.482
 5527SOL     OW17479   5.863   1.595   3.741
 5527SOL    HW117480   5.857   1.523   3.809
 5527SOL    HW217481   5.959   1.623   3.730
 5528SOL     OW17482   1.178   1.212   0.900
 5528SOL    HW117483   1.167   1.281   0.829
 5528SOL    HW217484   1.269   1.221   0.941
 5529SOL     OW17485   3.794   0.932   2.029
 5529SOL    HW117486   3.788   0.939   2.129
 5529SOL    HW217487   3.845   1.010   1.994
 5530SOL     OW17488   6.389   2.120   1.117
 5530SOL    HW117489   6.336   2.095   1.036
 5530SOL    HW217490   6.486   2.098   1.102
 5531SOL     OW17491   2.034   3.836   1.512
 5531SOL    HW117492   1.946   3.820   1.558
 5531SOL    HW217493   2.030   3.923   1.462
 5532SOL     OW17494   1.326   3.398   0.785
 5532SOL    HW117495   1.379   3.315   0.767
 5532SOL    HW217496   1.229   3.377   0.780
 5533SOL     OW17497   3.778   2.123   3.887
 5533SOL    HW117498   3.713   2.047   3.886
 5533SOL    HW217499   3.800   2.146   3.982
 5534SOL     OW17500   1.314   0.785   4.855
 5534SOL    HW117501   1.299   0.716   4.926
 5534SOL    HW217502   1.274   0.753   4.769
 5535SOL     OW17503   0.245   2.041   3.589
 5535SOL    HW117504   0.232   1.991   3.675
 5535SOL    HW217505   0.237   1.978   3.512
 5536SOL     OW17506   3.847   6.567   4.121
 5536SOL    HW117507   3.800   6.616   4.047
 5536SOL    HW217508   3.930   6.524   4.084
 5537SOL     OW17509   3.193   1.013   3.446
 5537SOL    HW117510   3.237   0.974   3.364
 5537SOL    HW217511   3.233   0.971   3.528
 5538SOL     OW17512   4.318   5.400   4.602
 5538SOL    HW117513   4.235   5.391   4.657
 5538SOL    HW217514   4.294   5.395   4.505
 5539SOL     OW17515   2.157   3.994   0.259
 5539SOL    HW117516   2.075   3.973   0.205
 5539SOL    HW217517   2.226   4.036   0.200
 5540SOL     OW17518   5.108   5.230   2.064
 5540SOL    HW117519   5.125   5.173   1.984
 5540SOL    HW217520   5.058   5.312   2.036
 5541SOL     OW17521   4.358   1.298   5.748
 5541SOL    HW117522   4.324   1.262   5.835
 5541SOL    HW217523   4.349   1.229   5.677
 5542SOL     OW17524   5.311   4.855   6.336
 5542SOL    HW117525   5.321   4.826   6.241
 5542SOL    HW217526   5.214   4.863   6.359
 5543SOL     OW17527   0.015   1.988   5.915
 5543SOL    HW117528   0.100   2.040   5.915
 5543SOL    HW217529   6.999   1.981   6.008
 5544SOL     OW17530   5.637   1.407   6.486
 5544SOL    HW117531   5.572   1.433   6.415
 5544SOL    HW217532   5.728   1.400   6.446
 5545SOL     OW17533   2.688   2.291   1.875
 5545SOL    HW117534   2.776   2.330   1.900
 5545SOL    HW217535   2.687   2.193   1.893
 5546SOL     OW17536   1.949   5.094   5.663
 5546SOL    HW117537   1.997   5.016   5.622
 5546SOL    HW217538   2.009   5.174   5.661
 5547SOL     OW17539   3.811   6.187   5.024
 5547SOL    HW117540   3.898   6.140   5.007
 5547SOL    HW217541   3.826   6.285   5.031
 5548SOL     OW17542   0.014   3.252   4.961
 5548SOL    HW117543   0.044   3.185   5.028
 5548SOL    HW217544   0.090   3.276   4.900
 5549SOL     OW17545   3.327   4.339   6.698
 5549SOL    HW117546   3.404   4.402   6.690
 5549SOL    HW217547   3.246   4.380   6.655
 5550SOL     OW17548   3.655   6.581   1.952
 5550SOL    HW117549   3.612   6.503   1.907
 5550SOL    HW217550   3.605   6.665   1.928
 5551SOL     OW17551   0.861   0.997   3.079
 5551SOL    HW117552   0.838   1.053   3.159
 5551SOL    HW217553   0.959   0.978   3.078
 5552SOL     OW17554   0.452   2.806   0.992
 5552SOL    HW117555   0.548   2.833   1.004
 5552SOL    HW217556   0.439   2.714   1.030
 5553SOL     OW17557   5.332   6.801   0.054
 5553SOL    HW117558   5.383   6.716   0.066
 5553SOL    HW217559   5.382   6.875   0.099
 5554SOL     OW17560   2.506   1.371   4.698
 5554SOL    HW117561   2.552   1.425   4.628
 5554SOL    HW217562   2.459   1.294   4.656
 5555SOL     OW17563   0.081   5.986   2.612
 5555SOL    HW117564   0.169   5.979   2.564
 5555SOL    HW217565   0.050   5.895   2.638
 5556SOL     OW17566   0.473   1.295   4.344
 5556SOL    HW117567   0.479   1.281   4.245
 5556SOL    HW217568   0.395   1.355   4.364
 5557SOL     OW17569   2.702   0.620   3.552
 5557SOL    HW117570   2.777   0.620   3.486
 5557SOL    HW217571   2.647   0.538   3.540
 5558SOL     OW17572   4.639   2.272   4.516
 5558SOL    HW117573   4.721   2.327   4.504
 5558SOL    HW217574   4.649   2.213   4.597
 5559SOL     OW17575   2.074   0.217   1.035
 5559SOL    HW117576   1.985   0.192   1.072
 5559SOL    HW217577   2.126   0.135   1.015
 5560SOL     OW17578   0.247   0.501   4.517
 5560SOL    HW117579   0.218   0.434   4.448
 5560SOL    HW217580   0.340   0.477   4.548
 5561SOL     OW17581   1.432   3.778   2.930
 5561SOL    HW117582   1.390   3.808   3.016
 5561SOL    HW217583   1.530   3.796   2.933
 5562SOL     OW17584   2.681   2.596   5.899
 5562SOL    HW117585   2.636   2.647   5.826
 5562SOL    HW217586   2.779   2.593   5.883
 5563SOL     OW17587   4.218   4.382   1.469
 5563SOL    HW117588   4.248   4.361   1.562
 5563SOL    HW217589   4.269   4.460   1.434
 5564SOL     OW17590   6.387   4.297   1.521
 5564SOL    HW117591   6.380   4.198   1.528
 5564SOL    HW217592   6.319   4.331   1.457
 5565SOL     OW17593   2.860   3.253   5.571
 5565SOL    HW117594   2.957   3.228   5.574
 5565SOL    HW217595   2.849   3.347   5.604
 5566SOL     OW17596   2.207   4.433   0.874
 5566SOL    HW117597   2.120   4.474   0.849
 5566SOL    HW217598   2.237   4.371   0.802
 5567SOL     OW17599   2.003   5.717   2.791
 5567SOL    HW117600   2.098   5.710   2.820
 5567SOL    HW217601   1.948   5.647   2.837
 5568SOL     OW17602   3.666   1.892   1.157
 5568SOL    HW117603   3.765   1.895   1.149
 5568SOL    HW217604   3.626   1.973   1.115
 5569SOL     OW17605   5.957   2.464   6.888
 5569SOL    HW117606   5.942   2.371   6.921
 5569SOL    HW217607   5.880   2.491   6.830
 5570SOL     OW17608   7.015   4.079   5.708
 5570SOL    HW117609   0.027   4.112   5.797
 5570SOL    HW217610   6.922   4.112   5.691
 5571SOL     OW17611   0.000   4.698   6.319
 5571SOL    HW117612   0.077   4.643   6.286
 5571SOL    HW217613   6.935   4.661   6.283
 5572SOL     OW17614   5.329   2.806   5.658
 5572SOL    HW117615   5.319   2.755   5.744
 5572SOL    HW217616   5.251   2.786   5.598
 5573SOL     OW17617   0.795   3.926   0.364
 5573SOL    HW117618   0.888   3.942   0.395
 5573SOL    HW217619   0.734   3.920   0.443
 5574SOL     OW17620   0.529   6.204   4.509
 5574SOL    HW117621   0.604   6.266   4.486
 5574SOL    HW217622   0.567   6.121   4.550
 5575SOL     OW17623   1.849   1.149   1.592
 5575SOL    HW117624   1.927   1.115   1.539
 5575SOL    HW217625   1.880   1.170   1.685
 5576SOL     OW17626   6.462   5.779   0.245
 5576SOL    HW117627   6.548   5.733   0.224
 5576SOL    HW217628   6.414   5.800   0.160
 5577SOL     OW17629   2.251   3.849   5.330
 5577SOL    HW117630   2.310   3.916   5.284
 5577SOL    HW217631   2.161   3.850   5.287
 5578SOL     OW17632   3.576   1.149   6.100
 5578SOL    HW117633   3.667   1.182   6.074
 5578SOL    HW217634   3.548   1.192   6.186
 5579SOL     OW17635   5.298   4.512   1.244
 5579SOL    HW117636   5.248   4.437   1.287
 5579SOL    HW217637   5.341   4.568   1.315
 5580SOL     OW17638   5.156   0.568   1.260
 5580SOL    HW117639   5.097   0.633   1.215
 5580SOL    HW217640   5.216   0.524   1.193
 5581SOL     OW17641   2.661   2.514   0.513
 5581SOL    HW117642   2.759   2.493   0.508
 5581SOL    HW217643   2.615   2.443   0.567
 5582SOL     OW17644   4.000   3.684   3.223
 5582SOL    HW117645   4.047   3.662   3.309
 5582SOL    HW217646   4.027   3.618   3.153
 5583SOL     OW17647   3.308   0.579   0.425
 5583SOL    HW117648   3.352   0.529   0.500
 5583SOL    HW217649   3.371   0.586   0.348
 5584SOL     OW17650   5.611   3.006   2.694
 5584SOL    HW117651   5.522   2.997   2.739
 5584SOL    HW217652   5.606   3.080   2.626
 5585SOL     OW17653   6.716   6.562   4.348
 5585SOL    HW117654   6.815   6.570   4.335
 5585SOL    HW217655   6.688   6.468   4.330
 5586SOL     OW17656   2.366   1.754   6.356
 5586SOL    HW117657   2.448   1.738   6.410
 5586SOL    HW217658   2.353   1.853   6.345
 5587SOL     OW17659   3.532   0.292   3.750
 5587SOL    HW117660   3.625   0.321   3.773
 5587SOL    HW217661   3.492   0.242   3.827
 5588SOL     OW17662   4.283   0.061   5.766
 5588SOL    HW117663   4.298   0.150   5.809
 5588SOL    HW217664   4.191   0.057   5.729
 5589SOL     OW17665   3.500   3.453   6.665
 5589SOL    HW117666   3.503   3.427   6.762
 5589SOL    HW217667   3.408   3.487   6.643
 5590SOL     OW17668   0.075   6.702   3.138
 5590SOL    HW117669   0.046   6.610   3.164
 5590SOL    HW217670   7.018   6.765   3.146
 5591SOL     OW17671   4.925   1.067   0.010
 5591SOL    HW117672   5.012   1.037   0.050
 5591SOL    HW217673   4.869   0.987   7.010
 5592SOL     OW17674   2.758   2.246   2.546
 5592SOL    HW117675   2.744   2.238   2.448
 5592SOL    HW217676   2.853   2.223   2.568
 5593SOL     OW17677   2.172   3.308   4.821
 5593SOL    HW117678   2.203   3.394   4.783
 5593SOL    HW217679   2.189   3.307   4.920
 5594SOL     OW17680   2.409   1.657   6.788
 5594SOL    HW117681   2.379   1.594   6.717
 5594SOL    HW217682   2.453   1.606   6.862
 5595SOL     OW17683   0.208   1.578   5.882
 5595SOL    HW117684   0.121   1.618   5.911
 5595SOL    HW217685   0.192   1.516   5.805
 5596SOL     OW17686   5.176   1.595   3.122
 5596SOL    HW117687   5.180   1.690   3.091
 5596SOL    HW217688   5.241   1.580   3.196
 5597SOL     OW17689   0.219   0.999   6.045
 5597SOL    HW117690   0.284   0.961   5.980
 5597SOL    HW217691   0.175   0.925   6.096
 5598SOL     OW17692   6.907   2.384   4.258
 5598SOL    HW117693   7.004   2.403   4.267
 5598SOL    HW217694   6.878   2.321   4.330
 5599SOL     OW17695   5.001   2.741   3.651
 5599SOL    HW117696   4.990   2.771   3.557
 5599SOL    HW217697   4.933   2.786   3.709
 5600SOL     OW17698   2.372   1.728   2.045
 5600SOL    HW117699   2.438   1.675   2.098
 5600SOL    HW217700   2.387   1.826   2.062
 5601SOL     OW17701   6.276   2.783   5.912
 5601SOL    HW117702   6.286   2.882   5.901
 5601SOL    HW217703   6.201   2.751   5.854
 5602SOL     OW17704   6.376   2.256   2.321
 5602SOL    HW117705   6.307   2.225   2.386
 5602SOL    HW217706   6.337   2.327   2.262
 5603SOL     OW17707   4.399   1.195   6.002
 5603SOL    HW117708   4.375   1.216   6.096
 5603SOL    HW217709   4.491   1.228   5.982
 5604SOL     OW17710   1.298   6.631   3.587
 5604SOL    HW117711   1.277   6.548   3.639
 5604SOL    HW217712   1.283   6.711   3.645
 5605SOL     OW17713   4.257   6.877   4.343
 5605SOL    HW117714   4.242   6.780   4.325
 5605SOL    HW217715   4.170   6.926   4.332
 5606SOL     OW17716   5.085   3.546   0.443
 5606SOL    HW117717   5.055   3.507   0.530
 5606SOL    HW217718   5.108   3.473   0.379
 5607SOL     OW17719   6.959   2.466   3.341
 5607SOL    HW117720   7.010   2.551   3.348
 5607SOL    HW217721   6.898   2.457   3.420
 5608SOL     OW17722   5.068   0.671   3.137
 5608SOL    HW117723   5.162   0.642   3.152
 5608SOL    HW217724   5.068   0.747   3.072
 5609SOL     OW17725   6.735   0.403   0.618
 5609SOL    HW117726   6.829   0.436   0.615
 5609SOL    HW217727   6.731   0.318   0.670
 5610SOL     OW17728   5.059   5.514   0.305
 5610SOL    HW117729   5.154   5.540   0.285
 5610SOL    HW217730   4.998   5.567   0.246
 5611SOL     OW17731   6.009   4.638   1.938
 5611SOL    HW117732   6.007   4.634   1.838
 5611SOL    HW217733   6.051   4.724   1.967
 5612SOL     OW17734   3.548   1.820   6.936
 5612SOL    HW117735   3.458   1.808   6.894
 5612SOL    HW217736   3.538   1.816   0.016
 5613SOL     OW17737   6.097   5.188   6.305
 5613SOL    HW117738   6.175   5.189   6.242
 5613SOL    HW217739   6.130   5.171   6.398
 5614SOL     OW17740   4.766   2.840   4.112
 5614SOL    HW117741   4.741   2.784   4.033
 5614SOL    HW217742   4.731   2.799   4.195
 5615SOL     OW17743   0.633   2.506   2.856
 5615SOL    HW117744   0.649   2.535   2.950
 5615SOL    HW217745   0.540   2.532   2.828
 5616SOL     OW17746   1.533   3.101   2.415
 5616SOL    HW117747   1.482   3.104   2.501
 5616SOL    HW217748   1.606   3.170   2.417
 5617SOL     OW17749   1.506   4.719   6.589
 5617SOL    HW117750   1.570   4.795   6.582
 5617SOL    HW217751   1.412   4.754   6.584
 5618SOL     OW17752   5.187   6.483   2.376
 5618SOL    HW117753   5.286   6.485   2.386
 5618SOL    HW217754   5.163   6.495   2.279
 5619SOL     OW17755   3.447   3.170   3.516
 5619SOL    HW117756   3.432   3.191   3.420
 5619SOL    HW217757   3.475   3.253   3.565
 5620SOL     OW17758   4.936   4.594   4.293
 5620SOL    HW117759   4.875   4.661   4.335
 5620SOL    HW217760   4.881   4.528   4.241
 5621SOL     OW17761   0.206   2.560   6.478
 5621SOL    HW117762   0.305   2.549   6.469
 5621SOL    HW217763   0.166   2.477   6.516
 5622SOL     OW17764   4.699   5.894   3.852
 5622SOL    HW117765   4.695   5.878   3.753
 5622SOL    HW217766   4.747   5.818   3.896
 5623SOL     OW17767   5.036   4.773   4.604
 5623SOL    HW117768   5.131   4.795   4.627
 5623SOL    HW217769   5.031   4.679   4.572
 5624SOL     OW17770   5.051   4.622   3.091
 5624SOL    HW117771   5.112   4.602   3.013
 5624SOL    HW217772   4.957   4.598   3.066
 5625SOL     OW17773   2.128   6.000   6.099
 5625SOL    HW117774   2.065   6.010   6.176
 5625SOL    HW217775   2.128   6.085   6.046
 5626SOL     OW17776   0.932   4.534   6.814
 5626SOL    HW117777   1.004   4.520   6.745
 5626SOL    HW217778   0.864   4.597   6.778
 5627SOL     OW17779   1.052   5.166   6.757
 5627SOL    HW117780   0.996   5.221   6.694
 5627SOL    HW217781   0.993   5.101   6.805
 5628SOL     OW17782   2.122   3.658   0.605
 5628SOL    HW117783   2.068   3.636   0.524
 5628SOL    HW217784   2.077   3.621   0.686
 5629SOL     OW17785   6.353   3.334   2.507
 5629SOL    HW117786   6.286   3.306   2.576
 5629SOL    HW217787   6.391   3.253   2.462
 5630SOL     OW17788   0.427   4.177   6.878
 5630SOL    HW117789   0.442   4.167   6.780
 5630SOL    HW217790   0.496   4.239   6.916
 5631SOL     OW17791   3.959   1.411   2.108
 5631SOL    HW117792   3.887   1.474   2.079
 5631SOL    HW217793   4.011   1.452   2.183
 5632SOL     OW17794   5.011   6.483   5.646
 5632SOL    HW117795   5.036   6.497   5.742
 5632SOL    HW217796   4.912   6.487   5.637
 5633SOL     OW17797   0.992   5.692   5.226
 5633SOL    HW117798   1.067   5.709   5.290
 5633SOL    HW217799   1.010   5.609   5.174
 5634SOL     OW17800   2.656   0.654   1.295
 5634SOL    HW117801   2.622   0.717   1.365
 5634SOL    HW217802   2.705   0.579   1.339
 5635SOL     OW17803   3.242   0.378   1.217
 5635SOL    HW117804   3.144   0.393   1.204
 5635SOL    HW217805   3.264   0.282   1.201
 5636SOL     OW17806   4.771   1.270   6.211
 5636SOL    HW117807   4.848   1.207   6.220
 5636SOL    HW217808   4.750   1.285   6.115
 5637SOL     OW17809   4.689   6.701   4.563
 5637SOL    HW117810   4.712   6.603   4.566
 5637SOL    HW217811   4.730   6.747   4.641
 5638SOL     OW17812   6.259   5.272   1.152
 5638SOL    HW117813   6.330   5.202   1.146
 5638SOL    HW217814   6.297   5.354   1.195
 5639SOL     OW17815   2.077   0.399   1.767
 5639SOL    HW117816   2.075   0.473   1.700
 5639SOL    HW217817   2.125   0.430   1.849
 5640SOL     OW17818   3.081   0.132   2.932
 5640SOL    HW117819   3.153   0.065   2.949
 5640SOL    HW217820   3.043   0.118   2.841
 5641SOL     OW17821   6.642   4.432   3.640
 5641SOL    HW117822   6.657   4.352   3.582
 5641SOL    HW217823   6.730   4.474   3.662
 5642SOL     OW17824   2.033   3.523   6.552
 5642SOL    HW117825   2.125   3.494   6.529
 5642SOL    HW217826   1.966   3.465   6.505
 5643SOL     OW17827   5.568   2.477   4.953
 5643SOL    HW117828   5.590   2.545   4.883
 5643SOL    HW217829   5.634   2.403   4.950
 5644SOL     OW17830   4.412   0.493   4.805
 5644SOL    HW117831   4.350   0.572   4.810
 5644SOL    HW217832   4.384   0.424   4.871
 5645SOL     OW17833   6.633   5.781   3.985
 5645SOL    HW117834   6.729   5.764   3.964
 5645SOL    HW217835   6.614   5.750   4.079
 5646SOL     OW17836   0.229   6.423   3.682
 5646SOL    HW117837   0.317   6.418   3.728
 5646SOL    HW217838   0.156   6.434   3.749
 5647SOL     OW17839   6.324   5.473   6.408
 5647SOL    HW117840   6.246   5.524   6.445
 5647SOL    HW217841   6.291   5.403   6.345
 5648SOL     OW17842   2.205   1.068   5.223
 5648SOL    HW117843   2.116   1.021   5.217
 5648SOL    HW217844   2.276   1.000   5.243
 5649SOL     OW17845   1.525   0.346   5.185
 5649SOL    HW117846   1.610   0.303   5.216
 5649SOL    HW217847   1.534   0.371   5.089
 5650SOL     OW17848   6.453   5.029   0.198
 5650SOL    HW117849   6.515   4.956   0.168
 5650SOL    HW217850   6.433   5.089   0.121
 5651SOL     OW17851   6.310   1.290   2.902
 5651SOL    HW117852   6.327   1.388   2.900
 5651SOL    HW217853   6.370   1.244   2.836
 5652SOL     OW17854   5.721   4.144   0.252
 5652SOL    HW117855   5.816   4.130   0.224
 5652SOL    HW217856   5.662   4.144   0.171
 5653SOL     OW17857   1.581   6.255   6.663
 5653SOL    HW117858   1.541   6.345   6.641
 5653SOL    HW217859   1.622   6.258   6.754
 5654SOL     OW17860   0.594   5.747   5.958
 5654SOL    HW117861   0.628   5.841   5.946
 5654SOL    HW217862   0.671   5.687   5.980
 5655SOL     OW17863   7.012   4.031   3.081
 5655SOL    HW117864   0.008   3.968   3.156
 5655SOL    HW217865   6.914   4.039   3.064
 5656SOL     OW17866   3.282   4.936   6.235
 5656SOL    HW117867   3.286   4.967   6.330
 5656SOL    HW217868   3.326   4.847   6.227
 5657SOL     OW17869   4.042   6.028   1.577
 5657SOL    HW117870   4.039   6.122   1.611
 5657SOL    HW217871   3.952   5.986   1.587
 5658SOL     OW17872   5.020   6.541   5.075
 5658SOL    HW117873   5.091   6.492   5.025
 5658SOL    HW217874   4.945   6.563   5.013
 5659SOL     OW17875   3.438   3.921   2.982
 5659SOL    HW117876   3.449   3.843   2.920
 5659SOL    HW217877   3.351   3.967   2.963
 5660SOL     OW17878   5.950   0.026   0.793
 5660SOL    HW117879   5.866   0.011   0.741
 5660SOL    HW217880   6.004   0.098   0.749
 5661SOL     OW17881   6.389   6.021   4.750
 5661SOL    HW117882   6.347   5.935   4.721
 5661SOL    HW217883   6.348   6.097   4.701
 5662SOL     OW17884   2.062   3.556   3.993
 5662SOL    HW117885   2.085   3.492   4.067
 5662SOL    HW217886   2.033   3.504   3.913
 5663SOL     OW17887   1.810   3.721   0.135
 5663SOL    HW117888   1.711   3.709   0.129
 5663SOL    HW217889   1.832   3.818   0.142
 5664SOL     OW17890   0.038   4.761   2.847
 5664SOL    HW117891   0.102   4.697   2.888
 5664SOL    HW217892   6.969   4.753   2.891
 5665SOL     OW17893   1.664   1.374   6.051
 5665SOL    HW117894   1.577   1.423   6.043
 5665SOL    HW217895   1.737   1.438   6.076
 5666SOL     OW17896   5.810   5.269   0.385
 5666SOL    HW117897   5.799   5.289   0.482
 5666SOL    HW217898   5.827   5.354   0.335
 5667SOL     OW17899   0.050   5.716   3.705
 5667SOL    HW117900   0.087   5.624   3.717
 5667SOL    HW217901   0.025   5.729   3.608
 5668SOL     OW17902   5.833   2.713   5.618
 5668SOL    HW117903   5.841   2.702   5.519
 5668SOL    HW217904   5.738   2.730   5.642
 5669SOL     OW17905   6.907   3.460   5.427
 5669SOL    HW117906   6.936   3.537   5.483
 5669SOL    HW217907   6.926   3.480   5.331
 5670SOL     OW17908   1.835   4.268   3.228
 5670SOL    HW117909   1.915   4.310   3.271
 5670SOL    HW217910   1.832   4.293   3.131
 5671SOL     OW17911   1.851   1.004   5.492
 5671SOL    HW117912   1.782   0.933   5.509
 5671SOL    HW217913   1.925   0.966   5.437
 5672SOL     OW17914   5.636   4.615   5.732
 5672SOL    HW117915   5.692   4.597   5.651
 5672SOL    HW217916   5.665   4.556   5.807
 5673SOL     OW17917   1.561   0.307   1.588
 5673SOL    HW117918   1.594   0.301   1.494
 5673SOL    HW217919   1.618   0.371   1.640
 5674SOL     OW17920   6.809   3.697   1.300
 5674SOL    HW117921   6.829   3.608   1.258
 5674SOL    HW217922   6.755   3.684   1.383
 5675SOL     OW17923   4.271   1.728   5.722
 5675SOL    HW117924   4.250   1.800   5.788
 5675SOL    HW217925   4.234   1.753   5.632
 5676SOL     OW17926   3.450   6.733   1.450
 5676SOL    HW117927   3.394   6.765   1.374
 5676SOL    HW217928   3.541   6.774   1.444
 5677SOL     OW17929   0.118   0.398   4.306
 5677SOL    HW117930   0.109   0.342   4.223
 5677SOL    HW217931   0.115   0.495   4.281
 5678SOL     OW17932   1.966   5.008   3.304
 5678SOL    HW117933   1.972   4.924   3.250
 5678SOL    HW217934   2.058   5.048   3.312
 5679SOL     OW17935   2.416   6.081   4.943
 5679SOL    HW117936   2.427   6.105   5.039
 5679SOL    HW217937   2.395   5.983   4.935
 5680SOL     OW17938   2.389   6.919   6.380
 5680SOL    HW117939   2.461   6.981   6.413
 5680SOL    HW217940   2.405   6.898   6.284
 5681SOL     OW17941   1.828   3.767   0.698
 5681SOL    HW117942   1.830   3.715   0.612
 5681SOL    HW217943   1.753   3.732   0.756
 5682SOL     OW17944   0.369   3.642   3.708
 5682SOL    HW117945   0.333   3.550   3.692
 5682SOL    HW217946   0.379   3.689   3.620
 5683SOL     OW17947   3.756   2.780   5.449
 5683SOL    HW117948   3.851   2.798   5.476
 5683SOL    HW217949   3.741   2.814   5.356
 5684SOL     OW17950   3.269   3.708   3.106
 5684SOL    HW117951   3.204   3.779   3.134
 5684SOL    HW217952   3.318   3.674   3.187
 5685SOL     OW17953   1.090   5.706   2.435
 5685SOL    HW117954   1.102   5.782   2.371
 5685SOL    HW217955   0.994   5.701   2.462
 5686SOL     OW17956   3.383   5.531   0.191
 5686SOL    HW117957   3.400   5.615   0.244
 5686SOL    HW217958   3.465   5.507   0.139
 5687SOL     OW17959   4.738   5.323   5.562
 5687SOL    HW117960   4.660   5.384   5.545
 5687SOL    HW217961   4.811   5.375   5.606
 5688SOL     OW17962   6.078   2.049   2.189
 5688SOL    HW117963   5.990   2.008   2.213
 5688SOL    HW217964   6.092   2.131   2.245
 5689SOL     OW17965   4.101   2.587   6.873
 5689SOL    HW117966   4.040   2.552   6.944
 5689SOL    HW217967   4.161   2.657   6.913
 5690SOL     OW17968   4.525   6.853   1.588
 5690SOL    HW117969   4.586   6.815   1.657
 5690SOL    HW217970   4.556   6.825   1.497
 5691SOL     OW17971   2.023   0.235   2.285
 5691SOL    HW117972   2.022   0.334   2.280
 5691SOL    HW217973   1.935   0.199   2.255
 5692SOL     OW17974   5.996   3.027   0.222
 5692SOL    HW117975   6.023   2.995   0.313
 5692SOL    HW217976   5.919   2.971   0.189
 5693SOL     OW17977   5.011   2.737   3.358
 5693SOL    HW117978   5.093   2.693   3.322
 5693SOL    HW217979   4.931   2.707   3.306
 5694SOL     OW17980   0.711   1.918   4.305
 5694SOL    HW117981   0.653   1.903   4.385
 5694SOL    HW217982   0.790   1.857   4.309
 5695SOL     OW17983   2.093   3.528   3.694
 5695SOL    HW117984   2.129   3.621   3.696
 5695SOL    HW217985   2.049   3.512   3.605
 5696SOL     OW17986   3.135   0.174   5.766
 5696SOL    HW117987   3.225   0.152   5.728
 5696SOL    HW217988   3.104   0.099   5.824
 5697SOL     OW17989   6.927   3.321   6.769
 5697SOL    HW117990   6.998   3.297   6.834
 5697SOL    HW217991   6.898   3.240   6.719
 5698SOL     OW17992   0.617   3.847   2.140
 5698SOL    HW117993   0.542   3.781   2.136
 5698SOL    HW217994   0.653   3.863   2.048
 5699SOL     OW17995   6.121   0.874   4.873
 5699SOL    HW117996   6.104   0.779   4.900
 5699SOL    HW217997   6.040   0.911   4.828
 5700SOL     OW17998   1.119   5.445   3.530
 5700SOL    HW117999   1.093   5.368   3.588
 5700SOL    HW218000   1.215   5.466   3.543
 5701SOL     OW18001   5.754   5.381   1.976
 5701SOL    HW118002   5.749   5.472   1.936
 5701SOL    HW218003   5.668   5.359   2.021
 5702SOL     OW18004   1.943   0.075   6.637
 5702SOL    HW118005   1.969   7.004   6.666
 5702SOL    HW218006   1.962   0.141   6.710
 5703SOL     OW18007   3.882   4.703   0.940
 5703SOL    HW118008   3.803   4.760   0.919
 5703SOL    HW218009   3.947   4.756   0.995
 5704SOL     OW18010   4.196   5.307   3.703
 5704SOL    HW118011   4.222   5.264   3.617
 5704SOL    HW218012   4.170   5.402   3.686
 5705SOL     OW18013   6.503   1.721   1.937
 5705SOL    HW118014   6.583   1.666   1.958
 5705SOL    HW218015   6.451   1.738   2.020
 5706SOL     OW18016   1.834   1.437   6.817
 5706SOL    HW118017   1.780   1.460   6.899
 5706SOL    HW218018   1.930   1.456   6.834
 5707SOL     OW18019   3.228   2.372   6.435
 5707SOL    HW118020   3.297   2.405   6.372
 5707SOL    HW218021   3.169   2.306   6.389
 5708SOL     OW18022   5.371   6.947   1.822
 5708SOL    HW118023   5.349   6.935   1.919
 5708SOL    HW218024   5.334   0.014   1.791
 5709SOL     OW18025   1.165   1.006   3.099
 5709SOL    HW118026   1.176   1.086   3.039
 5709SOL    HW218027   1.188   0.923   3.048
 5710SOL     OW18028   3.066   4.087   6.265
 5710SOL    HW118029   3.131   4.065   6.192
 5710SOL    HW218030   3.097   4.168   6.314
 5711SOL     OW18031   4.089   1.071   4.329
 5711SOL    HW118032   4.024   1.118   4.269
 5711SOL    HW218033   4.180   1.072   4.287
 5712SOL     OW18034   6.779   5.831   0.014
 5712SOL    HW118035   6.733   5.753   0.056
 5712SOL    HW218036   6.878   5.824   0.030
 5713SOL     OW18037   7.003   1.844   3.306
 5713SOL    HW118038   6.922   1.790   3.331
 5713SOL    HW218039   6.973   1.930   3.264
 5714SOL     OW18040   1.722   0.763   6.995
 5714SOL    HW118041   1.719   0.679   6.939
 5714SOL    HW218042   1.716   0.843   6.935
 5715SOL     OW18043   1.770   0.202   3.405
 5715SOL    HW118044   1.805   0.123   3.456
 5715SOL    HW218045   1.672   0.212   3.422
 5716SOL     OW18046   2.434   3.023   5.785
 5716SOL    HW118047   2.426   2.939   5.731
 5716SOL    HW218048   2.530   3.045   5.798
 5717SOL     OW18049   0.602   3.962   0.611
 5717SOL    HW118050   0.584   3.917   0.698
 5717SOL    HW218051   0.629   4.057   0.628
 5718SOL     OW18052   2.510   4.836   5.429
 5718SOL    HW118053   2.539   4.925   5.395
 5718SOL    HW218054   2.446   4.794   5.364
 5719SOL     OW18055   2.965   0.787   6.407
 5719SOL    HW118056   3.009   0.877   6.406
 5719SOL    HW218057   2.890   0.786   6.341
 5720SOL     OW18058   2.004   4.917   4.405
 5720SOL    HW118059   1.930   4.973   4.367
 5720SOL    HW218060   2.028   4.952   4.495
 5721SOL     OW18061   0.839   4.714   1.751
 5721SOL    HW118062   0.791   4.768   1.821
 5721SOL    HW218063   0.808   4.619   1.755
 5722SOL     OW18064   5.646   0.436   4.153
 5722SOL    HW118065   5.584   0.446   4.075
 5722SOL    HW218066   5.648   0.341   4.183
 5723SOL     OW18067   1.609   4.513   0.965
 5723SOL    HW118068   1.661   4.430   0.982
 5723SOL    HW218069   1.512   4.491   0.959
 5724SOL     OW18070   5.078   1.717   6.934
 5724SOL    HW118071   5.102   1.641   6.996
 5724SOL    HW218072   5.004   1.688   6.874
 5725SOL     OW18073   5.027   5.811   6.228
 5725SOL    HW118074   5.004   5.907   6.242
 5725SOL    HW218075   4.999   5.782   6.137
 5726SOL     OW18076   4.906   3.369   6.279
 5726SOL    HW118077   4.909   3.408   6.186
 5726SOL    HW218078   4.971   3.293   6.285
 5727SOL     OW18079   6.134   2.125   3.780
 5727SOL    HW118080   6.170   2.035   3.803
 5727SOL    HW218081   6.192   2.196   3.820
 5728SOL     OW18082   6.207   0.644   6.485
 5728SOL    HW118083   6.279   0.703   6.520
 5728SOL    HW218084   6.204   0.651   6.385
 5729SOL     OW18085   0.914   2.840   5.563
 5729SOL    HW118086   0.952   2.826   5.654
 5729SOL    HW218087   0.912   2.752   5.515
 5730SOL     OW18088   4.646   4.896   6.635
 5730SOL    HW118089   4.693   4.955   6.700
 5730SOL    HW218090   4.695   4.895   6.548
 5731SOL     OW18091   3.623   0.854   4.509
 5731SOL    HW118092   3.640   0.940   4.557
 5731SOL    HW218093   3.704   0.796   4.515
 5732SOL     OW18094   5.510   4.135   4.305
 5732SOL    HW118095   5.410   4.126   4.311
 5732SOL    HW218096   5.539   4.216   4.356
 5733SOL     OW18097   2.684   0.507   0.751
 5733SOL    HW118098   2.765   0.453   0.730
 5733SOL    HW218099   2.689   0.541   0.845
 5734SOL     OW18100   2.397   6.011   6.325
 5734SOL    HW118101   2.419   5.919   6.294
 5734SOL    HW218102   2.419   6.020   6.422
 5735SOL     OW18103   4.405   0.604   1.743
 5735SOL    HW118104   4.344   0.572   1.671
 5735SOL    HW218105   4.416   0.532   1.812
 5736SOL     OW18106   5.328   4.246   0.163
 5736SOL    HW118107   5.413   4.219   0.117
 5736SOL    HW218108   5.302   4.175   0.228
 5737SOL     OW18109   4.102   5.078   0.969
 5737SOL    HW118110   4.156   5.088   0.886
 5737SOL    HW218111   4.008   5.106   0.952
 5738SOL     OW18112   2.871   0.704   0.480
 5738SOL    HW118113   2.929   0.707   0.561
 5738SOL    HW218114   2.864   0.609   0.448
 5739SOL     OW18115   1.892   0.737   6.138
 5739SOL    HW118116   1.917   0.784   6.054
 5739SOL    HW218117   1.807   0.775   6.173
 5740SOL     OW18118   5.292   3.403   2.218
 5740SOL    HW118119   5.252   3.329   2.163
 5740SOL    HW218120   5.389   3.412   2.197
 5741SOL     OW18121   0.242   3.423   4.244
 5741SOL    HW118122   0.337   3.391   4.238
 5741SOL    HW218123   0.193   3.369   4.311
 5742SOL     OW18124   5.378   0.359   3.679
 5742SOL    HW118125   5.374   0.265   3.645
 5742SOL    HW218126   5.437   0.413   3.619
 5743SOL     OW18127   4.168   4.511   6.797
 5743SOL    HW118128   4.072   4.533   6.811
 5743SOL    HW218129   4.196   4.440   6.862
 5744SOL     OW18130   5.466   6.940   2.813
 5744SOL    HW118131   5.396   6.981   2.754
 5744SOL    HW218132   5.423   6.872   2.873
 5745SOL     OW18133   1.716   2.369   1.765
 5745SOL    HW118134   1.665   2.287   1.793
 5745SOL    HW218135   1.671   2.450   1.803
 5746SOL     OW18136   4.389   6.917   3.340
 5746SOL    HW118137   4.443   6.921   3.255
 5746SOL    HW218138   4.395   7.005   3.387
 5747SOL     OW18139   0.498   6.116   1.156
 5747SOL    HW118140   0.477   6.171   1.237
 5747SOL    HW218141   0.503   6.019   1.182
 5748SOL     OW18142   0.297   6.105   0.745
 5748SOL    HW118143   0.367   6.141   0.684
 5748SOL    HW218144   0.281   6.008   0.725
 5749SOL     OW18145   1.568   5.844   5.952
 5749SOL    HW118146   1.651   5.855   6.006
 5749SOL    HW218147   1.494   5.898   5.993
 5750SOL     OW18148   6.345   4.142   3.561
 5750SOL    HW118149   6.381   4.102   3.476
 5750SOL    HW218150   6.404   4.116   3.637
 5751SOL     OW18151   1.597   3.526   4.424
 5751SOL    HW118152   1.631   3.477   4.504
 5751SOL    HW218153   1.672   3.542   4.360
 5752SOL     OW18154   4.675   0.463   0.678
 5752SOL    HW118155   4.755   0.414   0.710
 5752SOL    HW218156   4.696   0.561   0.672
 5753SOL     OW18157   4.045   3.922   5.113
 5753SOL    HW118158   3.984   4.000   5.100
 5753SOL    HW218159   4.016   3.847   5.054
 5754SOL     OW18160   0.753   6.061   1.444
 5754SOL    HW118161   0.746   5.974   1.394
 5754SOL    HW218162   0.662   6.088   1.476
 5755SOL     OW18163   0.947   2.349   6.821
 5755SOL    HW118164   1.026   2.391   6.866
 5755SOL    HW218165   0.865   2.401   6.844
 5756SOL     OW18166   5.841   6.122   1.232
 5756SOL    HW118167   5.829   6.127   1.331
 5756SOL    HW218168   5.937   6.103   1.211
 5757SOL     OW18169   6.687   0.287   4.494
 5757SOL    HW118170   6.597   0.245   4.502
 5757SOL    HW218171   6.700   0.319   4.400
 5758SOL     OW18172   6.185   0.079   2.566
 5758SOL    HW118173   6.097   0.116   2.597
 5758SOL    HW218174   6.252   0.088   2.639
 5759SOL     OW18175   3.775   0.226   1.005
 5759SOL    HW118176   3.680   0.239   1.032
 5759SOL    HW218177   3.833   0.292   1.053
 5760SOL     OW18178   0.413   3.092   1.017
 5760SOL    HW118179   0.357   3.125   0.941
 5760SOL    HW218180   0.407   2.992   1.022
 5761SOL     OW18181   5.930   6.810   4.441
 5761SOL    HW118182   6.004   6.870   4.410
 5761SOL    HW218183   5.966   6.743   4.506
 5762SOL     OW18184   6.521   5.441   7.002
 5762SOL    HW118185   6.461   5.480   6.933
 5762SOL    HW218186   6.571   5.364   6.964
 5763SOL     OW18187   5.795   0.072   0.218
 5763SOL    HW118188   5.734   0.010   0.268
 5763SOL    HW218189   5.751   0.101   0.133
 5764SOL     OW18190   4.543   6.634   4.301
 5764SOL    HW118191   4.593   6.716   4.327
 5764SOL    HW218192   4.574   6.557   4.357
 5765SOL     OW18193   6.384   5.042   1.805
 5765SOL    HW118194   6.425   5.069   1.893
 5765SOL    HW218195   6.328   5.117   1.771
 5766SOL     OW18196   0.383   1.674   4.340
 5766SOL    HW118197   0.332   1.742   4.286
 5766SOL    HW218198   0.328   1.591   4.349
 5767SOL     OW18199   3.279   0.165   0.334
 5767SOL    HW118200   3.377   0.184   0.325
 5767SOL    HW218201   3.237   0.162   0.244
 5768SOL     OW18202   0.254   0.162   4.650
 5768SOL    HW118203   0.272   0.077   4.700
 5768SOL    HW218204   0.252   0.239   4.714
 5769SOL     OW18205   1.366   4.254   6.685
 5769SOL    HW118206   1.287   4.306   6.652
 5769SOL    HW218207   1.438   4.317   6.713
 5770SOL     OW18208   2.034   4.641   1.513
 5770SOL    HW118209   2.079   4.728   1.533
 5770SOL    HW218210   2.093   4.585   1.456
 5771SOL     OW18211   2.887   5.466   3.452
 5771SOL    HW118212   2.965   5.431   3.505
 5771SOL    HW218213   2.910   5.555   3.414
 5772SOL     OW18214   3.397   0.514   2.034
 5772SOL    HW118215   3.482   0.565   2.025
 5772SOL    HW218216   3.325   0.559   1.980
 5773SOL     OW18217   4.307   1.783   3.108
 5773SOL    HW118218   4.240   1.822   3.044
 5773SOL    HW218219   4.361   1.713   3.061
 5774SOL     OW18220   0.163   6.835   2.058
 5774SOL    HW118221   0.103   6.881   2.125
 5774SOL    HW218222   0.240   6.792   2.106
 5775SOL     OW18223   6.560   5.811   2.175
 5775SOL    HW118224   6.628   5.777   2.109
 5775SOL    HW218225   6.604   5.826   2.263
 5776SOL     OW18226   2.735   0.696   3.813
 5776SOL    HW118227   2.765   0.626   3.878
 5776SOL    HW218228   2.726   0.656   3.722
 5777SOL     OW18229   1.715   6.186   3.001
 5777SOL    HW118230   1.755   6.200   2.911
 5777SOL    HW218231   1.784   6.204   3.072
 5778SOL     OW18232   0.483   1.549   0.441
 5778SOL    HW118233   0.560   1.557   0.504
 5778SOL    HW218234   0.398   1.571   0.489
 5779SOL     OW18235   5.871   1.900   6.256
 5779SOL    HW118236   5.918   1.840   6.192
 5779SOL    HW218237   5.937   1.958   6.303
 5780SOL     OW18238   5.118   5.945   3.752
 5780SOL    HW118239   5.027   5.953   3.793
 5780SOL    HW218240   5.132   5.852   3.718
 5781SOL     OW18241   0.616   4.134   5.198
 5781SOL    HW118242   0.632   4.128   5.100
 5781SOL    HW218243   0.537   4.079   5.222
 5782SOL     OW18244   0.276   1.227   0.310
 5782SOL    HW118245   0.198   1.172   0.279
 5782SOL    HW218246   0.293   1.301   0.246
 5783SOL     OW18247   1.798   1.740   1.408
 5783SOL    HW118248   1.848   1.769   1.490
 5783SOL    HW218249   1.699   1.748   1.424
 5784SOL     OW18250   6.807   6.774   6.227
 5784SOL    HW118251   6.833   6.828   6.147
 5784SOL    HW218252   6.881   6.711   6.250
 5785SOL     OW18253   1.415   1.871   0.875
 5785SOL    HW118254   1.488   1.895   0.939
 5785SOL    HW218255   1.332   1.849   0.926
 5786SOL     OW18256   6.075   4.484   0.993
 5786SOL    HW118257   6.172   4.475   0.974
 5786SOL    HW218258   6.041   4.571   0.957
 5787SOL     OW18259   3.098   1.925   5.730
 5787SOL    HW118260   3.039   1.895   5.805
 5787SOL    HW218261   3.045   1.980   5.666
 5788SOL     OW18262   2.773   1.278   3.538
 5788SOL    HW118263   2.711   1.227   3.597
 5788SOL    HW218264   2.867   1.269   3.573
 5789SOL     OW18265   4.341   4.822   6.369
 5789SOL    HW118266   4.269   4.865   6.314
 5789SOL    HW218267   4.361   4.880   6.448
 5790SOL     OW18268   0.489   2.545   3.432
 5790SOL    HW118269   0.447   2.568   3.520
 5790SOL    HW218270   0.588   2.543   3.441
 5791SOL     OW18271   2.321   0.409   2.540
 5791SOL    HW118272   2.370   0.365   2.615
 5791SOL    HW218273   2.354   0.374   2.453
 5792SOL     OW18274   0.166   2.290   3.264
 5792SOL    HW118275   0.246   2.276   3.321
 5792SOL    HW218276   0.087   2.312   3.321
 5793SOL     OW18277   6.864   0.756   3.446
 5793SOL    HW118278   6.824   0.721   3.531
 5793SOL    HW218279   6.791   0.784   3.384
 5794SOL     OW18280   3.791   3.920   0.046
 5794SOL    HW118281   3.752   3.990   7.007
 5794SOL    HW218282   3.718   3.867   0.088
 5795SOL     OW18283   6.137   4.217   6.149
 5795SOL    HW118284   6.230   4.199   6.181
 5795SOL    HW218285   6.128   4.189   6.054
 5796SOL     OW18286   3.620   1.418   0.392
 5796SOL    HW118287   3.604   1.443   0.297
 5796SOL    HW218288   3.718   1.406   0.408
 5797SOL     OW18289   3.296   1.645   4.754
 5797SOL    HW118290   3.226   1.715   4.768
 5797SOL    HW218291   3.264   1.558   4.792
 5798SOL     OW18292   0.040   4.678   4.704
 5798SOL    HW118293   0.094   4.625   4.769
 5798SOL    HW218294   0.021   4.769   4.743
 5799SOL     OW18295   5.663   0.226   3.885
 5799SOL    HW118296   5.650   0.129   3.906
 5799SOL    HW218297   5.590   0.279   3.927
 5800SOL     OW18298   5.877   4.686   0.308
 5800SOL    HW118299   5.865   4.774   0.355
 5800SOL    HW218300   5.945   4.632   0.357
 5801SOL     OW18301   1.718   1.093   3.745
 5801SOL    HW118302   1.725   1.065   3.841
 5801SOL    HW218303   1.680   1.185   3.740
 5802SOL     OW18304   0.403   3.952   5.615
 5802SOL    HW118305   0.382   3.868   5.666
 5802SOL    HW218306   0.402   3.933   5.517
 5803SOL     OW18307   0.696   4.637   0.667
 5803SOL    HW118308   0.786   4.665   0.635
 5803SOL    HW218309   0.654   4.713   0.717
 5804SOL     OW18310   6.270   4.240   4.585
 5804SOL    HW118311   6.180   4.242   4.629
 5804SOL    HW218312   6.259   4.235   4.486
 5805SOL     OW18313   4.806   3.417   6.570
 5805SOL    HW118314   4.865   3.465   6.634
 5805SOL    HW218315   4.854   3.402   6.484
 5806SOL     OW18316   0.562   6.181   0.080
 5806SOL    HW118317   0.467   6.152   0.092
 5806SOL    HW218318   0.575   6.217   7.008
 5807SOL     OW18319   1.923   3.074   1.639
 5807SOL    HW118320   2.005   3.020   1.619
 5807SOL    HW218321   1.881   3.104   1.553
 5808SOL     OW18322   6.098   3.727   2.186
 5808SOL    HW118323   6.081   3.629   2.171
 5808SOL    HW218324   6.093   3.747   2.283
 5809SOL     OW18325   6.821   3.489   4.390
 5809SOL    HW118326   6.835   3.526   4.482
 5809SOL    HW218327   6.879   3.539   4.325
 5810SOL     OW18328   2.842   1.765   2.615
 5810SOL    HW118329   2.859   1.713   2.532
 5810SOL    HW218330   2.744   1.769   2.632
 5811SOL     OW18331   2.981   0.510   4.218
 5811SOL    HW118332   3.055   0.560   4.173
 5811SOL    HW218333   3.020   0.439   4.277
 5812SOL     OW18334   4.889   0.440   4.005
 5812SOL    HW118335   4.841   0.426   3.918
 5812SOL    HW218336   4.987   0.437   3.990
 5813SOL     OW18337   1.574   0.609   5.367
 5813SOL    HW118338   1.615   0.624   5.278
 5813SOL    HW218339   1.618   0.531   5.412
 5814SOL     OW18340   0.224   5.130   1.860
 5814SOL    HW118341   0.269   5.194   1.797
 5814SOL    HW218342   0.130   5.115   1.830
 5815SOL     OW18343   4.056   1.112   3.301
 5815SOL    HW118344   3.962   1.146   3.309
 5815SOL    HW218345   4.086   1.121   3.206
 5816SOL     OW18346   4.358   0.786   0.473
 5816SOL    HW118347   4.264   0.812   0.456
 5816SOL    HW218348   4.377   0.792   0.571
 5817SOL     OW18349   4.825   3.075   5.696
 5817SOL    HW118350   4.786   3.159   5.733
 5817SOL    HW218351   4.751   3.011   5.674
 5818SOL     OW18352   6.266   6.796   6.382
 5818SOL    HW118353   6.305   6.885   6.406
 5818SOL    HW218354   6.245   6.794   6.285
 5819SOL     OW18355   5.579   0.404   1.704
 5819SOL    HW118356   5.507   0.466   1.735
 5819SOL    HW218357   5.584   0.406   1.604
 5820SOL     OW18358   5.428   6.371   3.267
 5820SOL    HW118359   5.398   6.288   3.314
 5820SOL    HW218360   5.520   6.395   3.298
 5821SOL     OW18361   2.895   0.989   1.961
 5821SOL    HW118362   2.870   0.901   1.918
 5821SOL    HW218363   2.823   1.015   2.025
 5822SOL     OW18364   6.839   1.644   2.197
 5822SOL    HW118365   6.797   1.586   2.266
 5822SOL    HW218366   6.938   1.630   2.198
 5823SOL     OW18367   2.238   1.755   4.065
 5823SOL    HW118368   2.163   1.812   4.032
 5823SOL    HW218369   2.259   1.778   4.160
 5824SOL     OW18370   5.719   0.110   3.618
 5824SOL    HW118371   5.815   0.101   3.593
 5824SOL    HW218372   5.712   0.147   3.711
 5825SOL     OW18373   2.251   0.292   0.133
 5825SOL    HW118374   2.182   0.229   0.170
 5825SOL    HW218375   2.227   0.386   0.160
 5826SOL     OW18376   6.526   0.026   4.715
 5826SOL    HW118377   6.569   0.089   4.779
 5826SOL    HW218378   6.449   0.070   4.670
 5827SOL     OW18379   0.907   5.681   4.872
 5827SOL    HW118380   0.923   5.743   4.948
 5827SOL    HW218381   0.817   5.639   4.880
 5828SOL     OW18382   0.426   3.090   2.045
 5828SOL    HW118383   0.498   3.096   1.976
 5828SOL    HW218384   0.338   3.112   2.003
 5829SOL     OW18385   2.205   1.713   1.649
 5829SOL    HW118386   2.255   1.711   1.562
 5829SOL    HW218387   2.130   1.647   1.645
 5830SOL     OW18388   3.208   1.389   6.129
 5830SOL    HW118389   3.162   1.423   6.047
 5830SOL    HW218390   3.262   1.464   6.170
 5831SOL     OW18391   5.415   6.872   3.234
 5831SOL    HW118392   5.382   6.780   3.257
 5831SOL    HW218393   5.515   6.873   3.241
 5832SOL     OW18394   4.012   3.774   5.343
 5832SOL    HW118395   4.022   3.868   5.309
 5832SOL    HW218396   3.969   3.775   5.433
 5833SOL     OW18397   3.352   3.472   4.325
 5833SOL    HW118398   3.297   3.421   4.392
 5833SOL    HW218399   3.292   3.508   4.254
 5834SOL     OW18400   5.746   1.685   1.184
 5834SOL    HW118401   5.699   1.753   1.127
 5834SOL    HW218402   5.817   1.640   1.131
 5835SOL     OW18403   4.974   2.222   3.571
 5835SOL    HW118404   4.922   2.306   3.590
 5835SOL    HW218405   5.032   2.200   3.649
 5836SOL     OW18406   3.680   6.240   2.182
 5836SOL    HW118407   3.727   6.171   2.236
 5836SOL    HW218408   3.687   6.217   2.085
 5837SOL     OW18409   4.652   3.880   0.288
 5837SOL    HW118410   4.750   3.862   0.277
 5837SOL    HW218411   4.635   3.977   0.272
 5838SOL     OW18412   1.469   1.082   5.603
 5838SOL    HW118413   1.493   1.048   5.512
 5838SOL    HW218414   1.407   1.017   5.648
 5839SOL     OW18415   6.577   3.313   2.735
 5839SOL    HW118416   6.551   3.249   2.663
 5839SOL    HW218417   6.529   3.400   2.722
 5840SOL     OW18418   1.313   5.387   6.866
 5840SOL    HW118419   1.245   5.460   6.854
 5840SOL    HW218420   1.403   5.427   6.878
 5841SOL     OW18421   6.518   2.549   3.625
 5841SOL    HW118422   6.453   2.475   3.639
 5841SOL    HW218423   6.486   2.631   3.672
 5842SOL     OW18424   4.050   2.793   1.144
 5842SOL    HW118425   4.055   2.878   1.196
 5842SOL    HW218426   3.959   2.783   1.104
 5843SOL     OW18427   1.730   3.299   2.352
 5843SOL    HW118428   1.686   3.297   2.262
 5843SOL    HW218429   1.801   3.370   2.352
 5844SOL     OW18430   0.762   6.309   6.263
 5844SOL    HW118431   0.763   6.404   6.230
 5844SOL    HW218432   0.832   6.297   6.333
 5845SOL     OW18433   0.602   2.257   4.117
 5845SOL    HW118434   0.641   2.339   4.159
 5845SOL    HW218435   0.544   2.209   4.184
 5846SOL     OW18436   0.208   2.727   5.398
 5846SOL    HW118437   0.173   2.821   5.391
 5846SOL    HW218438   0.208   2.685   5.308
 5847SOL     OW18439   2.364   2.688   2.241
 5847SOL    HW118440   2.277   2.640   2.256
 5847SOL    HW218441   2.364   2.730   2.150
 5848SOL     OW18442   1.226   4.722   3.204
 5848SOL    HW118443   1.286   4.795   3.171
 5848SOL    HW218444   1.251   4.636   3.161
 5849SOL     OW18445   2.456   0.380   5.820
 5849SOL    HW118446   2.554   0.396   5.837
 5849SOL    HW218447   2.415   0.464   5.784
 5850SOL     OW18448   0.566   4.643   2.202
 5850SOL    HW118449   0.626   4.709   2.157
 5850SOL    HW218450   0.477   4.687   2.221
 5851SOL     OW18451   6.590   3.995   2.015
 5851SOL    HW118452   6.496   4.024   1.995
 5851SOL    HW218453   6.639   4.069   2.060
 5852SOL     OW18454   4.049   5.854   2.309
 5852SOL    HW118455   4.130   5.911   2.296
 5852SOL    HW218456   4.073   5.758   2.294
 5853SOL     OW18457   3.184   4.649   6.139
 5853SOL    HW118458   3.215   4.653   6.234
 5853SOL    HW218459   3.085   4.634   6.137
 5854SOL     OW18460   6.967   1.054   5.897
 5854SOL    HW118461   6.987   1.010   5.810
 5854SOL    HW218462   6.924   0.988   5.959
 5855SOL     OW18463   1.394   1.098   4.451
 5855SOL    HW118464   1.301   1.072   4.476
 5855SOL    HW218465   1.425   1.173   4.509
 5856SOL     OW18466   1.360   4.735   3.603
 5856SOL    HW118467   1.301   4.680   3.543
 5856SOL    HW218468   1.304   4.804   3.650
 5857SOL     OW18469   6.660   3.104   5.518
 5857SOL    HW118470   6.712   3.140   5.595
 5857SOL    HW218471   6.650   3.174   5.448
 5858SOL     OW18472   4.086   1.088   3.032
 5858SOL    HW118473   4.007   1.052   2.983
 5858SOL    HW218474   4.155   1.119   2.966
 5859SOL     OW18475   6.213   6.959   1.167
 5859SOL    HW118476   6.154   0.005   1.120
 5859SOL    HW218477   6.305   6.996   1.175
 5860SOL     OW18478   1.194   4.458   1.507
 5860SOL    HW118479   1.121   4.464   1.440
 5860SOL    HW218480   1.259   4.387   1.480
 5861SOL     OW18481   5.987   2.332   4.060
 5861SOL    HW118482   5.971   2.359   4.155
 5861SOL    HW218483   5.956   2.405   3.999
 5862SOL     OW18484   4.102   4.879   2.862
 5862SOL    HW118485   4.024   4.904   2.919
 5862SOL    HW218486   4.069   4.841   2.776
 5863SOL     OW18487   2.059   0.998   6.311
 5863SOL    HW118488   2.063   1.080   6.252
 5863SOL    HW218489   2.152   0.966   6.328
 5864SOL     OW18490   4.531   4.338   1.484
 5864SOL    HW118491   4.562   4.244   1.469
 5864SOL    HW218492   4.597   4.386   1.543
 5865SOL     OW18493   4.985   0.922   3.573
 5865SOL    HW118494   4.924   0.973   3.512
 5865SOL    HW218495   5.070   0.901   3.525
 5866SOL     OW18496   3.923   6.784   5.603
 5866SOL    HW118497   3.919   6.685   5.613
 5866SOL    HW218498   3.869   6.827   5.675
 5867SOL     OW18499   0.441   3.024   1.676
 5867SOL    HW118500   0.503   3.079   1.731
 5867SOL    HW218501   0.441   2.930   1.709
 5868SOL     OW18502   1.709   6.822   5.341
 5868SOL    HW118503   1.641   6.813   5.268
 5868SOL    HW218504   1.800   6.834   5.300
 5869SOL     OW18505   3.027   4.846   4.597
 5869SOL    HW118506   3.106   4.878   4.650
 5869SOL    HW218507   2.977   4.777   4.650
 5870SOL     OW18508   4.787   5.404   4.602
 5870SOL    HW118509   4.862   5.339   4.606
 5870SOL    HW218510   4.702   5.358   4.628
 5871SOL     OW18511   3.616   3.207   0.461
 5871SOL    HW118512   3.582   3.184   0.552
 5871SOL    HW218513   3.631   3.123   0.409
 5872SOL     OW18514   3.366   5.811   5.777
 5872SOL    HW118515   3.365   5.875   5.853
 5872SOL    HW218516   3.460   5.783   5.757
 5873SOL     OW18517   3.392   3.465   0.080
 5873SOL    HW118518   3.436   3.547   0.116
 5873SOL    HW218519   3.382   3.398   0.154
 5874SOL     OW18520   2.144   3.502   1.691
 5874SOL    HW118521   2.109   3.578   1.745
 5874SOL    HW218522   2.208   3.448   1.746
 5875SOL     OW18523   3.082   1.415   0.252
 5875SOL    HW118524   2.985   1.414   0.276
 5875SOL    HW218525   3.120   1.505   0.272
 5876SOL     OW18526   3.213   3.572   6.350
 5876SOL    HW118527   3.231   3.580   6.448
 5876SOL    HW218528   3.296   3.595   6.299
 5877SOL     OW18529   6.809   0.284   2.596
 5877SOL    HW118530   6.906   0.305   2.607
 5877SOL    HW218531   6.758   0.321   2.674
 5878SOL     OW18532   4.268   5.001   2.401
 5878SOL    HW118533   4.305   4.987   2.494
 5878SOL    HW218534   4.171   4.981   2.401
 5879SOL     OW18535   3.830   3.347   6.161
 5879SOL    HW118536   3.879   3.337   6.074
 5879SOL    HW218537   3.770   3.268   6.175
 5880SOL     OW18538   4.496   2.874   6.023
 5880SOL    HW118539   4.515   2.816   5.944
 5880SOL    HW218540   4.579   2.883   6.078
 5881SOL     OW18541   1.399   6.271   2.043
 5881SOL    HW118542   1.413   6.366   2.069
 5881SOL    HW218543   1.466   6.245   1.973
 5882SOL     OW18544   1.942   5.675   6.120
 5882SOL    HW118545   1.910   5.668   6.026
 5882SOL    HW218546   1.865   5.701   6.179
 5883SOL     OW18547   0.234   4.557   1.349
 5883SOL    HW118548   0.290   4.489   1.302
 5883SOL    HW218549   0.235   4.540   1.448
 5884SOL     OW18550   6.329   1.819   3.477
 5884SOL    HW118551   6.250   1.793   3.421
 5884SOL    HW218552   6.357   1.912   3.455
 5885SOL     OW18553   0.271   5.293   6.504
 5885SOL    HW118554   0.241   5.233   6.579
 5885SOL    HW218555   0.342   5.247   6.451
 5886SOL     OW18556   1.790   4.056   3.509
 5886SOL    HW118557   1.824   4.148   3.492
 5886SOL    HW218558   1.715   4.036   3.445
 5887SOL     OW18559   2.152   2.700   1.085
 5887SOL    HW118560   2.199   2.629   1.138
 5887SOL    HW218561   2.117   2.770   1.148
 5888SOL     OW18562   3.521   7.016   1.201
 5888SOL    HW118563   3.604   0.013   1.149
 5888SOL    HW218564   3.458   0.073   1.191
 5889SOL     OW18565   6.544   0.766   1.908
 5889SOL    HW118566   6.446   0.752   1.891
 5889SOL    HW218567   6.593   0.765   1.821
 5890SOL     OW18568   2.772   6.634   2.683
 5890SOL    HW118569   2.723   6.661   2.767
 5890SOL    HW218570   2.777   6.712   2.621
 5891SOL     OW18571   2.702   3.355   0.804
 5891SOL    HW118572   2.700   3.451   0.776
 5891SOL    HW218573   2.796   3.327   0.822
 5892SOL     OW18574   0.879   4.013   1.097
 5892SOL    HW118575   0.948   4.084   1.113
 5892SOL    HW218576   0.923   3.923   1.101
 5893SOL     OW18577   0.543   6.253   2.292
 5893SOL    HW118578   0.522   6.276   2.387
 5893SOL    HW218579   0.641   6.236   2.283
 5894SOL     OW18580   2.229   5.616   5.741
 5894SOL    HW118581   2.179   5.667   5.811
 5894SOL    HW218582   2.171   5.541   5.708
 5895SOL     OW18583   5.240   2.741   4.662
 5895SOL    HW118584   5.316   2.794   4.625
 5895SOL    HW218585   5.253   2.729   4.761
 5896SOL     OW18586   5.403   2.270   1.984
 5896SOL    HW118587   5.457   2.187   1.997
 5896SOL    HW218588   5.358   2.294   2.069
 5897SOL     OW18589   4.158   2.262   0.665
 5897SOL    HW118590   4.073   2.249   0.615
 5897SOL    HW218591   4.168   2.358   0.691
 5898SOL     OW18592   2.083   1.461   5.691
 5898SOL    HW118593   2.163   1.479   5.748
 5898SOL    HW218594   2.076   1.363   5.674
 5899SOL     OW18595   6.628   5.332   5.847
 5899SOL    HW118596   6.589   5.267   5.913
 5899SOL    HW218597   6.555   5.391   5.811
 5900SOL     OW18598   5.874   6.285   3.447
 5900SOL    HW118599   5.962   6.322   3.477
 5900SOL    HW218600   5.873   6.186   3.464
 5901SOL     OW18601   2.114   0.597   5.651
 5901SOL    HW118602   2.091   0.524   5.715
 5901SOL    HW218603   2.213   0.594   5.632
 5902SOL     OW18604   4.676   4.319   5.600
 5902SOL    HW118605   4.749   4.304   5.667
 5902SOL    HW218606   4.635   4.230   5.576
 5903SOL     OW18607   6.566   2.044   5.667
 5903SOL    HW118608   6.631   1.988   5.717
 5903SOL    HW218609   6.605   2.135   5.652
 5904SOL     OW18610   1.741   4.619   2.303
 5904SOL    HW118611   1.757   4.690   2.235
 5904SOL    HW218612   1.827   4.575   2.327
 5905SOL     OW18613   6.114   1.834   4.379
 5905SOL    HW118614   6.146   1.821   4.473
 5905SOL    HW218615   6.170   1.779   4.317
 5906SOL     OW18616   4.687   0.743   5.387
 5906SOL    HW118617   4.703   0.659   5.438
 5906SOL    HW218618   4.757   0.811   5.411
 5907SOL     OW18619   1.974   3.210   6.445
 5907SOL    HW118620   2.052   3.228   6.504
 5907SOL    HW218621   1.895   3.262   6.477
 5908SOL     OW18622   4.628   2.424   5.947
 5908SOL    HW118623   4.661   2.356   5.883
 5908SOL    HW218624   4.556   2.385   6.004
 5909SOL     OW18625   6.986   5.462   4.358
 5909SOL    HW118626   6.957   5.410   4.278
 5909SOL    HW218627   0.042   5.415   4.403
 5910SOL     OW18628   2.140   3.586   1.440
 5910SOL    HW118629   2.096   3.672   1.467
 5910SOL    HW218630   2.152   3.529   1.521
 5911SOL     OW18631   6.030   6.544   6.729
 5911SOL    HW118632   5.955   6.486   6.695
 5911SOL    HW218633   6.088   6.572   6.652
 5912SOL     OW18634   6.740   3.489   6.893
 5912SOL    HW118635   6.792   3.422   6.840
 5912SOL    HW218636   6.650   3.451   6.916
 5913SOL     OW18637   1.463   1.543   5.995
 5913SOL    HW118638   1.458   1.571   5.899
 5913SOL    HW218639   1.426   1.615   6.053
 5914SOL     OW18640   2.080   6.261   0.507
 5914SOL    HW118641   2.067   6.227   0.600
 5914SOL    HW218642   2.173   6.242   0.477
 5915SOL     OW18643   4.846   3.190   2.876
 5915SOL    HW118644   4.828   3.159   2.783
 5915SOL    HW218645   4.799   3.129   2.941
 5916SOL     OW18646   3.446   0.769   5.807
 5916SOL    HW118647   3.472   0.828   5.883
 5916SOL    HW218648   3.394   0.691   5.842
 5917SOL     OW18649   3.032   3.123   3.282
 5917SOL    HW118650   3.036   3.058   3.358
 5917SOL    HW218651   3.057   3.077   3.197
 5918SOL     OW18652   2.160   2.967   4.435
 5918SOL    HW118653   2.177   3.013   4.522
 5918SOL    HW218654   2.149   3.035   4.363
 5919SOL     OW18655   1.497   3.034   6.903
 5919SOL    HW118656   1.436   3.095   6.953
 5919SOL    HW218657   1.478   3.041   6.805
 5920SOL     OW18658   3.814   6.475   6.736
 5920SOL    HW118659   3.855   6.401   6.788
 5920SOL    HW218660   3.740   6.439   6.679
 5921SOL     OW18661   4.128   5.045   5.339
 5921SOL    HW118662   4.127   4.993   5.253
 5921SOL    HW218663   4.084   5.134   5.325
 5922SOL     OW18664   5.692   4.033   1.904
 5922SOL    HW118665   5.629   4.101   1.868
 5922SOL    HW218666   5.777   4.078   1.934
 5923SOL     OW18667   0.074   6.906   4.171
 5923SOL    HW118668   7.018   6.945   4.120
 5923SOL    HW218669   0.105   6.971   4.241
 5924SOL     OW18670   5.413   2.014   4.329
 5924SOL    HW118671   5.398   2.110   4.356
 5924SOL    HW218672   5.498   2.007   4.278
 5925SOL     OW18673   5.700   6.316   1.111
 5925SOL    HW118674   5.709   6.398   1.168
 5925SOL    HW218675   5.754   6.242   1.151
 5926SOL     OW18676   3.518   5.110   1.592
 5926SOL    HW118677   3.557   5.164   1.518
 5926SOL    HW218678   3.452   5.165   1.643
 5927SOL     OW18679   2.912   6.171   2.819
 5927SOL    HW118680   2.845   6.245   2.825
 5927SOL    HW218681   3.001   6.209   2.794
 5928SOL     OW18682   1.264   6.776   1.756
 5928SOL    HW118683   1.284   6.785   1.659
 5928SOL    HW218684   1.238   6.865   1.794
 5929SOL     OW18685   1.307   0.190   6.235
 5929SOL    HW118686   1.343   0.242   6.313
 5929SOL    HW218687   1.273   0.102   6.268
 5930SOL     OW18688   6.716   1.850   4.730
 5930SOL    HW118689   6.648   1.865   4.802
 5930SOL    HW218690   6.807   1.847   4.771
 5931SOL     OW18691   6.491   5.491   1.648
 5931SOL    HW118692   6.446   5.487   1.737
 5931SOL    HW218693   6.458   5.416   1.591
 5932SOL     OW18694   2.888   6.732   0.600
 5932SOL    HW118695   2.845   6.816   0.566
 5932SOL    HW218696   2.846   6.653   0.555
 5933SOL     OW18697   6.572   3.667   2.667
 5933SOL    HW118698   6.613   3.662   2.758
 5933SOL    HW218699   6.478   3.634   2.670
 5934SOL     OW18700   3.027   3.859   3.163
 5934SOL    HW118701   3.025   3.845   3.262
 5934SOL    HW218702   2.962   3.796   3.120
 5935SOL     OW18703   3.913   3.323   4.053
 5935SOL    HW118704   3.897   3.248   4.118
 5935SOL    HW218705   3.870   3.301   3.966
 5936SOL     OW18706   4.930   6.080   6.298
 5936SOL    HW118707   4.910   6.037   6.386
 5936SOL    HW218708   4.983   6.164   6.313
 5937SOL     OW18709   1.948   3.519   0.809
 5937SOL    HW118710   1.892   3.594   0.844
 5937SOL    HW218711   1.944   3.441   0.872
 5938SOL     OW18712   1.961   4.561   1.785
 5938SOL    HW118713   2.037   4.505   1.817
 5938SOL    HW218714   1.975   4.585   1.689
 5939SOL     OW18715   3.460   0.424   3.244
 5939SOL    HW118716   3.483   0.340   3.293
 5939SOL    HW218717   3.441   0.401   3.148
 5940SOL     OW18718   3.635   6.015   3.297
 5940SOL    HW118719   3.633   6.039   3.394
 5940SOL    HW218720   3.550   6.044   3.254
 5941SOL     OW18721   5.959   4.930   2.302
 5941SOL    HW118722   6.044   4.877   2.303
 5941SOL    HW218723   5.971   5.012   2.246
 5942SOL     OW18724   4.730   2.165   5.896
 5942SOL    HW118725   4.671   2.119   5.830
 5942SOL    HW218726   4.771   2.096   5.957
 5943SOL     OW18727   1.329   6.017   0.522
 5943SOL    HW118728   1.423   6.017   0.489
 5943SOL    HW218729   1.296   6.111   0.528
 5944SOL     OW18730   5.168   1.967   2.627
 5944SOL    HW118731   5.131   1.909   2.555
 5944SOL    HW218732   5.261   1.936   2.649
 5945SOL     OW18733   0.063   4.841   5.777
 5945SOL    HW118734   7.015   4.864   5.708
 5945SOL    HW218735   0.138   4.791   5.734
 5946SOL     OW18736   4.058   3.043   5.382
 5946SOL    HW118737   4.031   3.073   5.474
 5946SOL    HW218738   4.052   2.944   5.376
 5947SOL     OW18739   4.367   3.372   1.727
 5947SOL    HW118740   4.447   3.421   1.693
 5947SOL    HW218741   4.298   3.437   1.759
 5948SOL     OW18742   3.475   4.900   2.265
 5948SOL    HW118743   3.544   4.860   2.204
 5948SOL    HW218744   3.384   4.881   2.229
 5949SOL     OW18745   4.438   4.684   1.740
 5949SOL    HW118746   4.377   4.629   1.798
 5949SOL    HW218747   4.525   4.699   1.787
 5950SOL     OW18748   6.250   2.352   4.059
 5950SOL    HW118749   6.150   2.340   4.059
 5950SOL    HW218750   6.281   2.366   3.965
 5951SOL     OW18751   1.911   5.474   3.464
 5951SOL    HW118752   1.902   5.411   3.542
 5951SOL    HW218753   1.882   5.565   3.492
 5952SOL     OW18754   0.211   6.757   4.537
 5952SOL    HW118755   0.246   6.663   4.529
 5952SOL    HW218756   0.112   6.755   4.548
 5953SOL     OW18757   0.356   3.142   6.408
 5953SOL    HW118758   0.275   3.088   6.432
 5953SOL    HW218759   0.330   3.238   6.397
 5954SOL     OW18760   0.211   5.171   6.778
 5954SOL    HW118761   0.124   5.148   6.734
 5954SOL    HW218762   0.233   5.102   6.847
 5955SOL     OW18763   5.349   5.494   2.013
 5955SOL    HW118764   5.319   5.434   2.087
 5955SOL    HW218765   5.448   5.490   2.005
 5956SOL     OW18766   5.664   2.314   0.072
 5956SOL    HW118767   5.587   2.251   0.067
 5956SOL    HW218768   5.639   2.400   0.028
 5957SOL     OW18769   6.081   6.593   5.987
 5957SOL    HW118770   5.984   6.572   5.978
 5957SOL    HW218771   6.121   6.607   5.897
 5958SOL     OW18772   6.894   5.123   1.784
 5958SOL    HW118773   6.892   5.066   1.866
 5958SOL    HW218774   6.961   5.088   1.720
 5959SOL     OW18775   2.112   1.811   6.043
 5959SOL    HW118776   2.147   1.722   6.073
 5959SOL    HW218777   2.054   1.799   5.963
 5960SOL     OW18778   3.099   0.602   3.601
 5960SOL    HW118779   3.147   0.516   3.584
 5960SOL    HW218780   3.018   0.606   3.544
 5961SOL     OW18781   2.916   0.827   5.670
 5961SOL    HW118782   2.985   0.766   5.631
 5961SOL    HW218783   2.940   0.922   5.649
 5962SOL     OW18784   4.687   5.193   2.070
 5962SOL    HW118785   4.677   5.265   2.140
 5962SOL    HW218786   4.598   5.174   2.029
 5963SOL     OW18787   4.125   3.600   2.267
 5963SOL    HW118788   4.157   3.518   2.314
 5963SOL    HW218789   4.029   3.617   2.289
 5964SOL     OW18790   0.695   5.121   5.282
 5964SOL    HW118791   0.706   5.178   5.363
 5964SOL    HW218792   0.780   5.071   5.265
 5965SOL     OW18793   2.783   2.397   5.565
 5965SOL    HW118794   2.805   2.392   5.663
 5965SOL    HW218795   2.862   2.434   5.515
 5966SOL     OW18796   2.704   5.946   4.036
 5966SOL    HW118797   2.605   5.959   4.045
 5966SOL    HW218798   2.751   6.021   4.083
 5967SOL     OW18799   4.788   6.919   2.371
 5967SOL    HW118800   4.771   6.822   2.387
 5967SOL    HW218801   4.715   6.956   2.313
 5968SOL     OW18802   0.092   3.100   4.280
 5968SOL    HW118803   0.173   3.113   4.338
 5968SOL    HW218804   0.015   3.071   4.337
 5969SOL     OW18805   6.028   3.560   3.922
 5969SOL    HW118806   6.040   3.595   4.015
 5969SOL    HW218807   6.117   3.556   3.877
 5970SOL     OW18808   1.188   2.896   3.211
 5970SOL    HW118809   1.287   2.908   3.213
 5970SOL    HW218810   1.167   2.808   3.169
 5971SOL     OW18811   2.356   6.938   2.182
 5971SOL    HW118812   2.360   0.003   2.130
 5971SOL    HW218813   2.441   6.926   2.233
 5972SOL     OW18814   4.881   6.355   0.190
 5972SOL    HW118815   4.968   6.370   0.237
 5972SOL    HW218816   4.806   6.357   0.256
 5973SOL     OW18817   1.273   4.409   3.376
 5973SOL    HW118818   1.288   4.437   3.281
 5973SOL    HW218819   1.325   4.326   3.394
 5974SOL     OW18820   0.930   4.016   6.664
 5974SOL    HW118821   0.967   3.997   6.573
 5974SOL    HW218822   0.889   4.107   6.666
 5975SOL     OW18823   2.540   2.975   0.738
 5975SOL    HW118824   2.626   2.982   0.788
 5975SOL    HW218825   2.502   3.067   0.725
 5976SOL     OW18826   3.069   3.034   5.019
 5976SOL    HW118827   3.152   2.979   5.015
 5976SOL    HW218828   3.066   3.095   4.941
 5977SOL     OW18829   0.702   3.865   2.451
 5977SOL    HW118830   0.739   3.820   2.533
 5977SOL    HW218831   0.699   3.799   2.376
 5978SOL     OW18832   5.353   5.268   1.607
 5978SOL    HW118833   5.386   5.339   1.669
 5978SOL    HW218834   5.270   5.227   1.645
 5979SOL     OW18835   0.090   0.648   3.414
 5979SOL    HW118836   0.083   0.551   3.391
 5979SOL    HW218837   7.018   0.686   3.428
 5980SOL     OW18838   6.137   3.938   6.881
 5980SOL    HW118839   6.176   4.013   6.828
 5980SOL    HW218840   6.157   3.950   6.978
 5981SOL     OW18841   4.803   1.042   2.545
 5981SOL    HW118842   4.828   0.947   2.564
 5981SOL    HW218843   4.858   1.103   2.602
 5982SOL     OW18844   6.575   1.782   5.991
 5982SOL    HW118845   6.498   1.824   5.944
 5982SOL    HW218846   6.557   1.684   6.006
 5983SOL     OW18847   1.535   1.023   4.814
 5983SOL    HW118848   1.546   1.117   4.780
 5983SOL    HW218849   1.437   1.001   4.817
 5984SOL     OW18850   0.049   6.596   4.970
 5984SOL    HW118851   6.978   6.581   4.931
 5984SOL    HW218852   0.040   6.634   5.062
 5985SOL     OW18853   4.413   1.917   4.130
 5985SOL    HW118854   4.370   1.933   4.041
 5985SOL    HW218855   4.356   1.955   4.202
 5986SOL     OW18856   3.482   3.021   2.300
 5986SOL    HW118857   3.403   2.967   2.271
 5986SOL    HW218858   3.559   2.960   2.320
 5987SOL     OW18859   3.458   0.067   4.945
 5987SOL    HW118860   3.414   0.093   4.859
 5987SOL    HW218861   3.553   0.096   4.945
 5988SOL     OW18862   4.085   0.033   4.068
 5988SOL    HW118863   4.118   6.976   4.013
 5988SOL    HW218864   4.068   0.002   4.162
 5989SOL     OW18865   3.170   0.802   6.122
 5989SOL    HW118866   3.144   0.863   6.197
 5989SOL    HW218867   3.089   0.758   6.084
 5990SOL     OW18868   3.160   4.720   1.491
 5990SOL    HW118869   3.155   4.819   1.476
 5990SOL    HW218870   3.254   4.689   1.479
 5991SOL     OW18871   2.830   5.082   4.755
 5991SOL    HW118872   2.868   5.003   4.706
 5991SOL    HW218873   2.785   5.050   4.838
 5992SOL     OW18874   4.583   0.266   3.621
 5992SOL    HW118875   4.653   0.318   3.573
 5992SOL    HW218876   4.626   0.206   3.688
 5993SOL     OW18877   2.421   5.763   5.240
 5993SOL    HW118878   2.395   5.739   5.333
 5993SOL    HW218879   2.462   5.854   5.239
 5994SOL     OW18880   6.766   2.164   2.681
 5994SOL    HW118881   6.859   2.200   2.695
 5994SOL    HW218882   6.771   2.066   2.664
 5995SOL     OW18883   6.995   4.458   1.634
 5995SOL    HW118884   0.006   4.416   1.719
 5995SOL    HW218885   6.907   4.503   1.650
 5996SOL     OW18886   0.312   5.322   5.591
 5996SOL    HW118887   0.293   5.313   5.493
 5996SOL    HW218888   0.241   5.274   5.643
 5997SOL     OW18889   0.364   6.746   2.218
 5997SOL    HW118890   0.389   6.652   2.192
 5997SOL    HW218891   0.447   6.796   2.244
 5998SOL     OW18892   5.574   2.285   2.740
 5998SOL    HW118893   5.550   2.334   2.824
 5998SOL    HW218894   5.492   2.241   2.703
 5999SOL     OW18895   1.382   1.586   2.800
 5999SOL    HW118896   1.447   1.611   2.728
 5999SOL    HW218897   1.345   1.669   2.841
 6000SOL     OW18898   4.728   5.631   1.961
 6000SOL    HW118899   4.769   5.722   1.953
 6000SOL    HW218900   4.799   5.564   1.982
 6001SOL     OW18901   6.667   2.278   0.019
 6001SOL    HW118902   6.743   2.224   0.054
 6001SOL    HW218903   6.684   2.375   0.036
 6002SOL     OW18904   1.869   0.258   1.525
 6002SOL    HW118905   1.844   0.166   1.554
 6002SOL    HW218906   1.825   0.325   1.585
 6003SOL     OW18907   4.920   4.017   4.509
 6003SOL    HW118908   4.902   4.076   4.431
 6003SOL    HW218909   4.927   3.922   4.478
 6004SOL     OW18910   0.309   3.037   2.470
 6004SOL    HW118911   0.312   3.032   2.570
 6004SOL    HW218912   0.358   3.118   2.439
 6005SOL     OW18913   3.208   6.058   2.960
 6005SOL    HW118914   3.139   5.988   2.977
 6005SOL    HW218915   3.173   6.124   2.893
 6006SOL     OW18916   2.561   6.713   6.823
 6006SOL    HW118917   2.585   6.678   6.733
 6006SOL    HW218918   2.482   6.774   6.814
 6007SOL     OW18919   5.728   2.780   4.435
 6007SOL    HW118920   5.628   2.785   4.429
 6007SOL    HW218921   5.756   2.685   4.452
 6008SOL     OW18922   2.962   4.421   6.744
 6008SOL    HW118923   2.898   4.364   6.692
 6008SOL    HW218924   3.018   4.362   6.803
 6009SOL     OW18925   2.767   1.977   4.384
 6009SOL    HW118926   2.857   1.952   4.419
 6009SOL    HW218927   2.709   1.896   4.381
 6010SOL     OW18928   1.319   3.790   3.191
 6010SOL    HW118929   1.369   3.870   3.226
 6010SOL    HW218930   1.232   3.781   3.239
 6011SOL     OW18931   5.825   3.636   3.069
 6011SOL    HW118932   5.862   3.658   2.979
 6011SOL    HW218933   5.881   3.565   3.112
 6012SOL     OW18934   6.533   3.214   0.835
 6012SOL    HW118935   6.624   3.191   0.800
 6012SOL    HW218936   6.517   3.313   0.825
 6013SOL     OW18937   5.399   1.139   2.596
 6013SOL    HW118938   5.488   1.107   2.627
 6013SOL    HW218939   5.370   1.086   2.516
 6014SOL     OW18940   5.594   7.016   0.856
 6014SOL    HW118941   5.669   7.007   0.922
 6014SOL    HW218942   5.628   0.039   0.773
 6015SOL     OW18943   5.987   2.089   4.331
 6015SOL    HW118944   6.041   2.005   4.324
 6015SOL    HW218945   5.890   2.068   4.314
 6016SOL     OW18946   1.811   0.267   5.231
 6016SOL    HW118947   1.813   0.224   5.322
 6016SOL    HW218948   1.879   0.340   5.227
 6017SOL     OW18949   6.495   4.944   2.636
 6017SOL    HW118950   6.569   4.975   2.578
 6017SOL    HW218951   6.515   4.852   2.670
 6018SOL     OW18952   2.533   4.012   1.054
 6018SOL    HW118953   2.490   3.923   1.036
 6018SOL    HW218954   2.481   4.060   1.124
 6019SOL     OW18955   3.474   0.009   4.382
 6019SOL    HW118956   3.557   0.025   4.435
 6019SOL    HW218957   3.449   0.093   4.333
 6020SOL     OW18958   3.923   0.650   3.068
 6020SOL    HW118959   3.860   0.576   3.095
 6020SOL    HW218960   3.875   0.737   3.073
 6021SOL     OW18961   4.330   1.342   3.089
 6021SOL    HW118962   4.310   1.285   3.010
 6021SOL    HW218963   4.402   1.299   3.144
 6022SOL     OW18964   4.386   1.843   4.451
 6022SOL    HW118965   4.432   1.775   4.393
 6022SOL    HW218966   4.334   1.906   4.393
 6023SOL     OW18967   6.929   1.368   2.602
 6023SOL    HW118968   6.870   1.294   2.633
 6023SOL    HW218969   6.937   1.437   2.674
 6024SOL     OW18970   0.887   4.690   2.345
 6024SOL    HW118971   0.929   4.602   2.368
 6024SOL    HW218972   0.817   4.713   2.413
 6025SOL     OW18973   4.925   1.803   1.534
 6025SOL    HW118974   4.956   1.881   1.480
 6025SOL    HW218975   4.927   1.720   1.478
 6026SOL     OW18976   0.092   4.939   5.225
 6026SOL    HW118977   0.036   5.019   5.206
 6026SOL    HW218978   0.039   4.873   5.278
 6027SOL     OW18979   2.881   3.643   0.208
 6027SOL    HW118980   2.861   3.704   0.131
 6027SOL    HW218981   2.979   3.645   0.227
 6028SOL     OW18982   1.525   3.709   0.119
 6028SOL    HW118983   1.507   3.766   0.039
 6028SOL    HW218984   1.444   3.707   0.178
 6029SOL     OW18985   2.121   5.724   1.198
 6029SOL    HW118986   2.201   5.772   1.163
 6029SOL    HW218987   2.061   5.699   1.122
 6030SOL     OW18988   1.683   0.424   1.344
 6030SOL    HW118989   1.688   0.502   1.408
 6030SOL    HW218990   1.751   0.436   1.272
 6031SOL     OW18991   5.198   0.077   4.921
 6031SOL    HW118992   5.188   0.020   5.003
 6031SOL    HW218993   5.188   0.173   4.945
 6032SOL     OW18994   0.698   3.333   2.539
 6032SOL    HW118995   0.757   3.304   2.615
 6032SOL    HW218996   0.751   3.390   2.476
 6033SOL     OW18997   1.140   0.798   3.983
 6033SOL    HW118998   1.111   0.719   3.929
 6033SOL    HW218999   1.064   0.862   3.994
 6034SOL     OW19000   1.963   3.877   5.253
 6034SOL    HW119001   1.943   3.973   5.268
 6034SOL    HW219002   1.909   3.821   5.315
 6035SOL     OW19003   6.236   1.213   4.151
 6035SOL    HW119004   6.226   1.222   4.250
 6035SOL    HW219005   6.212   1.119   4.125
 6036SOL     OW19006   0.115   6.922   5.070
 6036SOL    HW119007   0.079   7.010   5.039
 6036SOL    HW219008   0.138   6.866   4.990
 6037SOL     OW19009   5.831   5.879   4.912
 6037SOL    HW119010   5.737   5.847   4.903
 6037SOL    HW219011   5.833   5.979   4.912
 6038SOL     OW19012   5.114   3.763   6.324
 6038SOL    HW119013   5.175   3.842   6.314
 6038SOL    HW219014   5.166   3.679   6.314
 6039SOL     OW19015   3.449   3.761   2.733
 6039SOL    HW119016   3.382   3.807   2.675
 6039SOL    HW219017   3.526   3.729   2.678
 6040SOL     OW19018   0.218   1.770   0.143
 6040SOL    HW119019   0.251   1.760   0.049
 6040SOL    HW219020   0.252   1.855   0.182
 6041SOL     OW19021   0.903   2.484   0.467
 6041SOL    HW119022   0.912   2.384   0.458
 6041SOL    HW219023   0.806   2.509   0.465
 6042SOL     OW19024   4.714   5.549   3.364
 6042SOL    HW119025   4.772   5.506   3.432
 6042SOL    HW219026   4.707   5.491   3.283
 6043SOL     OW19027   0.800   4.573   4.105
 6043SOL    HW119028   0.776   4.602   4.012
 6043SOL    HW219029   0.716   4.549   4.155
 6044SOL     OW19030   0.840   0.748   1.235
 6044SOL    HW119031   0.772   0.676   1.222
 6044SOL    HW219032   0.796   0.827   1.279
 6045SOL     OW19033   0.060   3.898   1.857
 6045SOL    HW119034   0.009   3.816   1.881
 6045SOL    HW219035   0.014   3.978   1.895
 6046SOL     OW19036   2.909   2.471   0.455
 6046SOL    HW119037   2.955   2.424   0.379
 6046SOL    HW219038   2.960   2.456   0.539
 6047SOL     OW19039   6.890   0.036   4.088
 6047SOL    HW119040   6.864   0.068   4.179
 6047SOL    HW219041   6.904   0.115   4.028
 6048SOL     OW19042   4.549   6.597   5.352
 6048SOL    HW119043   4.575   6.501   5.348
 6048SOL    HW219044   4.577   6.636   5.440
 6049SOL     OW19045   6.194   4.790   0.564
 6049SOL    HW119046   6.123   4.730   0.529
 6049SOL    HW219047   6.181   4.804   0.662
 6050SOL     OW19048   5.031   4.419   5.646
 6050SOL    HW119049   5.124   4.383   5.650
 6050SOL    HW219050   5.002   4.445   5.738
 6051SOL     OW19051   2.187   1.722   2.860
 6051SOL    HW119052   2.239   1.715   2.945
 6051SOL    HW219053   2.244   1.693   2.784
 6052SOL     OW19054   7.011   1.082   0.800
 6052SOL    HW119055   6.964   1.142   0.735
 6052SOL    HW219056   0.082   1.060   0.766
 6053SOL     OW19057   1.981   6.829   6.716
 6053SOL    HW119058   1.986   6.860   6.811
 6053SOL    HW219059   2.021   6.737   6.709
 6054SOL     OW19060   2.155   4.226   0.430
 6054SOL    HW119061   2.147   4.134   0.391
 6054SOL    HW219062   2.076   4.245   0.488
 6055SOL     OW19063   4.788   0.516   4.866
 6055SOL    HW119064   4.835   0.429   4.880
 6055SOL    HW219065   4.724   0.507   4.790
 6056SOL     OW19066   5.017   2.189   6.518
 6056SOL    HW119067   5.019   2.279   6.562
 6056SOL    HW219068   5.104   2.173   6.471
 6057SOL     OW19069   3.352   1.279   5.451
 6057SOL    HW119070   3.397   1.193   5.474
 6057SOL    HW219071   3.416   1.337   5.399
 6058SOL     OW19072   5.848   2.527   4.480
 6058SOL    HW119073   5.906   2.500   4.403
 6058SOL    HW219074   5.813   2.445   4.525
 6059SOL     OW19075   6.440   5.043   6.684
 6059SOL    HW119076   6.531   5.010   6.710
 6059SOL    HW219077   6.371   4.990   6.733
 6060SOL     OW19078   4.332   6.031   5.846
 6060SOL    HW119079   4.293   6.061   5.933
 6060SOL    HW219080   4.268   6.050   5.772
 6061SOL     OW19081   2.377   2.040   6.411
 6061SOL    HW119082   2.294   2.081   6.449
 6061SOL    HW219083   2.426   1.990   6.483
 6062SOL     OW19084   2.434   0.309   4.518
 6062SOL    HW119085   2.475   0.217   4.519
 6062SOL    HW219086   2.506   0.377   4.528
 6063SOL     OW19087   4.509   0.640   6.192
 6063SOL    HW119088   4.506   0.736   6.220
 6063SOL    HW219089   4.560   0.587   6.260
 6064SOL     OW19090   1.661   5.149   3.490
 6064SOL    HW119091   1.626   5.061   3.459
 6064SOL    HW219092   1.720   5.188   3.420
 6065SOL     OW19093   0.193   0.679   0.844
 6065SOL    HW119094   0.241   0.659   0.758
 6065SOL    HW219095   0.096   0.661   0.833
 6066SOL     OW19096   4.274   2.796   0.339
 6066SOL    HW119097   4.272   2.721   0.405
 6066SOL    HW219098   4.272   2.758   0.246
 6067SOL     OW19099   6.465   1.858   6.567
 6067SOL    HW119100   6.558   1.854   6.602
 6067SOL    HW219101   6.401   1.869   6.644
 6068SOL     OW19102   4.660   2.631   4.840
 6068SOL    HW119103   4.609   2.611   4.923
 6068SOL    HW219104   4.693   2.725   4.842
 6069SOL     OW19105   6.307   4.664   4.684
 6069SOL    HW119106   6.355   4.581   4.712
 6069SOL    HW219107   6.211   4.658   4.710
 6070SOL     OW19108   4.202   2.150   6.285
 6070SOL    HW119109   4.206   2.093   6.203
 6070SOL    HW219110   4.131   2.116   6.346
 6071SOL     OW19111   4.194   5.923   5.250
 6071SOL    HW119112   4.143   5.853   5.201
 6071SOL    HW219113   4.131   5.994   5.283
 6072SOL     OW19114   0.163   1.901   1.228
 6072SOL    HW119115   0.166   1.846   1.312
 6072SOL    HW219116   0.088   1.966   1.234
 6073SOL     OW19117   6.448   2.634   0.733
 6073SOL    HW119118   6.406   2.657   0.821
 6073SOL    HW219119   6.379   2.637   0.661
 6074SOL     OW19120   0.737   0.284   4.726
 6074SOL    HW119121   0.707   0.236   4.808
 6074SOL    HW219122   0.684   0.252   4.647
 6075SOL     OW19123   5.883   4.002   6.701
 6075SOL    HW119124   5.979   3.972   6.696
 6075SOL    HW219125   5.841   3.967   6.784
 6076SOL     OW19126   1.976   5.957   4.340
 6076SOL    HW119127   2.022   6.016   4.274
 6076SOL    HW219128   1.951   5.870   4.296
 6077SOL     OW19129   6.222   6.239   2.162
 6077SOL    HW119130   6.222   6.174   2.086
 6077SOL    HW219131   6.135   6.288   2.163
 6078SOL     OW19132   2.475   4.471   3.775
 6078SOL    HW119133   2.557   4.484   3.719
 6078SOL    HW219134   2.428   4.387   3.747
 6079SOL     OW19135   2.065   2.005   6.742
 6079SOL    HW119136   2.036   2.099   6.756
 6079SOL    HW219137   2.123   1.977   6.818
 6080SOL     OW19138   5.657   2.604   1.750
 6080SOL    HW119139   5.606   2.678   1.795
 6080SOL    HW219140   5.654   2.522   1.808
 6081SOL     OW19141   6.972   3.733   3.836
 6081SOL    HW119142   0.018   3.795   3.793
 6081SOL    HW219143   6.891   3.784   3.864
 6082SOL     OW19144   4.072   1.114   3.886
 6082SOL    HW119145   4.158   1.139   3.932
 6082SOL    HW219146   4.013   1.194   3.881
 6083SOL     OW19147   1.425   6.033   6.954
 6083SOL    HW119148   1.397   5.947   6.910
 6083SOL    HW219149   1.425   6.021   0.033
 6084SOL     OW19150   0.160   5.154   5.811
 6084SOL    HW119151   0.105   5.077   5.779
 6084SOL    HW219152   0.193   5.136   5.904
 6085SOL     OW19153   5.541   4.085   0.949
 6085SOL    HW119154   5.455   4.120   0.912
 6085SOL    HW219155   5.585   4.026   0.881
 6086SOL     OW19156   3.099   2.214   3.531
 6086SOL    HW119157   3.139   2.305   3.528
 6086SOL    HW219158   3.119   2.166   3.446
 6087SOL     OW19159   5.377   6.924   6.580
 6087SOL    HW119160   5.309   6.970   6.635
 6087SOL    HW219161   5.417   6.988   6.515
 6088SOL     OW19162   0.925   0.185   4.912
 6088SOL    HW119163   1.016   0.190   4.954
 6088SOL    HW219164   0.925   0.114   4.841
 6089SOL     OW19165   6.979   3.445   0.345
 6089SOL    HW119166   6.961   3.534   0.303
 6089SOL    HW219167   0.049   3.412   0.317
 6090SOL     OW19168   0.724   5.420   4.598
 6090SOL    HW119169   0.678   5.366   4.669
 6090SOL    HW219170   0.677   5.508   4.589
 6091SOL     OW19171   6.011   1.754   1.987
 6091SOL    HW119172   6.087   1.749   2.052
 6091SOL    HW219173   5.977   1.848   1.984
 6092SOL     OW19174   1.875   2.020   1.925
 6092SOL    HW119175   1.968   2.046   1.900
 6092SOL    HW219176   1.864   1.921   1.915
 6093SOL     OW19177   1.082   3.013   0.900
 6093SOL    HW119178   1.092   3.110   0.876
 6093SOL    HW219179   1.008   3.003   0.966
 6094SOL     OW19180   1.484   0.833   1.395
 6094SOL    HW119181   1.422   0.772   1.445
 6094SOL    HW219182   1.462   0.830   1.297
 6095SOL     OW19183   6.218   3.652   5.942
 6095SOL    HW119184   6.283   3.727   5.955
 6095SOL    HW219185   6.163   3.670   5.861
 6096SOL     OW19186   3.698   2.078   3.599
 6096SOL    HW119187   3.728   2.105   3.691
 6096SOL    HW219188   3.772   2.094   3.534
 6097SOL     OW19189   2.732   1.764   1.948
 6097SOL    HW119190   2.725   1.722   2.038
 6097SOL    HW219191   2.734   1.864   1.958
 6098SOL     OW19192   2.076   2.411   5.776
 6098SOL    HW119193   2.069   2.332   5.837
 6098SOL    HW219194   2.171   2.424   5.749
 6099SOL     OW19195   5.953   5.907   5.176
 6099SOL    HW119196   6.045   5.868   5.184
 6099SOL    HW219197   5.914   5.882   5.087
 6100SOL     OW19198   6.631   2.921   6.901
 6100SOL    HW119199   6.538   2.907   6.937
 6100SOL    HW219200   6.643   2.866   6.819
 6101SOL     OW19201   6.248   1.099   4.901
 6101SOL    HW119202   6.335   1.087   4.853
 6101SOL    HW219203   6.195   1.015   4.896
 6102SOL     OW19204   2.688   0.506   4.859
 6102SOL    HW119205   2.772   0.553   4.832
 6102SOL    HW219206   2.616   0.526   4.793
 6103SOL     OW19207   6.428   6.318   5.726
 6103SOL    HW119208   6.338   6.329   5.685
 6103SOL    HW219209   6.437   6.379   5.805
 6104SOL     OW19210   6.788   2.451   6.598
 6104SOL    HW119211   6.876   2.455   6.551
 6104SOL    HW219212   6.757   2.356   6.602
 6105SOL     OW19213   3.161   5.998   4.402
 6105SOL    HW119214   3.226   5.932   4.441
 6105SOL    HW219215   3.128   6.058   4.474
 6106SOL     OW19216   3.184   5.376   5.585
 6106SOL    HW119217   3.097   5.422   5.601
 6106SOL    HW219218   3.182   5.285   5.628
 6107SOL     OW19219   1.879   4.768   5.536
 6107SOL    HW119220   1.925   4.832   5.474
 6107SOL    HW219221   1.945   4.736   5.605
 6108SOL     OW19222   0.683   2.419   5.270
 6108SOL    HW119223   0.769   2.401   5.222
 6108SOL    HW219224   0.613   2.447   5.204
 6109SOL     OW19225   5.986   4.554   1.281
 6109SOL    HW119226   6.053   4.495   1.236
 6109SOL    HW219227   5.893   4.526   1.254
 6110SOL     OW19228   3.474   1.120   4.837
 6110SOL    HW119229   3.381   1.154   4.848
 6110SOL    HW219230   3.498   1.061   4.914
 6111SOL     OW19231   1.389   4.954   3.146
 6111SOL    HW119232   1.488   4.959   3.163
 6111SOL    HW219233   1.342   5.021   3.203
 6112SOL     OW19234   0.798   1.443   2.591
 6112SOL    HW119235   0.715   1.399   2.559
 6112SOL    HW219236   0.779   1.539   2.614
 6113SOL     OW19237   1.146   6.496   5.763
 6113SOL    HW119238   1.200   6.578   5.742
 6113SOL    HW219239   1.069   6.490   5.700
 6114SOL     OW19240   4.993   5.761   0.465
 6114SOL    HW119241   5.057   5.694   0.503
 6114SOL    HW219242   4.921   5.780   0.531
 6115SOL     OW19243   5.450   5.157   2.601
 6115SOL    HW119244   5.440   5.083   2.668
 6115SOL    HW219245   5.542   5.156   2.563
 6116SOL     OW19246   4.304   1.307   1.925
 6116SOL    HW119247   4.259   1.218   1.917
 6116SOL    HW219248   4.347   1.331   1.838
 6117SOL     OW19249   5.246   7.020   4.485
 6117SOL    HW119250   5.256   6.925   4.516
 6117SOL    HW219251   5.152   0.014   4.453
 6118SOL     OW19252   6.022   0.632   3.432
 6118SOL    HW119253   6.098   0.588   3.480
 6118SOL    HW219254   6.058   0.689   3.358
 6119SOL     OW19255   6.766   5.586   4.561
 6119SOL    HW119256   6.801   5.679   4.576
 6119SOL    HW219257   6.825   5.540   4.494
 6120SOL     OW19258   2.477   0.886   3.049
 6120SOL    HW119259   2.534   0.811   3.015
 6120SOL    HW219260   2.517   0.923   3.133
 6121SOL     OW19261   6.800   2.771   4.484
 6121SOL    HW119262   6.865   2.847   4.488
 6121SOL    HW219263   6.835   2.700   4.423
 6122SOL     OW19264   4.626   5.725   2.933
 6122SOL    HW119265   4.545   5.783   2.924
 6122SOL    HW219266   4.660   5.729   3.027
 6123SOL     OW19267   5.935   1.524   2.575
 6123SOL    HW119268   6.025   1.521   2.619
 6123SOL    HW219269   5.945   1.501   2.478
 6124SOL     OW19270   3.530   0.191   5.869
 6124SOL    HW119271   3.510   0.254   5.794
 6124SOL    HW219272   3.611   0.224   5.919
 6125SOL     OW19273   2.511   5.862   1.686
 6125SOL    HW119274   2.419   5.878   1.720
 6125SOL    HW219275   2.508   5.836   1.590
 6126SOL     OW19276   5.225   5.228   2.515
 6126SOL    HW119277   5.153   5.159   2.515
 6126SOL    HW219278   5.308   5.190   2.556
 6127SOL     OW19279   1.998   5.204   1.566
 6127SOL    HW119280   1.926   5.271   1.584
 6127SOL    HW219281   2.077   5.224   1.624
 6128SOL     OW19282   5.414   1.687   0.747
 6128SOL    HW119283   5.329   1.634   0.749
 6128SOL    HW219284   5.418   1.741   0.663
 6129SOL     OW19285   5.907   4.591   3.542
 6129SOL    HW119286   5.826   4.647   3.523
 6129SOL    HW219287   5.989   4.648   3.536
 6130SOL     OW19288   5.647   3.718   2.340
 6130SOL    HW119289   5.599   3.636   2.309
 6130SOL    HW219290   5.614   3.798   2.290
 6131SOL     OW19291   5.919   1.232   5.119
 6131SOL    HW119292   5.827   1.196   5.103
 6131SOL    HW219293   5.987   1.165   5.091
 6132SOL     OW19294   4.980   2.393   1.160
 6132SOL    HW119295   4.994   2.464   1.091
 6132SOL    HW219296   4.883   2.374   1.169
 6133SOL     OW19297   0.840   4.619   0.897
 6133SOL    HW119298   0.833   4.672   0.981
 6133SOL    HW219299   0.760   4.639   0.839
 6134SOL     OW19300   4.715   3.790   6.574
 6134SOL    HW119301   4.743   3.741   6.491
 6134SOL    HW219302   4.751   3.883   6.570
 6135SOL     OW19303   5.477   0.053   1.156
 6135SOL    HW119304   5.431   6.984   1.157
 6135SOL    HW219305   5.550   0.052   1.087
 6136SOL     OW19306   0.588   2.219   1.499
 6136SOL    HW119307   0.630   2.175   1.420
 6136SOL    HW219308   0.648   2.211   1.579
 6137SOL     OW19309   2.902   6.812   6.222
 6137SOL    HW119310   2.964   6.874   6.270
 6137SOL    HW219311   2.922   6.813   6.124
 6138SOL     OW19312   4.076   6.538   2.884
 6138SOL    HW119313   4.072   6.621   2.828
 6138SOL    HW219314   3.983   6.504   2.899
 6139SOL     OW19315   1.970   4.652   4.101
 6139SOL    HW119316   2.054   4.599   4.089
 6139SOL    HW219317   1.974   4.702   4.188
 6140SOL     OW19318   2.238   6.363   0.830
 6140SOL    HW119319   2.239   6.456   0.793
 6140SOL    HW219320   2.152   6.319   0.805
 6141SOL     OW19321   6.425   5.815   6.091
 6141SOL    HW119322   6.391   5.818   5.997
 6141SOL    HW219323   6.355   5.848   6.153
 6142SOL     OW19324   0.073   4.359   1.867
 6142SOL    HW119325   0.167   4.328   1.882
 6142SOL    HW219326   0.010   4.285   1.888
 6143SOL     OW19327   5.961   5.657   6.614
 6143SOL    HW119328   5.867   5.626   6.600
 6143SOL    HW219329   5.966   5.708   6.700
 6144SOL     OW19330   0.599   4.310   3.969
 6144SOL    HW119331   0.689   4.310   3.924
 6144SOL    HW219332   0.602   4.249   4.048
 6145SOL     OW19333   5.343   6.148   3.366
 6145SOL    HW119334   5.256   6.105   3.342
 6145SOL    HW219335   5.415   6.079   3.366
 6146SOL     OW19336   5.768   1.496   3.036
 6146SOL    HW119337   5.827   1.469   3.112
 6146SOL    HW219338   5.767   1.423   2.967
 6147SOL     OW19339   1.630   3.429   3.123
 6147SOL    HW119340   1.643   3.517   3.168
 6147SOL    HW219341   1.600   3.362   3.190
 6148SOL     OW19342   6.433   6.566   4.471
 6148SOL    HW119343   6.493   6.492   4.442
 6148SOL    HW219344   6.341   6.531   4.485
 6149SOL     OW19345   2.404   6.499   3.658
 6149SOL    HW119346   2.458   6.448   3.590
 6149SOL    HW219347   2.452   6.499   3.746
 6150SOL     OW19348   4.696   5.382   5.851
 6150SOL    HW119349   4.782   5.384   5.800
 6150SOL    HW219350   4.658   5.290   5.849
 6151SOL     OW19351   4.877   2.566   5.888
 6151SOL    HW119352   4.798   2.519   5.927
 6151SOL    HW219353   4.939   2.498   5.847
 6152SOL     OW19354   6.518   4.446   6.808
 6152SOL    HW119355   6.506   4.352   6.841
 6152SOL    HW219356   6.519   4.447   6.708
 6153SOL     OW19357   4.476   3.108   1.153
 6153SOL    HW119358   4.522   3.148   1.232
 6153SOL    HW219359   4.418   3.032   1.183
 6154SOL     OW19360   5.392   2.981   2.862
 6154SOL    HW119361   5.400   3.068   2.910
 6154SOL    HW219362   5.352   2.912   2.924
 6155SOL     OW19363   0.540   3.780   4.998
 6155SOL    HW119364   0.604   3.855   4.990
 6155SOL    HW219365   0.580   3.707   5.053
 6156SOL     OW19366   6.640   0.273   3.863
 6156SOL    HW119367   6.610   0.279   3.959
 6156SOL    HW219368   6.730   0.230   3.859
 6157SOL     OW19369   2.546   1.223   4.068
 6157SOL    HW119370   2.618   1.291   4.082
 6157SOL    HW219371   2.582   1.145   4.017
 6158SOL     OW19372   5.262   1.193   5.943
 6158SOL    HW119373   5.217   1.208   6.030
 6158SOL    HW219374   5.254   1.275   5.886
 6159SOL     OW19375   5.225   3.190   6.776
 6159SOL    HW119376   5.237   3.290   6.780
 6159SOL    HW219377   5.295   3.150   6.718
 6160SOL     OW19378   5.983   5.802   1.667
 6160SOL    HW119379   6.044   5.841   1.736
 6160SOL    HW219380   5.993   5.702   1.666
 6161SOL     OW19381   5.875   0.448   6.034
 6161SOL    HW119382   5.818   0.508   6.089
 6161SOL    HW219383   5.818   0.398   5.970
 6162SOL     OW19384   6.146   4.958   4.417
 6162SOL    HW119385   6.053   4.921   4.413
 6162SOL    HW219386   6.150   5.046   4.368
 6163SOL     OW19387   6.399   4.153   2.293
 6163SOL    HW119388   6.381   4.055   2.283
 6163SOL    HW219389   6.376   4.181   2.386
 6164SOL     OW19390   4.023   2.521   0.508
 6164SOL    HW119391   4.028   2.422   0.494
 6164SOL    HW219392   3.960   2.562   0.442
 6165SOL     OW19393   4.072   5.973   0.015
 6165SOL    HW119394   4.111   6.064   0.001
 6165SOL    HW219395   3.993   5.961   6.976
 6166SOL     OW19396   2.833   1.883   6.101
 6166SOL    HW119397   2.739   1.905   6.127
 6166SOL    HW219398   2.845   1.900   6.003
 6167SOL     OW19399   6.972   4.269   3.316
 6167SOL    HW119400   6.978   4.289   3.414
 6167SOL    HW219401   6.941   4.174   3.303
 6168SOL     OW19402   0.227   3.033   2.772
 6168SOL    HW119403   0.143   3.055   2.723
 6168SOL    HW219404   0.271   3.117   2.803
 6169SOL     OW19405   1.864   4.187   2.112
 6169SOL    HW119406   1.799   4.130   2.163
 6169SOL    HW219407   1.957   4.168   2.143
 6170SOL     OW19408   0.351   3.224   4.856
 6170SOL    HW119409   0.265   3.266   4.825
 6170SOL    HW219410   0.428   3.281   4.828
 6171SOL     OW19411   0.351   0.108   6.622
 6171SOL    HW119412   0.370   0.064   6.534
 6171SOL    HW219413   0.282   0.180   6.608
 6172SOL     OW19414   0.520   3.408   3.214
 6172SOL    HW119415   0.461   3.475   3.260
 6172SOL    HW219416   0.553   3.448   3.128
 6173SOL     OW19417   6.942   6.312   3.374
 6173SOL    HW119418   0.016   6.342   3.368
 6173SOL    HW219419   6.895   6.362   3.447
 6174SOL     OW19420   6.055   4.104   2.451
 6174SOL    HW119421   6.077   4.068   2.360
 6174SOL    HW219422   6.094   4.195   2.461
 6175SOL     OW19423   3.002   2.370   5.752
 6175SOL    HW119424   2.950   2.309   5.811
 6175SOL    HW219425   3.045   2.317   5.679
 6176SOL     OW19426   4.517   3.565   5.803
 6176SOL    HW119427   4.488   3.516   5.721
 6176SOL    HW219428   4.610   3.599   5.790
 6177SOL     OW19429   6.176   1.150   1.833
 6177SOL    HW119430   6.216   1.084   1.897
 6177SOL    HW219431   6.238   1.163   1.756
 6178SOL     OW19432   3.827   4.616   1.444
 6178SOL    HW119433   3.788   4.667   1.368
 6178SOL    HW219434   3.761   4.612   1.519
 6179SOL     OW19435   5.732   4.894   3.279
 6179SOL    HW119436   5.753   4.826   3.209
 6179SOL    HW219437   5.669   4.856   3.346
 6180SOL     OW19438   3.156   3.946   0.298
 6180SOL    HW119439   3.090   3.994   0.240
 6180SOL    HW219440   3.138   3.847   0.293
 6181SOL     OW19441   5.560   5.881   6.774
 6181SOL    HW119442   5.536   5.785   6.783
 6181SOL    HW219443   5.652   5.889   6.736
 6182SOL     OW19444   3.461   2.392   0.659
 6182SOL    HW119445   3.408   2.392   0.575
 6182SOL    HW219446   3.489   2.298   0.680
 6183SOL     OW19447   0.664   0.556   0.724
 6183SOL    HW119448   0.724   0.480   0.701
 6183SOL    HW219449   0.643   0.554   0.821
 6184SOL     OW19450   2.376   0.630   5.744
 6184SOL    HW119451   2.352   0.679   5.828
 6184SOL    HW219452   2.461   0.668   5.707
 6185SOL     OW19453   3.448   3.002   5.725
 6185SOL    HW119454   3.427   3.061   5.802
 6185SOL    HW219455   3.530   3.035   5.678
 6186SOL     OW19456   6.868   2.087   2.318
 6186SOL    HW119457   6.777   2.080   2.361
 6186SOL    HW219458   6.862   2.146   2.238
 6187SOL     OW19459   5.404   1.627   5.712
 6187SOL    HW119460   5.379   1.687   5.788
 6187SOL    HW219461   5.336   1.554   5.703
 6188SOL     OW19462   1.268   1.534   4.969
 6188SOL    HW119463   1.332   1.579   4.907
 6188SOL    HW219464   1.253   1.592   5.049
 6189SOL     OW19465   6.478   6.732   1.430
 6189SOL    HW119466   6.550   6.780   1.379
 6189SOL    HW219467   6.474   6.768   1.524
 6190SOL     OW19468   0.683   2.710   5.371
 6190SOL    HW119469   0.641   2.665   5.292
 6190SOL    HW219470   0.662   2.808   5.369
 6191SOL     OW19471   4.027   3.769   0.028
 6191SOL    HW119472   3.953   3.836   0.032
 6191SOL    HW219473   4.056   3.745   0.120
 6192SOL     OW19474   2.928   1.413   0.619
 6192SOL    HW119475   2.851   1.413   0.682
 6192SOL    HW219476   2.961   1.319   0.607
 6193SOL     OW19477   4.581   5.997   6.656
 6193SOL    HW119478   4.516   6.070   6.681
 6193SOL    HW219479   4.576   5.982   6.557
 6194SOL     OW19480   6.469   0.367   6.105
 6194SOL    HW119481   6.443   0.444   6.162
 6194SOL    HW219482   6.387   0.324   6.067
 6195SOL     OW19483   6.915   6.390   5.918
 6195SOL    HW119484   6.845   6.374   5.988
 6195SOL    HW219485   7.003   6.358   5.951
 6196SOL     OW19486   5.688   3.808   3.261
 6196SOL    HW119487   5.718   3.754   3.183
 6196SOL    HW219488   5.625   3.755   3.317
 6197SOL     OW19489   3.041   5.905   2.178
 6197SOL    HW119490   3.089   5.947   2.255
 6197SOL    HW219491   3.045   5.965   2.099
 6198SOL     OW19492   6.405   0.428   6.879
 6198SOL    HW119493   6.319   0.377   6.871
 6198SOL    HW219494   6.386   0.522   6.907
 6199SOL     OW19495   1.106   6.978   0.221
 6199SOL    HW119496   1.083   0.040   0.273
 6199SOL    HW219497   1.205   6.969   0.215
 6200SOL     OW19498   2.099   1.715   2.119
 6200SOL    HW119499   2.190   1.726   2.079
 6200SOL    HW219500   2.092   1.773   2.200
 6201SOL     OW19501   7.002   4.305   3.593
 6201SOL    HW119502   0.066   4.360   3.590
 6201SOL    HW219503   6.940   4.343   3.662
 6202SOL     OW19504   6.223   1.454   2.426
 6202SOL    HW119505   6.219   1.487   2.332
 6202SOL    HW219506   6.234   1.531   2.489
 6203SOL     OW19507   6.751   7.001   1.781
 6203SOL    HW119508   6.782   6.936   1.849
 6203SOL    HW219509   6.784   0.072   1.804
 6204SOL     OW19510   2.395   0.355   5.056
 6204SOL    HW119511   2.405   0.353   4.956
 6204SOL    HW219512   2.375   0.449   5.085
 6205SOL     OW19513   4.639   4.877   3.011
 6205SOL    HW119514   4.546   4.853   3.039
 6205SOL    HW219515   4.691   4.908   3.090
 6206SOL     OW19516   5.832   1.825   4.337
 6206SOL    HW119517   5.803   1.794   4.246
 6206SOL    HW219518   5.932   1.826   4.341
 6207SOL     OW19519   2.277   4.684   4.450
 6207SOL    HW119520   2.343   4.624   4.404
 6207SOL    HW219521   2.325   4.764   4.486
 6208SOL     OW19522   3.799   3.514   5.461
 6208SOL    HW119523   3.762   3.438   5.514
 6208SOL    HW219524   3.897   3.499   5.446
 6209SOL     OW19525   3.482   2.436   1.344
 6209SOL    HW119526   3.427   2.518   1.360
 6209SOL    HW219527   3.445   2.386   1.266
 6210SOL     OW19528   4.802   2.067   3.997
 6210SOL    HW119529   4.757   2.025   4.076
 6210SOL    HW219530   4.879   2.123   4.028
 6211SOL     OW19531   5.758   4.798   5.515
 6211SOL    HW119532   5.713   4.711   5.495
 6211SOL    HW219533   5.768   4.808   5.614
 6212SOL     OW19534   4.484   5.009   4.737
 6212SOL    HW119535   4.516   4.955   4.660
 6212SOL    HW219536   4.504   5.105   4.722
 6213SOL     OW19537   4.098   6.000   0.307
 6213SOL    HW119538   4.030   6.054   0.356
 6213SOL    HW219539   4.058   5.966   0.222
 6214SOL     OW19540   6.656   5.730   6.388
 6214SOL    HW119541   6.634   5.639   6.353
 6214SOL    HW219542   6.708   5.781   6.319
 6215SOL     OW19543   5.564   2.663   6.006
 6215SOL    HW119544   5.554   2.688   5.910
 6215SOL    HW219545   5.638   2.596   6.016
 6216SOL     OW19546   4.591   2.185   3.542
 6216SOL    HW119547   4.650   2.129   3.600
 6216SOL    HW219548   4.597   2.280   3.570
 6217SOL     OW19549   0.299   4.165   2.479
 6217SOL    HW119550   0.397   4.148   2.478
 6217SOL    HW219551   0.250   4.078   2.473
 6218SOL     OW19552   4.342   6.330   0.201
 6218SOL    HW119553   4.345   6.416   0.253
 6218SOL    HW219554   4.408   6.266   0.239
 6219SOL     OW19555   1.558   0.956   6.011
 6219SOL    HW119556   1.471   0.987   5.972
 6219SOL    HW219557   1.630   1.022   5.989
 6220SOL     OW19558   3.943   0.188   0.587
 6220SOL    HW119559   3.916   0.106   0.537
 6220SOL    HW219560   3.967   0.164   0.681
 6221SOL     OW19561   5.744   5.524   7.009
 6221SOL    HW119562   5.684   5.457   0.032
 6221SOL    HW219563   5.769   5.492   6.917
 6222SOL     OW19564   6.219   1.817   2.188
 6222SOL    HW119565   6.303   1.818   2.241
 6222SOL    HW219566   6.184   1.911   2.179
 6223SOL     OW19567   0.553   5.054   3.601
 6223SOL    HW119568   0.594   4.965   3.581
 6223SOL    HW219569   0.625   5.122   3.615
 6224SOL     OW19570   4.058   0.805   0.015
 6224SOL    HW119571   4.012   0.717   0.031
 6224SOL    HW219572   3.990   0.879   0.017
 6225SOL     OW19573   4.820   6.200   6.716
 6225SOL    HW119574   4.840   6.179   6.812
 6225SOL    HW219575   4.844   6.294   6.696
 6226SOL     OW19576   1.520   1.256   4.665
 6226SOL    HW119577   1.603   1.296   4.625
 6226SOL    HW219578   1.452   1.327   4.680
 6227SOL     OW19579   2.861   4.741   5.345
 6227SOL    HW119580   2.776   4.793   5.351
 6227SOL    HW219581   2.857   4.681   5.265
 6228SOL     OW19582   1.171   2.976   3.757
 6228SOL    HW119583   1.210   3.022   3.836
 6228SOL    HW219584   1.202   3.021   3.673
 6229SOL     OW19585   0.366   3.191   4.449
 6229SOL    HW119586   0.401   3.119   4.509
 6229SOL    HW219587   0.376   3.279   4.494
 6230SOL     OW19588   0.014   0.910   1.866
 6230SOL    HW119589   0.089   0.967   1.833
 6230SOL    HW219590   6.962   0.905   1.797
 6231SOL     OW19591   1.426   5.120   6.821
 6231SOL    HW119592   1.469   5.169   6.897
 6231SOL    HW219593   1.494   5.063   6.775
 6232SOL     OW19594   4.366   1.218   6.283
 6232SOL    HW119595   4.272   1.203   6.315
 6232SOL    HW219596   4.428   1.158   6.334
 6233SOL     OW19597   6.850   3.405   1.529
 6233SOL    HW119598   6.797   3.341   1.585
 6233SOL    HW219599   6.892   3.473   1.587
 6234SOL     OW19600   4.379   5.657   4.874
 6234SOL    HW119601   4.406   5.673   4.780
 6234SOL    HW219602   4.461   5.646   4.931
 6235SOL     OW19603   6.544   0.561   2.747
 6235SOL    HW119604   6.486   0.511   2.682
 6235SOL    HW219605   6.625   0.595   2.700
 6236SOL     OW19606   0.463   5.599   1.588
 6236SOL    HW119607   0.494   5.572   1.679
 6236SOL    HW219608   0.533   5.656   1.545
 6237SOL     OW19609   3.141   1.181   0.632
 6237SOL    HW119610   3.230   1.135   0.631
 6237SOL    HW219611   3.090   1.151   0.713
 6238SOL     OW19612   2.160   0.307   4.044
 6238SOL    HW119613   2.147   0.372   3.969
 6238SOL    HW219614   2.107   0.337   4.123
 6239SOL     OW19615   4.723   1.111   3.902
 6239SOL    HW119616   4.641   1.070   3.862
 6239SOL    HW219617   4.756   1.184   3.842
 6240SOL     OW19618   3.701   3.096   3.638
 6240SOL    HW119619   3.605   3.124   3.627
 6240SOL    HW219620   3.718   3.069   3.733
 6241SOL     OW19621   3.417   0.416   2.986
 6241SOL    HW119622   3.373   0.395   2.899
 6241SOL    HW219623   3.433   0.514   2.993
 6242SOL     OW19624   3.079   2.007   3.245
 6242SOL    HW119625   3.033   1.918   3.250
 6242SOL    HW219626   3.012   2.077   3.218
 6243SOL     OW19627   4.590   1.926   6.610
 6243SOL    HW119628   4.618   1.852   6.671
 6243SOL    HW219629   4.662   1.996   6.608
 6244SOL     OW19630   5.437   4.040   2.491
 6244SOL    HW119631   5.490   3.960   2.463
 6244SOL    HW219632   5.339   4.018   2.489
 6245SOL     OW19633   6.917   4.271   2.655
 6245SOL    HW119634   6.906   4.185   2.604
 6245SOL    HW219635   6.955   4.341   2.594
 6246SOL     OW19636   6.634   6.819   4.245
 6246SOL    HW119637   6.670   6.902   4.289
 6246SOL    HW219638   6.689   6.740   4.273
 6247SOL     OW19639   6.800   6.505   3.542
 6247SOL    HW119640   6.869   6.574   3.517
 6247SOL    HW219641   6.775   6.516   3.638
 6248SOL     OW19642   3.720   2.983   5.944
 6248SOL    HW119643   3.689   3.044   6.017
 6248SOL    HW219644   3.702   3.024   5.855
 6249SOL     OW19645   6.057   2.858   1.785
 6249SOL    HW119646   6.031   2.791   1.715
 6249SOL    HW219647   5.985   2.864   1.853
 6250SOL     OW19648   6.316   0.591   0.302
 6250SOL    HW119649   6.357   0.663   0.245
 6250SOL    HW219650   6.388   0.530   0.334
 6251SOL     OW19651   2.403   0.114   3.737
 6251SOL    HW119652   2.390   0.210   3.712
 6251SOL    HW219653   2.500   0.096   3.753
 6252SOL     OW19654   3.207   5.630   6.764
 6252SOL    HW119655   3.291   5.664   6.720
 6252SOL    HW219656   3.130   5.687   6.737
 6253SOL     OW19657   3.601   5.396   5.022
 6253SOL    HW119658   3.668   5.410   4.949
 6253SOL    HW219659   3.588   5.298   5.037
 6254SOL     OW19660   0.574   6.960   1.215
 6254SOL    HW119661   0.667   6.947   1.179
 6254SOL    HW219662   0.577   6.969   1.315
 6255SOL     OW19663   0.849   1.621   2.048
 6255SOL    HW119664   0.766   1.573   2.018
 6255SOL    HW219665   0.928   1.585   2.000
 6256SOL     OW19666   5.436   6.464   2.534
 6256SOL    HW119667   5.461   6.368   2.545
 6256SOL    HW219668   5.487   6.503   2.458
 6257SOL     OW19669   3.208   3.970   1.318
 6257SOL    HW119670   3.147   4.045   1.345
 6257SOL    HW219671   3.303   3.998   1.330
 6258SOL     OW19672   3.895   5.194   4.984
 6258SOL    HW119673   3.962   5.262   5.015
 6258SOL    HW219674   3.820   5.241   4.937
 6259SOL     OW19675   3.433   0.393   4.536
 6259SOL    HW119676   3.502   0.465   4.525
 6259SOL    HW219677   3.360   0.406   4.469
 6260SOL     OW19678   1.439   1.255   6.945
 6260SOL    HW119679   1.351   1.266   6.992
 6260SOL    HW219680   1.451   1.330   6.880
 6261SOL     OW19681   3.633   0.060   0.844
 6261SOL    HW119682   3.568   0.095   0.776
 6261SOL    HW219683   3.680   0.137   0.887
 6262SOL     OW19684   5.471   0.125   2.018
 6262SOL    HW119685   5.386   0.162   2.057
 6262SOL    HW219686   5.482   0.159   1.925
 6263SOL     OW19687   6.177   6.115   5.766
 6263SOL    HW119688   6.084   6.082   5.751
 6263SOL    HW219689   6.197   6.189   5.703
 6264SOL     OW19690   2.703   6.804   0.269
 6264SOL    HW119691   2.738   6.711   0.283
 6264SOL    HW219692   2.638   6.805   0.194
 6265SOL     OW19693   4.988   0.398   6.403
 6265SOL    HW119694   4.962   0.494   6.392
 6265SOL    HW219695   5.084   0.393   6.432
 6266SOL     OW19696   2.469   4.958   3.388
 6266SOL    HW119697   2.486   4.987   3.293
 6266SOL    HW219698   2.556   4.950   3.437
 6267SOL     OW19699   2.707   6.169   4.959
 6267SOL    HW119700   2.616   6.135   4.983
 6267SOL    HW219701   2.773   6.095   4.964
 6268SOL     OW19702   3.389   1.446   1.100
 6268SOL    HW119703   3.487   1.463   1.098
 6268SOL    HW219704   3.369   1.364   1.154
 6269SOL     OW19705   6.202   4.925   0.216
 6269SOL    HW119706   6.275   4.993   0.204
 6269SOL    HW219707   6.161   4.904   0.128
 6270SOL     OW19708   1.983   5.231   0.646
 6270SOL    HW119709   2.048   5.190   0.710
 6270SOL    HW219710   1.957   5.322   0.679
 6271SOL     OW19711   6.360   3.327   5.572
 6271SOL    HW119712   6.325   3.290   5.486
 6271SOL    HW219713   6.301   3.298   5.647
 6272SOL     OW19714   0.126   0.032   0.323
 6272SOL    HW119715   0.096   0.126   0.333
 6272SOL    HW219716   0.079   6.995   0.390
 6273SOL     OW19717   0.327   6.572   1.114
 6273SOL    HW119718   0.295   6.665   1.127
 6273SOL    HW219719   0.287   6.512   1.183
 6274SOL     OW19720   3.181   5.338   3.491
 6274SOL    HW119721   3.211   5.338   3.396
 6274SOL    HW219722   3.187   5.244   3.527
 6275SOL     OW19723   2.180   5.449   6.902
 6275SOL    HW119724   2.181   5.423   6.998
 6275SOL    HW219725   2.245   5.392   6.851
 6276SOL     OW19726   1.751   5.155   2.990
 6276SOL    HW119727   1.815   5.102   2.933
 6276SOL    HW219728   1.717   5.097   3.064
 6277SOL     OW19729   5.074   3.193   1.017
 6277SOL    HW119730   5.119   3.270   1.061
 6277SOL    HW219731   4.977   3.215   1.003
 6278SOL     OW19732   2.625   1.524   6.953
 6278SOL    HW119733   2.603   1.429   6.975
 6278SOL    HW219734   2.713   1.549   6.994
 6279SOL     OW19735   2.861   6.691   2.154
 6279SOL    HW119736   2.798   6.764   2.128
 6279SOL    HW219737   2.894   6.645   2.072
 6280SOL     OW19738   5.938   2.668   6.680
 6280SOL    HW119739   5.930   2.710   6.770
 6280SOL    HW219740   6.012   2.602   6.680
 6281SOL     OW19741   5.485   3.731   6.084
 6281SOL    HW119742   5.450   3.701   5.996
 6281SOL    HW219743   5.491   3.653   6.147
 6282SOL     OW19744   0.295   3.403   6.398
 6282SOL    HW119745   0.206   3.402   6.353
 6282SOL    HW219746   0.323   3.497   6.415
 6283SOL     OW19747   1.699   6.377   4.896
 6283SOL    HW119748   1.705   6.426   4.809
 6283SOL    HW219749   1.668   6.284   4.880
 6284SOL     OW19750   1.892   4.146   5.259
 6284SOL    HW119751   1.882   4.179   5.353
 6284SOL    HW219752   1.910   4.223   5.198
 6285SOL     OW19753   1.006   3.707   2.953
 6285SOL    HW119754   1.003   3.788   2.896
 6285SOL    HW219755   0.998   3.625   2.896
 6286SOL     OW19756   0.592   2.380   0.169
 6286SOL    HW119757   0.554   2.290   0.189
 6286SOL    HW219758   0.637   2.417   0.251
 6287SOL     OW19759   4.868   4.959   4.713
 6287SOL    HW119760   4.935   4.903   4.664
 6287SOL    HW219761   4.908   5.048   4.734
 6288SOL     OW19762   3.384   3.735   6.552
 6288SOL    HW119763   3.471   3.771   6.585
 6288SOL    HW219764   3.323   3.810   6.528
 6289SOL     OW19765   2.834   4.635   5.803
 6289SOL    HW119766   2.842   4.702   5.877
 6289SOL    HW219767   2.873   4.673   5.719
 6290SOL     OW19768   5.821   6.034   4.411
 6290SOL    HW119769   5.847   5.972   4.337
 6290SOL    HW219770   5.863   6.004   4.496
 6291SOL     OW19771   3.926   3.056   3.017
 6291SOL    HW119772   3.987   3.132   3.038
 6291SOL    HW219773   3.895   3.063   2.922
 6292SOL     OW19774   2.064   3.610   4.534
 6292SOL    HW119775   2.125   3.689   4.530
 6292SOL    HW219776   1.979   3.631   4.487
 6293SOL     OW19777   3.253   1.172   6.674
 6293SOL    HW119778   3.296   1.117   6.602
 6293SOL    HW219779   3.253   1.268   6.646
 6294SOL     OW19780   1.520   1.383   2.912
 6294SOL    HW119781   1.592   1.450   2.893
 6294SOL    HW219782   1.432   1.417   2.878
 6295SOL     OW19783   5.221   3.513   6.253
 6295SOL    HW119784   5.298   3.452   6.234
 6295SOL    HW219785   5.146   3.494   6.191
 6296SOL     OW19786   0.928   3.360   0.306
 6296SOL    HW119787   0.910   3.263   0.322
 6296SOL    HW219788   0.941   3.377   0.209
 6297SOL     OW19789   5.870   1.480   4.709
 6297SOL    HW119790   5.905   1.455   4.799
 6297SOL    HW219791   5.800   1.414   4.681
 6298SOL     OW19792   6.770   6.358   1.023
 6298SOL    HW119793   6.685   6.364   0.970
 6298SOL    HW219794   6.767   6.278   1.082
 6299SOL     OW19795   4.202   1.026   3.530
 6299SOL    HW119796   4.203   1.109   3.587
 6299SOL    HW219797   4.155   1.046   3.445
 6300SOL     OW19798   2.398   1.112   6.678
 6300SOL    HW119799   2.445   1.159   6.753
 6300SOL    HW219800   2.384   1.176   6.602
 6301SOL     OW19801   3.982   6.368   7.006
 6301SOL    HW119802   3.991   6.467   7.002
 6301SOL    HW219803   4.060   6.325   6.961
 6302SOL     OW19804   3.082   2.622   6.411
 6302SOL    HW119805   3.099   2.642   6.315
 6302SOL    HW219806   3.139   2.544   6.439
 6303SOL     OW19807   0.440   5.997   4.968
 6303SOL    HW119808   0.357   5.995   4.913
 6303SOL    HW219809   0.441   5.918   5.030
 6304SOL     OW19810   3.891   0.734   4.514
 6304SOL    HW119811   3.897   0.805   4.585
 6304SOL    HW219812   3.896   0.777   4.424
 6305SOL     OW19813   0.595   5.920   6.291
 6305SOL    HW119814   0.594   5.839   6.232
 6305SOL    HW219815   0.598   5.890   6.387
 6306SOL     OW19816   0.226   5.420   4.138
 6306SOL    HW119817   0.207   5.374   4.224
 6306SOL    HW219818   0.243   5.517   4.155
 6307SOL     OW19819   3.978   2.968   2.008
 6307SOL    HW119820   4.061   2.913   2.014
 6307SOL    HW219821   3.994   3.057   2.050
 6308SOL     OW19822   0.235   2.214   0.435
 6308SOL    HW119823   0.271   2.292   0.384
 6308SOL    HW219824   0.213   2.243   0.528
 6309SOL     OW19825   2.558   6.381   4.647
 6309SOL    HW119826   2.480   6.419   4.697
 6309SOL    HW219827   2.568   6.284   4.669
 6310SOL     OW19828   1.434   0.209   3.236
 6310SOL    HW119829   1.372   0.238   3.163
 6310SOL    HW219830   1.489   0.132   3.204
 6311SOL     OW19831   5.862   0.824   6.474
 6311SOL    HW119832   5.895   0.729   6.476
 6311SOL    HW219833   5.891   0.867   6.389
 6312SOL     OW19834   3.591   5.744   6.752
 6312SOL    HW119835   3.577   5.822   6.812
 6312SOL    HW219836   3.688   5.738   6.727
 6313SOL     OW19837   5.851   4.930   4.778
 6313SOL    HW119838   5.888   5.019   4.752
 6313SOL    HW219839   5.751   4.935   4.781
 6314SOL     OW19840   1.888   6.687   2.467
 6314SOL    HW119841   1.859   6.715   2.559
 6314SOL    HW219842   1.819   6.715   2.401
 6315SOL     OW19843   2.314   2.396   3.891
 6315SOL    HW119844   2.231   2.448   3.911
 6315SOL    HW219845   2.316   2.373   3.793
 6316SOL     OW19846   4.619   1.028   4.534
 6316SOL    HW119847   4.675   1.095   4.485
 6316SOL    HW219848   4.672   0.945   4.550
 6317SOL     OW19849   5.469   5.201   1.913
 6317SOL    HW119850   5.378   5.189   1.952
 6317SOL    HW219851   5.536   5.214   1.986
 6318SOL     OW19852   6.412   6.806   0.258
 6318SOL    HW119853   6.475   6.743   0.214
 6318SOL    HW219854   6.319   6.791   0.222
 6319SOL     OW19855   5.233   1.484   4.098
 6319SOL    HW119856   5.194   1.472   4.006
 6319SOL    HW219857   5.327   1.450   4.098
 6320SOL     OW19858   6.206   1.329   5.660
 6320SOL    HW119859   6.289   1.286   5.624
 6320SOL    HW219860   6.207   1.324   5.760
 6321SOL     OW19861   6.567   2.680   6.780
 6321SOL    HW119862   6.538   2.612   6.712
 6321SOL    HW219863   6.666   2.684   6.783
 6322SOL     OW19864   1.101   1.043   2.110
 6322SOL    HW119865   1.044   0.995   2.177
 6322SOL    HW219866   1.120   0.982   2.033
 6323SOL     OW19867   2.186   4.843   1.594
 6323SOL    HW119868   2.172   4.853   1.693
 6323SOL    HW219869   2.274   4.799   1.578
 6324SOL     OW19870   4.403   2.348   1.008
 6324SOL    HW119871   4.457   2.305   0.935
 6324SOL    HW219872   4.432   2.444   1.018
 6325SOL     OW19873   1.612   2.999   4.403
 6325SOL    HW119874   1.645   2.908   4.429
 6325SOL    HW219875   1.687   3.052   4.365
 6326SOL     OW19876   5.512   5.097   5.771
 6326SOL    HW119877   5.586   5.120   5.833
 6326SOL    HW219878   5.450   5.175   5.762
 6327SOL     OW19879   0.171   0.783   3.644
 6327SOL    HW119880   0.124   0.740   3.567
 6327SOL    HW219881   0.220   0.714   3.696
 6328SOL     OW19882   4.447   3.484   5.291
 6328SOL    HW119883   4.518   3.512   5.227
 6328SOL    HW219884   4.360   3.526   5.265
 6329SOL     OW19885   0.942   2.132   5.711
 6329SOL    HW119886   0.951   2.165   5.617
 6329SOL    HW219887   1.032   2.132   5.755
 6330SOL     OW19888   5.507   1.357   3.636
 6330SOL    HW119889   5.453   1.429   3.680
 6330SOL    HW219890   5.495   1.363   3.537
 6331SOL     OW19891   0.637   2.834   3.519
 6331SOL    HW119892   0.553   2.849   3.467
 6331SOL    HW219893   0.697   2.914   3.509
 6332SOL     OW19894   2.873   1.614   6.352
 6332SOL    HW119895   2.912   1.690   6.404
 6332SOL    HW219896   2.793   1.578   6.400
 6333SOL     OW19897   5.583   1.565   0.918
 6333SOL    HW119898   5.538   1.629   0.855
 6333SOL    HW219899   5.677   1.596   0.934
 6334SOL     OW19900   1.314   1.381   1.947
 6334SOL    HW119901   1.334   1.308   2.012
 6334SOL    HW219902   1.367   1.462   1.971
 6335SOL     OW19903   6.281   2.334   6.868
 6335SOL    HW119904   6.281   2.316   6.966
 6335SOL    HW219905   6.366   2.298   6.828
 6336SOL     OW19906   1.145   3.811   5.218
 6336SOL    HW119907   1.207   3.844   5.288
 6336SOL    HW219908   1.071   3.878   5.205
 6337SOL     OW19909   5.325   6.184   4.950
 6337SOL    HW119910   5.387   6.171   5.027
 6337SOL    HW219911   5.233   6.157   4.976
 6338SOL     OW19912   1.423   1.060   3.177
 6338SOL    HW119913   1.336   1.018   3.152
 6338SOL    HW219914   1.497   1.017   3.125
 6339SOL     OW19915   0.242   4.671   3.793
 6339SOL    HW119916   0.260   4.736   3.719
 6339SOL    HW219917   0.241   4.578   3.756
 6340SOL     OW19918   2.766   3.990   0.725
 6340SOL    HW119919   2.775   4.024   0.819
 6340SOL    HW219920   2.856   3.988   0.682
 6341SOL     OW19921   0.525   5.239   2.672
 6341SOL    HW119922   0.468   5.181   2.612
 6341SOL    HW219923   0.469   5.313   2.709
 6342SOL     OW19924   2.079   1.055   1.400
 6342SOL    HW119925   2.072   1.102   1.313
 6342SOL    HW219926   2.050   0.960   1.389
 6343SOL     OW19927   0.777   5.276   0.966
 6343SOL    HW119928   0.803   5.306   1.058
 6343SOL    HW219929   0.847   5.306   0.900
 6344SOL     OW19930   0.383   1.243   3.841
 6344SOL    HW119931   0.352   1.157   3.801
 6344SOL    HW219932   0.304   1.300   3.866
 6345SOL     OW19933   6.325   3.071   1.571
 6345SOL    HW119934   6.259   3.060   1.496
 6345SOL    HW219935   6.334   2.984   1.619
 6346SOL     OW19936   0.198   4.393   5.699
 6346SOL    HW119937   0.196   4.302   5.658
 6346SOL    HW219938   0.229   4.386   5.794
 6347SOL     OW19939   2.315   1.965   2.756
 6347SOL    HW119940   2.392   1.987   2.817
 6347SOL    HW219941   2.229   1.975   2.807
 6348SOL     OW19942   0.361   1.948   6.229
 6348SOL    HW119943   0.456   1.952   6.201
 6348SOL    HW219944   0.319   2.038   6.218
 6349SOL     OW19945   6.723   1.297   0.191
 6349SOL    HW119946   6.780   1.218   0.214
 6349SOL    HW219947   6.627   1.270   0.188
 6350SOL     OW19948   1.278   6.025   2.082
 6350SOL    HW119949   1.222   5.988   2.008
 6350SOL    HW219950   1.286   6.124   2.071
 6351SOL     OW19951   5.126   3.404   1.572
 6351SOL    HW119952   5.090   3.490   1.606
 6351SOL    HW219953   5.224   3.397   1.595
 6352SOL     OW19954   3.275   0.627   4.439
 6352SOL    HW119955   3.291   0.640   4.341
 6352SOL    HW219956   3.178   0.643   4.459
 6353SOL     OW19957   3.690   6.705   5.425
 6353SOL    HW119958   3.636   6.623   5.444
 6353SOL    HW219959   3.702   6.758   5.509
 6354SOL     OW19960   4.638   5.472   1.150
 6354SOL    HW119961   4.615   5.478   1.247
 6354SOL    HW219962   4.734   5.447   1.140
 6355SOL     OW19963   2.801   4.653   0.527
 6355SOL    HW119964   2.705   4.673   0.511
 6355SOL    HW219965   2.853   4.667   0.443
 6356SOL     OW19966   6.592   5.472   6.345
 6356SOL    HW119967   6.494   5.482   6.364
 6356SOL    HW219968   6.632   5.406   6.409
 6357SOL     OW19969   5.365   1.483   1.740
 6357SOL    HW119970   5.377   1.565   1.796
 6357SOL    HW219971   5.451   1.431   1.740
 6358SOL     OW19972   1.408   2.073   5.507
 6358SOL    HW119973   1.464   2.028   5.438
 6358SOL    HW219974   1.345   2.006   5.548
 6359SOL     OW19975   5.372   6.691   0.381
 6359SOL    HW119976   5.415   6.780   0.395
 6359SOL    HW219977   5.439   6.627   0.342
 6360SOL     OW19978   0.493   2.014   2.008
 6360SOL    HW119979   0.575   1.957   2.018
 6360SOL    HW219980   0.498   2.092   2.070
 6361SOL     OW19981   0.139   1.040   6.715
 6361SOL    HW119982   0.153   1.052   6.814
 6361SOL    HW219983   0.141   0.942   6.693
 6362SOL     OW19984   0.748   5.497   0.439
 6362SOL    HW119985   0.704   5.454   0.518
 6362SOL    HW219986   0.801   5.576   0.470
 6363SOL     OW19987   2.319   4.248   2.817
 6363SOL    HW119988   2.322   4.153   2.848
 6363SOL    HW219989   2.262   4.301   2.880
 6364SOL     OW19990   2.451   2.599   4.238
 6364SOL    HW119991   2.363   2.552   4.227
 6364SOL    HW219992   2.469   2.613   4.335
 6365SOL     OW19993   5.389   6.671   2.978
 6365SOL    HW119994   5.362   6.676   3.074
 6365SOL    HW219995   5.312   6.640   2.923
 6366SOL     OW19996   5.798   0.430   5.297
 6366SOL    HW119997   5.729   0.499   5.321
 6366SOL    HW219998   5.776   0.391   5.207
 6367SOL     OW19999   1.442   2.258   2.512
 6367SOL    HW120000   1.413   2.340   2.561
 6367SOL    HW220001   1.377   2.238   2.439
 6368SOL     OW20002   4.860   3.337   5.132
 6368SOL    HW120003   4.933   3.404   5.147
 6368SOL    HW220004   4.773   3.374   5.164
 6369SOL     OW20005   4.385   5.386   6.984
 6369SOL    HW120006   4.323   5.339   6.922
 6369SOL    HW220007   4.337   5.407   0.049
 6370SOL     OW20008   5.238   4.140   4.307
 6370SOL    HW120009   5.199   4.182   4.225
 6370SOL    HW220010   5.202   4.187   4.388
 6371SOL     OW20011   5.170   4.555   1.636
 6371SOL    HW120012   5.205   4.462   1.625
 6371SOL    HW220013   5.239   4.612   1.682
 6372SOL     OW20014   6.436   1.785   2.341
 6372SOL    HW120015   6.465   1.791   2.437
 6372SOL    HW220016   6.460   1.695   2.305
 6373SOL     OW20017   4.889   4.259   1.618
 6373SOL    HW120018   4.833   4.237   1.538
 6373SOL    HW220019   4.877   4.356   1.641
 6374SOL     OW20020   4.237   3.702   6.898
 6374SOL    HW120021   4.154   3.738   6.940
 6374SOL    HW220022   4.236   3.721   6.800
 6375SOL     OW20023   5.000   1.948   2.190
 6375SOL    HW120024   5.019   1.902   2.276
 6375SOL    HW220025   4.902   1.966   2.182
 6376SOL     OW20026   3.304   0.842   6.809
 6376SOL    HW120027   3.304   0.794   6.897
 6376SOL    HW220028   3.361   0.792   6.744
 6377SOL     OW20029   0.282   0.555   1.069
 6377SOL    HW120030   0.243   0.463   1.078
 6377SOL    HW220031   0.243   0.600   0.988
 6378SOL     OW20032   5.043   4.499   1.949
 6378SOL    HW120033   5.001   4.479   1.860
 6378SOL    HW220034   5.104   4.424   1.975
 6379SOL     OW20035   2.012   5.242   6.564
 6379SOL    HW120036   2.068   5.175   6.515
 6379SOL    HW220037   2.046   5.334   6.545
 6380SOL     OW20038   1.672   3.980   4.667
 6380SOL    HW120039   1.744   4.048   4.679
 6380SOL    HW220040   1.639   3.983   4.573
 6381SOL     OW20041   4.312   2.613   0.533
 6381SOL    HW120042   4.216   2.588   0.530
 6381SOL    HW220043   4.364   2.540   0.578
 6382SOL     OW20044   1.099   1.316   0.643
 6382SOL    HW120045   1.197   1.332   0.647
 6382SOL    HW220046   1.051   1.404   0.640
 6383SOL     OW20047   2.458   2.013   2.075
 6383SOL    HW120048   2.382   2.076   2.058
 6383SOL    HW220049   2.545   2.061   2.063
 6384SOL     OW20050   6.660   2.915   2.234
 6384SOL    HW120051   6.723   2.842   2.207
 6384SOL    HW220052   6.620   2.956   2.153
 6385SOL     OW20053   0.544   3.313   0.426
 6385SOL    HW120054   0.623   3.366   0.457
 6385SOL    HW220055   0.461   3.365   0.443
 6386SOL     OW20056   2.327   3.275   0.416
 6386SOL    HW120057   2.367   3.345   0.475
 6386SOL    HW220058   2.371   3.187   0.434
 6387SOL     OW20059   0.095   6.920   6.932
 6387SOL    HW120060   0.131   7.011   6.950
 6387SOL    HW220061   0.131   6.856   6.999
 6388SOL     OW20062   6.484   5.582   2.436
 6388SOL    HW120063   6.446   5.575   2.344
 6388SOL    HW220064   6.419   5.546   2.502
 6389SOL     OW20065   0.220   0.218   0.566
 6389SOL    HW120066   0.260   0.222   0.474
 6389SOL    HW220067   0.265   0.146   0.618
 6390SOL     OW20068   5.285   0.498   6.650
 6390SOL    HW120069   5.198   0.469   6.689
 6390SOL    HW220070   5.322   0.575   6.702
 6391SOL     OW20071   1.175   1.815   4.759
 6391SOL    HW120072   1.229   1.784   4.680
 6391SOL    HW220073   1.078   1.804   4.740
 6392SOL     OW20074   3.745   6.686   3.891
 6392SOL    HW120075   3.682   6.731   3.828
 6392SOL    HW220076   3.836   6.682   3.850
 6393SOL     OW20077   0.687   5.307   0.078
 6393SOL    HW120078   0.644   5.358   0.153
 6393SOL    HW220079   0.775   5.270   0.109
 6394SOL     OW20080   1.525   5.487   1.671
 6394SOL    HW120081   1.542   5.569   1.726
 6394SOL    HW220082   1.547   5.505   1.575
 6395SOL     OW20083   2.124   3.668   3.222
 6395SOL    HW120084   2.125   3.668   3.122
 6395SOL    HW220085   2.125   3.573   3.255
 6396SOL     OW20086   1.195   3.270   6.096
 6396SOL    HW120087   1.111   3.215   6.097
 6396SOL    HW220088   1.239   3.265   6.185
 6397SOL     OW20089   5.597   3.853   4.456
 6397SOL    HW120090   5.573   3.781   4.521
 6397SOL    HW220091   5.560   3.940   4.488
 6398SOL     OW20092   2.021   0.005   1.332
 6398SOL    HW120093   2.042   0.092   1.288
 6398SOL    HW220094   1.994   0.020   1.427
 6399SOL     OW20095   3.326   1.142   6.178
 6399SOL    HW120096   3.277   1.228   6.171
 6399SOL    HW220097   3.402   1.141   6.113
 6400SOL     OW20098   1.085   6.057   3.024
 6400SOL    HW120099   1.056   6.152   3.018
 6400SOL    HW220100   1.093   6.031   3.120
 6401SOL     OW20101   4.024   5.337   3.299
 6401SOL    HW120102   4.078   5.327   3.382
 6401SOL    HW220103   3.983   5.428   3.296
 6402SOL     OW20104   2.326   4.768   5.239
 6402SOL    HW120105   2.285   4.791   5.151
 6402SOL    HW220106   2.362   4.675   5.235
 6403SOL     OW20107   5.032   4.871   5.003
 6403SOL    HW120108   4.944   4.825   4.988
 6403SOL    HW220109   5.069   4.902   4.916
 6404SOL     OW20110   4.360   6.599   1.666
 6404SOL    HW120111   4.425   6.584   1.740
 6404SOL    HW220112   4.368   6.693   1.633
 6405SOL     OW20113   5.528   1.740   3.164
 6405SOL    HW120114   5.526   1.693   3.252
 6405SOL    HW220115   5.587   1.690   3.101
 6406SOL     OW20116   6.904   3.618   3.565
 6406SOL    HW120117   6.879   3.530   3.606
 6406SOL    HW220118   6.948   3.676   3.635
 6407SOL     OW20119   0.781   6.059   2.488
 6407SOL    HW120120   0.820   6.143   2.528
 6407SOL    HW220121   0.803   6.057   2.390
 6408SOL     OW20122   6.636   0.353   2.293
 6408SOL    HW120123   6.569   0.325   2.225
 6408SOL    HW220124   6.669   0.273   2.343
 6409SOL     OW20125   5.002   5.229   3.482
 6409SOL    HW120126   4.936   5.158   3.459
 6409SOL    HW220127   5.014   5.291   3.403
 6410SOL     OW20128   1.568   1.471   6.483
 6410SOL    HW120129   1.541   1.531   6.409
 6410SOL    HW220130   1.667   1.479   6.498
 6411SOL     OW20131   0.560   2.805   1.804
 6411SOL    HW120132   0.638   2.836   1.858
 6411SOL    HW220133   0.583   2.717   1.761
 6412SOL     OW20134   3.180   0.972   0.089
 6412SOL    HW120135   3.243   0.895   0.081
 6412SOL    HW220136   3.218   1.039   0.154
 6413SOL     OW20137   4.961   6.504   2.834
 6413SOL    HW120138   4.998   6.424   2.787
 6413SOL    HW220139   4.983   6.498   2.931
 6414SOL     OW20140   1.627   0.242   0.597
 6414SOL    HW120141   1.725   0.228   0.583
 6414SOL    HW220142   1.588   0.290   0.518
 6415SOL     OW20143   0.135   2.479   3.589
 6415SOL    HW120144   0.064   2.511   3.651
 6415SOL    HW220145   0.110   2.389   3.552
 6416SOL     OW20146   2.170   6.234   0.079
 6416SOL    HW120147   2.218   6.150   0.105
 6416SOL    HW220148   2.072   6.220   0.090
 6417SOL     OW20149   4.453   2.395   6.728
 6417SOL    HW120150   4.413   2.366   6.642
 6417SOL    HW220151   4.548   2.424   6.713
 6418SOL     OW20152   5.082   4.685   0.075
 6418SOL    HW120153   5.156   4.638   0.027
 6418SOL    HW220154   5.062   4.771   0.028
 6419SOL     OW20155   0.792   6.255   5.897
 6419SOL    HW120156   0.764   6.350   5.914
 6419SOL    HW220157   0.761   6.227   5.806
 6420SOL     OW20158   2.058   4.233   4.319
 6420SOL    HW120159   2.131   4.243   4.252
 6420SOL    HW220160   1.971   4.220   4.271
 6421SOL     OW20161   4.042   0.512   1.948
 6421SOL    HW120162   4.053   0.561   2.035
 6421SOL    HW220163   4.045   0.578   1.873
 6422SOL     OW20164   5.901   1.845   4.713
 6422SOL    HW120165   5.994   1.820   4.689
 6422SOL    HW220166   5.857   1.890   4.635
 6423SOL     OW20167   1.717   4.446   4.369
 6423SOL    HW120168   1.686   4.409   4.457
 6423SOL    HW220169   1.807   4.409   4.347
 6424SOL     OW20170   6.680   4.842   5.487
 6424SOL    HW120171   6.586   4.870   5.469
 6424SOL    HW220172   6.710   4.776   5.418
 6425SOL     OW20173   6.697   5.538   4.236
 6425SOL    HW120174   6.745   5.534   4.149
 6425SOL    HW220175   6.662   5.448   4.260
 6426SOL     OW20176   4.685   4.254   4.855
 6426SOL    HW120177   4.753   4.181   4.848
 6426SOL    HW220178   4.681   4.287   4.950
 6427SOL     OW20179   4.084   3.229   2.779
 6427SOL    HW120180   4.040   3.283   2.851
 6427SOL    HW220181   4.013   3.190   2.720
 6428SOL     OW20182   5.588   2.818   0.435
 6428SOL    HW120183   5.626   2.854   0.520
 6428SOL    HW220184   5.503   2.866   0.413
 6429SOL     OW20185   2.053   1.218   5.533
 6429SOL    HW120186   2.038   1.277   5.454
 6429SOL    HW220187   1.974   1.158   5.546
 6430SOL     OW20188   6.373   0.424   5.528
 6430SOL    HW120189   6.312   0.414   5.449
 6430SOL    HW220190   6.429   0.342   5.538
 6431SOL     OW20191   3.654   4.955   1.808
 6431SOL    HW120192   3.600   4.889   1.859
 6431SOL    HW220193   3.598   4.997   1.736
 6432SOL     OW20194   5.239   4.328   6.119
 6432SOL    HW120195   5.203   4.389   6.189
 6432SOL    HW220196   5.228   4.369   6.029
 6433SOL     OW20197   3.112   4.371   6.364
 6433SOL    HW120198   3.053   4.388   6.285
 6433SOL    HW220199   3.122   4.456   6.417
 6434SOL     OW20200   4.801   5.612   6.412
 6434SOL    HW120201   4.711   5.589   6.375
 6434SOL    HW220202   4.856   5.657   6.341
 6435SOL     OW20203   4.873   2.365   1.644
 6435SOL    HW120204   4.934   2.368   1.564
 6435SOL    HW220205   4.784   2.329   1.615
 6436SOL     OW20206   6.558   3.535   3.790
 6436SOL    HW120207   6.576   3.537   3.692
 6436SOL    HW220208   6.551   3.628   3.825
 6437SOL     OW20209   1.398   2.343   5.464
 6437SOL    HW120210   1.403   2.246   5.492
 6437SOL    HW220211   1.307   2.378   5.485
 6438SOL     OW20212   0.593   4.792   7.003
 6438SOL    HW120213   0.676   4.803   6.948
 6438SOL    HW220214   0.573   4.694   7.013
 6439SOL     OW20215   4.953   0.049   3.333
 6439SOL    HW120216   5.032   0.046   3.272
 6439SOL    HW220217   4.966   7.002   3.406
 6440SOL     OW20218   2.704   2.066   6.441
 6440SOL    HW120219   2.741   2.137   6.381
 6440SOL    HW220220   2.606   2.079   6.451
 6441SOL     OW20221   0.102   1.938   2.353
 6441SOL    HW120222   0.122   1.978   2.264
 6441SOL    HW220223   0.007   1.908   2.355
 6442SOL     OW20224   2.982   2.165   4.645
 6442SOL    HW120225   2.952   2.152   4.739
 6442SOL    HW220226   2.942   2.249   4.608
 6443SOL     OW20227   4.592   3.234   6.971
 6443SOL    HW120228   4.536   3.285   6.905
 6443SOL    HW220229   4.542   3.155   7.004
 6444SOL     OW20230   6.487   3.716   4.903
 6444SOL    HW120231   6.439   3.745   4.821
 6444SOL    HW220232   6.422   3.708   4.979
 6445SOL     OW20233   3.078   3.070   3.571
 6445SOL    HW120234   3.058   3.026   3.658
 6445SOL    HW220235   3.153   3.021   3.526
 6446SOL     OW20236   1.417   1.320   6.229
 6446SOL    HW120237   1.390   1.341   6.323
 6446SOL    HW220238   1.442   1.404   6.181
 6447SOL     OW20239   5.891   3.350   1.813
 6447SOL    HW120240   5.912   3.317   1.721
 6447SOL    HW220241   5.966   3.326   1.875
 6448SOL     OW20242   3.194   5.024   1.437
 6448SOL    HW120243   3.290   5.034   1.463
 6448SOL    HW220244   3.169   5.097   1.373
 6449SOL     OW20245   2.632   5.370   1.023
 6449SOL    HW120246   2.724   5.339   0.996
 6449SOL    HW220247   2.576   5.291   1.045
 6450SOL     OW20248   0.301   4.731   0.230
 6450SOL    HW120249   0.327   4.784   0.311
 6450SOL    HW220250   0.204   4.705   0.237
 6451SOL     OW20251   4.560   2.530   1.313
 6451SOL    HW120252   4.497   2.491   1.380
 6451SOL    HW220253   4.558   2.629   1.318
 6452SOL     OW20254   4.594   1.742   3.972
 6452SOL    HW120255   4.602   1.764   3.874
 6452SOL    HW220256   4.559   1.821   4.021
 6453SOL     OW20257   2.233   0.745   2.343
 6453SOL    HW120258   2.186   0.698   2.418
 6453SOL    HW220259   2.316   0.788   2.378
 6454SOL     OW20260   5.091   2.298   3.331
 6454SOL    HW120261   5.100   2.252   3.419
 6454SOL    HW220262   4.996   2.327   3.319
 6455SOL     OW20263   6.350   3.178   3.733
 6455SOL    HW120264   6.408   3.115   3.681
 6455SOL    HW220265   6.374   3.172   3.830
 6456SOL     OW20266   6.173   1.030   2.610
 6456SOL    HW120267   6.174   0.996   2.704
 6456SOL    HW220268   6.263   1.066   2.587
 6457SOL     OW20269   3.502   6.853   2.388
 6457SOL    HW120270   3.465   6.931   2.439
 6457SOL    HW220271   3.472   6.859   2.292
 6458SOL     OW20272   6.824   5.484   3.939
 6458SOL    HW120273   6.844   5.581   3.928
 6458SOL    HW220274   6.910   5.432   3.940
 6459SOL     OW20275   0.185   2.982   3.317
 6459SOL    HW120276   0.191   2.984   3.217
 6459SOL    HW220277   0.102   3.029   3.347
 6460SOL     OW20278   0.291   5.529   6.380
 6460SOL    HW120279   0.255   5.446   6.422
 6460SOL    HW220280   0.299   5.601   6.449
 6461SOL     OW20281   1.338   5.779   1.207
 6461SOL    HW120282   1.379   5.847   1.269
 6461SOL    HW220283   1.410   5.730   1.159
 6462SOL     OW20284   1.894   4.373   5.124
 6462SOL    HW120285   1.935   4.434   5.191
 6462SOL    HW220286   1.795   4.388   5.121
 6463SOL     OW20287   4.725   2.048   0.982
 6463SOL    HW120288   4.816   2.008   0.970
 6463SOL    HW220289   4.687   2.016   1.069
 6464SOL     OW20290   0.992   4.066   3.457
 6464SOL    HW120291   1.008   4.075   3.359
 6464SOL    HW220292   0.964   3.972   3.478
 6465SOL     OW20293   3.666   1.322   3.537
 6465SOL    HW120294   3.694   1.346   3.444
 6465SOL    HW220295   3.570   1.296   3.537
 6466SOL     OW20296   6.535   4.113   6.904
 6466SOL    HW120297   6.446   4.160   6.904
 6466SOL    HW220298   6.542   4.056   6.986
 6467SOL     OW20299   2.580   2.785   0.495
 6467SOL    HW120300   2.583   2.823   0.588
 6467SOL    HW220301   2.610   2.690   0.497
 6468SOL     OW20302   2.407   1.074   1.220
 6468SOL    HW120303   2.324   1.128   1.212
 6468SOL    HW220304   2.481   1.131   1.258
 6469SOL     OW20305   2.861   1.383   2.309
 6469SOL    HW120306   2.807   1.300   2.316
 6469SOL    HW220307   2.956   1.360   2.285
 6470SOL     OW20308   0.344   1.494   6.770
 6470SOL    HW120309   0.301   1.419   6.720
 6470SOL    HW220310   0.417   1.459   6.828
 6471SOL     OW20311   0.690   6.682   5.677
 6471SOL    HW120312   0.669   6.666   5.580
 6471SOL    HW220313   0.752   6.760   5.686
 6472SOL     OW20314   6.582   6.386   3.107
 6472SOL    HW120315   6.566   6.303   3.054
 6472SOL    HW220316   6.620   6.457   3.047
 6473SOL     OW20317   2.578   1.333   3.224
 6473SOL    HW120318   2.635   1.399   3.273
 6473SOL    HW220319   2.553   1.371   3.135
 6474SOL     OW20320   4.036   5.378   4.686
 6474SOL    HW120321   4.062   5.389   4.782
 6474SOL    HW220322   4.019   5.468   4.646
 6475SOL     OW20323   5.952   5.642   2.345
 6475SOL    HW120324   5.999   5.645   2.257
 6475SOL    HW220325   5.893   5.561   2.349
 6476SOL     OW20326   3.840   2.363   6.377
 6476SOL    HW120327   3.881   2.384   6.466
 6476SOL    HW220328   3.890   2.288   6.334
 6477SOL     OW20329   6.466   6.074   1.449
 6477SOL    HW120330   6.427   6.127   1.524
 6477SOL    HW220331   6.409   6.085   1.367
 6478SOL     OW20332   2.948   5.711   1.046
 6478SOL    HW120333   2.887   5.674   0.977
 6478SOL    HW220334   3.043   5.693   1.020
 6479SOL     OW20335   3.677   6.405   3.357
 6479SOL    HW120336   3.690   6.500   3.387
 6479SOL    HW220337   3.580   6.389   3.338
 6480SOL     OW20338   4.186   1.574   6.747
 6480SOL    HW120339   4.143   1.615   6.666
 6480SOL    HW220340   4.138   1.603   6.829
 6481SOL     OW20341   3.525   2.858   1.509
 6481SOL    HW120342   3.582   2.870   1.590
 6481SOL    HW220343   3.577   2.811   1.439
 6482SOL     OW20344   5.655   3.364   5.820
 6482SOL    HW120345   5.558   3.349   5.803
 6482SOL    HW220346   5.672   3.461   5.837
 6483SOL     OW20347   1.875   6.563   4.992
 6483SOL    HW120348   1.953   6.514   5.032
 6483SOL    HW220349   1.796   6.502   4.987
 6484SOL     OW20350   2.788   0.983   3.590
 6484SOL    HW120351   2.712   0.921   3.606
 6484SOL    HW220352   2.777   1.027   3.500
 6485SOL     OW20353   2.512   6.110   5.196
 6485SOL    HW120354   2.586   6.176   5.207
 6485SOL    HW220355   2.448   6.119   5.273
 6486SOL     OW20356   1.079   4.981   2.746
 6486SOL    HW120357   0.983   4.957   2.758
 6486SOL    HW220358   1.106   4.965   2.651
 6487SOL     OW20359   5.578   4.361   4.420
 6487SOL    HW120360   5.628   4.381   4.336
 6487SOL    HW220361   5.615   4.415   4.496
 6488SOL     OW20362   3.728   5.259   4.493
 6488SOL    HW120363   3.801   5.194   4.467
 6488SOL    HW220364   3.677   5.221   4.570
 6489SOL     OW20365   4.703   2.393   5.295
 6489SOL    HW120366   4.660   2.427   5.211
 6489SOL    HW220367   4.641   2.328   5.340
 6490SOL     OW20368   2.492   2.562   0.075
 6490SOL    HW120369   2.517   2.631   0.143
 6490SOL    HW220370   2.392   2.552   0.072
 6491SOL     OW20371   2.601   6.691   1.727
 6491SOL    HW120372   2.638   6.658   1.640
 6491SOL    HW220373   2.641   6.639   1.802
 6492SOL     OW20374   3.927   3.429   5.053
 6492SOL    HW120375   3.860   3.488   5.096
 6492SOL    HW220376   4.009   3.483   5.032
 6493SOL     OW20377   0.888   4.475   4.500
 6493SOL    HW120378   0.976   4.473   4.452
 6493SOL    HW220379   0.874   4.566   4.540
 6494SOL     OW20380   6.120   0.327   1.289
 6494SOL    HW120381   6.065   0.263   1.342
 6494SOL    HW220382   6.205   0.347   1.337
 6495SOL     OW20383   6.459   0.645   3.173
 6495SOL    HW120384   6.443   0.712   3.246
 6495SOL    HW220385   6.557   0.628   3.165
 6496SOL     OW20386   3.139   1.999   1.663
 6496SOL    HW120387   3.184   1.985   1.574
 6496SOL    HW220388   3.184   2.075   1.711
 6497SOL     OW20389   0.251   1.283   0.570
 6497SOL    HW120390   0.237   1.259   0.474
 6497SOL    HW220391   0.209   1.372   0.589
 6498SOL     OW20392   1.049   4.528   3.805
 6498SOL    HW120393   1.132   4.475   3.821
 6498SOL    HW220394   1.047   4.607   3.866
 6499SOL     OW20395   4.732   2.853   3.550
 6499SOL    HW120396   4.721   2.940   3.502
 6499SOL    HW220397   4.752   2.781   3.483
 6500SOL     OW20398   1.210   4.406   2.679
 6500SOL    HW120399   1.280   4.361   2.622
 6500SOL    HW220400   1.123   4.358   2.669
 6501SOL     OW20401   5.792   1.757   2.181
 6501SOL    HW120402   5.740   1.672   2.181
 6501SOL    HW220403   5.835   1.769   2.091
 6502SOL     OW20404   7.005   3.319   2.308
 6502SOL    HW120405   0.027   3.393   2.360
 6502SOL    HW220406   6.908   3.313   2.331
 6503SOL     OW20407   6.831   3.664   5.760
 6503SOL    HW120408   6.747   3.697   5.802
 6503SOL    HW220409   6.847   3.569   5.788
 6504SOL     OW20410   4.317   6.115   6.363
 6504SOL    HW120411   4.314   6.191   6.298
 6504SOL    HW220412   4.401   6.062   6.349
 6505SOL     OW20413   0.300   5.675   0.454
 6505SOL    HW120414   0.322   5.593   0.507
 6505SOL    HW220415   0.380   5.702   0.400
 6506SOL     OW20416   0.326   3.621   2.113
 6506SOL    HW120417   0.413   3.577   2.091
 6506SOL    HW220418   0.252   3.556   2.102
 6507SOL     OW20419   3.536   5.111   0.250
 6507SOL    HW120420   3.476   5.188   0.272
 6507SOL    HW220421   3.575   5.125   0.158
 6508SOL     OW20422   0.879   0.089   2.992
 6508SOL    HW120423   0.957   0.134   3.035
 6508SOL    HW220424   0.797   0.144   3.006
 6509SOL     OW20425   2.243   1.865   6.974
 6509SOL    HW120426   2.238   1.798   6.900
 6509SOL    HW220427   2.338   1.883   6.997
 6510SOL     OW20428   3.095   6.193   5.655
 6510SOL    HW120429   3.114   6.096   5.664
 6510SOL    HW220430   3.087   6.235   5.745
 6511SOL     OW20431   3.382   1.483   0.809
 6511SOL    HW120432   3.385   1.469   0.908
 6511SOL    HW220433   3.418   1.574   0.788
 6512SOL     OW20434   3.527   1.480   0.143
 6512SOL    HW120435   3.595   1.489   0.070
 6512SOL    HW220436   3.435   1.493   0.104
 6513SOL     OW20437   2.917   4.780   3.076
 6513SOL    HW120438   2.988   4.779   3.147
 6513SOL    HW220439   2.948   4.836   2.999
 6514SOL     OW20440   5.255   6.480   5.527
 6514SOL    HW120441   5.237   6.522   5.438
 6514SOL    HW220442   5.168   6.457   5.571
 6515SOL     OW20443   0.991   5.004   2.221
 6515SOL    HW120444   0.974   5.025   2.125
 6515SOL    HW220445   0.906   5.011   2.272
 6516SOL     OW20446   6.104   3.326   1.601
 6516SOL    HW120447   6.198   3.312   1.570
 6516SOL    HW220448   6.064   3.239   1.629
 6517SOL     OW20449   0.088   3.487   0.625
 6517SOL    HW120450   0.024   3.514   0.553
 6517SOL    HW220451   0.089   3.556   0.697
 6518SOL     OW20452   0.424   1.583   2.697
 6518SOL    HW120453   0.488   1.513   2.730
 6518SOL    HW220454   0.458   1.620   2.611
 6519SOL     OW20455   1.162   1.596   3.195
 6519SOL    HW120456   1.261   1.611   3.192
 6519SOL    HW220457   1.135   1.561   3.285
 6520SOL     OW20458   0.163   5.376   0.511
 6520SOL    HW120459   0.083   5.338   0.463
 6520SOL    HW220460   0.233   5.400   0.444
 6521SOL     OW20461   1.436   3.649   3.454
 6521SOL    HW120462   1.476   3.698   3.531
 6521SOL    HW220463   1.482   3.676   3.370
 6522SOL     OW20464   2.715   2.967   5.373
 6522SOL    HW120465   2.643   3.019   5.328
 6522SOL    HW220466   2.804   3.008   5.351
 6523SOL     OW20467   6.111   0.196   0.675
 6523SOL    HW120468   6.188   0.260   0.676
 6523SOL    HW220469   6.123   0.132   0.599
 6524SOL     OW20470   2.749   2.974   0.923
 6524SOL    HW120471   2.807   2.893   0.929
 6524SOL    HW220472   2.778   3.042   0.990
 6525SOL     OW20473   0.948   5.053   3.442
 6525SOL    HW120474   1.002   4.970   3.429
 6525SOL    HW220475   0.970   5.120   3.371
 6526SOL     OW20476   0.830   5.880   0.304
 6526SOL    HW120477   0.843   5.966   0.255
 6526SOL    HW220478   0.887   5.809   0.262
 6527SOL     OW20479   6.562   1.951   7.011
 6527SOL    HW120480   6.567   1.863   0.037
 6527SOL    HW220481   6.473   1.961   6.967
 6528SOL     OW20482   4.070   6.814   6.416
 6528SOL    HW120483   4.130   6.776   6.346
 6528SOL    HW220484   4.122   6.831   6.500
 6529SOL     OW20485   5.751   0.893   2.481
 6529SOL    HW120486   5.741   0.971   2.420
 6529SOL    HW220487   5.674   0.830   2.468
 6530SOL     OW20488   0.327   3.281   2.835
 6530SOL    HW120489   0.376   3.311   2.754
 6530SOL    HW220490   0.299   3.360   2.889
 6531SOL     OW20491   3.565   4.172   5.012
 6531SOL    HW120492   3.537   4.240   5.080
 6531SOL    HW220493   3.497   4.098   5.009
 6532SOL     OW20494   1.317   0.151   0.437
 6532SOL    HW120495   1.361   0.159   0.526
 6532SOL    HW220496   1.347   0.066   0.393
 6533SOL     OW20497   4.935   3.891   1.230
 6533SOL    HW120498   4.956   3.911   1.325
 6533SOL    HW220499   4.889   3.970   1.189
 6534SOL     OW20500   0.238   4.167   3.173
 6534SOL    HW120501   0.214   4.255   3.214
 6534SOL    HW220502   0.155   4.121   3.143
 6535SOL     OW20503   4.833   2.887   5.204
 6535SOL    HW120504   4.788   2.849   5.285
 6535SOL    HW220505   4.904   2.951   5.232
 6536SOL     OW20506   0.867   4.520   5.186
 6536SOL    HW120507   0.855   4.475   5.097
 6536SOL    HW220508   0.953   4.490   5.226
 6537SOL     OW20509   6.155   5.365   3.903
 6537SOL    HW120510   6.145   5.286   3.843
 6537SOL    HW220511   6.250   5.373   3.932
 6538SOL     OW20512   1.814   2.931   5.730
 6538SOL    HW120513   1.742   2.920   5.662
 6538SOL    HW220514   1.895   2.971   5.687
 6539SOL     OW20515   5.106   0.551   6.077
 6539SOL    HW120516   5.101   0.638   6.029
 6539SOL    HW220517   5.014   0.525   6.107
 6540SOL     OW20518   6.593   2.738   5.716
 6540SOL    HW120519   6.586   2.815   5.781
 6540SOL    HW220520   6.523   2.749   5.645
 6541SOL     OW20521   5.951   1.445   5.295
 6541SOL    HW120522   6.029   1.468   5.352
 6541SOL    HW220523   5.966   1.357   5.250
 6542SOL     OW20524   1.570   4.430   3.063
 6542SOL    HW120525   1.601   4.453   3.155
 6542SOL    HW220526   1.616   4.488   2.996
 6543SOL     OW20527   3.650   1.510   4.460
 6543SOL    HW120528   3.586   1.434   4.449
 6543SOL    HW220529   3.624   1.563   4.540
 6544SOL     OW20530   1.078   6.549   1.590
 6544SOL    HW120531   1.072   6.628   1.651
 6544SOL    HW220532   1.163   6.554   1.538
 6545SOL     OW20533   4.442   6.484   0.536
 6545SOL    HW120534   4.403   6.555   0.478
 6545SOL    HW220535   4.511   6.524   0.597
 6546SOL     OW20536   4.766   3.920   6.260
 6546SOL    HW120537   4.830   3.984   6.302
 6546SOL    HW220538   4.755   3.840   6.318
 6547SOL     OW20539   0.379   5.704   6.149
 6547SOL    HW120540   0.443   5.687   6.074
 6547SOL    HW220541   0.341   5.617   6.181
 6548SOL     OW20542   0.034   1.115   5.455
 6548SOL    HW120543   6.989   1.190   5.467
 6548SOL    HW220544   0.112   1.147   5.400
 6549SOL     OW20545   4.494   1.562   2.360
 6549SOL    HW120546   4.412   1.529   2.312
 6549SOL    HW220547   4.574   1.550   2.301
 6550SOL     OW20548   5.851   6.303   3.139
 6550SOL    HW120549   5.922   6.363   3.178
 6550SOL    HW220550   5.855   6.214   3.183
 6551SOL     OW20551   3.451   4.264   0.889
 6551SOL    HW120552   3.376   4.221   0.939
 6551SOL    HW220553   3.430   4.267   0.791
 6552SOL     OW20554   1.829   5.570   0.309
 6552SOL    HW120555   1.767   5.510   0.361
 6552SOL    HW220556   1.846   5.530   0.219
 6553SOL     OW20557   0.934   1.284   3.839
 6553SOL    HW120558   0.842   1.263   3.872
 6553SOL    HW220559   0.958   1.378   3.864
 6554SOL     OW20560   1.837   1.662   4.276
 6554SOL    HW120561   1.834   1.759   4.301
 6554SOL    HW220562   1.758   1.641   4.218
 6555SOL     OW20563   6.277   3.475   3.806
 6555SOL    HW120564   6.374   3.473   3.830
 6555SOL    HW220565   6.256   3.396   3.748
 6556SOL     OW20566   4.845   3.137   2.611
 6556SOL    HW120567   4.938   3.168   2.592
 6556SOL    HW220568   4.780   3.208   2.583
 6557SOL     OW20569   2.162   0.416   2.015
 6557SOL    HW120570   2.261   0.423   2.025
 6557SOL    HW220571   2.118   0.459   2.095
 6558SOL     OW20572   5.734   6.151   6.181
 6558SOL    HW120573   5.648   6.160   6.130
 6558SOL    HW220574   5.723   6.081   6.252
 6559SOL     OW20575   6.826   2.513   6.168
 6559SOL    HW120576   6.802   2.590   6.108
 6559SOL    HW220577   6.780   2.524   6.256
 6560SOL     OW20578   5.386   4.689   0.101
 6560SOL    HW120579   5.365   4.785   0.079
 6560SOL    HW220580   5.358   4.670   0.195
 6561SOL     OW20581   3.517   4.519   6.830
 6561SOL    HW120582   3.583   4.472   6.771
 6561SOL    HW220583   3.558   4.602   6.867
 6562SOL     OW20584   5.404   2.470   1.248
 6562SOL    HW120585   5.480   2.405   1.240
 6562SOL    HW220586   5.438   2.558   1.280
 6563SOL     OW20587   5.339   5.385   4.956
 6563SOL    HW120588   5.297   5.337   5.033
 6563SOL    HW220589   5.295   5.357   4.871
 6564SOL     OW20590   6.372   3.245   3.101
 6564SOL    HW120591   6.469   3.242   3.076
 6564SOL    HW220592   6.322   3.298   3.033
 6565SOL     OW20593   5.284   0.434   3.061
 6565SOL    HW120594   5.319   0.345   3.032
 6565SOL    HW220595   5.243   0.481   2.983
 6566SOL     OW20596   4.763   5.966   2.890
 6566SOL    HW120597   4.725   5.876   2.868
 6566SOL    HW220598   4.689   6.027   2.919
 6567SOL     OW20599   3.879   0.446   1.141
 6567SOL    HW120600   3.957   0.508   1.146
 6567SOL    HW220601   3.796   0.493   1.173
 6568SOL     OW20602   4.627   1.791   0.772
 6568SOL    HW120603   4.589   1.802   0.864
 6568SOL    HW220604   4.562   1.740   0.715
 6569SOL     OW20605   0.764   4.424   4.940
 6569SOL    HW120606   0.738   4.355   4.872
 6569SOL    HW220607   0.715   4.509   4.921
 6570SOL     OW20608   4.421   0.367   1.932
 6570SOL    HW120609   4.488   0.293   1.931
 6570SOL    HW220610   4.329   0.329   1.930
 6571SOL     OW20611   3.564   5.036   2.886
 6571SOL    HW120612   3.546   5.132   2.908
 6571SOL    HW220613   3.592   4.987   2.968
 6572SOL     OW20614   1.311   5.568   4.279
 6572SOL    HW120615   1.404   5.530   4.278
 6572SOL    HW220616   1.264   5.543   4.195
 6573SOL     OW20617   1.580   1.379   3.564
 6573SOL    HW120618   1.522   1.310   3.520
 6573SOL    HW220619   1.667   1.386   3.515
 6574SOL     OW20620   1.865   5.647   2.438
 6574SOL    HW120621   1.903   5.622   2.528
 6574SOL    HW220622   1.771   5.615   2.431
 6575SOL     OW20623   0.035   1.461   3.013
 6575SOL    HW120624   0.032   1.560   3.027
 6575SOL    HW220625   0.029   1.415   3.101
 6576SOL     OW20626   4.718   5.544   0.739
 6576SOL    HW120627   4.814   5.574   0.739
 6576SOL    HW220628   4.715   5.445   0.736
 6577SOL     OW20629   3.320   0.867   3.652
 6577SOL    HW120630   3.296   0.771   3.670
 6577SOL    HW220631   3.369   0.904   3.731
 6578SOL     OW20632   1.617   4.827   1.317
 6578SOL    HW120633   1.588   4.741   1.275
 6578SOL    HW220634   1.543   4.893   1.311
 6579SOL     OW20635   6.633   0.877   4.076
 6579SOL    HW120636   6.713   0.930   4.104
 6579SOL    HW220637   6.662   0.800   4.019
 6580SOL     OW20638   2.478   1.631   0.223
 6580SOL    HW120639   2.461   1.724   0.254
 6580SOL    HW220640   2.393   1.578   0.226
 6581SOL     OW20641   0.422   1.769   1.038
 6581SOL    HW120642   0.453   1.742   1.129
 6581SOL    HW220643   0.322   1.777   1.038
 6582SOL     OW20644   6.607   1.321   3.016
 6582SOL    HW120645   6.516   1.362   3.010
 6582SOL    HW220646   6.636   1.319   3.112
 6583SOL     OW20647   3.872   5.381   6.796
 6583SOL    HW120648   3.773   5.396   6.795
 6583SOL    HW220649   3.903   5.362   6.703
 6584SOL     OW20650   3.771   2.506   0.329
 6584SOL    HW120651   3.761   2.602   0.304
 6584SOL    HW220652   3.760   2.495   0.427
 6585SOL     OW20653   5.701   6.618   1.208
 6585SOL    HW120654   5.786   6.587   1.248
 6585SOL    HW220655   5.632   6.628   1.280
 6586SOL     OW20656   0.001   1.731   6.849
 6586SOL    HW120657   6.962   1.803   6.885
 6586SOL    HW220658   6.977   1.642   6.861
 6587SOL     OW20659   1.621   4.690   5.553
 6587SOL    HW120660   1.601   4.592   5.548
 6587SOL    HW220661   1.719   4.705   5.538
 6588SOL     OW20662   6.756   2.799   0.597
 6588SOL    HW120663   6.736   2.703   0.618
 6588SOL    HW220664   6.850   2.807   0.565
 6589SOL     OW20665   6.882   0.304   2.142
 6589SOL    HW120666   6.810   0.349   2.195
 6589SOL    HW220667   6.967   0.302   2.196
 6590SOL     OW20668   1.299   6.342   3.712
 6590SOL    HW120669   1.253   6.313   3.797
 6590SOL    HW220670   1.395   6.312   3.715
 6591SOL     OW20671   5.813   3.904   3.976
 6591SOL    HW120672   5.803   3.819   4.027
 6591SOL    HW220673   5.801   3.981   4.038
 6592SOL     OW20674   6.205   6.877   3.262
 6592SOL    HW120675   6.270   6.826   3.317
 6592SOL    HW220676   6.142   6.814   3.217
 6593SOL     OW20677   2.571   1.511   2.105
 6593SOL    HW120678   2.541   1.436   2.047
 6593SOL    HW220679   2.647   1.480   2.163
 6594SOL     OW20680   5.391   0.498   6.181
 6594SOL    HW120681   5.303   0.505   6.134
 6594SOL    HW220682   5.385   0.431   6.254
 6595SOL     OW20683   0.787   1.981   5.434
 6595SOL    HW120684   0.731   2.045   5.486
 6595SOL    HW220685   0.804   2.018   5.342
 6596SOL     OW20686   5.607   0.153   2.561
 6596SOL    HW120687   5.528   0.093   2.554
 6596SOL    HW220688   5.604   0.201   2.649
 6597SOL     OW20689   1.121   4.454   2.181
 6597SOL    HW120690   1.117   4.358   2.154
 6597SOL    HW220691   1.101   4.463   2.278
 6598SOL     OW20692   1.497   4.283   4.165
 6598SOL    HW120693   1.468   4.285   4.261
 6598SOL    HW220694   1.489   4.375   4.126
 6599SOL     OW20695   6.104   5.663   6.392
 6599SOL    HW120696   6.054   5.680   6.477
 6599SOL    HW220697   6.046   5.612   6.329
 6600SOL     OW20698   4.384   0.519   5.229
 6600SOL    HW120699   4.452   0.526   5.156
 6600SOL    HW220700   4.385   0.604   5.283
 6601SOL     OW20701   1.630   2.316   1.458
 6601SOL    HW120702   1.708   2.339   1.400
 6601SOL    HW220703   1.621   2.217   1.464
 6602SOL     OW20704   1.159   5.949   1.835
 6602SOL    HW120705   1.221   6.016   1.793
 6602SOL    HW220706   1.066   5.967   1.804
 6603SOL     OW20707   0.090   3.314   3.192
 6603SOL    HW120708   0.140   3.385   3.143
 6603SOL    HW220709   0.105   3.323   3.290
 6604SOL     OW20710   2.366   6.382   2.911
 6604SOL    HW120711   2.447   6.366   2.969
 6604SOL    HW220712   2.326   6.295   2.885
 6605SOL     OW20713   6.981   5.452   1.128
 6605SOL    HW120714   0.024   5.380   1.156
 6605SOL    HW220715   6.913   5.415   1.065
 6606SOL     OW20716   1.613   3.010   3.229
 6606SOL    HW120717   1.558   3.091   3.246
 6606SOL    HW220718   1.707   3.027   3.260
 6607SOL     OW20719   6.019   3.908   3.443
 6607SOL    HW120720   6.064   3.821   3.422
 6607SOL    HW220721   6.057   3.946   3.527
 6608SOL     OW20722   1.133   5.863   6.165
 6608SOL    HW120723   1.041   5.876   6.200
 6608SOL    HW220724   1.129   5.822   6.074
 6609SOL     OW20725   4.846   1.475   6.364
 6609SOL    HW120726   4.772   1.525   6.408
 6609SOL    HW220727   4.811   1.387   6.330
 6610SOL     OW20728   2.764   5.286   0.771
 6610SOL    HW120729   2.856   5.301   0.736
 6610SOL    HW220730   2.767   5.216   0.842
 6611SOL     OW20731   3.883   1.680   4.529
 6611SOL    HW120732   3.970   1.633   4.539
 6611SOL    HW220733   3.814   1.617   4.493
 6612SOL     OW20734   0.524   0.733   6.333
 6612SOL    HW120735   0.462   0.725   6.412
 6612SOL    HW220736   0.610   0.773   6.362
 6613SOL     OW20737   4.689   6.689   0.305
 6613SOL    HW120738   4.680   6.704   0.207
 6613SOL    HW220739   4.682   6.777   0.353
 6614SOL     OW20740   4.251   5.609   0.998
 6614SOL    HW120741   4.193   5.650   0.927
 6614SOL    HW220742   4.305   5.680   1.042
 6615SOL     OW20743   3.722   4.723   6.093
 6615SOL    HW120744   3.662   4.754   6.019
 6615SOL    HW220745   3.705   4.626   6.111
 6616SOL     OW20746   3.803   1.280   6.009
 6616SOL    HW120747   3.869   1.217   5.967
 6616SOL    HW220748   3.771   1.345   5.940
 6617SOL     OW20749   4.033   0.427   4.023
 6617SOL    HW120750   4.030   0.328   4.039
 6617SOL    HW220751   4.122   0.462   4.049
 6618SOL     OW20752   6.582   2.709   4.149
 6618SOL    HW120753   6.533   2.636   4.197
 6618SOL    HW220754   6.607   2.677   4.057
 6619SOL     OW20755   4.480   6.213   4.232
 6619SOL    HW120756   4.566   6.166   4.214
 6619SOL    HW220757   4.417   6.198   4.156
 6620SOL     OW20758   0.649   3.221   3.425
 6620SOL    HW120759   0.636   3.270   3.338
 6620SOL    HW220760   0.714   3.146   3.412
 6621SOL     OW20761   3.950   3.329   4.793
 6621SOL    HW120762   3.871   3.270   4.778
 6621SOL    HW220763   3.970   3.333   4.891
 6622SOL     OW20764   0.613   5.620   1.182
 6622SOL    HW120765   0.638   5.671   1.100
 6622SOL    HW220766   0.574   5.532   1.155
 6623SOL     OW20767   3.085   3.540   5.563
 6623SOL    HW120768   3.112   3.553   5.468
 6623SOL    HW220769   3.151   3.585   5.623
 6624SOL     OW20770   2.134   1.629   3.389
 6624SOL    HW120771   2.137   1.572   3.307
 6624SOL    HW220772   2.042   1.666   3.401
 6625SOL     OW20773   5.987   4.006   5.935
 6625SOL    HW120774   5.926   3.962   6.001
 6625SOL    HW220775   5.965   3.976   5.843
 6626SOL     OW20776   2.669   5.936   5.313
 6626SOL    HW120777   2.697   5.982   5.396
 6626SOL    HW220778   2.603   5.993   5.264
 6627SOL     OW20779   1.759   6.143   4.395
 6627SOL    HW120780   1.712   6.060   4.426
 6627SOL    HW220781   1.857   6.127   4.394
 6628SOL     OW20782   3.735   6.157   4.657
 6628SOL    HW120783   3.643   6.118   4.661
 6628SOL    HW220784   3.763   6.185   4.749
 6629SOL     OW20785   4.619   6.246   6.503
 6629SOL    HW120786   4.684   6.216   6.573
 6629SOL    HW220787   4.651   6.331   6.461
 6630SOL     OW20788   1.514   0.814   0.519
 6630SOL    HW120789   1.424   0.856   0.526
 6630SOL    HW220790   1.527   0.750   0.596
 6631SOL     OW20791   1.749   3.740   6.035
 6631SOL    HW120792   1.682   3.667   6.020
 6631SOL    HW220793   1.765   3.790   5.950
 6632SOL     OW20794   1.078   0.507   0.681
 6632SOL    HW120795   1.177   0.515   0.686
 6632SOL    HW220796   1.036   0.553   0.760
 6633SOL     OW20797   3.576   5.637   5.716
 6633SOL    HW120798   3.514   5.624   5.639
 6633SOL    HW220799   3.614   5.549   5.744
 6634SOL     OW20800   4.077   1.540   4.069
 6634SOL    HW120801   3.994   1.547   4.124
 6634SOL    HW220802   4.089   1.625   4.016
 6635SOL     OW20803   4.886   5.046   3.986
 6635SOL    HW120804   4.861   4.966   3.931
 6635SOL    HW220805   4.975   5.030   4.030
 6636SOL     OW20806   3.864   0.726   6.653
 6636SOL    HW120807   3.818   0.764   6.573
 6636SOL    HW220808   3.799   0.718   6.728
 6637SOL     OW20809   1.045   1.712   1.331
 6637SOL    HW120810   1.119   1.775   1.308
 6637SOL    HW220811   0.978   1.759   1.388
 6638SOL     OW20812   3.213   3.646   3.660
 6638SOL    HW120813   3.144   3.574   3.656
 6638SOL    HW220814   3.286   3.625   3.595
 6639SOL     OW20815   4.695   2.371   1.124
 6639SOL    HW120816   4.648   2.283   1.132
 6639SOL    HW220817   4.671   2.429   1.202
 6640SOL     OW20818   1.936   3.596   5.017
 6640SOL    HW120819   1.907   3.510   4.975
 6640SOL    HW220820   2.018   3.630   4.970
 6641SOL     OW20821   4.952   2.121   1.720
 6641SOL    HW120822   4.922   2.217   1.716
 6641SOL    HW220823   4.881   2.063   1.679
 6642SOL     OW20824   1.121   5.820   6.937
 6642SOL    HW120825   1.157   5.870   6.858
 6642SOL    HW220826   1.072   5.884   6.997
 6643SOL     OW20827   3.897   5.338   6.479
 6643SOL    HW120828   3.963   5.264   6.491
 6643SOL    HW220829   3.941   5.415   6.434
 6644SOL     OW20830   1.922   6.593   3.579
 6644SOL    HW120831   1.890   6.678   3.619
 6644SOL    HW220832   1.990   6.551   3.639
 6645SOL     OW20833   5.839   2.624   0.580
 6645SOL    HW120834   5.740   2.610   0.584
 6645SOL    HW220835   5.862   2.712   0.623
 6646SOL     OW20836   4.282   6.808   5.812
 6646SOL    HW120837   4.286   6.770   5.719
 6646SOL    HW220838   4.283   6.908   5.806
 6647SOL     OW20839   4.230   5.325   0.771
 6647SOL    HW120840   4.278   5.340   0.858
 6647SOL    HW220841   4.246   5.232   0.739
 6648SOL     OW20842   3.032   6.288   5.893
 6648SOL    HW120843   2.995   6.381   5.891
 6648SOL    HW220844   2.998   6.241   5.974
 6649SOL     OW20845   5.165   3.463   6.790
 6649SOL    HW120846   5.238   3.461   6.859
 6649SOL    HW220847   5.199   3.426   6.704
 6650SOL     OW20848   2.118   1.642   4.813
 6650SOL    HW120849   2.075   1.722   4.773
 6650SOL    HW220850   2.193   1.612   4.754
 6651SOL     OW20851   6.596   2.032   6.403
 6651SOL    HW120852   6.513   1.976   6.412
 6651SOL    HW220853   6.660   1.987   6.341
 6652SOL     OW20854   0.071   4.684   0.558
 6652SOL    HW120855   0.102   4.607   0.502
 6652SOL    HW220856   6.992   4.691   0.555
 6653SOL     OW20857   5.566   4.698   0.382
 6653SOL    HW120858   5.601   4.735   0.468
 6653SOL    HW220859   5.642   4.659   0.329
 6654SOL     OW20860   6.389   4.136   3.269
 6654SOL    HW120861   6.313   4.182   3.314
 6654SOL    HW220862   6.370   4.130   3.171
 6655SOL     OW20863   6.949   5.036   2.052
 6655SOL    HW120864   7.001   5.076   2.127
 6655SOL    HW220865   6.944   4.937   2.063
 6656SOL     OW20866   4.775   1.408   3.102
 6656SOL    HW120867   4.762   1.506   3.087
 6656SOL    HW220868   4.864   1.393   3.146
 6657SOL     OW20869   5.300   2.101   3.630
 6657SOL    HW120870   5.305   2.190   3.585
 6657SOL    HW220871   5.301   2.028   3.562
 6658SOL     OW20872   6.753   5.833   5.385
 6658SOL    HW120873   6.704   5.792   5.462
 6658SOL    HW220874   6.718   5.795   5.299
 6659SOL     OW20875   1.037   5.328   2.043
 6659SOL    HW120876   1.020   5.426   2.033
 6659SOL    HW220877   1.059   5.288   1.954
 6660SOL     OW20878   6.679   6.553   3.781
 6660SOL    HW120879   6.587   6.592   3.774
 6660SOL    HW220880   6.717   6.572   3.871
 6661SOL     OW20881   3.665   5.795   4.209
 6661SOL    HW120882   3.716   5.849   4.142
 6661SOL    HW220883   3.625   5.715   4.164
 6662SOL     OW20884   4.082   6.493   2.010
 6662SOL    HW120885   3.994   6.509   2.053
 6662SOL    HW220886   4.107   6.396   2.020
 6663SOL     OW20887   1.283   3.694   5.944
 6663SOL    HW120888   1.203   3.677   6.002
 6663SOL    HW220889   1.365   3.703   6.002
 6664SOL     OW20890   2.997   0.104   1.046
 6664SOL    HW120891   3.053   0.135   0.969
 6664SOL    HW220892   2.980   0.006   1.036
 6665SOL     OW20893   2.346   0.913   6.277
 6665SOL    HW120894   2.335   0.839   6.210
 6665SOL    HW220895   2.398   0.988   6.235
 6666SOL     OW20896   3.874   6.340   5.347
 6666SOL    HW120897   3.825   6.423   5.372
 6666SOL    HW220898   3.973   6.356   5.352
 6667SOL     OW20899   0.190   6.548   6.752
 6667SOL    HW120900   0.170   6.470   6.693
 6667SOL    HW220901   0.220   6.515   6.841
 6668SOL     OW20902   0.285   5.127   0.577
 6668SOL    HW120903   0.252   5.216   0.609
 6668SOL    HW220904   0.215   5.085   0.519
 6669SOL     OW20905   1.441   1.154   3.424
 6669SOL    HW120906   1.423   1.129   3.329
 6669SOL    HW220907   1.493   1.081   3.469
 6670SOL     OW20908   3.932   2.430   1.024
 6670SOL    HW120909   3.948   2.453   1.120
 6670SOL    HW220910   3.986   2.490   0.965
 6671SOL     OW20911   4.622   5.694   0.539
 6671SOL    HW120912   4.526   5.721   0.543
 6671SOL    HW220913   4.647   5.648   0.624
 6672SOL     OW20914   1.766   2.340   1.189
 6672SOL    HW120915   1.848   2.296   1.153
 6672SOL    HW220916   1.686   2.306   1.139
 6673SOL     OW20917   5.990   3.351   4.225
 6673SOL    HW120918   5.902   3.398   4.216
 6673SOL    HW220919   6.054   3.391   4.159
 6674SOL     OW20920   0.240   1.503   0.212
 6674SOL    HW120921   0.194   1.588   0.186
 6674SOL    HW220922   0.322   1.525   0.264
 6675SOL     OW20923   5.453   1.576   6.627
 6675SOL    HW120924   5.524   1.505   6.629
 6675SOL    HW220925   5.369   1.537   6.589
 6676SOL     OW20926   1.125   3.570   3.508
 6676SOL    HW120927   1.093   3.531   3.594
 6676SOL    HW220928   1.221   3.598   3.518
 6677SOL     OW20929   0.681   1.577   0.252
 6677SOL    HW120930   0.690   1.490   0.203
 6677SOL    HW220931   0.605   1.572   0.316
 6678SOL     OW20932   1.914   4.008   6.781
 6678SOL    HW120933   1.928   3.953   6.699
 6678SOL    HW220934   1.817   4.030   6.790
 6679SOL     OW20935   1.942   0.891   4.234
 6679SOL    HW120936   1.846   0.887   4.261
 6679SOL    HW220937   1.979   0.799   4.226
 6680SOL     OW20938   5.825   6.914   1.270
 6680SOL    HW120939   5.871   6.862   1.198
 6680SOL    HW220940   5.849   6.876   1.359
 6681SOL     OW20941   3.432   5.852   1.710
 6681SOL    HW120942   3.437   5.757   1.741
 6681SOL    HW220943   3.480   5.862   1.623
 6682SOL     OW20944   3.343   4.990   5.933
 6682SOL    HW120945   3.257   5.023   5.972
 6682SOL    HW220946   3.411   4.981   6.006
 6683SOL     OW20947   6.777   3.836   6.430
 6683SOL    HW120948   6.792   3.934   6.413
 6683SOL    HW220949   6.826   3.809   6.513
 6684SOL     OW20950   2.929   6.075   0.228
 6684SOL    HW120951   2.857   6.110   0.168
 6684SOL    HW220952   2.899   6.083   0.323
 6685SOL     OW20953   5.168   3.628   0.056
 6685SOL    HW120954   5.187   3.620   6.978
 6685SOL    HW220955   5.203   3.548   0.103
 6686SOL     OW20956   4.746   5.043   4.328
 6686SOL    HW120957   4.728   4.958   4.378
 6686SOL    HW220958   4.733   5.027   4.230
 6687SOL     OW20959   6.397   2.080   2.087
 6687SOL    HW120960   6.490   2.086   2.052
 6687SOL    HW220961   6.390   2.134   2.171
 6688SOL     OW20962   4.485   5.343   0.588
 6688SOL    HW120963   4.537   5.426   0.572
 6688SOL    HW220964   4.518   5.297   0.670
 6689SOL     OW20965   2.064   4.706   5.765
 6689SOL    HW120966   2.159   4.710   5.734
 6689SOL    HW220967   2.050   4.774   5.838
 6690SOL     OW20968   0.858   6.902   5.723
 6690SOL    HW120969   0.888   6.934   5.633
 6690SOL    HW220970   0.815   6.977   5.772
 6691SOL     OW20971   2.518   2.361   2.579
 6691SOL    HW120972   2.608   2.322   2.562
 6691SOL    HW220973   2.451   2.287   2.585
 6692SOL     OW20974   4.664   4.826   1.855
 6692SOL    HW120975   4.656   4.786   1.946
 6692SOL    HW220976   4.719   4.909   1.859
 6693SOL     OW20977   4.177   1.562   4.586
 6693SOL    HW120978   4.269   1.600   4.599
 6693SOL    HW220979   4.184   1.468   4.552
 6694SOL     OW20980   3.378   4.131   1.834
 6694SOL    HW120981   3.288   4.147   1.793
 6694SOL    HW220982   3.437   4.209   1.815
 6695SOL     OW20983   1.830   2.104   6.451
 6695SOL    HW120984   1.866   2.195   6.472
 6695SOL    HW220985   1.831   2.090   6.353
 6696SOL     OW20986   4.103   3.568   4.443
 6696SOL    HW120987   4.131   3.486   4.492
 6696SOL    HW220988   4.097   3.548   4.345
 6697SOL     OW20989   4.171   2.276   2.818
 6697SOL    HW120990   4.081   2.277   2.774
 6697SOL    HW220991   4.220   2.192   2.792
 6698SOL     OW20992   3.448   4.088   1.399
 6698SOL    HW120993   3.466   4.036   1.482
 6698SOL    HW220994   3.512   4.059   1.327
 6699SOL     OW20995   1.076   4.217   5.817
 6699SOL    HW120996   1.138   4.139   5.828
 6699SOL    HW220997   0.990   4.186   5.777
 6700SOL     OW20998   5.747   6.940   6.901
 6700SOL    HW120999   5.719   0.003   6.853
 6700SOL    HW221000   5.784   6.874   6.836
 6701SOL     OW21001   5.833   0.412   1.297
 6701SOL    HW121002   5.918   0.388   1.250
 6701SOL    HW221003   5.777   0.470   1.237
 6702SOL     OW21004   3.212   2.817   1.230
 6702SOL    HW121005   3.129   2.843   1.280
 6702SOL    HW221006   3.193   2.737   1.173
 6703SOL     OW21007   0.267   1.345   0.009
 6703SOL    HW121008   0.360   1.337   6.994
 6703SOL    HW221009   0.260   1.426   0.067
 6704SOL     OW21010   3.118   0.260   6.060
 6704SOL    HW121011   3.156   0.255   5.968
 6704SOL    HW221012   3.179   0.212   6.124
 6705SOL     OW21013   6.350   3.877   2.339
 6705SOL    HW121014   6.305   3.827   2.265
 6705SOL    HW221015   6.298   3.864   2.423
 6706SOL     OW21016   0.397   6.889   1.719
 6706SOL    HW121017   0.386   6.898   1.620
 6706SOL    HW221018   0.335   6.953   1.765
 6707SOL     OW21019   5.253   0.299   2.143
 6707SOL    HW121020   5.193   0.318   2.221
 6707SOL    HW221021   5.219   0.347   2.062
 6708SOL     OW21022   0.683   4.189   1.095
 6708SOL    HW121023   0.744   4.111   1.109
 6708SOL    HW221024   0.738   4.269   1.070
 6709SOL     OW21025   1.809   5.011   2.758
 6709SOL    HW121026   1.753   5.069   2.699
 6709SOL    HW221027   1.835   4.928   2.708
 6710SOL     OW21028   4.275   1.092   0.560
 6710SOL    HW121029   4.339   1.031   0.606
 6710SOL    HW221030   4.319   1.180   0.543
 6711SOL     OW21031   3.507   5.586   6.374
 6711SOL    HW121032   3.476   5.501   6.416
 6711SOL    HW221033   3.560   5.566   6.292
 6712SOL     OW21034   6.075   3.585   1.483
 6712SOL    HW121035   6.073   3.493   1.524
 6712SOL    HW221036   6.011   3.644   1.531
 6713SOL     OW21037   1.562   6.093   4.897
 6713SOL    HW121038   1.474   6.055   4.869
 6713SOL    HW221039   1.627   6.018   4.914
 6714SOL     OW21040   4.798   1.535   1.187
 6714SOL    HW121041   4.869   1.561   1.252
 6714SOL    HW221042   4.740   1.464   1.227
 6715SOL     OW21043   1.396   0.866   0.130
 6715SOL    HW121044   1.471   0.926   0.103
 6715SOL    HW221045   1.351   0.903   0.211
 6716SOL     OW21046   0.119   5.434   2.971
 6716SOL    HW121047   0.085   5.453   3.063
 6716SOL    HW221048   0.077   5.499   2.907
 6717SOL     OW21049   4.873   2.147   5.401
 6717SOL    HW121050   4.941   2.209   5.442
 6717SOL    HW221051   4.845   2.079   5.469
 6718SOL     OW21052   3.939   0.946   1.707
 6718SOL    HW121053   3.857   0.920   1.759
 6718SOL    HW221054   3.936   1.045   1.690
 6719SOL     OW21055   1.948   0.697   0.154
 6719SOL    HW121056   1.863   0.693   0.102
 6719SOL    HW221057   1.929   0.729   0.247
 6720SOL     OW21058   1.653   0.201   6.361
 6720SOL    HW121059   1.733   0.259   6.369
 6720SOL    HW221060   1.633   0.159   6.450
 6721SOL     OW21061   6.562   1.705   0.098
 6721SOL    HW121062   6.478   1.686   0.148
 6721SOL    HW221063   6.599   1.620   0.062
 6722SOL     OW21064   6.219   3.270   0.384
 6722SOL    HW121065   6.168   3.186   0.364
 6722SOL    HW221066   6.228   3.281   0.483
 6723SOL     OW21067   1.226   2.182   6.108
 6723SOL    HW121068   1.185   2.114   6.170
 6723SOL    HW221069   1.206   2.273   6.143
 6724SOL     OW21070   2.093   3.570   5.411
 6724SOL    HW121071   2.176   3.617   5.441
 6724SOL    HW221072   2.107   3.534   5.318
 6725SOL     OW21073   5.048   2.574   3.976
 6725SOL    HW121074   4.979   2.506   3.952
 6725SOL    HW221075   5.048   2.647   3.908
 6726SOL     OW21076   0.138   0.741   5.724
 6726SOL    HW121077   0.160   0.668   5.659
 6726SOL    HW221078   0.066   0.799   5.685
 6727SOL     OW21079   1.034   4.834   5.482
 6727SOL    HW121080   0.982   4.851   5.566
 6727SOL    HW221081   1.132   4.833   5.504
 6728SOL     OW21082   3.368   2.070   3.798
 6728SOL    HW121083   3.439   2.016   3.843
 6728SOL    HW221084   3.401   2.101   3.709
 6729SOL     OW21085   4.889   1.347   2.240
 6729SOL    HW121086   4.824   1.420   2.263
 6729SOL    HW221087   4.924   1.361   2.147
 6730SOL     OW21088   0.620   1.512   1.949
 6730SOL    HW121089   0.540   1.565   1.977
 6730SOL    HW221090   0.622   1.504   1.849
 6731SOL     OW21091   4.066   6.598   6.647
 6731SOL    HW121092   4.067   6.662   6.570
 6731SOL    HW221093   3.973   6.564   6.660
 6732SOL     OW21094   0.081   5.716   4.420
 6732SOL    HW121095   0.036   5.634   4.384
 6732SOL    HW221096   0.023   5.759   4.489
 6733SOL     OW21097   4.946   5.375   6.369
 6733SOL    HW121098   4.888   5.451   6.401
 6733SOL    HW221099   4.975   5.393   6.275
 6734SOL     OW21100   6.460   1.431   4.217
 6734SOL    HW121101   6.530   1.483   4.266
 6734SOL    HW221102   6.476   1.333   4.229
 6735SOL     OW21103   6.164   2.930   3.698
 6735SOL    HW121104   6.078   2.935   3.647
 6735SOL    HW221105   6.151   2.969   3.790
 6736SOL     OW21106   3.453   3.787   0.882
 6736SOL    HW121107   3.371   3.735   0.857
 6736SOL    HW221108   3.478   3.847   0.806
 6737SOL     OW21109   0.229   3.724   0.723
 6737SOL    HW121110   0.292   3.656   0.684
 6737SOL    HW221111   0.199   3.787   0.651
 6738SOL     OW21112   1.586   5.544   3.861
 6738SOL    HW121113   1.586   5.468   3.796
 6738SOL    HW221114   1.510   5.532   3.925
 6739SOL     OW21115   6.295   0.074   4.600
 6739SOL    HW121116   6.233   7.016   4.601
 6739SOL    HW221117   6.242   0.158   4.584
 6740SOL     OW21118   0.414   6.742   3.753
 6740SOL    HW121119   0.433   6.773   3.659
 6740SOL    HW221120   0.446   6.648   3.764
 6741SOL     OW21121   4.380   1.895   6.416
 6741SOL    HW121122   4.458   1.914   6.475
 6741SOL    HW221123   4.402   1.820   6.354
 6742SOL     OW21124   5.630   4.661   3.484
 6742SOL    HW121125   5.599   4.722   3.558
 6742SOL    HW221126   5.590   4.571   3.496
 6743SOL     OW21127   4.344   4.068   0.508
 6743SOL    HW121128   4.374   4.138   0.573
 6743SOL    HW221129   4.399   3.986   0.520
 6744SOL     OW21130   0.320   5.985   6.057
 6744SOL    HW121131   0.249   6.028   6.112
 6744SOL    HW221132   0.343   5.896   6.096
 6745SOL     OW21133   6.900   5.426   4.839
 6745SOL    HW121134   6.920   5.474   4.753
 6745SOL    HW221135   6.981   5.376   4.868
 6746SOL     OW21136   1.542   2.034   2.287
 6746SOL    HW121137   1.469   1.995   2.343
 6746SOL    HW221138   1.590   2.104   2.339
 6747SOL     OW21139   1.604   6.497   5.858
 6747SOL    HW121140   1.665   6.571   5.827
 6747SOL    HW221141   1.579   6.513   5.954
 6748SOL     OW21142   1.987   0.969   4.581
 6748SOL    HW121143   2.053   0.894   4.579
 6748SOL    HW221144   2.016   1.040   4.517
 6749SOL     OW21145   3.579   5.115   1.239
 6749SOL    HW121146   3.558   5.199   1.289
 6749SOL    HW221147   3.558   5.036   1.297
 6750SOL     OW21148   3.398   0.976   5.218
 6750SOL    HW121149   3.407   1.072   5.192
 6750SOL    HW221150   3.302   0.954   5.233
 6751SOL     OW21151   4.333   0.442   3.957
 6751SOL    HW121152   4.290   0.352   3.956
 6751SOL    HW221153   4.394   0.450   4.035
 6752SOL     OW21154   2.352   5.891   2.017
 6752SOL    HW121155   2.372   5.797   2.045
 6752SOL    HW221156   2.285   5.931   2.079
 6753SOL     OW21157   4.035   3.174   5.623
 6753SOL    HW121158   4.029   3.086   5.670
 6753SOL    HW221159   4.095   3.236   5.675
 6754SOL     OW21160   6.077   2.179   1.133
 6754SOL    HW121161   6.041   2.185   1.226
 6754SOL    HW221162   6.163   2.231   1.127
 6755SOL     OW21163   2.658   5.513   6.298
 6755SOL    HW121164   2.612   5.543   6.382
 6755SOL    HW221165   2.757   5.519   6.311
 6756SOL     OW21166   2.680   2.229   5.191
 6756SOL    HW121167   2.677   2.329   5.190
 6756SOL    HW221168   2.773   2.197   5.177
 6757SOL     OW21169   3.373   6.613   0.189
 6757SOL    HW121170   3.362   6.667   0.272
 6757SOL    HW221171   3.287   6.610   0.139
 6758SOL     OW21172   6.131   2.332   2.655
 6758SOL    HW121173   6.082   2.307   2.738
 6758SOL    HW221174   6.105   2.425   2.628
 6759SOL     OW21175   0.938   2.947   2.695
 6759SOL    HW121176   0.935   2.882   2.618
 6759SOL    HW221177   0.876   2.916   2.767
 6760SOL     OW21178   5.561   2.416   2.985
 6760SOL    HW121179   5.592   2.321   2.996
 6760SOL    HW221180   5.469   2.425   3.021
 6761SOL     OW21181   4.242   2.087   4.890
 6761SOL    HW121182   4.228   2.175   4.845
 6761SOL    HW221183   4.239   2.014   4.822
 6762SOL     OW21184   6.895   5.736   3.942
 6762SOL    HW121185   6.938   5.737   3.851
 6762SOL    HW221186   6.949   5.792   4.004
 6763SOL     OW21187   5.027   5.476   5.384
 6763SOL    HW121188   4.971   5.558   5.386
 6763SOL    HW221189   4.997   5.416   5.310
 6764SOL     OW21190   1.797   5.353   0.978
 6764SOL    HW121191   1.881   5.350   1.032
 6764SOL    HW221192   1.720   5.320   1.034
 6765SOL     OW21193   6.573   5.281   2.969
 6765SOL    HW121194   6.522   5.216   3.026
 6765SOL    HW221195   6.591   5.240   2.880
 6766SOL     OW21196   5.388   0.603   0.250
 6766SOL    HW121197   5.384   0.582   0.348
 6766SOL    HW221198   5.322   0.676   0.229
 6767SOL     OW21199   2.973   0.375   0.682
 6767SOL    HW121200   3.000   0.382   0.586
 6767SOL    HW221201   3.043   0.415   0.740
 6768SOL     OW21202   1.473   0.602   1.063
 6768SOL    HW121203   1.419   0.585   0.981
 6768SOL    HW221204   1.468   0.699   1.087
 6769SOL     OW21205   4.094   2.799   1.556
 6769SOL    HW121206   4.066   2.861   1.629
 6769SOL    HW221207   4.075   2.841   1.467
 6770SOL     OW21208   6.861   0.587   1.881
 6770SOL    HW121209   6.955   0.554   1.867
 6770SOL    HW221210   6.839   0.582   1.978
 6771SOL     OW21211   3.938   2.057   3.490
 6771SOL    HW121212   4.011   1.997   3.519
 6771SOL    HW221213   3.909   2.032   3.397
 6772SOL     OW21214   3.066   1.903   2.825
 6772SOL    HW121215   2.995   1.941   2.885
 6772SOL    HW221216   3.023   1.843   2.758
 6773SOL     OW21217   6.920   4.443   2.421
 6773SOL    HW121218   6.986   4.392   2.365
 6773SOL    HW221219   6.959   4.532   2.444
 6774SOL     OW21220   0.580   1.856   6.953
 6774SOL    HW121221   0.488   1.818   6.966
 6774SOL    HW221222   0.612   1.896   0.018
 6775SOL     OW21223   2.622   4.616   1.111
 6775SOL    HW121224   2.548   4.552   1.089
 6775SOL    HW221225   2.626   4.688   1.042
 6776SOL     OW21226   5.971   5.175   0.006
 6776SOL    HW121227   6.012   5.237   0.073
 6776SOL    HW221228   5.956   5.085   0.048
 6777SOL     OW21229   4.646   4.568   6.410
 6777SOL    HW121230   4.559   4.528   6.380
 6777SOL    HW221231   4.633   4.615   6.497
 6778SOL     OW21232   1.020   5.228   2.991
 6778SOL    HW121233   1.080   5.287   2.936
 6778SOL    HW221234   0.925   5.244   2.966
 6779SOL     OW21235   0.243   5.100   0.242
 6779SOL    HW121236   0.292   5.054   0.167
 6779SOL    HW221237   0.251   5.199   0.231
 6780SOL     OW21238   0.186   2.329   2.458
 6780SOL    HW121239   0.194   2.256   2.525
 6780SOL    HW221240   0.255   2.399   2.477
 6781SOL     OW21241   5.117   6.022   6.031
 6781SOL    HW121242   5.145   6.081   6.107
 6781SOL    HW221243   5.021   5.997   6.041
 6782SOL     OW21244   6.969   1.578   2.779
 6782SOL    HW121245   6.973   1.524   2.863
 6782SOL    HW221246   0.020   1.648   2.780
 6783SOL     OW21247   0.161   6.322   6.599
 6783SOL    HW121248   0.158   6.278   6.509
 6783SOL    HW221249   0.121   6.262   6.668
 6784SOL     OW21250   3.657   3.478   0.438
 6784SOL    HW121251   3.602   3.522   0.509
 6784SOL    HW221252   3.637   3.380   0.437
 6785SOL     OW21253   5.634   6.062   2.204
 6785SOL    HW121254   5.561   6.124   2.177
 6785SOL    HW221255   5.596   5.986   2.257
 6786SOL     OW21256   1.559   2.961   6.380
 6786SOL    HW121257   1.594   3.043   6.336
 6786SOL    HW221258   1.593   2.880   6.332
 6787SOL     OW21259   1.364   3.760   2.192
 6787SOL    HW121260   1.381   3.664   2.210
 6787SOL    HW221261   1.340   3.773   2.096
 6788SOL     OW21262   3.136   3.746   1.168
 6788SOL    HW121263   3.182   3.818   1.220
 6788SOL    HW221264   3.105   3.674   1.230
 6789SOL     OW21265   0.826   6.766   2.368
 6789SOL    HW121266   0.843   6.689   2.429
 6789SOL    HW221267   0.894   6.766   2.294
 6790SOL     OW21268   1.768   3.051   6.924
 6790SOL    HW121269   1.669   3.040   6.926
 6790SOL    HW221270   1.811   2.962   6.912
 6791SOL     OW21271   4.422   2.945   6.685
 6791SOL    HW121272   4.476   3.022   6.652
 6791SOL    HW221273   4.427   2.869   6.620
 6792SOL     OW21274   6.171   6.469   0.371
 6792SOL    HW121275   6.126   6.551   0.337
 6792SOL    HW221276   6.259   6.457   0.325
 6793SOL     OW21277   1.279   2.595   1.138
 6793SOL    HW121278   1.194   2.636   1.104
 6793SOL    HW221279   1.266   2.496   1.147
 6794SOL     OW21280   4.923   1.186   5.066
 6794SOL    HW121281   4.925   1.209   4.969
 6794SOL    HW221282   5.016   1.169   5.098
 6795SOL     OW21283   3.045   5.719   0.327
 6795SOL    HW121284   2.972   5.771   0.371
 6795SOL    HW221285   3.007   5.635   0.288
 6796SOL     OW21286   5.083   1.508   2.862
 6796SOL    HW121287   5.034   1.591   2.836
 6796SOL    HW221288   5.148   1.528   2.935
 6797SOL     OW21289   5.754   3.539   1.986
 6797SOL    HW121290   5.785   3.496   1.901
 6797SOL    HW221291   5.762   3.638   1.978
 6798SOL     OW21292   4.987   5.795   2.587
 6798SOL    HW121293   4.912   5.735   2.560
 6798SOL    HW221294   4.998   5.867   2.519
 6799SOL     OW21295   5.307   5.928   0.298
 6799SOL    HW121296   5.351   5.851   0.343
 6799SOL    HW221297   5.217   5.943   0.338
 6800SOL     OW21298   1.921   4.507   0.428
 6800SOL    HW121299   1.854   4.571   0.463
 6800SOL    HW221300   1.884   4.460   0.348
 6801SOL     OW21301   1.736   2.767   2.134
 6801SOL    HW121302   1.681   2.800   2.211
 6801SOL    HW221303   1.694   2.686   2.094
 6802SOL     OW21304   2.491   6.264   1.750
 6802SOL    HW121305   2.408   6.318   1.764
 6802SOL    HW221306   2.543   6.302   1.673
 6803SOL     OW21307   5.288   2.007   6.708
 6803SOL    HW121308   5.333   1.956   6.781
 6803SOL    HW221309   5.197   1.968   6.691
 6804SOL     OW21310   1.898   5.773   3.490
 6804SOL    HW121311   1.905   5.837   3.567
 6804SOL    HW221312   1.813   5.790   3.440
 6805SOL     OW21313   6.046   0.634   4.986
 6805SOL    HW121314   6.040   0.672   5.078
 6805SOL    HW221315   5.965   0.578   4.968
 6806SOL     OW21316   4.011   0.846   5.141
 6806SOL    HW121317   3.938   0.795   5.096
 6806SOL    HW221318   4.036   0.925   5.086
 6807SOL     OW21319   3.207   2.583   0.289
 6807SOL    HW121320   3.157   2.533   0.219
 6807SOL    HW221321   3.153   2.662   0.319
 6808SOL     OW21322   0.482   2.984   5.626
 6808SOL    HW121323   0.513   2.890   5.640
 6808SOL    HW221324   0.383   2.985   5.614
 6809SOL     OW21325   2.581   3.823   6.558
 6809SOL    HW121326   2.598   3.814   6.656
 6809SOL    HW221327   2.629   3.903   6.523
 6810SOL     OW21328   0.144   1.019   2.180
 6810SOL    HW121329   0.058   0.985   2.218
 6810SOL    HW221330   0.211   1.030   2.254
 6811SOL     OW21331   5.910   5.127   1.413
 6811SOL    HW121332   5.972   5.191   1.366
 6811SOL    HW221333   5.930   5.127   1.511
 6812SOL     OW21334   4.054   3.346   3.398
 6812SOL    HW121335   4.111   3.385   3.470
 6812SOL    HW221336   3.996   3.274   3.437
 6813SOL     OW21337   4.436   2.455   0.735
 6813SOL    HW121338   4.457   2.524   0.804
 6813SOL    HW221339   4.494   2.375   0.749
 6814SOL     OW21340   2.626   3.825   1.303
 6814SOL    HW121341   2.615   3.851   1.398
 6814SOL    HW221342   2.666   3.733   1.298
 6815SOL     OW21343   2.420   0.688   1.469
 6815SOL    HW121344   2.443   0.686   1.567
 6815SOL    HW221345   2.387   0.597   1.441
 6816SOL     OW21346   6.372   4.666   6.963
 6816SOL    HW121347   6.351   4.630   0.034
 6816SOL    HW221348   6.417   4.596   6.908
 6817SOL     OW21349   0.146   1.443   5.649
 6817SOL    HW121350   0.197   1.401   5.574
 6817SOL    HW221351   0.076   1.505   5.612
 6818SOL     OW21352   3.835   6.472   2.658
 6818SOL    HW121353   3.764   6.404   2.641
 6818SOL    HW221354   3.797   6.564   2.647
 6819SOL     OW21355   3.240   0.590   4.067
 6819SOL    HW121356   3.258   0.673   4.119
 6819SOL    HW221357   3.327   0.545   4.045
 6820SOL     OW21358   1.263   4.466   3.098
 6820SOL    HW121359   1.201   4.406   3.046
 6820SOL    HW221360   1.356   4.455   3.064
 6821SOL     OW21361   2.565   2.445   4.768
 6821SOL    HW121362   2.504   2.374   4.803
 6821SOL    HW221363   2.598   2.501   4.844
 6822SOL     OW21364   5.752   2.026   5.791
 6822SOL    HW121365   5.818   2.022   5.716
 6822SOL    HW221366   5.737   2.121   5.818
 6823SOL     OW21367   2.992   3.119   2.970
 6823SOL    HW121368   3.015   3.204   3.018
 6823SOL    HW221369   3.005   3.132   2.872
 6824SOL     OW21370   0.856   4.270   6.689
 6824SOL    HW121371   0.761   4.298   6.677
 6824SOL    HW221372   0.885   4.294   6.782
 6825SOL     OW21373   4.927   0.223   2.087
 6825SOL    HW121374   4.929   0.185   2.180
 6825SOL    HW221375   4.954   0.319   2.089
 6826SOL     OW21376   2.123   3.452   2.786
 6826SOL    HW121377   2.084   3.386   2.851
 6826SOL    HW221378   2.079   3.441   2.697
 6827SOL     OW21379   5.688   5.985   6.404
 6827SOL    HW121380   5.713   6.051   6.475
 6827SOL    HW221381   5.589   5.987   6.389
 6828SOL     OW21382   0.986   2.091   1.293
 6828SOL    HW121383   0.895   2.058   1.318
 6828SOL    HW221384   0.981   2.187   1.266
 6829SOL     OW21385   5.047   6.250   3.740
 6829SOL    HW121386   5.144   6.266   3.723
 6829SOL    HW221387   5.036   6.164   3.790
 6830SOL     OW21388   5.497   1.767   3.580
 6830SOL    HW121389   5.575   1.827   3.596
 6830SOL    HW221390   5.488   1.704   3.657
 6831SOL     OW21391   0.561   0.628   5.637
 6831SOL    HW121392   0.635   0.575   5.678
 6831SOL    HW221393   0.513   0.571   5.569
 6832SOL     OW21394   3.210   5.146   2.321
 6832SOL    HW121395   3.125   5.165   2.272
 6832SOL    HW221396   3.206   5.055   2.361
 6833SOL     OW21397   3.644   4.727   6.944
 6833SOL    HW121398   3.730   4.771   6.966
 6833SOL    HW221399   3.571   4.795   6.942
 6834SOL     OW21400   4.150   6.221   2.114
 6834SOL    HW121401   4.091   6.167   2.054
 6834SOL    HW221402   4.143   6.187   2.207
 6835SOL     OW21403   3.676   6.698   4.951
 6835SOL    HW121404   3.598   6.660   5.000
 6835SOL    HW221405   3.744   6.731   5.016
 6836SOL     OW21406   3.681   6.687   6.864
 6836SOL    HW121407   3.742   6.614   6.832
 6836SOL    HW221408   3.603   6.646   6.911
 6837SOL     OW21409   1.835   3.470   1.923
 6837SOL    HW121410   1.847   3.392   1.862
 6837SOL    HW221411   1.909   3.471   1.991
 6838SOL     OW21412   2.000   1.393   0.122
 6838SOL    HW121413   1.913   1.409   0.074
 6838SOL    HW221414   1.995   1.305   0.170
 6839SOL     OW21415   4.115   0.862   0.393
 6839SOL    HW121416   4.171   0.889   0.316
 6839SOL    HW221417   4.117   0.933   0.464
 6840SOL     OW21418   1.880   1.481   6.259
 6840SOL    HW121419   1.874   1.580   6.251
 6840SOL    HW221420   1.889   1.456   6.356
 6841SOL     OW21421   6.480   2.765   6.087
 6841SOL    HW121422   6.450   2.797   6.177
 6841SOL    HW221423   6.404   2.772   6.022
 6842SOL     OW21424   2.400   5.441   2.445
 6842SOL    HW121425   2.478   5.495   2.414
 6842SOL    HW221426   2.316   5.475   2.402
 6843SOL     OW21427   4.656   6.952   6.706
 6843SOL    HW121428   4.604   7.004   6.774
 6843SOL    HW221429   4.739   6.916   6.749
 6844SOL     OW21430   5.314   0.634   5.125
 6844SOL    HW121431   5.217   0.651   5.110
 6844SOL    HW221432   5.329   0.605   5.219
 6845SOL     OW21433   5.021   2.410   2.809
 6845SOL    HW121434   4.960   2.415   2.887
 6845SOL    HW221435   5.061   2.318   2.804
 6846SOL     OW21436   2.878   3.735   0.461
 6846SOL    HW121437   2.868   3.677   0.380
 6846SOL    HW221438   2.967   3.720   0.502
 6847SOL     OW21439   5.870   3.698   4.165
 6847SOL    HW121440   5.921   3.698   4.251
 6847SOL    HW221441   5.826   3.609   4.152
 6848SOL     OW21442   5.425   4.961   3.353
 6848SOL    HW121443   5.372   4.885   3.315
 6848SOL    HW221444   5.461   5.016   3.279
 6849SOL     OW21445   3.890   3.856   6.572
 6849SOL    HW121446   3.886   3.956   6.582
 6849SOL    HW221447   3.947   3.833   6.493
 6850SOL     OW21448   4.201   1.262   3.658
 6850SOL    HW121449   4.191   1.331   3.730
 6850SOL    HW221450   4.117   1.258   3.604
 6851SOL     OW21451   1.848   3.054   3.406
 6851SOL    HW121452   1.917   3.015   3.467
 6851SOL    HW221453   1.815   3.141   3.444
 6852SOL     OW21454   2.780   5.380   0.489
 6852SOL    HW121455   2.845   5.306   0.508
 6852SOL    HW221456   2.733   5.405   0.574
 6853SOL     OW21457   4.829   3.017   6.986
 6853SOL    HW121458   4.744   3.069   6.974
 6853SOL    HW221459   4.902   3.079   7.015
 6854SOL     OW21460   5.311   6.477   6.010
 6854SOL    HW121461   5.281   6.407   6.075
 6854SOL    HW221462   5.382   6.438   5.951
 6855SOL     OW21463   4.163   5.125   3.914
 6855SOL    HW121464   4.141   5.202   3.854
 6855SOL    HW221465   4.153   5.039   3.863
 6856SOL     OW21466   1.202   1.890   0.028
 6856SOL    HW121467   1.273   1.832   0.069
 6856SOL    HW221468   1.174   1.851   6.960
 6857SOL     OW21469   1.297   3.883   5.426
 6857SOL    HW121470   1.329   3.974   5.452
 6857SOL    HW221471   1.307   3.821   5.504
 6858SOL     OW21472   2.889   4.086   1.757
 6858SOL    HW121473   2.818   4.150   1.728
 6858SOL    HW221474   2.978   4.122   1.732
 6859SOL     OW21475   0.896   1.211   2.533
 6859SOL    HW121476   0.845   1.173   2.456
 6859SOL    HW221477   0.863   1.304   2.551
 6860SOL     OW21478   0.857   6.767   1.816
 6860SOL    HW121479   0.776   6.773   1.875
 6860SOL    HW221480   0.931   6.721   1.864
 6861SOL     OW21481   4.833   2.171   5.123
 6861SOL    HW121482   4.741   2.210   5.116
 6861SOL    HW221483   4.859   2.163   5.219
 6862SOL     OW21484   0.666   4.663   5.322
 6862SOL    HW121485   0.718   4.748   5.320
 6862SOL    HW221486   0.713   4.593   5.268
 6863SOL     OW21487   6.663   6.883   5.088
 6863SOL    HW121488   6.695   6.962   5.140
 6863SOL    HW221489   6.662   6.803   5.148
 6864SOL     OW21490   1.603   3.833   5.766
 6864SOL    HW121491   1.643   3.743   5.785
 6864SOL    HW221492   1.597   3.846   5.667
 6865SOL     OW21493   2.126   6.868   4.078
 6865SOL    HW121494   2.161   6.952   4.036
 6865SOL    HW221495   2.098   6.804   4.006
 6866SOL     OW21496   0.396   4.150   1.671
 6866SOL    HW121497   0.435   4.066   1.633
 6866SOL    HW221498   0.356   4.204   1.597
 6867SOL     OW21499   2.407   3.536   7.003
 6867SOL    HW121500   2.417   3.520   0.081
 6867SOL    HW221501   2.358   3.459   6.962
 6868SOL     OW21502   2.455   4.860   4.589
 6868SOL    HW121503   2.424   4.882   4.682
 6868SOL    HW221504   2.477   4.944   4.540
 6869SOL     OW21505   3.955   0.449   6.008
 6869SOL    HW121506   4.021   0.377   6.032
 6869SOL    HW221507   3.938   0.507   6.087
 6870SOL     OW21508   6.999   2.831   0.534
 6870SOL    HW121509   0.021   2.907   0.485
 6870SOL    HW221510   0.049   2.765   0.562
 6871SOL     OW21511   0.471   3.859   2.626
 6871SOL    HW121512   0.527   3.796   2.681
 6871SOL    HW221513   0.530   3.919   2.573
 6872SOL     OW21514   2.443   3.220   0.718
 6872SOL    HW121515   2.524   3.278   0.716
 6872SOL    HW221516   2.361   3.276   0.717
 6873SOL     OW21517   0.802   4.076   4.588
 6873SOL    HW121518   0.818   3.985   4.552
 6873SOL    HW221519   0.886   4.130   4.583
 6874SOL     OW21520   5.451   6.359   2.967
 6874SOL    HW121521   5.387   6.407   2.907
 6874SOL    HW221522   5.407   6.340   3.055
 6875SOL     OW21523   1.505   2.577   0.887
 6875SOL    HW121524   1.458   2.642   0.946
 6875SOL    HW221525   1.600   2.607   0.872
 6876SOL     OW21526   4.364   5.649   3.156
 6876SOL    HW121527   4.432   5.660   3.083
 6876SOL    HW221528   4.365   5.729   3.215
 6877SOL     OW21529   1.470   3.515   2.285
 6877SOL    HW121530   1.388   3.463   2.310
 6877SOL    HW221531   1.544   3.493   2.349
 6878SOL     OW21532   1.980   0.419   4.248
 6878SOL    HW121533   2.028   0.398   4.333
 6878SOL    HW221534   1.888   0.380   4.251
 6879SOL     OW21535   1.907   2.087   0.319
 6879SOL    HW121536   1.812   2.095   0.348
 6879SOL    HW221537   1.967   2.117   0.392
 6880SOL     OW21538   1.454   5.345   6.551
 6880SOL    HW121539   1.548   5.373   6.568
 6880SOL    HW221540   1.449   5.294   6.465
 6881SOL     OW21541   1.195   3.165   0.516
 6881SOL    HW121542   1.279   3.124   0.552
 6881SOL    HW221543   1.183   3.136   0.421
 6882SOL     OW21544   2.787   6.179   6.571
 6882SOL    HW121545   2.728   6.219   6.500
 6882SOL    HW221546   2.859   6.243   6.595
 6883SOL     OW21547   4.867   0.388   0.148
 6883SOL    HW121548   4.950   0.333   0.139
 6883SOL    HW221549   4.803   0.344   0.210
 6884SOL     OW21550   1.705   3.817   2.990
 6884SOL    HW121551   1.770   3.814   2.913
 6884SOL    HW221552   1.718   3.902   3.040
 6885SOL     OW21553   5.554   5.910   4.242
 6885SOL    HW121554   5.646   5.873   4.235
 6885SOL    HW221555   5.540   5.980   4.172
 6886SOL     OW21556   4.773   2.143   6.645
 6886SOL    HW121557   4.853   2.166   6.590
 6886SOL    HW221558   4.787   2.174   6.739
 6887SOL     OW21559   5.429   6.020   6.429
 6887SOL    HW121560   5.359   6.056   6.491
 6887SOL    HW221561   5.391   5.943   6.378
 6888SOL     OW21562   5.816   5.072   6.608
 6888SOL    HW121563   5.768   5.094   6.523
 6888SOL    HW221564   5.773   4.991   6.649
 6889SOL     OW21565   0.507   2.194   6.906
 6889SOL    HW121566   0.529   2.159   6.815
 6889SOL    HW221567   0.568   2.152   6.974
 6890SOL     OW21568   4.622   5.356   2.837
 6890SOL    HW121569   4.630   5.260   2.811
 6890SOL    HW221570   4.530   5.389   2.815
 6891SOL     OW21571   1.727   1.306   1.018
 6891SOL    HW121572   1.736   1.370   1.095
 6891SOL    HW221573   1.714   1.357   0.933
 6892SOL     OW21574   3.050   0.786   4.539
 6892SOL    HW121575   3.009   0.857   4.481
 6892SOL    HW221576   3.114   0.829   4.603
 6893SOL     OW21577   6.772   3.046   0.070
 6893SOL    HW121578   6.761   2.991   0.153
 6893SOL    HW221579   6.711   3.011   7.018
 6894SOL     OW21580   5.388   5.311   0.550
 6894SOL    HW121581   5.448   5.293   0.628
 6894SOL    HW221582   5.440   5.300   0.465
 6895SOL     OW21583   0.875   6.409   1.812
 6895SOL    HW121584   0.805   6.353   1.767
 6895SOL    HW221585   0.854   6.506   1.801
 6896SOL     OW21586   4.278   2.342   4.783
 6896SOL    HW121587   4.345   2.396   4.733
 6896SOL    HW221588   4.236   2.400   4.854
 6897SOL     OW21589   5.036   3.565   5.152
 6897SOL    HW121590   4.951   3.594   5.109
 6897SOL    HW221591   5.069   3.638   5.212
 6898SOL     OW21592   2.545   1.281   1.285
 6898SOL    HW121593   2.628   1.333   1.306
 6898SOL    HW221594   2.468   1.321   1.336
 6899SOL     OW21595   5.883   6.134   2.706
 6899SOL    HW121596   5.901   6.062   2.640
 6899SOL    HW221597   5.896   6.223   2.664
 6900SOL     OW21598   6.440   4.340   5.449
 6900SOL    HW121599   6.526   4.392   5.451
 6900SOL    HW221600   6.452   4.257   5.394
 6901SOL     OW21601   4.839   4.628   0.161
 6901SOL    HW121602   4.929   4.632   0.117
 6901SOL    HW221603   4.769   4.657   0.097
 6902SOL     OW21604   0.587   5.702   6.677
 6902SOL    HW121605   0.600   5.697   6.776
 6902SOL    HW221606   0.674   5.722   6.633
 6903SOL     OW21607   2.034   5.383   4.249
 6903SOL    HW121608   2.127   5.386   4.212
 6903SOL    HW221609   2.032   5.327   4.331
 6904SOL     OW21610   6.798   6.572   4.904
 6904SOL    HW121611   6.776   6.668   4.890
 6904SOL    HW221612   6.745   6.516   4.841
 6905SOL     OW21613   4.879   5.796   5.998
 6905SOL    HW121614   4.873   5.860   5.921
 6905SOL    HW221615   4.809   5.724   5.987
 6906SOL     OW21616   3.785   1.536   3.688
 6906SOL    HW121617   3.737   1.459   3.645
 6906SOL    HW221618   3.852   1.573   3.625
 6907SOL     OW21619   6.183   1.608   0.908
 6907SOL    HW121620   6.088   1.639   0.912
 6907SOL    HW221621   6.244   1.682   0.937
 6908SOL     OW21622   2.753   4.284   6.945
 6908SOL    HW121623   2.677   4.262   7.007
 6908SOL    HW221624   2.806   4.201   6.927
 6909SOL     OW21625   5.954   5.975   2.482
 6909SOL    HW121626   5.943   5.891   2.429
 6909SOL    HW221627   6.050   6.003   2.481
 6910SOL     OW21628   1.493   2.921   3.623
 6910SOL    HW121629   1.447   2.891   3.540
 6910SOL    HW221630   1.545   2.845   3.662
 6911SOL     OW21631   2.843   6.858   5.957
 6911SOL    HW121632   2.793   6.838   5.872
 6911SOL    HW221633   2.798   6.934   6.005
 6912SOL     OW21634   2.467   3.624   6.193
 6912SOL    HW121635   2.562   3.653   6.200
 6912SOL    HW221636   2.407   3.696   6.228
 6913SOL     OW21637   4.754   6.553   5.955
 6913SOL    HW121638   4.841   6.505   5.947
 6913SOL    HW221639   4.753   6.604   6.042
 6914SOL     OW21640   6.543   3.420   1.623
 6914SOL    HW121641   6.451   3.384   1.611
 6914SOL    HW221642   6.580   3.449   1.535
 6915SOL     OW21643   0.863   3.205   2.738
 6915SOL    HW121644   0.772   3.192   2.778
 6915SOL    HW221645   0.909   3.117   2.731
 6916SOL     OW21646   4.607   6.125   7.006
 6916SOL    HW121647   4.552   6.209   7.005
 6916SOL    HW221648   4.704   6.148   6.997
 6917SOL     OW21649   5.645   5.105   1.223
 6917SOL    HW121650   5.624   5.102   1.320
 6917SOL    HW221651   5.604   5.025   1.178
 6918SOL     OW21652   2.152   3.204   1.905
 6918SOL    HW121653   2.055   3.212   1.883
 6918SOL    HW221654   2.198   3.291   1.887
 6919SOL     OW21655   6.525   6.502   3.374
 6919SOL    HW121656   6.545   6.436   3.301
 6919SOL    HW221657   6.610   6.525   3.421
 6920SOL     OW21658   5.717   0.776   5.397
 6920SOL    HW121659   5.794   0.829   5.362
 6920SOL    HW221660   5.746   0.726   5.479
 6921SOL     OW21661   4.090   0.275   4.364
 6921SOL    HW121662   4.034   0.354   4.392
 6921SOL    HW221663   4.158   0.255   4.434
 6922SOL     OW21664   1.391   5.348   5.948
 6922SOL    HW121665   1.324   5.386   5.883
 6922SOL    HW221666   1.347   5.336   6.037
 6923SOL     OW21667   6.016   7.014   2.348
 6923SOL    HW121668   6.053   6.938   2.295
 6923SOL    HW221669   6.086   0.027   2.411
 6924SOL     OW21670   3.507   6.283   0.932
 6924SOL    HW121671   3.514   6.379   0.957
 6924SOL    HW221672   3.596   6.250   0.900
 6925SOL     OW21673   6.045   6.467   6.245
 6925SOL    HW121674   6.088   6.513   6.167
 6925SOL    HW221675   6.062   6.369   6.240
 6926SOL     OW21676   2.865   2.215   0.182
 6926SOL    HW121677   2.913   2.248   0.100
 6926SOL    HW221678   2.775   2.258   0.186
 6927SOL     OW21679   4.708   0.807   0.566
 6927SOL    HW121680   4.776   0.879   0.583
 6927SOL    HW221681   4.643   0.839   0.497
 6928SOL     OW21682   4.295   5.227   1.133
 6928SOL    HW121683   4.230   5.163   1.092
 6928SOL    HW221684   4.388   5.190   1.125
 6929SOL     OW21685   6.377   5.494   1.259
 6929SOL    HW121686   6.447   5.488   1.187
 6929SOL    HW221687   6.363   5.590   1.284
 6930SOL     OW21688   1.132   7.018   0.736
 6930SOL    HW121689   1.111   0.072   0.801
 6930SOL    HW221690   1.225   6.985   0.753
 6931SOL     OW21691   2.890   3.095   1.111
 6931SOL    HW121692   2.861   3.111   1.205
 6931SOL    HW221693   2.990   3.090   1.107
 6932SOL     OW21694   4.617   5.556   0.069
 6932SOL    HW121695   4.529   5.547   0.022
 6932SOL    HW221696   4.606   5.534   0.166
 6933SOL     OW21697   3.159   5.058   6.528
 6933SOL    HW121698   3.191   5.129   6.466
 6933SOL    HW221699   3.097   5.098   6.595
 6934SOL     OW21700   5.140   4.129   6.781
 6934SOL    HW121701   5.146   4.037   6.819
 6934SOL    HW221702   5.119   4.194   6.855
 6935SOL     OW21703   5.347   5.474   1.394
 6935SOL    HW121704   5.343   5.400   1.461
 6935SOL    HW221705   5.374   5.437   1.305
 6936SOL     OW21706   1.019   2.062   4.804
 6936SOL    HW121707   1.074   1.983   4.774
 6936SOL    HW221708   1.035   2.138   4.741
 6937SOL     OW21709   5.395   5.823   0.042
 6937SOL    HW121710   5.337   5.800   0.121
 6937SOL    HW221711   5.378   5.918   0.016
 6938SOL     OW21712   1.310   0.571   5.137
 6938SOL    HW121713   1.388   0.509   5.150
 6938SOL    HW221714   1.299   0.628   5.219
 6939SOL     OW21715   5.750   4.049   3.739
 6939SOL    HW121716   5.792   3.991   3.809
 6939SOL    HW221717   5.789   4.141   3.744
 6940SOL     OW21718   3.186   6.392   0.859
 6940SOL    HW121719   3.250   6.385   0.782
 6940SOL    HW221720   3.096   6.419   0.824
 6941SOL     OW21721   3.454   3.366   2.677
 6941SOL    HW121722   3.424   3.435   2.744
 6941SOL    HW221723   3.534   3.399   2.629
 6942SOL     OW21724   6.040   6.662   1.779
 6942SOL    HW121725   6.131   6.678   1.819
 6942SOL    HW221726   5.984   6.744   1.790
 6943SOL     OW21727   4.670   5.174   6.377
 6943SOL    HW121728   4.640   5.178   6.472
 6943SOL    HW221729   4.758   5.222   6.368
 6944SOL     OW21730   1.508   4.202   4.997
 6944SOL    HW121731   1.538   4.159   5.082
 6944SOL    HW221732   1.408   4.204   4.994
 6945SOL     OW21733   5.480   2.626   0.927
 6945SOL    HW121734   5.408   2.695   0.932
 6945SOL    HW221735   5.570   2.670   0.937
 6946SOL     OW21736   4.464   5.903   2.589
 6946SOL    HW121737   4.496   5.811   2.614
 6946SOL    HW221738   4.367   5.911   2.612
 6947SOL     OW21739   5.067   5.115   5.201
 6947SOL    HW121740   4.980   5.161   5.217
 6947SOL    HW221741   5.059   5.054   5.122
 6948SOL     OW21742   0.371   4.948   0.022
 6948SOL    HW121743   0.455   4.894   0.032
 6948SOL    HW221744   0.300   4.891   7.002
 6949SOL     OW21745   2.841   1.235   3.884
 6949SOL    HW121746   2.771   1.295   3.846
 6949SOL    HW221747   2.904   1.289   3.939
 6950SOL     OW21748   0.627   0.585   4.766
 6950SOL    HW121749   0.692   0.599   4.692
 6950SOL    HW221750   0.555   0.523   4.736
 6951SOL     OW21751   0.274   5.097   6.056
 6951SOL    HW121752   0.258   5.156   6.135
 6951SOL    HW221753   0.269   5.001   6.085
 6952SOL     OW21754   4.119   5.811   3.303
 6952SOL    HW121755   4.134   5.890   3.244
 6952SOL    HW221756   4.114   5.841   3.399
 6953SOL     OW21757   5.098   1.215   1.086
 6953SOL    HW121758   5.029   1.176   1.025
 6953SOL    HW221759   5.081   1.313   1.098
 6954SOL     OW21760   6.194   3.745   0.304
 6954SOL    HW121761   6.143   3.663   0.277
 6954SOL    HW221762   6.287   3.718   0.330
 6955SOL     OW21763   4.809   6.881   2.070
 6955SOL    HW121764   4.881   6.870   2.002
 6955SOL    HW221765   4.849   6.876   2.162
 6956SOL     OW21766   5.465   5.603   2.454
 6956SOL    HW121767   5.474   5.656   2.539
 6956SOL    HW221768   5.369   5.576   2.442
 6957SOL     OW21769   5.391   5.780   6.296
 6957SOL    HW121770   5.320   5.747   6.358
 6957SOL    HW221771   5.358   5.775   6.202
 6958SOL     OW21772   2.952   3.481   3.684
 6958SOL    HW121773   2.928   3.401   3.629
 6958SOL    HW221774   2.918   3.564   3.639
 6959SOL     OW21775   0.863   4.098   2.916
 6959SOL    HW121776   0.871   4.197   2.929
 6959SOL    HW221777   0.796   4.062   2.982
 6960SOL     OW21778   3.036   4.322   0.318
 6960SOL    HW121779   3.014   4.389   0.247
 6960SOL    HW221780   2.954   4.269   0.340
 6961SOL     OW21781   4.741   1.627   5.372
 6961SOL    HW121782   4.641   1.634   5.371
 6961SOL    HW221783   4.769   1.567   5.446
 6962SOL     OW21784   2.654   0.002   6.689
 6962SOL    HW121785   2.714   6.947   6.662
 6962SOL    HW221786   2.635   0.060   6.610
 6963SOL     OW21787   4.915   6.382   0.538
 6963SOL    HW121788   4.938   6.437   0.618
 6963SOL    HW221789   4.990   6.317   0.519
 6964SOL     OW21790   1.779   0.024   5.472
 6964SOL    HW121791   1.708   0.091   5.497
 6964SOL    HW221792   1.738   6.970   5.419
 6965SOL     OW21793   0.709   1.871   0.206
 6965SOL    HW121794   0.702   1.773   0.226
 6965SOL    HW221795   0.794   1.889   0.158
 6966SOL     OW21796   1.307   6.790   1.462
 6966SOL    HW121797   1.240   6.828   1.399
 6966SOL    HW221798   1.390   6.846   1.460
 6967SOL     OW21799   4.646   1.654   6.418
 6967SOL    HW121800   4.560   1.603   6.406
 6967SOL    HW221801   4.634   1.721   6.491
 6968SOL     OW21802   4.112   6.181   2.395
 6968SOL    HW121803   4.200   6.149   2.431
 6968SOL    HW221804   4.083   6.262   2.446
 6969SOL     OW21805   1.797   1.779   1.857
 6969SOL    HW121806   1.707   1.739   1.839
 6969SOL    HW221807   1.836   1.738   1.939
 6970SOL     OW21808   3.618   4.861   5.590
 6970SOL    HW121809   3.631   4.799   5.512
 6970SOL    HW221810   3.698   4.921   5.598
 6971SOL     OW21811   6.744   4.721   0.331
 6971SOL    HW121812   6.665   4.747   0.386
 6971SOL    HW221813   6.712   4.685   0.243
 6972SOL     OW21814   5.178   3.795   1.865
 6972SOL    HW121815   5.151   3.745   1.948
 6972SOL    HW221816   5.147   3.890   1.872
 6973SOL     OW21817   1.247   3.184   2.893
 6973SOL    HW121818   1.308   3.257   2.924
 6973SOL    HW221819   1.167   3.179   2.952
 6974SOL     OW21820   3.596   4.133   2.869
 6974SOL    HW121821   3.599   4.198   2.945
 6974SOL    HW221822   3.540   4.055   2.894
 6975SOL     OW21823   3.079   5.381   4.561
 6975SOL    HW121824   3.094   5.317   4.635
 6975SOL    HW221825   2.982   5.403   4.555
 6976SOL     OW21826   4.570   3.898   6.078
 6976SOL    HW121827   4.638   3.913   6.151
 6976SOL    HW221828   4.501   3.833   6.111
 6977SOL     OW21829   4.119   4.828   1.105
 6977SOL    HW121830   4.091   4.915   1.064
 6977SOL    HW221831   4.218   4.818   1.097
 6978SOL     OW21832   5.735   3.516   1.606
 6978SOL    HW121833   5.798   3.495   1.682
 6978SOL    HW221834   5.728   3.436   1.547
 6979SOL     OW21835   1.144   3.991   1.537
 6979SOL    HW121836   1.179   3.959   1.625
 6979SOL    HW221837   1.221   4.014   1.476
 6980SOL     OW21838   1.978   5.959   3.016
 6980SOL    HW121839   1.909   5.897   2.981
 6980SOL    HW221840   2.020   5.920   3.098
 6981SOL     OW21841   3.791   2.851   6.667
 6981SOL    HW121842   3.874   2.803   6.638
 6981SOL    HW221843   3.803   2.949   6.650
 6982SOL     OW21844   1.965   1.143   3.524
 6982SOL    HW121845   2.060   1.176   3.522
 6982SOL    HW221846   1.933   1.141   3.619
 6983SOL     OW21847   5.077   0.442   4.639
 6983SOL    HW121848   5.063   0.344   4.654
 6983SOL    HW221849   5.144   0.456   4.567
 6984SOL     OW21850   0.764   2.545   3.426
 6984SOL    HW121851   0.849   2.492   3.434
 6984SOL    HW221852   0.785   2.642   3.424
 6985SOL     OW21853   6.486   3.674   0.189
 6985SOL    HW121854   6.394   3.680   0.150
 6985SOL    HW221855   6.494   3.590   0.244
 6986SOL     OW21856   4.685   5.064   5.546
 6986SOL    HW121857   4.586   5.051   5.535
 6986SOL    HW221858   4.703   5.159   5.572
 6987SOL     OW21859   0.727   1.781   6.286
 6987SOL    HW121860   0.741   1.821   6.195
 6987SOL    HW221861   0.668   1.701   6.279
 6988SOL     OW21862   3.717   1.659   6.176
 6988SOL    HW121863   3.654   1.680   6.101
 6988SOL    HW221864   3.670   1.602   6.244
 6989SOL     OW21865   0.410   5.047   2.516
 6989SOL    HW121866   0.355   4.986   2.459
 6989SOL    HW221867   0.451   4.995   2.591
 6990SOL     OW21868   3.955   2.159   0.882
 6990SOL    HW121869   3.983   2.254   0.895
 6990SOL    HW221870   4.027   2.098   0.915
 6991SOL     OW21871   6.123   3.282   1.995
 6991SOL    HW121872   6.066   3.331   2.061
 6991SOL    HW221873   6.210   3.330   1.985
 6992SOL     OW21874   0.809   6.129   0.202
 6992SOL    HW121875   0.720   6.146   0.161
 6992SOL    HW221876   0.818   6.184   0.285
 6993SOL     OW21877   4.396   1.374   1.664
 6993SOL    HW121878   4.349   1.319   1.595
 6993SOL    HW221879   4.473   1.421   1.622
 6994SOL     OW21880   2.625   0.345   3.509
 6994SOL    HW121881   2.670   0.277   3.568
 6994SOL    HW221882   2.529   0.352   3.535
 6995SOL     OW21883   0.144   3.977   1.145
 6995SOL    HW121884   0.080   3.943   1.215
 6995SOL    HW221885   0.153   3.908   1.074
 6996SOL     OW21886   1.234   0.947   0.321
 6996SOL    HW121887   1.278   0.970   0.408
 6996SOL    HW221888   1.141   0.915   0.340
 6997SOL     OW21889   5.862   5.264   5.516
 6997SOL    HW121890   5.817   5.176   5.498
 6997SOL    HW221891   5.815   5.336   5.466
 6998SOL     OW21892   6.506   1.146   0.165
 6998SOL    HW121893   6.462   1.130   0.077
 6998SOL    HW221894   6.482   1.072   0.228
 6999SOL     OW21895   0.305   3.456   0.481
 6999SOL    HW121896   0.219   3.450   0.532
 6999SOL    HW221897   0.377   3.493   0.540
 7000SOL     OW21898   0.004   6.685   3.484
 7000SOL    HW121899   6.987   6.750   3.418
 7000SOL    HW221900   0.057   6.615   3.436
 7001SOL     OW21901   0.526   1.844   4.489
 7001SOL    HW121902   0.600   1.790   4.531
 7001SOL    HW221903   0.449   1.784   4.468
 7002SOL     OW21904   0.479   4.891   2.731
 7002SOL    HW121905   0.469   4.959   2.804
 7002SOL    HW221906   0.501   4.802   2.771
 7003SOL     OW21907   6.697   4.709   1.406
 7003SOL    HW121908   6.747   4.701   1.320
 7003SOL    HW221909   6.667   4.618   1.435
 7004SOL     OW21910   1.931   6.482   0.451
 7004SOL    HW121911   1.992   6.403   0.453
 7004SOL    HW221912   1.853   6.463   0.391
 7005SOL     OW21913   0.896   6.208   0.464
 7005SOL    HW121914   0.967   6.170   0.524
 7005SOL    HW221915   0.832   6.261   0.519
 7006SOL     OW21916   1.335   0.081   4.712
 7006SOL    HW121917   1.274   0.088   4.633
 7006SOL    HW221918   1.350   0.172   4.750
 7007SOL     OW21919   2.653   6.969   5.735
 7007SOL    HW121920   2.614   6.963   5.827
 7007SOL    HW221921   2.675   0.044   5.714
 7008SOL     OW21922   5.524   3.936   3.582
 7008SOL    HW121923   5.604   3.982   3.620
 7008SOL    HW221924   5.546   3.841   3.562
 7009SOL     OW21925   4.444   5.334   1.839
 7009SOL    HW121926   4.505   5.289   1.774
 7009SOL    HW221927   4.405   5.266   1.901
 7010SOL     OW21928   5.304   4.113   1.823
 7010SOL    HW121929   5.360   4.051   1.768
 7010SOL    HW221930   5.209   4.108   1.791
 7011SOL     OW21931   3.317   5.963   6.832
 7011SOL    HW121932   3.328   5.968   6.931
 7011SOL    HW221933   3.226   5.994   6.806
 7012SOL     OW21934   6.516   2.463   0.286
 7012SOL    HW121935   6.527   2.367   0.259
 7012SOL    HW221936   6.442   2.505   0.233
 7013SOL     OW21937   2.726   1.291   0.352
 7013SOL    HW121938   2.658   1.314   0.422
 7013SOL    HW221939   2.773   1.206   0.378
 7014SOL     OW21940   6.384   2.851   1.295
 7014SOL    HW121941   6.455   2.911   1.331
 7014SOL    HW221942   6.299   2.866   1.345
 7015SOL     OW21943   5.162   6.276   0.954
 7015SOL    HW121944   5.262   6.287   0.959
 7015SOL    HW221945   5.119   6.366   0.948
 7016SOL     OW21946   3.181   4.459   0.811
 7016SOL    HW121947   3.165   4.439   0.714
 7016SOL    HW221948   3.279   4.457   0.830
 7017SOL     OW21949   4.956   5.198   4.446
 7017SOL    HW121950   4.916   5.113   4.411
 7017SOL    HW221951   5.004   5.246   4.372
 7018SOL     OW21952   4.810   2.797   4.408
 7018SOL    HW121953   4.805   2.885   4.361
 7018SOL    HW221954   4.720   2.754   4.409
 7019SOL     OW21955   4.304   5.289   2.268
 7019SOL    HW121956   4.254   5.312   2.185
 7019SOL    HW221957   4.276   5.198   2.300
 7020SOL     OW21958   0.491   2.558   6.744
 7020SOL    HW121959   0.488   2.468   6.789
 7020SOL    HW221960   0.570   2.562   6.683
 7021SOL     OW21961   0.970   1.640   5.293
 7021SOL    HW121962   0.974   1.674   5.388
 7021SOL    HW221963   1.056   1.660   5.247
 7022SOL     OW21964   3.564   1.927   0.635
 7022SOL    HW121965   3.570   1.869   0.554
 7022SOL    HW221966   3.508   1.881   0.705
 7023SOL     OW21967   0.647   1.874   0.936
 7023SOL    HW121968   0.721   1.832   0.987
 7023SOL    HW221969   0.560   1.831   0.961
 7024SOL     OW21970   3.688   3.345   3.864
 7024SOL    HW121971   3.652   3.332   3.772
 7024SOL    HW221972   3.627   3.302   3.930
 7025SOL     OW21973   3.956   6.475   0.443
 7025SOL    HW121974   4.037   6.516   0.484
 7025SOL    HW221975   3.895   6.441   0.515
 7026SOL     OW21976   3.654   2.289   1.517
 7026SOL    HW121977   3.686   2.319   1.607
 7026SOL    HW221978   3.642   2.369   1.459
 7027SOL     OW21979   2.059   5.359   2.484
 7027SOL    HW121980   2.038   5.387   2.578
 7027SOL    HW221981   2.075   5.260   2.482
 7028SOL     OW21982   2.800   0.308   3.284
 7028SOL    HW121983   2.763   0.331   3.194
 7028SOL    HW221984   2.727   0.313   3.353
 7029SOL     OW21985   3.196   3.770   4.941
 7029SOL    HW121986   3.261   3.791   5.014
 7029SOL    HW221987   3.175   3.853   4.890
 7030SOL     OW21988   6.313   1.229   5.140
 7030SOL    HW121989   6.302   1.156   5.208
 7030SOL    HW221990   6.293   1.194   5.049
 7031SOL     OW21991   4.115   6.860   0.461
 7031SOL    HW121992   4.129   6.774   0.411
 7031SOL    HW221993   4.154   6.851   0.553
 7032SOL     OW21994   3.863   6.249   4.426
 7032SOL    HW121995   3.827   6.186   4.495
 7032SOL    HW221996   3.810   6.334   4.429
 7033SOL     OW21997   1.880   2.092   5.143
 7033SOL    HW121998   1.923   2.164   5.199
 7033SOL    HW221999   1.862   2.012   5.200
 7034SOL     OW22000   6.732   1.326   3.588
 7034SOL    HW122001   6.797   1.251   3.575
 7034SOL    HW222002   6.662   1.298   3.654
 7035SOL     OW22003   1.553   0.561   0.674
 7035SOL    HW122004   1.531   0.489   0.608
 7035SOL    HW222005   1.632   0.533   0.729
 7036SOL     OW22006   6.988   1.360   1.827
 7036SOL    HW122007   7.007   1.459   1.828
 7036SOL    HW222008   6.918   1.340   1.895
 7037SOL     OW22009   1.289   0.571   6.376
 7037SOL    HW122010   1.238   0.546   6.294
 7037SOL    HW222011   1.384   0.541   6.367
 7038SOL     OW22012   1.651   3.575   6.639
 7038SOL    HW122013   1.717   3.598   6.710
 7038SOL    HW222014   1.558   3.594   6.672
 7039SOL     OW22015   0.492   6.318   2.944
 7039SOL    HW122016   0.524   6.225   2.963
 7039SOL    HW222017   0.410   6.314   2.887
 7040SOL     OW22018   4.597   2.657   5.159
 7040SOL    HW122019   4.676   2.717   5.150
 7040SOL    HW222020   4.528   2.699   5.218
 7041SOL     OW22021   1.624   0.206   3.818
 7041SOL    HW122022   1.701   0.263   3.846
 7041SOL    HW222023   1.652   0.110   3.815
 7042SOL     OW22024   4.561   5.995   5.438
 7042SOL    HW122025   4.646   6.015   5.390
 7042SOL    HW222026   4.518   5.914   5.399
 7043SOL     OW22027   1.829   4.889   1.749
 7043SOL    HW122028   1.835   4.987   1.768
 7043SOL    HW222029   1.797   4.841   1.831
 7044SOL     OW22030   4.910   6.258   4.192
 7044SOL    HW122031   4.998   6.268   4.144
 7044SOL    HW222032   4.893   6.339   4.247
 7045SOL     OW22033   6.433   6.014   2.532
 7045SOL    HW122034   6.523   6.041   2.565
 7045SOL    HW222035   6.375   5.988   2.610
 7046SOL     OW22036   2.884   2.229   4.340
 7046SOL    HW122037   2.823   2.155   4.368
 7046SOL    HW222038   2.839   2.317   4.356
 7047SOL     OW22039   1.089   6.436   0.612
 7047SOL    HW122040   1.095   6.528   0.574
 7047SOL    HW222041   1.038   6.438   0.698
 7048SOL     OW22042   6.682   6.066   4.781
 7048SOL    HW122043   6.590   6.085   4.749
 7048SOL    HW222044   6.686   5.973   4.819
 7049SOL     OW22045   3.856   0.944   3.035
 7049SOL    HW122046   3.830   1.028   3.083
 7049SOL    HW222047   3.799   0.934   2.954
 7050SOL     OW22048   3.804   4.138   1.371
 7050SOL    HW122049   3.869   4.062   1.378
 7050SOL    HW222050   3.828   4.207   1.439
 7051SOL     OW22051   0.709   0.997   1.354
 7051SOL    HW122052   0.691   1.013   1.257
 7051SOL    HW222053   0.637   1.041   1.409
 7052SOL     OW22054   4.957   0.021   2.545
 7052SOL    HW122055   4.908   6.986   2.477
 7052SOL    HW222056   4.896   0.040   2.622
 7053SOL     OW22057   2.027   3.227   2.982
 7053SOL    HW122058   1.999   3.160   2.913
 7053SOL    HW222059   2.064   3.179   3.061
 7054SOL     OW22060   6.534   0.407   0.399
 7054SOL    HW122061   6.482   0.326   0.427
 7054SOL    HW222062   6.612   0.419   0.460
 7055SOL     OW22063   2.127   1.086   6.820
 7055SOL    HW122064   2.068   1.013   6.855
 7055SOL    HW222065   2.190   1.048   6.752
 7056SOL     OW22066   0.028   5.700   1.265
 7056SOL    HW122067   0.076   5.681   1.351
 7056SOL    HW222068   7.015   5.614   1.226
 7057SOL     OW22069   3.221   4.953   4.763
 7057SOL    HW122070   3.153   4.934   4.835
 7057SOL    HW222071   3.224   5.051   4.746
 7058SOL     OW22072   5.086   2.730   5.928
 7058SOL    HW122073   5.152   2.676   5.875
 7058SOL    HW222074   5.000   2.680   5.935
 7059SOL     OW22075   1.948   0.439   5.489
 7059SOL    HW122076   2.020   0.488   5.538
 7059SOL    HW222077   1.973   0.342   5.480
 7060SOL     OW22078   3.591   1.201   1.949
 7060SOL    HW122079   3.590   1.280   1.889
 7060SOL    HW222080   3.497   1.170   1.965
 7061SOL     OW22081   0.597   2.274   2.293
 7061SOL    HW122082   0.650   2.314   2.218
 7061SOL    HW222083   0.499   2.287   2.275
 7062SOL     OW22084   3.747   1.236   3.000
 7062SOL    HW122085   3.752   1.319   2.945
 7062SOL    HW222086   3.652   1.205   3.006
 7063SOL     OW22087   1.147   0.919   1.874
 7063SOL    HW122088   1.211   0.975   1.821
 7063SOL    HW222089   1.072   0.889   1.814
 7064SOL     OW22090   4.447   1.442   5.144
 7064SOL    HW122091   4.402   1.449   5.233
 7064SOL    HW222092   4.546   1.452   5.157
 7065SOL     OW22093   3.897   4.687   5.806
 7065SOL    HW122094   3.830   4.734   5.862
 7065SOL    HW222095   3.855   4.607   5.764
 7066SOL     OW22096   3.808   0.411   6.572
 7066SOL    HW122097   3.834   0.388   6.478
 7066SOL    HW222098   3.885   0.457   6.617
 7067SOL     OW22099   2.025   3.789   6.540
 7067SOL    HW122100   2.111   3.841   6.546
 7067SOL    HW222101   2.045   3.691   6.544
 7068SOL     OW22102   5.203   3.447   4.396
 7068SOL    HW122103   5.268   3.426   4.469
 7068SOL    HW222104   5.110   3.438   4.431
 7069SOL     OW22105   5.893   0.290   6.513
 7069SOL    HW122106   5.950   0.217   6.477
 7069SOL    HW222107   5.820   0.311   6.448
 7070SOL     OW22108   0.262   6.746   4.838
 7070SOL    HW122109   0.212   6.693   4.906
 7070SOL    HW222110   0.202   6.764   4.759
 7071SOL     OW22111   5.184   6.107   6.588
 7071SOL    HW122112   5.087   6.097   6.566
 7071SOL    HW222113   5.202   6.200   6.621
 7072SOL     OW22114   0.275   3.880   6.251
 7072SOL    HW122115   0.223   3.925   6.325
 7072SOL    HW222116   0.211   3.849   6.181
 7073SOL     OW22117   5.329   1.272   3.179
 7073SOL    HW122118   5.416   1.224   3.190
 7073SOL    HW222119   5.286   1.244   3.093
 7074SOL     OW22120   5.830   4.060   2.865
 7074SOL    HW122121   5.915   4.107   2.841
 7074SOL    HW222122   5.768   4.061   2.786
 7075SOL     OW22123   3.316   5.379   4.139
 7075SOL    HW122124   3.368   5.354   4.221
 7075SOL    HW222125   3.224   5.341   4.145
 7076SOL     OW22126   5.734   2.273   2.345
 7076SOL    HW122127   5.767   2.190   2.390
 7076SOL    HW222128   5.635   2.281   2.359
 7077SOL     OW22129   3.461   5.632   1.216
 7077SOL    HW122130   3.525   5.600   1.285
 7077SOL    HW222131   3.475   5.581   1.131
 7078SOL     OW22132   5.464   0.573   6.912
 7078SOL    HW122133   5.489   0.645   6.977
 7078SOL    HW222134   5.523   0.579   6.832
 7079SOL     OW22135   1.448   6.667   4.886
 7079SOL    HW122136   1.420   6.644   4.793
 7079SOL    HW222137   1.481   6.762   4.889
 7080SOL     OW22138   4.283   2.025   5.580
 7080SOL    HW122139   4.378   2.018   5.549
 7080SOL    HW222140   4.239   1.935   5.574
 7081SOL     OW22141   1.500   0.417   0.433
 7081SOL    HW122142   1.543   0.501   0.401
 7081SOL    HW222143   1.402   0.420   0.416
 7082SOL     OW22144   6.333   4.682   2.887
 7082SOL    HW122145   6.281   4.767   2.877
 7082SOL    HW222146   6.428   4.698   2.862
 7083SOL     OW22147   6.664   2.887   2.686
 7083SOL    HW122148   6.661   2.918   2.781
 7083SOL    HW222149   6.575   2.850   2.660
 7084SOL     OW22150   0.546   6.083   0.409
 7084SOL    HW122151   0.621   6.110   0.470
 7084SOL    HW222152   0.479   6.157   0.405
 7085SOL     OW22153   0.623   3.168   1.815
 7085SOL    HW122154   0.705   3.138   1.766
 7085SOL    HW222155   0.627   3.266   1.830
 7086SOL     OW22156   5.872   1.142   4.066
 7086SOL    HW122157   5.881   1.140   4.166
 7086SOL    HW222158   5.919   1.063   4.027
 7087SOL     OW22159   5.173   3.390   3.066
 7087SOL    HW122160   5.075   3.396   3.047
 7087SOL    HW222161   5.195   3.299   3.101
 7088SOL     OW22162   6.449   1.936   4.584
 7088SOL    HW122163   6.462   1.952   4.681
 7088SOL    HW222164   6.392   2.009   4.545
 7089SOL     OW22165   3.011   6.105   1.968
 7089SOL    HW122166   3.062   6.055   1.897
 7089SOL    HW222167   2.947   6.168   1.924
 7090SOL     OW22168   4.300   2.143   1.143
 7090SOL    HW122169   4.309   2.233   1.099
 7090SOL    HW222170   4.297   2.154   1.242
 7091SOL     OW22171   6.711   6.486   6.624
 7091SOL    HW122172   6.682   6.566   6.571
 7091SOL    HW222173   6.656   6.407   6.598
 7092SOL     OW22174   4.443   1.490   6.296
 7092SOL    HW122175   4.440   1.394   6.321
 7092SOL    HW222176   4.423   1.501   6.199
 7093SOL     OW22177   3.187   3.103   1.409
 7093SOL    HW122178   3.181   3.011   1.370
 7093SOL    HW222179   3.097   3.132   1.440
 7094SOL     OW22180   3.008   0.212   5.528
 7094SOL    HW122181   3.052   0.205   5.618
 7094SOL    HW222182   2.994   0.308   5.505
 7095SOL     OW22183   2.419   4.621   4.972
 7095SOL    HW122184   2.461   4.632   4.882
 7095SOL    HW222185   2.320   4.635   4.966
 7096SOL     OW22186   0.338   1.175   1.421
 7096SOL    HW122187   0.336   1.190   1.322
 7096SOL    HW222188   0.249   1.143   1.451
 7097SOL     OW22189   4.340   0.998   1.615
 7097SOL    HW122190   4.417   0.964   1.668
 7097SOL    HW222191   4.311   0.928   1.549
 7098SOL     OW22192   1.150   6.700   3.887
 7098SOL    HW122193   1.249   6.706   3.897
 7098SOL    HW222194   1.106   6.773   3.941
 7099SOL     OW22195   2.702   2.335   3.885
 7099SOL    HW122196   2.784   2.307   3.936
 7099SOL    HW222197   2.629   2.269   3.902
 7100SOL     OW22198   5.779   4.370   1.328
 7100SOL    HW122199   5.715   4.373   1.405
 7100SOL    HW222200   5.788   4.276   1.296
 7101SOL     OW22201   2.492   6.108   5.697
 7101SOL    HW122202   2.586   6.085   5.720
 7101SOL    HW222203   2.440   6.025   5.678
 7102SOL     OW22204   5.353   0.811   1.738
 7102SOL    HW122205   5.260   0.830   1.707
 7102SOL    HW222206   5.373   0.866   1.819
 7103SOL     OW22207   4.853   3.716   2.927
 7103SOL    HW122208   4.852   3.813   2.951
 7103SOL    HW222209   4.784   3.698   2.856
 7104SOL     OW22210   5.252   3.836   3.393
 7104SOL    HW122211   5.281   3.766   3.327
 7104SOL    HW222212   5.255   3.798   3.485
 7105SOL     OW22213   3.307   4.000   3.605
 7105SOL    HW122214   3.322   3.943   3.524
 7105SOL    HW222215   3.222   3.973   3.650
 7106SOL     OW22216   3.140   2.486   0.694
 7106SOL    HW122217   3.204   2.468   0.769
 7106SOL    HW222218   3.088   2.569   0.715
 7107SOL     OW22219   3.554   0.726   6.222
 7107SOL    HW122220   3.548   0.635   6.181
 7107SOL    HW222221   3.581   0.792   6.153
 7108SOL     OW22222   4.699   0.801   1.938
 7108SOL    HW122223   4.798   0.799   1.954
 7108SOL    HW222224   4.657   0.720   1.980
 7109SOL     OW22225   2.521   5.586   6.509
 7109SOL    HW122226   2.518   5.510   6.574
 7109SOL    HW222227   2.491   5.670   6.554
 7110SOL     OW22228   3.105   6.526   4.276
 7110SOL    HW122229   3.166   6.447   4.270
 7110SOL    HW222230   3.024   6.501   4.330
 7111SOL     OW22231   6.867   0.160   4.780
 7111SOL    HW122232   6.957   0.129   4.809
 7111SOL    HW222233   6.866   0.176   4.681
 7112SOL     OW22234   1.537   5.047   4.972
 7112SOL    HW122235   1.446   5.078   5.001
 7112SOL    HW222236   1.538   4.947   4.968
 7113SOL     OW22237   3.593   5.946   5.497
 7113SOL    HW122238   3.611   5.885   5.574
 7113SOL    HW222239   3.670   6.008   5.485
 7114SOL     OW22240   5.175   4.842   0.413
 7114SOL    HW122241   5.213   4.751   0.396
 7114SOL    HW222242   5.181   4.862   0.511
 7115SOL     OW22243   6.436   3.619   6.742
 7115SOL    HW122244   6.470   3.707   6.774
 7115SOL    HW222245   6.493   3.546   6.777
 7116SOL     OW22246   6.374   4.086   4.122
 7116SOL    HW122247   6.294   4.030   4.144
 7116SOL    HW222248   6.456   4.029   4.125
 7117SOL     OW22249   5.938   0.052   3.186
 7117SOL    HW122250   5.970   0.063   3.280
 7117SOL    HW222251   6.014   0.018   3.129
 7118SOL     OW22252   4.160   4.183   5.288
 7118SOL    HW122253   4.063   4.162   5.293
 7118SOL    HW222254   4.176   4.254   5.220
 7119SOL     OW22255   3.573   6.540   5.208
 7119SOL    HW122256   3.664   6.551   5.168
 7119SOL    HW222257   3.547   6.444   5.206
 7120SOL     OW22258   4.894   0.624   0.276
 7120SOL    HW122259   4.796   0.630   0.295
 7120SOL    HW222260   4.917   0.532   0.245
 7121SOL     OW22261   1.879   5.865   2.284
 7121SOL    HW122262   1.889   5.786   2.345
 7121SOL    HW222263   1.789   5.906   2.298
 7122SOL     OW22264   2.781   1.192   6.682
 7122SOL    HW122265   2.859   1.244   6.717
 7122SOL    HW222266   2.755   1.228   6.592
 7123SOL     OW22267   5.084   5.414   6.140
 7123SOL    HW122268   5.097   5.480   6.066
 7123SOL    HW222269   5.166   5.358   6.149
 7124SOL     OW22270   1.239   2.234   1.445
 7124SOL    HW122271   1.249   2.330   1.467
 7124SOL    HW222272   1.142   2.213   1.427
 7125SOL     OW22273   0.543   6.527   1.720
 7125SOL    HW122274   0.581   6.613   1.754
 7125SOL    HW222275   0.446   6.540   1.701
 7126SOL     OW22276   3.407   5.442   0.931
 7126SOL    HW122277   3.378   5.390   0.850
 7126SOL    HW222278   3.475   5.510   0.903
 7127SOL     OW22279   2.521   6.640   5.463
 7127SOL    HW122280   2.579   6.697   5.405
 7127SOL    HW222281   2.533   6.544   5.439
 7128SOL     OW22282   4.318   3.696   6.196
 7128SOL    HW122283   4.242   3.698   6.261
 7128SOL    HW222284   4.397   3.653   6.239
 7129SOL     OW22285   0.373   0.030   0.736
 7129SOL    HW122286   0.398   7.013   0.825
 7129SOL    HW222287   0.455   0.043   0.681
 7130SOL     OW22288   3.393   6.547   3.843
 7130SOL    HW122289   3.444   6.609   3.784
 7130SOL    HW222290   3.400   6.577   3.938
 7131SOL     OW22291   3.463   1.290   2.976
 7131SOL    HW122292   3.449   1.274   3.074
 7131SOL    HW222293   3.464   1.388   2.958
 7132SOL     OW22294   5.270   4.608   0.754
 7132SOL    HW122295   5.287   4.545   0.679
 7132SOL    HW222296   5.309   4.571   0.839
 7133SOL     OW22297   5.122   5.489   2.862
 7133SOL    HW122298   5.068   5.430   2.803
 7133SOL    HW222299   5.129   5.580   2.821
 7134SOL     OW22300   5.520   5.226   0.798
 7134SOL    HW122301   5.439   5.214   0.855
 7134SOL    HW222302   5.591   5.275   0.849
 7135SOL     OW22303   1.554   2.338   0.996
 7135SOL    HW122304   1.462   2.315   1.027
 7135SOL    HW222305   1.551   2.425   0.946
 7136SOL     OW22306   1.955   1.844   1.620
 7136SOL    HW122307   2.053   1.846   1.637
 7136SOL    HW222308   1.908   1.802   1.697
 7137SOL     OW22309   2.922   2.129   1.509
 7137SOL    HW122310   2.825   2.104   1.512
 7137SOL    HW222311   2.974   2.070   1.570
 7138SOL     OW22312   1.105   2.660   0.489
 7138SOL    HW122313   1.066   2.746   0.521
 7138SOL    HW222314   1.032   2.593   0.475
 7139SOL     OW22315   6.315   6.506   0.814
 7139SOL    HW122316   6.304   6.555   0.728
 7139SOL    HW222317   6.231   6.456   0.836
 7140SOL     OW22318   6.716   3.553   0.453
 7140SOL    HW122319   6.792   3.495   0.424
 7140SOL    HW222320   6.630   3.511   0.425
 7141SOL     OW22321   3.410   0.349   0.831
 7141SOL    HW122322   3.381   0.444   0.842
 7141SOL    HW222323   3.465   0.321   0.909
 7142SOL     OW22324   3.105   6.960   4.797
 7142SOL    HW122325   3.085   7.004   4.884
 7142SOL    HW222326   3.203   6.937   4.793
 7143SOL     OW22327   3.055   4.176   6.565
 7143SOL    HW122328   3.092   4.160   6.656
 7143SOL    HW222329   3.096   4.259   6.526
 7144SOL     OW22330   6.686   0.697   5.815
 7144SOL    HW122331   6.624   0.619   5.822
 7144SOL    HW222332   6.780   0.666   5.827
 7145SOL     OW22333   5.326   2.458   6.609
 7145SOL    HW122334   5.348   2.420   6.519
 7145SOL    HW222335   5.227   2.458   6.622
 7146SOL     OW22336   1.968   2.324   5.281
 7146SOL    HW122337   2.012   2.413   5.293
 7146SOL    HW222338   1.926   2.296   5.366
 7147SOL     OW22339   6.292   6.461   1.912
 7147SOL    HW122340   6.336   6.410   1.986
 7147SOL    HW222341   6.324   6.556   1.913
 7148SOL     OW22342   6.460   6.977   0.890
 7148SOL    HW122343   6.444   6.880   0.912
 7148SOL    HW222344   6.426   0.013   0.965
 7149SOL     OW22345   6.083   5.038   5.801
 7149SOL    HW122346   6.161   5.021   5.861
 7149SOL    HW222347   6.108   5.018   5.707
 7150SOL     OW22348   3.588   3.113   6.901
 7150SOL    HW122349   3.492   3.097   6.876
 7150SOL    HW222350   3.603   3.210   6.916
 7151SOL     OW22351   3.390   1.193   1.159
 7151SOL    HW122352   3.397   1.213   1.061
 7151SOL    HW222353   3.482   1.177   1.196
 7152SOL     OW22354   6.328   1.447   6.192
 7152SOL    HW122355   6.311   1.503   6.273
 7152SOL    HW222356   6.326   1.504   6.110
 7153SOL     OW22357   3.377   5.862   0.941
 7153SOL    HW122358   3.456   5.853   1.002
 7153SOL    HW222359   3.403   5.914   0.860
 7154SOL     OW22360   4.152   2.161   1.672
 7154SOL    HW122361   4.190   2.149   1.763
 7154SOL    HW222362   4.075   2.225   1.676
 7155SOL     OW22363   2.270   1.036   1.823
 7155SOL    HW122364   2.319   1.026   1.736
 7155SOL    HW222365   2.270   1.133   1.849
 7156SOL     OW22366   5.978   3.181   6.336
 7156SOL    HW122367   5.956   3.204   6.241
 7156SOL    HW222368   6.016   3.261   6.383
 7157SOL     OW22369   6.621   4.215   6.123
 7157SOL    HW122370   6.687   4.152   6.082
 7157SOL    HW222371   6.584   4.276   6.053
 7158SOL     OW22372   4.444   6.911   3.984
 7158SOL    HW122373   4.527   6.865   3.953
 7158SOL    HW222374   4.364   6.858   3.955
 7159SOL     OW22375   0.962   6.310   2.945
 7159SOL    HW122376   1.016   6.362   2.878
 7159SOL    HW222377   0.868   6.345   2.946
 7160SOL     OW22378   0.029   0.057   3.482
 7160SOL    HW122379   6.953   0.054   3.509
 7160SOL    HW222380   0.039   0.119   3.404
 7161SOL     OW22381   3.751   2.916   3.175
 7161SOL    HW122382   3.747   2.896   3.273
 7161SOL    HW222383   3.843   2.947   3.151
 7162SOL     OW22384   0.119   5.485   1.742
 7162SOL    HW122385   0.136   5.583   1.748
 7162SOL    HW222386   0.026   5.469   1.708
 7163SOL     OW22387   6.743   1.960   1.789
 7163SOL    HW122388   6.754   2.012   1.704
 7163SOL    HW222389   6.676   1.887   1.775
 7164SOL     OW22390   2.115   1.349   6.408
 7164SOL    HW122391   2.064   1.290   6.471
 7164SOL    HW222392   2.092   1.325   6.314
 7165SOL     OW22393   5.603   1.441   0.616
 7165SOL    HW122394   5.551   1.504   0.674
 7165SOL    HW222395   5.698   1.472   0.609
 7166SOL     OW22396   6.520   5.963   6.455
 7166SOL    HW122397   6.540   5.874   6.416
 7166SOL    HW222398   6.456   5.953   6.531
 7167SOL     OW22399   5.943   2.563   4.775
 7167SOL    HW122400   5.956   2.477   4.725
 7167SOL    HW222401   5.964   2.550   4.871
 7168SOL     OW22402   3.110   1.164   1.858
 7168SOL    HW122403   3.056   1.093   1.904
 7168SOL    HW222404   3.155   1.124   1.778
 7169SOL     OW22405   1.764   3.837   6.528
 7169SOL    HW122406   1.714   3.753   6.550
 7169SOL    HW222407   1.862   3.821   6.536
 7170SOL     OW22408   3.814   1.095   0.475
 7170SOL    HW122409   3.762   1.047   0.546
 7170SOL    HW222410   3.906   1.055   0.469
 7171SOL     OW22411   6.833   4.673   0.582
 7171SOL    HW122412   6.779   4.593   0.608
 7171SOL    HW222413   6.800   4.711   0.496
 7172SOL     OW22414   1.314   1.897   4.092
 7172SOL    HW122415   1.365   1.843   4.160
 7172SOL    HW222416   1.290   1.986   4.132
 7173SOL     OW22417   4.647   5.561   6.041
 7173SOL    HW122418   4.666   5.499   5.965
 7173SOL    HW222419   4.618   5.509   6.120
 7174SOL     OW22420   6.722   4.439   2.203
 7174SOL    HW122421   6.790   4.406   2.269
 7174SOL    HW222422   6.737   4.536   2.186
 7175SOL     OW22423   6.264   3.439   6.335
 7175SOL    HW122424   6.213   3.414   6.417
 7175SOL    HW222425   6.204   3.434   6.255
 7176SOL     OW22426   0.962   0.516   5.139
 7176SOL    HW122427   1.004   0.606   5.149
 7176SOL    HW222428   0.907   0.514   5.056
 7177SOL     OW22429   1.626   5.517   3.398
 7177SOL    HW122430   1.715   5.473   3.410
 7177SOL    HW222431   1.559   5.449   3.369
 7178SOL     OW22432   2.034   0.286   5.055
 7178SOL    HW122433   2.055   0.381   5.077
 7178SOL    HW222434   1.940   0.265   5.084
 7179SOL     OW22435   3.126   5.407   6.177
 7179SOL    HW122436   3.142   5.492   6.126
 7179SOL    HW222437   3.042   5.415   6.230
 7180SOL     OW22438   1.740   3.700   0.953
 7180SOL    HW122439   1.783   3.696   1.043
 7180SOL    HW222440   1.642   3.678   0.962
 7181SOL     OW22441   2.388   1.782   5.653
 7181SOL    HW122442   2.299   1.829   5.655
 7181SOL    HW222443   2.375   1.688   5.620
 7182SOL     OW22444   1.751   1.923   4.325
 7182SOL    HW122445   1.752   1.912   4.424
 7182SOL    HW222446   1.771   2.019   4.302
 7183SOL     OW22447   0.688   0.053   2.067
 7183SOL    HW122448   0.741   0.093   2.142
 7183SOL    HW222449   0.747   0.037   1.989
 7184SOL     OW22450   6.544   0.303   4.133
 7184SOL    HW122451   6.516   0.395   4.162
 7184SOL    HW222452   6.476   0.236   4.162
 7185SOL     OW22453   4.374   1.131   4.502
 7185SOL    HW122454   4.457   1.075   4.492
 7185SOL    HW222455   4.309   1.083   4.560
 7186SOL     OW22456   0.326   0.405   6.603
 7186SOL    HW122457   0.238   0.423   6.559
 7186SOL    HW222458   0.376   0.491   6.615
 7187SOL     OW22459   3.072   3.050   4.123
 7187SOL    HW122460   3.158   3.060   4.174
 7187SOL    HW222461   3.011   2.988   4.172
 7188SOL     OW22462   3.967   4.474   0.391
 7188SOL    HW122463   4.000   4.406   0.456
 7188SOL    HW222464   4.039   4.541   0.373
 7189SOL     OW22465   6.763   2.518   5.759
 7189SOL    HW122466   6.715   2.600   5.730
 7189SOL    HW222467   6.862   2.536   5.761
 7190SOL     OW22468   5.547   5.114   1.498
 7190SOL    HW122469   5.579   5.046   1.563
 7190SOL    HW222470   5.474   5.169   1.540
 7191SOL     OW22471   0.278   5.029   4.450
 7191SOL    HW122472   0.335   4.976   4.513
 7191SOL    HW222473   0.263   4.977   4.366
 7192SOL     OW22474   2.381   4.566   6.681
 7192SOL    HW122475   2.289   4.557   6.642
 7192SOL    HW222476   2.382   4.529   6.774
 7193SOL     OW22477   3.025   2.151   2.715
 7193SOL    HW122478   3.049   2.065   2.759
 7193SOL    HW222479   3.082   2.164   2.634
 7194SOL     OW22480   3.346   2.895   6.080
 7194SOL    HW122481   3.273   2.863   6.020
 7194SOL    HW222482   3.434   2.863   6.045
 7195SOL     OW22483   0.524   4.581   4.902
 7195SOL    HW122484   0.450   4.604   4.839
 7195SOL    HW222485   0.493   4.595   4.996
 7196SOL     OW22486   3.318   3.997   2.082
 7196SOL    HW122487   3.358   4.057   2.013
 7196SOL    HW222488   3.219   3.997   2.073
 7197SOL     OW22489   3.061   4.205   5.957
 7197SOL    HW122490   2.999   4.262   5.904
 7197SOL    HW222491   3.008   4.145   6.018
 7198SOL     OW22492   0.718   0.483   1.958
 7198SOL    HW122493   0.686   0.414   1.893
 7198SOL    HW222494   0.695   0.574   1.925
 7199SOL     OW22495   6.938   1.216   2.325
 7199SOL    HW122496   6.913   1.119   2.331
 7199SOL    HW222497   0.014   1.227   2.349
 7200SOL     OW22498   1.025   2.478   0.744
 7200SOL    HW122499   0.974   2.504   0.662
 7200SOL    HW222500   1.107   2.427   0.717
 7201SOL     OW22501   5.611   5.522   4.035
 7201SOL    HW122502   5.606   5.615   3.999
 7201SOL    HW222503   5.640   5.459   3.962
 7202SOL     OW22504   4.884   0.881   5.585
 7202SOL    HW122505   4.863   0.868   5.682
 7202SOL    HW222506   4.955   0.950   5.575
 7203SOL     OW22507   0.241   1.421   0.832
 7203SOL    HW122508   0.334   1.386   0.827
 7203SOL    HW222509   0.231   1.478   0.914
 7204SOL     OW22510   6.174   0.149   1.878
 7204SOL    HW122511   6.203   0.178   1.787
 7204SOL    HW222512   6.075   0.133   1.878
 7205SOL     OW22513   2.948   1.941   4.072
 7205SOL    HW122514   2.997   2.008   4.015
 7205SOL    HW222515   2.932   1.980   4.162
 7206SOL     OW22516   2.342   3.724   0.940
 7206SOL    HW122517   2.305   3.784   1.011
 7206SOL    HW222518   2.330   3.768   0.851
 7207SOL     OW22519   1.913   1.371   4.043
 7207SOL    HW122520   2.003   1.414   4.043
 7207SOL    HW222521   1.911   1.301   3.971
 7208SOL     OW22522   3.072   0.321   4.372
 7208SOL    HW122523   2.977   0.310   4.404
 7208SOL    HW222524   3.125   0.241   4.400
 7209SOL     OW22525   3.350   2.053   2.297
 7209SOL    HW122526   3.256   2.080   2.317
 7209SOL    HW222527   3.353   2.001   2.212
 7210SOL     OW22528   2.986   1.397   3.165
 7210SOL    HW122529   2.977   1.473   3.230
 7210SOL    HW222530   3.021   1.317   3.213
 7211SOL     OW22531   3.891   5.831   4.839
 7211SOL    HW122532   3.959   5.894   4.877
 7211SOL    HW222533   3.808   5.835   4.896
 7212SOL     OW22534   6.888   4.309   5.923
 7212SOL    HW122535   6.961   4.340   5.984
 7212SOL    HW222536   6.857   4.218   5.950
 7213SOL     OW22537   3.847   2.012   0.542
 7213SOL    HW122538   3.749   1.996   0.551
 7213SOL    HW222539   3.889   1.935   0.493
 7214SOL     OW22540   6.993   0.670   6.410
 7214SOL    HW122541   6.950   0.633   6.492
 7214SOL    HW222542   6.935   0.743   6.372
 7215SOL     OW22543   6.760   2.608   2.682
 7215SOL    HW122544   6.818   2.592   2.602
 7215SOL    HW222545   6.727   2.702   2.681
 7216SOL     OW22546   3.347   6.729   2.885
 7216SOL    HW122547   3.366   6.715   2.982
 7216SOL    HW222548   3.264   6.679   2.859
 7217SOL     OW22549   1.384   2.824   3.423
 7217SOL    HW122550   1.302   2.767   3.425
 7217SOL    HW222551   1.458   2.774   3.377
 7218SOL     OW22552   6.205   4.234   4.318
 7218SOL    HW122553   6.249   4.196   4.237
 7218SOL    HW222554   6.107   4.246   4.300
 7219SOL     OW22555   3.403   5.812   2.892
 7219SOL    HW122556   3.386   5.799   2.794
 7219SOL    HW222557   3.353   5.892   2.924
 7220SOL     OW22558   5.975   4.302   4.642
 7220SOL    HW122559   5.923   4.385   4.664
 7220SOL    HW222560   5.987   4.295   4.543
 7221SOL     OW22561   3.511   5.564   4.114
 7221SOL    HW122562   3.430   5.508   4.133
 7221SOL    HW222563   3.573   5.515   4.053
 7222SOL     OW22564   0.304   5.874   4.375
 7222SOL    HW122565   0.364   5.895   4.452
 7222SOL    HW222566   0.230   5.813   4.405
 7223SOL     OW22567   6.954   3.668   1.912
 7223SOL    HW122568   6.972   3.571   1.900
 7223SOL    HW222569   6.884   3.681   1.983
 7224SOL     OW22570   4.039   1.574   3.499
 7224SOL    HW122571   4.100   1.652   3.512
 7224SOL    HW222572   4.085   1.504   3.443
 7225SOL     OW22573   1.608   6.390   0.832
 7225SOL    HW122574   1.522   6.355   0.870
 7225SOL    HW222575   1.658   6.438   0.904
 7226SOL     OW22576   6.064   6.380   0.835
 7226SOL    HW122577   5.972   6.415   0.855
 7226SOL    HW222578   6.058   6.288   0.798
 7227SOL     OW22579   2.337   0.763   1.757
 7227SOL    HW122580   2.314   0.840   1.698
 7227SOL    HW222581   2.260   0.744   1.818
 7228SOL     OW22582   6.874   3.389   2.616
 7228SOL    HW122583   6.846   3.316   2.679
 7228SOL    HW222584   6.906   3.349   2.531
 7229SOL     OW22585   6.752   0.540   5.081
 7229SOL    HW122586   6.717   0.610   5.019
 7229SOL    HW222587   6.802   0.471   5.028
 7230SOL     OW22588   2.187   4.813   4.239
 7230SOL    HW122589   2.221   4.751   4.310
 7230SOL    HW222590   2.110   4.866   4.275
 7231SOL     OW22591   4.591   1.230   6.619
 7231SOL    HW122592   4.625   1.297   6.685
 7231SOL    HW222593   4.514   1.181   6.658
 7232SOL     OW22594   5.169   6.960   3.156
 7232SOL    HW122595   5.169   6.969   3.057
 7232SOL    HW222596   5.261   6.933   3.187
 7233SOL     OW22597   6.702   1.379   4.377
 7233SOL    HW122598   6.674   1.286   4.353
 7233SOL    HW222599   6.794   1.396   4.342
 7234SOL     OW22600   5.165   4.085   2.725
 7234SOL    HW122601   5.176   4.147   2.802
 7234SOL    HW222602   5.224   4.005   2.737
 7235SOL     OW22603   0.173   6.124   1.346
 7235SOL    HW122604   0.162   6.038   1.295
 7235SOL    HW222605   0.199   6.197   1.283
 7236SOL     OW22606   2.029   2.531   3.042
 7236SOL    HW122607   2.015   2.464   2.970
 7236SOL    HW222608   1.952   2.529   3.105
 7237SOL     OW22609   5.475   0.909   0.239
 7237SOL    HW122610   5.448   0.871   0.327
 7237SOL    HW222611   5.486   1.008   0.247
 7238SOL     OW22612   3.896   3.089   0.615
 7238SOL    HW122613   3.855   3.171   0.656
 7238SOL    HW222614   3.825   3.020   0.602
 7239SOL     OW22615   0.178   2.626   2.684
 7239SOL    HW122616   0.231   2.580   2.613
 7239SOL    HW222617   0.096   2.667   2.644
 7240SOL     OW22618   6.933   1.990   6.151
 7240SOL    HW122619   7.019   1.954   6.186
 7240SOL    HW222620   6.859   1.926   6.171
 7241SOL     OW22621   2.779   1.417   1.677
 7241SOL    HW122622   2.842   1.339   1.670
 7241SOL    HW222623   2.711   1.398   1.748
 7242SOL     OW22624   6.201   5.217   4.984
 7242SOL    HW122625   6.279   5.265   4.944
 7242SOL    HW222626   6.232   5.132   5.025
 7243SOL     OW22627   6.136   4.339   6.757
 7243SOL    HW122628   6.038   4.326   6.770
 7243SOL    HW222629   6.153   4.373   6.664
 7244SOL     OW22630   0.223   6.724   6.524
 7244SOL    HW122631   0.193   6.652   6.585
 7244SOL    HW222632   0.147   6.788   6.508
 7245SOL     OW22633   1.005   3.296   0.034
 7245SOL    HW122634   0.994   3.346   6.968
 7245SOL    HW222635   1.099   3.306   0.067
 7246SOL     OW22636   3.358   0.140   3.916
 7246SOL    HW122637   3.299   0.153   3.995
 7246SOL    HW222638   3.419   0.062   3.932
 7247SOL     OW22639   3.214   2.745   5.831
 7247SOL    HW122640   3.225   2.649   5.860
 7247SOL    HW222641   3.240   2.753   5.735
 7248SOL     OW22642   3.327   0.653   4.920
 7248SOL    HW122643   3.364   0.668   4.828
 7248SOL    HW222644   3.340   0.558   4.946
 7249SOL     OW22645   3.871   5.244   1.944
 7249SOL    HW122646   3.807   5.321   1.943
 7249SOL    HW222647   3.825   5.164   1.983
 7250SOL     OW22648   5.038   5.888   5.629
 7250SOL    HW122649   4.976   5.937   5.691
 7250SOL    HW222650   4.990   5.867   5.544
 7251SOL     OW22651   0.226   5.602   5.567
 7251SOL    HW122652   0.136   5.593   5.526
 7251SOL    HW222653   0.247   5.520   5.621
 7252SOL     OW22654   3.406   3.825   2.286
 7252SOL    HW122655   3.407   3.727   2.266
 7252SOL    HW222656   3.398   3.876   2.201
 7253SOL     OW22657   1.561   5.830   5.272
 7253SOL    HW122658   1.560   5.924   5.237
 7253SOL    HW222659   1.655   5.803   5.293
 7254SOL     OW22660   5.258   3.899   3.963
 7254SOL    HW122661   5.357   3.911   3.957
 7254SOL    HW222662   5.238   3.814   4.012
 7255SOL     OW22663   5.301   3.444   6.546
 7255SOL    HW122664   5.277   3.468   6.452
 7255SOL    HW222665   5.400   3.435   6.554
 7256SOL     OW22666   3.528   6.685   5.802
 7256SOL    HW122667   3.531   6.766   5.860
 7256SOL    HW222668   3.612   6.632   5.813
 7257SOL     OW22669   0.774   1.158   4.609
 7257SOL    HW122670   0.803   1.219   4.682
 7257SOL    HW222671   0.797   1.198   4.521
 7258SOL     OW22672   6.112   1.734   3.356
 7258SOL    HW122673   6.112   1.695   3.264
 7258SOL    HW222674   6.060   1.674   3.417
 7259SOL     OW22675   0.777   4.517   2.970
 7259SOL    HW122676   0.701   4.553   3.024
 7259SOL    HW222677   0.840   4.467   3.030
 7260SOL     OW22678   5.520   3.484   1.034
 7260SOL    HW122679   5.477   3.561   0.989
 7260SOL    HW222680   5.607   3.513   1.075
 7261SOL     OW22681   0.038   4.354   6.889
 7261SOL    HW122682   0.052   4.294   6.967
 7261SOL    HW222683   6.964   4.347   6.857
 7262SOL     OW22684   6.346   1.904   5.879
 7262SOL    HW122685   6.367   2.002   5.877
 7262SOL    HW222686   6.263   1.887   5.824
 7263SOL     OW22687   0.760   5.605   0.180
 7263SOL    HW122688   0.769   5.555   0.267
 7263SOL    HW222689   0.851   5.632   0.147
 7264SOL     OW22690   5.870   1.570   0.921
 7264SOL    HW122691   5.883   1.474   0.946
 7264SOL    HW222692   5.888   1.581   0.823
 7265SOL     OW22693   4.106   5.626   5.249
 7265SOL    HW122694   4.031   5.623   5.315
 7265SOL    HW222695   4.189   5.589   5.292
 7266SOL     OW22696   6.936   0.549   3.720
 7266SOL    HW122697   7.013   0.527   3.660
 7266SOL    HW222698   6.941   0.494   3.803
 7267SOL     OW22699   6.405   5.402   4.865
 7267SOL    HW122700   6.373   5.384   4.772
 7267SOL    HW222701   6.376   5.493   4.893
 7268SOL     OW22702   6.377   6.426   3.597
 7268SOL    HW122703   6.283   6.418   3.562
 7268SOL    HW222704   6.438   6.455   3.523
 7269SOL     OW22705   2.399   5.221   5.157
 7269SOL    HW122706   2.437   5.314   5.150
 7269SOL    HW222707   2.469   5.159   5.193
 7270SOL     OW22708   0.772   1.589   3.962
 7270SOL    HW122709   0.840   1.603   3.891
 7270SOL    HW222710   0.680   1.598   3.923
 7271SOL     OW22711   0.732   4.129   3.640
 7271SOL    HW122712   0.768   4.196   3.704
 7271SOL    HW222713   0.734   4.038   3.683
 7272SOL     OW22714   6.158   5.720   2.903
 7272SOL    HW122715   6.158   5.797   2.839
 7272SOL    HW222716   6.245   5.718   2.953
 7273SOL     OW22717   0.147   2.987   5.392
 7273SOL    HW122718   0.142   2.966   5.490
 7273SOL    HW222719   0.076   3.053   5.369
 7274SOL     OW22720   0.733   4.741   6.757
 7274SOL    HW122721   0.756   4.830   6.717
 7274SOL    HW222722   0.663   4.696   6.701
 7275SOL     OW22723   6.384   0.092   3.174
 7275SOL    HW122724   6.319   0.025   3.211
 7275SOL    HW222725   6.350   0.185   3.191
 7276SOL     OW22726   4.560   6.963   3.546
 7276SOL    HW122727   4.654   6.963   3.512
 7276SOL    HW222728   4.512   6.882   3.510
 7277SOL     OW22729   4.651   0.182   5.813
 7277SOL    HW122730   4.581   0.233   5.764
 7277SOL    HW222731   4.628   0.179   5.911
 7278SOL     OW22732   3.006   3.632   2.486
 7278SOL    HW122733   3.098   3.606   2.456
 7278SOL    HW222734   2.982   3.721   2.447
 7279SOL     OW22735   3.958   5.608   6.938
 7279SOL    HW122736   4.037   5.655   6.900
 7279SOL    HW222737   3.923   5.542   6.872
 7280SOL     OW22738   4.383   0.301   5.907
 7280SOL    HW122739   4.424   0.390   5.924
 7280SOL    HW222740   4.445   0.229   5.938
 7281SOL     OW22741   4.487   1.552   6.711
 7281SOL    HW122742   4.567   1.611   6.720
 7281SOL    HW222743   4.404   1.607   6.721
 7282SOL     OW22744   6.024   5.325   1.911
 7282SOL    HW122745   5.930   5.352   1.932
 7282SOL    HW222746   6.026   5.275   1.824
 7283SOL     OW22747   2.561   0.848   3.548
 7283SOL    HW122748   2.608   0.760   3.552
 7283SOL    HW222749   2.512   0.855   3.461
 7284SOL     OW22750   6.835   3.957   5.436
 7284SOL    HW122751   6.798   3.970   5.528
 7284SOL    HW222752   6.819   4.040   5.382
 7285SOL     OW22753   5.173   5.684   1.971
 7285SOL    HW122754   5.240   5.612   1.989
 7285SOL    HW222755   5.116   5.699   2.051
 7286SOL     OW22756   2.615   2.798   1.194
 7286SOL    HW122757   2.524   2.828   1.164
 7286SOL    HW222758   2.685   2.839   1.134
 7287SOL     OW22759   6.447   0.786   6.541
 7287SOL    HW122760   6.406   0.856   6.599
 7287SOL    HW222761   6.488   0.829   6.460
 7288SOL     OW22762   4.082   0.123   6.298
 7288SOL    HW122763   4.002   0.086   6.252
 7288SOL    HW222764   4.092   0.081   6.388
 7289SOL     OW22765   5.413   1.981   3.145
 7289SOL    HW122766   5.323   1.982   3.103
 7289SOL    HW222767   5.444   1.886   3.156
 7290SOL     OW22768   2.178   5.297   5.028
 7290SOL    HW122769   2.256   5.251   5.070
 7290SOL    HW222770   2.204   5.330   4.937
 7291SOL     OW22771   2.154   6.328   1.449
 7291SOL    HW122772   2.199   6.412   1.477
 7291SOL    HW222773   2.072   6.349   1.396
 7292SOL     OW22774   2.628   6.727   3.299
 7292SOL    HW122775   2.552   6.717   3.364
 7292SOL    HW222776   2.661   6.821   3.301
 7293SOL     OW22777   1.716   1.585   4.805
 7293SOL    HW122778   1.766   1.554   4.724
 7293SOL    HW222779   1.709   1.509   4.871
 7294SOL     OW22780   2.609   5.079   0.302
 7294SOL    HW122781   2.672   5.008   0.270
 7294SOL    HW222782   2.610   5.082   0.401
 7295SOL     OW22783   0.230   1.603   0.529
 7295SOL    HW122784   0.236   1.668   0.605
 7295SOL    HW222785   0.134   1.588   0.506
 7296SOL     OW22786   2.818   4.456   0.743
 7296SOL    HW122787   2.828   4.484   0.838
 7296SOL    HW222788   2.822   4.536   0.683
 7297SOL     OW22789   4.558   6.219   0.605
 7297SOL    HW122790   4.547   6.304   0.553
 7297SOL    HW222791   4.634   6.167   0.567
 7298SOL     OW22792   5.924   3.986   4.633
 7298SOL    HW122793   5.847   4.049   4.643
 7298SOL    HW222794   5.937   3.964   4.537
 7299SOL     OW22795   6.456   2.951   0.857
 7299SOL    HW122796   6.452   2.916   0.763
 7299SOL    HW222797   6.497   3.042   0.857
 7300SOL     OW22798   5.034   5.476   0.814
 7300SOL    HW122799   5.061   5.434   0.727
 7300SOL    HW222800   5.056   5.574   0.811
 7301SOL     OW22801   6.455   6.995   5.897
 7301SOL    HW122802   6.416   6.904   5.887
 7301SOL    HW222803   6.478   7.011   5.993
 7302SOL     OW22804   0.060   1.063   0.220
 7302SOL    HW122805   6.982   1.062   0.202
 7302SOL    HW222806   0.084   0.986   0.279
 7303SOL     OW22807   3.558   0.578   6.615
 7303SOL    HW122808   3.619   0.505   6.583
 7303SOL    HW222809   3.580   0.601   6.709
 7304SOL     OW22810   4.179   3.411   5.840
 7304SOL    HW122811   4.215   3.383   5.751
 7304SOL    HW222812   4.214   3.502   5.862
 7305SOL     OW22813   5.305   1.679   0.185
 7305SOL    HW122814   5.337   1.773   0.199
 7305SOL    HW222815   5.205   1.677   0.191
 7306SOL     OW22816   4.796   4.221   1.369
 7306SOL    HW122817   4.730   4.146   1.360
 7306SOL    HW222818   4.778   4.290   1.299
 7307SOL     OW22819   3.226   6.278   1.850
 7307SOL    HW122820   3.182   6.329   1.924
 7307SOL    HW222821   3.196   6.315   1.762
 7308SOL     OW22822   6.720   3.691   4.202
 7308SOL    HW122823   6.778   3.647   4.134
 7308SOL    HW222824   6.686   3.622   4.266
 7309SOL     OW22825   5.087   6.705   0.344
 7309SOL    HW122826   5.182   6.674   0.350
 7309SOL    HW222827   5.027   6.634   0.379
 7310SOL     OW22828   2.633   5.640   1.179
 7310SOL    HW122829   2.600   5.571   1.115
 7310SOL    HW222830   2.721   5.612   1.216
 7311SOL     OW22831   2.757   2.075   2.049
 7311SOL    HW122832   2.743   2.021   2.132
 7311SOL    HW222833   2.805   2.159   2.071
 7312SOL     OW22834   6.859   2.372   5.510
 7312SOL    HW122835   6.805   2.417   5.581
 7312SOL    HW222836   6.949   2.348   5.547
 7313SOL     OW22837   4.137   1.920   6.563
 7313SOL    HW122838   4.103   2.014   6.567
 7313SOL    HW222839   4.205   1.913   6.490
 7314SOL     OW22840   6.934   3.709   5.117
 7314SOL    HW122841   6.938   3.767   5.035
 7314SOL    HW222842   6.872   3.749   5.183
 7315SOL     OW22843   6.906   0.280   3.948
 7315SOL    HW122844   6.998   0.319   3.943
 7315SOL    HW222845   6.852   0.330   4.016
 7316SOL     OW22846   3.789   3.299   5.621
 7316SOL    HW122847   3.735   3.215   5.631
 7316SOL    HW222848   3.879   3.276   5.584
 7317SOL     OW22849   3.454   0.923   2.981
 7317SOL    HW122850   3.523   0.907   2.910
 7317SOL    HW222851   3.384   0.985   2.946
 7318SOL     OW22852   0.924   1.920   1.526
 7318SOL    HW122853   0.879   1.927   1.616
 7318SOL    HW222854   0.964   2.009   1.503
 7319SOL     OW22855   5.929   4.559   6.812
 7319SOL    HW122856   5.924   4.467   6.774
 7319SOL    HW222857   6.010   4.606   6.776
 7320SOL     OW22858   0.447   3.225   2.307
 7320SOL    HW122859   0.517   3.297   2.307
 7320SOL    HW222860   0.438   3.188   2.214
 7321SOL     OW22861   2.306   1.287   4.447
 7321SOL    HW122862   2.280   1.278   4.543
 7321SOL    HW222863   2.223   1.298   4.391
 7322SOL     OW22864   0.724   3.726   3.094
 7322SOL    HW122865   0.822   3.740   3.083
 7322SOL    HW222866   0.677   3.814   3.085
 7323SOL     OW22867   1.845   2.079   3.509
 7323SOL    HW122868   1.894   2.163   3.486
 7323SOL    HW222869   1.747   2.094   3.499
 7324SOL     OW22870   5.817   1.006   3.671
 7324SOL    HW122871   5.789   0.922   3.625
 7324SOL    HW222872   5.736   1.054   3.706
 7325SOL     OW22873   3.570   6.404   6.176
 7325SOL    HW122874   3.507   6.434   6.104
 7325SOL    HW222875   3.623   6.483   6.208
 7326SOL     OW22876   2.677   6.355   5.796
 7326SOL    HW122877   2.668   6.407   5.881
 7326SOL    HW222878   2.698   6.260   5.818
 7327SOL     OW22879   1.031   2.553   6.205
 7327SOL    HW122880   1.125   2.534   6.235
 7327SOL    HW222881   0.966   2.512   6.269
 7328SOL     OW22882   3.276   6.909   6.500
 7328SOL    HW122883   3.303   6.952   6.586
 7328SOL    HW222884   3.193   6.855   6.514
 7329SOL     OW22885   4.190   3.374   0.614
 7329SOL    HW122886   4.273   3.334   0.576
 7329SOL    HW222887   4.112   3.354   0.554
 7330SOL     OW22888   3.166   1.506   6.499
 7330SOL    HW122889   3.099   1.496   6.573
 7330SOL    HW222890   3.160   1.598   6.461
 7331SOL     OW22891   5.029   0.434   2.525
 7331SOL    HW122892   5.050   0.523   2.566
 7331SOL    HW222893   4.953   0.391   2.575
 7332SOL     OW22894   2.619   5.950   0.068
 7332SOL    HW122895   2.642   5.860   0.106
 7332SOL    HW222896   2.674   5.967   7.007
 7333SOL     OW22897   0.536   4.624   3.088
 7333SOL    HW122898   0.524   4.532   3.124
 7333SOL    HW222899   0.521   4.691   3.161
 7334SOL     OW22900   3.793   5.971   5.254
 7334SOL    HW122901   3.738   6.042   5.209
 7334SOL    HW222902   3.814   6.000   5.348
 7335SOL     OW22903   1.960   2.427   2.783
 7335SOL    HW122904   1.895   2.465   2.717
 7335SOL    HW222905   1.917   2.353   2.834
 7336SOL     OW22906   1.472   5.940   4.108
 7336SOL    HW122907   1.515   5.992   4.034
 7336SOL    HW222908   1.524   5.856   4.124
 7337SOL     OW22909   0.917   3.014   2.347
 7337SOL    HW122910   0.883   2.928   2.384
 7337SOL    HW222911   1.016   3.020   2.361
 7338SOL     OW22912   6.788   2.377   1.500
 7338SOL    HW122913   6.780   2.391   1.401
 7338SOL    HW222914   6.884   2.362   1.523
 7339SOL     OW22915   6.741   6.128   4.172
 7339SOL    HW122916   6.687   6.097   4.094
 7339SOL    HW222917   6.705   6.214   4.206
 7340SOL     OW22918   2.477   0.161   0.063
 7340SOL    HW122919   2.455   0.103   7.005
 7340SOL    HW222920   2.392   0.193   0.105
 7341SOL     OW22921   6.067   2.087   0.262
 7341SOL    HW122922   5.992   2.022   0.266
 7341SOL    HW222923   6.069   2.141   0.347
 7342SOL     OW22924   0.059   6.318   2.605
 7342SOL    HW122925   0.026   6.234   2.648
 7342SOL    HW222926   0.098   6.296   2.516
 7343SOL     OW22927   5.425   3.303   0.847
 7343SOL    HW122928   5.353   3.342   0.790
 7343SOL    HW222929   5.474   3.376   0.894
 7344SOL     OW22930   1.366   6.001   6.057
 7344SOL    HW122931   1.286   5.977   6.111
 7344SOL    HW222932   1.393   6.095   6.077
 7345SOL     OW22933   3.885   3.372   5.880
 7345SOL    HW122934   3.844   3.337   5.796
 7345SOL    HW222935   3.982   3.391   5.864
 7346SOL     OW22936   3.873   5.420   2.979
 7346SOL    HW122937   3.938   5.442   3.051
 7346SOL    HW222938   3.821   5.503   2.955
 7347SOL     OW22939   6.245   2.223   0.088
 7347SOL    HW122940   6.322   2.206   0.149
 7347SOL    HW222941   6.160   2.197   0.134
 7348SOL     OW22942   1.699   4.510   2.608
 7348SOL    HW122943   1.642   4.429   2.592
 7348SOL    HW222944   1.794   4.488   2.586
 7349SOL     OW22945   3.722   0.933   0.662
 7349SOL    HW122946   3.750   0.837   0.659
 7349SOL    HW222947   3.623   0.938   0.674
 7350SOL     OW22948   2.818   0.489   5.627
 7350SOL    HW122949   2.896   0.508   5.568
 7350SOL    HW222950   2.754   0.566   5.623
 7351SOL     OW22951   4.432   5.175   3.919
 7351SOL    HW122952   4.473   5.114   3.851
 7351SOL    HW222953   4.333   5.180   3.905
 7352SOL     OW22954   0.328   2.435   3.096
 7352SOL    HW122955   0.415   2.458   3.139
 7352SOL    HW222956   0.273   2.381   3.159
 7353SOL     OW22957   6.308   0.694   6.936
 7353SOL    HW122958   6.270   0.688   6.844
 7353SOL    HW222959   6.247   0.747   6.995
 7354SOL     OW22960   1.395   2.013   3.109
 7354SOL    HW122961   1.416   2.081   3.039
 7354SOL    HW222962   1.480   1.979   3.149
 7355SOL     OW22963   0.185   2.176   6.225
 7355SOL    HW122964   0.107   2.235   6.205
 7355SOL    HW222965   0.269   2.228   6.216
 7356SOL     OW22966   4.506   3.612   6.374
 7356SOL    HW122967   4.592   3.565   6.352
 7356SOL    HW222968   4.450   3.553   6.432
 7357SOL     OW22969   5.437   5.877   1.984
 7357SOL    HW122970   5.436   5.823   1.900
 7357SOL    HW222971   5.453   5.817   2.063
 7358SOL     OW22972   5.804   1.996   2.942
 7358SOL    HW122973   5.897   2.003   2.978
 7358SOL    HW222974   5.789   1.904   2.906
 7359SOL     OW22975   4.700   0.266   6.477
 7359SOL    HW122976   4.793   0.303   6.483
 7359SOL    HW222977   4.705   0.166   6.475
 7360SOL     OW22978   2.719   3.290   5.333
 7360SOL    HW122979   2.635   3.235   5.325
 7360SOL    HW222980   2.757   3.281   5.424
 7361SOL     OW22981   4.751   0.250   2.520
 7361SOL    HW122982   4.665   0.214   2.556
 7361SOL    HW222983   4.808   0.174   2.488
 7362SOL     OW22984   3.651   5.177   6.695
 7362SOL    HW122985   3.723   5.203   6.759
 7362SOL    HW222986   3.655   5.078   6.678
 7363SOL     OW22987   3.546   0.642   0.827
 7363SOL    HW122988   3.580   0.575   0.893
 7363SOL    HW222989   3.491   0.711   0.875
 7364SOL     OW22990   4.758   0.099   1.669
 7364SOL    HW122991   4.747   0.113   1.767
 7364SOL    HW222992   4.673   0.124   1.622
 7365SOL     OW22993   5.885   4.706   2.433
 7365SOL    HW122994   5.880   4.794   2.386
 7365SOL    HW222995   5.795   4.684   2.472
 7366SOL     OW22996   3.037   1.387   4.021
 7366SOL    HW122997   3.015   1.429   4.109
 7366SOL    HW222998   3.067   1.458   3.958
 7367SOL     OW22999   4.944   1.080   6.367
 7367SOL    HW123000   5.022   1.023   6.392
 7367SOL    HW223001   4.873   1.071   6.437
 7368SOL     OW23002   4.000   3.508   2.998
 7368SOL    HW123003   3.911   3.534   2.960
 7368SOL    HW223004   4.073   3.552   2.945
 7369SOL     OW23005   5.019   2.669   0.559
 7369SOL    HW123006   4.943   2.719   0.601
 7369SOL    HW223007   5.068   2.618   0.630
 7370SOL     OW23008   2.224   1.649   4.411
 7370SOL    HW123009   2.172   1.733   4.428
 7370SOL    HW223010   2.281   1.629   4.491
 7371SOL     OW23011   4.026   0.227   3.718
 7371SOL    HW123012   4.016   0.325   3.698
 7371SOL    HW223013   4.102   0.214   3.782
 7372SOL     OW23014   4.379   6.949   4.587
 7372SOL    HW123015   4.335   6.926   4.500
 7372SOL    HW223016   4.373   6.870   4.648
 7373SOL     OW23017   4.824   2.606   4.586
 7373SOL    HW123018   4.822   2.690   4.532
 7373SOL    HW223019   4.803   2.627   4.681
 7374SOL     OW23020   0.289   1.636   5.182
 7374SOL    HW123021   0.327   1.641   5.274
 7374SOL    HW223022   0.199   1.591   5.186
 7375SOL     OW23023   2.128   2.969   2.377
 7375SOL    HW123024   2.088   3.059   2.394
 7375SOL    HW223025   2.151   2.960   2.280
 7376SOL     OW23026   0.404   4.137   0.475
 7376SOL    HW123027   0.454   4.062   0.517
 7376SOL    HW223028   0.406   4.217   0.535
 7377SOL     OW23029   3.071   5.882   0.039
 7377SOL    HW123030   3.014   5.897   0.120
 7377SOL    HW223031   3.042   5.797   7.013
 7378SOL     OW23032   1.552   6.273   3.689
 7378SOL    HW123033   1.553   6.248   3.592
 7378SOL    HW223034   1.637   6.322   3.711
 7379SOL     OW23035   4.036   0.662   0.760
 7379SOL    HW123036   4.085   0.582   0.725
 7379SOL    HW223037   4.065   0.682   0.853
 7380SOL     OW23038   5.787   3.484   3.552
 7380SOL    HW123039   5.876   3.462   3.513
 7380SOL    HW223040   5.791   3.477   3.652
 7381SOL     OW23041   3.717   0.846   0.024
 7381SOL    HW123042   3.725   0.894   0.112
 7381SOL    HW223043   3.692   0.912   6.974
 7382SOL     OW23044   6.946   1.374   6.054
 7382SOL    HW123045   6.943   1.470   6.027
 7382SOL    HW223046   6.865   1.352   6.108
 7383SOL     OW23047   1.696   6.425   1.590
 7383SOL    HW123048   1.695   6.326   1.597
 7383SOL    HW223049   1.602   6.459   1.594
 7384SOL     OW23050   0.159   0.080   1.124
 7384SOL    HW123051   0.240   0.106   1.178
 7384SOL    HW223052   0.145   0.147   1.051
 7385SOL     OW23053   4.392   4.859   2.635
 7385SOL    HW123054   4.372   4.903   2.722
 7385SOL    HW223055   4.343   4.772   2.629
 7386SOL     OW23056   6.181   3.349   0.780
 7386SOL    HW123057   6.239   3.374   0.858
 7386SOL    HW223058   6.207   3.258   0.748
 7387SOL     OW23059   6.912   4.916   5.591
 7387SOL    HW123060   6.883   5.005   5.628
 7387SOL    HW223061   6.834   4.873   5.546
 7388SOL     OW23062   1.950   6.139   2.272
 7388SOL    HW123063   1.926   6.044   2.289
 7388SOL    HW223064   1.886   6.179   2.206
 7389SOL     OW23065   6.350   2.974   0.270
 7389SOL    HW123066   6.336   3.048   0.336
 7389SOL    HW223067   6.337   2.886   0.316
 7390SOL     OW23068   2.553   1.838   2.635
 7390SOL    HW123069   2.454   1.845   2.646
 7390SOL    HW223070   2.597   1.917   2.678
 7391SOL     OW23071   3.698   3.468   2.945
 7391SOL    HW123072   3.606   3.505   2.958
 7391SOL    HW223073   3.711   3.389   3.005
 7392SOL     OW23074   3.467   5.341   6.481
 7392SOL    HW123075   3.399   5.343   6.554
 7392SOL    HW223076   3.551   5.299   6.514
 7393SOL     OW23077   5.741   5.651   4.641
 7393SOL    HW123078   5.745   5.748   4.664
 7393SOL    HW223079   5.646   5.624   4.626
 7394SOL     OW23080   2.628   2.368   6.029
 7394SOL    HW123081   2.660   2.454   5.989
 7394SOL    HW223082   2.548   2.387   6.087
 7395SOL     OW23083   2.887   4.522   1.000
 7395SOL    HW123084   2.812   4.503   1.064
 7395SOL    HW223085   2.974   4.523   1.050
 7396SOL     OW23086   2.336   5.045   1.888
 7396SOL    HW123087   2.289   5.104   1.953
 7396SOL    HW223088   2.279   4.965   1.868
 7397SOL     OW23089   5.334   4.417   3.922
 7397SOL    HW123090   5.303   4.402   3.828
 7397SOL    HW223091   5.377   4.334   3.957
 7398SOL     OW23092   2.041   4.602   2.688
 7398SOL    HW123093   2.114   4.638   2.745
 7398SOL    HW223094   2.020   4.508   2.714
 7399SOL     OW23095   5.142   1.986   5.030
 7399SOL    HW123096   5.062   1.949   5.077
 7399SOL    HW223097   5.113   2.030   4.945
 7400SOL     OW23098   5.097   2.766   5.446
 7400SOL    HW123099   5.169   2.717   5.396
 7400SOL    HW223100   5.022   2.703   5.466
 7401SOL     OW23101   0.496   2.744   3.745
 7401SOL    HW123102   0.459   2.656   3.717
 7401SOL    HW223103   0.541   2.788   3.667
 7402SOL     OW23104   3.316   6.140   5.453
 7402SOL    HW123105   3.361   6.051   5.457
 7402SOL    HW223106   3.270   6.158   5.541
 7403SOL     OW23107   1.503   3.120   4.626
 7403SOL    HW123108   1.420   3.067   4.643
 7403SOL    HW223109   1.556   3.076   4.553
 7404SOL     OW23110   3.012   3.842   0.953
 7404SOL    HW123111   3.078   3.793   1.011
 7404SOL    HW223112   2.926   3.852   1.003
 7405SOL     OW23113   3.261   5.814   5.029
 7405SOL    HW123114   3.230   5.850   5.117
 7405SOL    HW223115   3.350   5.852   5.007
 7406SOL     OW23116   0.574   1.374   4.933
 7406SOL    HW123117   0.620   1.434   4.999
 7406SOL    HW223118   0.611   1.390   4.842
 7407SOL     OW23119   0.920   6.469   5.588
 7407SOL    HW123120   0.835   6.437   5.629
 7407SOL    HW223121   0.903   6.500   5.495
 7408SOL     OW23122   3.630   3.871   5.119
 7408SOL    HW123123   3.531   3.884   5.107
 7408SOL    HW223124   3.679   3.947   5.077
 7409SOL     OW23125   6.092   4.129   0.471
 7409SOL    HW123126   6.018   4.182   0.429
 7409SOL    HW223127   6.178   4.180   0.463
 7410SOL     OW23128   6.951   0.341   1.558
 7410SOL    HW123129   6.981   0.246   1.550
 7410SOL    HW223130   7.013   0.400   1.507
 7411SOL     OW23131   1.597   2.021   5.207
 7411SOL    HW123132   1.538   2.100   5.222
 7411SOL    HW223133   1.650   2.034   5.123
 7412SOL     OW23134   4.312   6.555   6.997
 7412SOL    HW123135   4.353   6.628   0.031
 7412SOL    HW223136   4.222   6.583   6.964
 7413SOL     OW23137   3.915   6.827   3.251
 7413SOL    HW123138   3.925   6.731   3.277
 7413SOL    HW223139   3.869   6.833   3.163
 7414SOL     OW23140   2.539   2.046   3.913
 7414SOL    HW123141   2.585   2.049   4.001
 7414SOL    HW223142   2.442   2.070   3.925
 7415SOL     OW23143   3.998   6.066   6.192
 7415SOL    HW123144   4.097   6.069   6.202
 7415SOL    HW223145   3.955   6.121   6.264
 7416SOL     OW23146   1.206   1.721   2.567
 7416SOL    HW123147   1.291   1.694   2.521
 7416SOL    HW223148   1.201   1.678   2.657
 7417SOL     OW23149   0.660   1.782   3.691
 7417SOL    HW123150   0.718   1.861   3.710
 7417SOL    HW223151   0.654   1.767   3.593
 7418SOL     OW23152   1.878   4.135   6.161
 7418SOL    HW123153   1.911   4.043   6.181
 7418SOL    HW223154   1.779   4.140   6.175
 7419SOL     OW23155   6.764   3.884   3.939
 7419SOL    HW123156   6.744   3.889   4.036
 7419SOL    HW223157   6.776   3.977   3.902
 7420SOL     OW23158   6.303   6.792   1.866
 7420SOL    HW123159   6.305   6.853   1.945
 7420SOL    HW223160   6.365   6.827   1.796
 7421SOL     OW23161   4.808   3.755   1.509
 7421SOL    HW123162   4.814   3.677   1.447
 7421SOL    HW223163   4.714   3.765   1.543
 7422SOL     OW23164   5.535   2.785   1.901
 7422SOL    HW123165   5.454   2.818   1.852
 7422SOL    HW223166   5.514   2.777   1.999
 7423SOL     OW23167   5.674   1.839   5.962
 7423SOL    HW123168   5.691   1.907   5.892
 7423SOL    HW223169   5.633   1.883   6.042
 7424SOL     OW23170   0.830   1.478   4.194
 7424SOL    HW123171   0.762   1.509   4.261
 7424SOL    HW223172   0.806   1.513   4.103
 7425SOL     OW23173   6.084   0.511   0.077
 7425SOL    HW123174   6.160   0.467   0.124
 7425SOL    HW223175   6.025   0.556   0.144
 7426SOL     OW23176   3.369   3.155   5.940
 7426SOL    HW123177   3.342   3.072   5.988
 7426SOL    HW223178   3.409   3.220   6.005
 7427SOL     OW23179   3.577   1.252   3.937
 7427SOL    HW123180   3.541   1.342   3.961
 7427SOL    HW223181   3.532   1.220   3.853
 7428SOL     OW23182   4.261   5.683   5.719
 7428SOL    HW123183   4.360   5.693   5.719
 7428SOL    HW223184   4.221   5.745   5.652
 7429SOL     OW23185   1.912   6.915   2.214
 7429SOL    HW123186   1.826   6.869   2.233
 7429SOL    HW223187   1.900   7.014   2.223
 7430SOL     OW23188   6.274   5.148   2.649
 7430SOL    HW123189   6.275   5.051   2.674
 7430SOL    HW223190   6.182   5.185   2.660
 7431SOL     OW23191   1.360   2.031   4.498
 7431SOL    HW123192   1.361   1.936   4.468
 7431SOL    HW223193   1.377   2.091   4.420
 7432SOL     OW23194   1.905   0.298   2.955
 7432SOL    HW123195   1.930   0.262   3.045
 7432SOL    HW223196   1.871   0.391   2.965
 7433SOL     OW23197   2.485   0.461   0.118
 7433SOL    HW123198   2.443   0.380   0.077
 7433SOL    HW223199   2.416   0.509   0.173
 7434SOL     OW23200   3.948   5.911   5.982
 7434SOL    HW123201   3.901   5.980   5.927
 7434SOL    HW223202   3.974   5.951   6.070
 7435SOL     OW23203   4.898   5.425   3.006
 7435SOL    HW123204   4.979   5.447   2.952
 7435SOL    HW223205   4.816   5.432   2.949
 7436SOL     OW23206   5.341   3.054   6.541
 7436SOL    HW123207   5.334   2.962   6.504
 7436SOL    HW223208   5.315   3.121   6.471
 7437SOL     OW23209   4.188   6.334   0.945
 7437SOL    HW123210   4.228   6.244   0.965
 7437SOL    HW223211   4.246   6.406   0.984
 7438SOL     OW23212   2.403   0.350   0.424
 7438SOL    HW123213   2.457   0.333   0.506
 7438SOL    HW223214   2.430   0.285   0.352
 7439SOL     OW23215   0.933   4.751   6.210
 7439SOL    HW123216   1.027   4.761   6.177
 7439SOL    HW223217   0.927   4.671   6.270
 7440SOL     OW23218   5.136   3.041   4.217
 7440SOL    HW123219   5.046   3.062   4.254
 7440SOL    HW223220   5.126   3.002   4.126
 7441SOL     OW23221   5.871   6.091   1.533
 7441SOL    HW123222   5.839   6.035   1.610
 7441SOL    HW223223   5.958   6.055   1.499
 7442SOL     OW23224   5.095   0.437   5.251
 7442SOL    HW123225   5.008   0.486   5.250
 7442SOL    HW223226   5.152   0.471   5.326
 7443SOL     OW23227   0.333   0.622   2.019
 7443SOL    HW123228   0.240   0.655   2.012
 7443SOL    HW223229   0.366   0.593   1.929
 7444SOL     OW23230   0.915   6.306   6.474
 7444SOL    HW123231   0.833   6.278   6.524
 7444SOL    HW223232   0.961   6.225   6.437
 7445SOL     OW23233   4.160   6.073   1.334
 7445SOL    HW123234   4.126   6.050   1.425
 7445SOL    HW223235   4.181   6.171   1.330
 7446SOL     OW23236   5.214   4.028   0.320
 7446SOL    HW123237   5.212   4.097   0.392
 7446SOL    HW223238   5.122   3.993   0.304
 7447SOL     OW23239   0.662   4.874   1.545
 7447SOL    HW123240   0.697   4.794   1.594
 7447SOL    HW223241   0.571   4.853   1.508
 7448SOL     OW23242   4.877   4.971   6.186
 7448SOL    HW123243   4.793   4.978   6.131
 7448SOL    HW223244   4.935   5.051   6.168
 7449SOL     OW23245   0.533   4.598   6.245
 7449SOL    HW123246   0.633   4.601   6.248
 7449SOL    HW223247   0.503   4.592   6.150
 7450SOL     OW23248   4.953   1.966   5.795
 7450SOL    HW123249   4.957   1.901   5.718
 7450SOL    HW223250   5.002   1.927   5.873
 7451SOL     OW23251   5.423   4.952   2.768
 7451SOL    HW123252   5.490   4.966   2.841
 7451SOL    HW223253   5.405   4.854   2.757
 7452SOL     OW23254   5.949   5.304   5.024
 7452SOL    HW123255   5.888   5.313   4.946
 7452SOL    HW223256   6.040   5.277   4.992
 7453SOL     OW23257   3.732   5.693   0.063
 7453SOL    HW123258   3.688   5.603   0.066
 7453SOL    HW223259   3.810   5.689   0.001
 7454SOL     OW23260   3.928   2.239   0.529
 7454SOL    HW123261   3.900   2.144   0.541
 7454SOL    HW223262   3.854   2.299   0.562
 7455SOL     OW23263   6.833   2.932   3.210
 7455SOL    HW123264   6.769   2.859   3.187
 7455SOL    HW223265   6.857   2.927   3.307
 7456SOL     OW23266   3.365   1.992   5.635
 7456SOL    HW123267   3.275   1.951   5.654
 7456SOL    HW223268   3.393   1.968   5.542
 7457SOL     OW23269   2.778   0.333   3.019
 7457SOL    HW123270   2.797   0.273   2.942
 7457SOL    HW223271   2.810   0.425   2.998
 7458SOL     OW23272   1.273   5.933   5.285
 7458SOL    HW123273   1.240   6.020   5.250
 7458SOL    HW223274   1.363   5.913   5.247
 7459SOL     OW23275   5.727   0.660   2.812
 7459SOL    HW123276   5.668   0.637   2.890
 7459SOL    HW223277   5.673   0.658   2.728
 7460SOL     OW23278   1.645   6.737   0.710
 7460SOL    HW123279   1.636   6.766   0.805
 7460SOL    HW223280   1.560   6.695   0.679
 7461SOL     OW23281   1.300   5.002   6.171
 7461SOL    HW123282   1.358   5.044   6.241
 7461SOL    HW223283   1.355   4.940   6.115
 7462SOL     OW23284   0.954   5.168   0.436
 7462SOL    HW123285   0.882   5.106   0.469
 7462SOL    HW223286   0.985   5.225   0.512
 7463SOL     OW23287   3.433   4.753   0.903
 7463SOL    HW123288   3.415   4.739   0.806
 7463SOL    HW223289   3.413   4.669   0.953
 7464SOL     OW23290   6.240   6.070   5.417
 7464SOL    HW123291   6.300   6.020   5.355
 7464SOL    HW223292   6.147   6.036   5.408
 7465SOL     OW23293   2.011   4.823   0.353
 7465SOL    HW123294   1.973   4.906   0.393
 7465SOL    HW223295   2.007   4.830   0.253
 7466SOL     OW23296   0.465   6.584   4.719
 7466SOL    HW123297   0.408   6.648   4.771
 7466SOL    HW223298   0.412   6.548   4.642
 7467SOL     OW23299   0.445   3.182   5.804
 7467SOL    HW123300   0.525   3.183   5.864
 7467SOL    HW223301   0.447   3.101   5.746
 7468SOL     OW23302   5.911   3.329   5.693
 7468SOL    HW123303   5.832   3.391   5.687
 7468SOL    HW223304   5.900   3.269   5.772
 7469SOL     OW23305   6.800   2.395   1.204
 7469SOL    HW123306   6.724   2.410   1.140
 7469SOL    HW223307   6.873   2.460   1.184
 7470SOL     OW23308   5.246   3.011   3.633
 7470SOL    HW123309   5.328   3.032   3.581
 7470SOL    HW223310   5.227   2.913   3.627
 7471SOL     OW23311   5.351   5.843   6.016
 7471SOL    HW123312   5.271   5.902   6.030
 7471SOL    HW223313   5.379   5.847   5.921
 7472SOL     OW23314   5.941   6.035   5.469
 7472SOL    HW123315   5.898   6.044   5.559
 7472SOL    HW223316   5.904   5.956   5.421
 7473SOL     OW23317   4.192   6.107   3.788
 7473SOL    HW123318   4.230   6.015   3.780
 7473SOL    HW223319   4.104   6.103   3.835
 7474SOL     OW23320   6.769   1.842   5.511
 7474SOL    HW123321   6.767   1.865   5.608
 7474SOL    HW223322   6.773   1.926   5.457
 7475SOL     OW23323   4.740   2.425   0.845
 7475SOL    HW123324   4.833   2.414   0.882
 7475SOL    HW223325   4.684   2.347   0.872
 7476SOL     OW23326   1.684   0.925   2.735
 7476SOL    HW123327   1.662   1.010   2.783
 7476SOL    HW223328   1.779   0.901   2.752
 7477SOL     OW23329   1.032   4.373   4.861
 7477SOL    HW123330   0.934   4.387   4.866
 7477SOL    HW223331   1.068   4.417   4.779
 7478SOL     OW23332   0.751   1.277   6.067
 7478SOL    HW123333   0.795   1.307   5.982
 7478SOL    HW223334   0.654   1.261   6.050
 7479SOL     OW23335   6.264   3.539   0.086
 7479SOL    HW123336   6.190   3.506   0.145
 7479SOL    HW223337   6.241   3.520   7.011
 7480SOL     OW23338   3.884   5.201   2.522
 7480SOL    HW123339   3.829   5.208   2.605
 7480SOL    HW223340   3.843   5.256   2.450
 7481SOL     OW23341   0.423   4.137   6.613
 7481SOL    HW123342   0.345   4.199   6.625
 7481SOL    HW223343   0.422   4.101   6.519
 7482SOL     OW23344   3.957   2.158   2.682
 7482SOL    HW123345   3.863   2.133   2.661
 7482SOL    HW223346   4.019   2.102   2.627
 7483SOL     OW23347   4.497   1.978   6.171
 7483SOL    HW123348   4.457   2.021   6.252
 7483SOL    HW223349   4.432   1.983   6.095
 7484SOL     OW23350   2.874   6.563   4.078
 7484SOL    HW123351   2.841   6.655   4.099
 7484SOL    HW223352   2.966   6.551   4.115
 7485SOL     OW23353   2.766   0.059   4.899
 7485SOL    HW123354   2.798   0.090   4.809
 7485SOL    HW223355   2.666   0.064   4.902
 7486SOL     OW23356   2.231   6.493   1.098
 7486SOL    HW123357   2.253   6.410   1.047
 7486SOL    HW223358   2.253   6.479   1.195
 7487SOL     OW23359   4.196   6.432   3.810
 7487SOL    HW123360   4.273   6.386   3.765
 7487SOL    HW223361   4.110   6.389   3.781
 7488SOL     OW23362   0.937   5.486   3.917
 7488SOL    HW123363   0.901   5.496   3.824
 7488SOL    HW223364   0.869   5.440   3.974
 7489SOL     OW23365   6.620   3.328   6.575
 7489SOL    HW123366   6.616   3.423   6.545
 7489SOL    HW223367   6.664   3.273   6.503
 7490SOL     OW23368   0.998   2.280   2.006
 7490SOL    HW123369   0.990   2.283   2.106
 7490SOL    HW223370   1.019   2.187   1.977
 7491SOL     OW23371   4.283   3.059   0.341
 7491SOL    HW123372   4.199   3.099   0.378
 7491SOL    HW223373   4.277   2.959   0.346
 7492SOL     OW23374   1.229   0.383   4.297
 7492SOL    HW123375   1.249   0.440   4.378
 7492SOL    HW223376   1.277   0.420   4.218
 7493SOL     OW23377   6.864   4.283   4.624
 7493SOL    HW123378   6.860   4.342   4.705
 7493SOL    HW223379   6.947   4.304   4.572
 7494SOL     OW23380   6.120   1.311   2.689
 7494SOL    HW123381   6.037   1.257   2.676
 7494SOL    HW223382   6.197   1.263   2.646
 7495SOL     OW23383   1.769   3.818   4.947
 7495SOL    HW123384   1.802   3.733   4.990
 7495SOL    HW223385   1.669   3.820   4.951
 7496SOL     OW23386   5.686   4.023   2.594
 7496SOL    HW123387   5.723   4.115   2.582
 7496SOL    HW223388   5.588   4.023   2.577
 7497SOL     OW23389   0.110   6.622   0.327
 7497SOL    HW123390   0.177   6.554   0.296
 7497SOL    HW223391   0.123   6.641   0.424
 7498SOL     OW23392   3.036   0.576   2.664
 7498SOL    HW123393   3.075   0.661   2.699
 7498SOL    HW223394   2.957   0.596   2.606
 7499SOL     OW23395   4.249   1.689   3.682
 7499SOL    HW123396   4.287   1.649   3.598
 7499SOL    HW223397   4.204   1.619   3.736
 7500SOL     OW23398   3.866   6.870   2.908
 7500SOL    HW123399   3.768   6.870   2.924
 7500SOL    HW223400   3.899   6.965   2.902
 7501SOL     OW23401   6.063   2.298   4.769
 7501SOL    HW123402   6.139   2.351   4.729
 7501SOL    HW223403   6.075   2.201   4.748
 7502SOL     OW23404   4.055   0.612   4.268
 7502SOL    HW123405   4.000   0.529   4.280
 7502SOL    HW223406   3.996   0.688   4.242
 7503SOL     OW23407   1.708   6.148   1.589
 7503SOL    HW123408   1.646   6.110   1.522
 7503SOL    HW223409   1.783   6.083   1.606
 7504SOL     OW23410   6.407   6.734   3.379
 7504SOL    HW123411   6.447   6.643   3.384
 7504SOL    HW223412   6.462   6.799   3.432
 7505SOL     OW23413   1.043   6.779   5.402
 7505SOL    HW123414   1.042   6.875   5.428
 7505SOL    HW223415   0.949   6.747   5.389
 7506SOL     OW23416   2.791   1.675   2.981
 7506SOL    HW123417   2.718   1.700   3.044
 7506SOL    HW223418   2.773   1.585   2.943
 7507SOL     OW23419   6.401   3.951   4.589
 7507SOL    HW123420   6.437   4.044   4.583
 7507SOL    HW223421   6.355   3.938   4.677
 7508SOL     OW23422   1.828   6.163   6.543
 7508SOL    HW123423   1.894   6.194   6.612
 7508SOL    HW223424   1.736   6.194   6.569
 7509SOL     OW23425   5.300   4.401   0.554
 7509SOL    HW123426   5.391   4.382   0.517
 7509SOL    HW223427   5.242   4.321   0.540
 7510SOL     OW23428   3.831   3.674   3.578
 7510SOL    HW123429   3.857   3.770   3.568
 7510SOL    HW223430   3.910   3.616   3.564
 7511SOL     OW23431   3.565   6.128   3.553
 7511SOL    HW123432   3.488   6.064   3.561
 7511SOL    HW223433   3.543   6.212   3.601
 7512SOL     OW23434   3.602   6.798   6.096
 7512SOL    HW123435   3.546   6.788   6.179
 7512SOL    HW223436   3.642   6.889   6.093
 7513SOL     OW23437   0.616   2.034   2.437
 7513SOL    HW123438   0.531   1.984   2.454
 7513SOL    HW223439   0.596   2.130   2.422
 7514SOL     OW23440   1.368   4.279   2.372
 7514SOL    HW123441   1.310   4.215   2.422
 7514SOL    HW223442   1.315   4.323   2.300
 7515SOL     OW23443   7.004   4.601   4.051
 7515SOL    HW123444   6.996   4.627   4.147
 7515SOL    HW223445   0.003   4.682   3.996
 7516SOL     OW23446   1.091   6.533   5.243
 7516SOL    HW123447   1.015   6.595   5.265
 7516SOL    HW223448   1.166   6.586   5.203
 7517SOL     OW23449   0.533   1.426   6.965
 7517SOL    HW123450   0.583   1.506   6.933
 7517SOL    HW223451   0.592   1.372   0.006
 7518SOL     OW23452   4.817   2.874   3.794
 7518SOL    HW123453   4.783   2.790   3.837
 7518SOL    HW223454   4.781   2.880   3.701
 7519SOL     OW23455   3.793   6.499   4.390
 7519SOL    HW123456   3.831   6.518   4.300
 7519SOL    HW223457   3.731   6.573   4.416
 7520SOL     OW23458   1.793   2.012   0.576
 7520SOL    HW123459   1.869   2.077   0.581
 7520SOL    HW223460   1.708   2.060   0.596
 7521SOL     OW23461   4.052   1.175   5.865
 7521SOL    HW123462   4.037   1.269   5.836
 7521SOL    HW223463   4.114   1.130   5.800
 7522SOL     OW23464   1.617   0.035   3.147
 7522SOL    HW123465   1.632   6.970   3.198
 7522SOL    HW223466   1.656   0.026   3.056
 7523SOL     OW23467   5.707   1.055   6.334
 7523SOL    HW123468   5.785   0.992   6.329
 7523SOL    HW223469   5.643   1.034   6.259
 7524SOL     OW23470   0.332   3.263   5.135
 7524SOL    HW123471   0.347   3.362   5.131
 7524SOL    HW223472   0.335   3.225   5.043
 7525SOL     OW23473   4.436   5.753   6.460
 7525SOL    HW123474   4.356   5.802   6.496
 7525SOL    HW223475   4.515   5.814   6.458
 7526SOL     OW23476   2.438   3.303   1.650
 7526SOL    HW123477   2.397   3.328   1.738
 7526SOL    HW223478   2.447   3.385   1.593
 7527SOL     OW23479   4.411   5.491   3.780
 7527SOL    HW123480   4.332   5.431   3.765
 7527SOL    HW223481   4.431   5.496   3.878
 7528SOL     OW23482   6.870   3.132   6.428
 7528SOL    HW123483   6.781   3.135   6.383
 7528SOL    HW223484   6.858   3.106   6.524
 7529SOL     OW23485   6.553   3.011   4.509
 7529SOL    HW123486   6.611   2.992   4.430
 7529SOL    HW223487   6.469   2.957   4.502
 7530SOL     OW23488   6.866   2.238   2.073
 7530SOL    HW123489   6.786   2.191   2.037
 7530SOL    HW223490   6.865   2.334   2.045
 7531SOL     OW23491   4.332   1.889   3.851
 7531SOL    HW123492   4.385   1.823   3.798
 7531SOL    HW223493   4.246   1.847   3.880
 7532SOL     OW23494   4.330   5.227   6.435
 7532SOL    HW123495   4.349   5.320   6.468
 7532SOL    HW223496   4.337   5.162   6.510
 7533SOL     OW23497   4.617   3.837   1.740
 7533SOL    HW123498   4.656   3.929   1.733
 7533SOL    HW223499   4.671   3.783   1.805
 7534SOL     OW23500   4.714   6.860   4.328
 7534SOL    HW123501   4.721   6.823   4.421
 7534SOL    HW223502   4.644   6.932   4.327
 7535SOL     OW23503   0.427   5.668   3.574
 7535SOL    HW123504   0.435   5.681   3.673
 7535SOL    HW223505   0.515   5.686   3.531
 7536SOL     OW23506   4.849   5.960   4.575
 7536SOL    HW123507   4.762   5.916   4.595
 7536SOL    HW223508   4.902   5.904   4.512
 7537SOL     OW23509   3.405   6.431   3.372
 7537SOL    HW123510   3.360   6.345   3.349
 7537SOL    HW223511   3.371   6.464   3.460
 7538SOL     OW23512   0.753   4.183   0.607
 7538SOL    HW123513   0.829   4.119   0.604
 7538SOL    HW223514   0.777   4.261   0.665
 7539SOL     OW23515   0.573   6.077   3.798
 7539SOL    HW123516   0.553   6.114   3.707
 7539SOL    HW223517   0.489   6.040   3.837
 7540SOL     OW23518   6.375   5.195   3.658
 7540SOL    HW123519   6.292   5.155   3.619
 7540SOL    HW223520   6.413   5.262   3.595
 7541SOL     OW23521   1.711   4.234   6.984
 7541SOL    HW123522   1.664   4.205   6.901
 7541SOL    HW223523   1.689   4.172   0.039
 7542SOL     OW23524   5.864   5.732   5.785
 7542SOL    HW123525   5.880   5.712   5.882
 7542SOL    HW223526   5.847   5.829   5.773
 7543SOL     OW23527   2.465   0.881   6.506
 7543SOL    HW123528   2.432   0.967   6.546
 7543SOL    HW223529   2.424   0.868   6.416
 7544SOL     OW23530   0.221   2.640   4.410
 7544SOL    HW123531   0.196   2.555   4.364
 7544SOL    HW223532   0.149   2.708   4.396
 7545SOL     OW23533   0.942   4.989   6.956
 7545SOL    HW123534   0.964   5.069   7.011
 7545SOL    HW223535   0.976   4.907   7.003
 7546SOL     OW23536   3.366   2.745   1.946
 7546SOL    HW123537   3.334   2.713   2.035
 7546SOL    HW223538   3.320   2.695   1.873
 7547SOL     OW23539   4.602   0.586   2.059
 7547SOL    HW123540   4.614   0.579   2.158
 7547SOL    HW223541   4.534   0.519   2.029
 7548SOL     OW23542   3.885   1.824   6.646
 7548SOL    HW123543   3.858   1.914   6.612
 7548SOL    HW223544   3.985   1.819   6.649
 7549SOL     OW23545   4.770   2.376   4.838
 7549SOL    HW123546   4.718   2.458   4.817
 7549SOL    HW223547   4.710   2.296   4.837
 7550SOL     OW23548   2.266   4.236   4.156
 7550SOL    HW123549   2.271   4.143   4.192
 7550SOL    HW223550   2.200   4.240   4.080
 7551SOL     OW23551   5.904   2.493   5.802
 7551SOL    HW123552   5.902   2.577   5.747
 7551SOL    HW223553   5.997   2.478   5.835
 7552SOL     OW23554   2.643   5.682   4.956
 7552SOL    HW123555   2.625   5.583   4.955
 7552SOL    HW223556   2.564   5.730   4.918
 7553SOL     OW23557   5.797   6.400   5.852
 7553SOL    HW123558   5.843   6.344   5.921
 7553SOL    HW223559   5.798   6.496   5.881
 7554SOL     OW23560   5.181   0.907   1.194
 7554SOL    HW123561   5.183   0.951   1.283
 7554SOL    HW223562   5.095   0.857   1.183
 7555SOL     OW23563   3.371   4.975   5.554
 7555SOL    HW123564   3.465   4.940   5.561
 7555SOL    HW223565   3.348   4.990   5.458
 7556SOL     OW23566   0.100   0.299   0.945
 7556SOL    HW123567   0.035   0.247   0.889
 7556SOL    HW223568   0.060   0.316   1.035
 7557SOL     OW23569   4.736   0.371   6.937
 7557SOL    HW123570   4.642   0.402   6.951
 7557SOL    HW223571   4.785   0.373   0.004
 7558SOL     OW23572   1.114   2.168   4.550
 7558SOL    HW123573   1.036   2.106   4.548
 7558SOL    HW223574   1.199   2.114   4.555
 7559SOL     OW23575   3.726   1.872   4.667
 7559SOL    HW123576   3.766   1.901   4.754
 7559SOL    HW223577   3.793   1.816   4.617
 7560SOL     OW23578   0.518   0.811   6.074
 7560SOL    HW123579   0.500   0.818   6.172
 7560SOL    HW223580   0.471   0.731   6.038
 7561SOL     OW23581   5.606   2.047   5.097
 7561SOL    HW123582   5.667   2.108   5.046
 7561SOL    HW223583   5.525   2.097   5.126
 7562SOL     OW23584   1.255   4.149   4.087
 7562SOL    HW123585   1.284   4.245   4.095
 7562SOL    HW223586   1.319   4.091   4.137
 7563SOL     OW23587   3.502   5.491   2.584
 7563SOL    HW123588   3.444   5.540   2.519
 7563SOL    HW223589   3.574   5.551   2.618
 7564SOL     OW23590   4.446   1.587   4.867
 7564SOL    HW123591   4.417   1.544   4.953
 7564SOL    HW223592   4.485   1.517   4.807
 7565SOL     OW23593   5.578   4.129   6.367
 7565SOL    HW123594   5.593   4.139   6.268
 7565SOL    HW223595   5.511   4.196   6.398
 7566SOL     OW23596   4.141   4.185   1.258
 7566SOL    HW123597   4.113   4.120   1.329
 7566SOL    HW223598   4.187   4.263   1.300
 7567SOL     OW23599   1.769   0.637   4.867
 7567SOL    HW123600   1.793   0.586   4.784
 7567SOL    HW223601   1.764   0.734   4.845
 7568SOL     OW23602   5.924   5.401   1.600
 7568SOL    HW123603   5.923   5.352   1.513
 7568SOL    HW223604   5.831   5.428   1.625
 7569SOL     OW23605   4.435   3.718   0.266
 7569SOL    HW123606   4.520   3.769   0.279
 7569SOL    HW223607   4.386   3.754   0.186
 7570SOL     OW23608   6.365   3.075   2.809
 7570SOL    HW123609   6.333   3.154   2.756
 7570SOL    HW223610   6.354   2.992   2.754
 7571SOL     OW23611   4.424   2.470   3.283
 7571SOL    HW123612   4.337   2.464   3.234
 7571SOL    HW223613   4.475   2.385   3.271
 7572SOL     OW23614   4.855   6.424   2.103
 7572SOL    HW123615   4.784   6.494   2.098
 7572SOL    HW223616   4.871   6.400   2.199
 7573SOL     OW23617   4.664   6.254   5.596
 7573SOL    HW123618   4.569   6.227   5.585
 7573SOL    HW223619   4.668   6.345   5.637
 7574SOL     OW23620   0.147   1.346   3.908
 7574SOL    HW123621   0.111   1.401   3.984
 7574SOL    HW223622   0.089   1.265   3.897
 7575SOL     OW23623   0.277   6.812   2.497
 7575SOL    HW123624   0.332   6.895   2.509
 7575SOL    HW223625   0.301   6.768   2.410
 7576SOL     OW23626   5.716   3.351   0.709
 7576SOL    HW123627   5.774   3.397   0.777
 7576SOL    HW223628   5.625   3.392   0.709
 7577SOL     OW23629   1.392   6.900   0.730
 7577SOL    HW123630   1.399   6.999   0.741
 7577SOL    HW223631   1.452   6.871   0.655
 7578SOL     OW23632   0.057   5.908   3.423
 7578SOL    HW123633   0.110   5.985   3.458
 7578SOL    HW223634   0.118   5.829   3.411
 7579SOL     OW23635   6.658   1.484   6.979
 7579SOL    HW123636   6.743   1.501   6.929
 7579SOL    HW223637   6.660   1.391   7.016
 7580SOL     OW23638   2.336   4.712   3.763
 7580SOL    HW123639   2.403   4.639   3.751
 7580SOL    HW223640   2.308   4.717   3.859
 7581SOL     OW23641   6.805   0.956   2.589
 7581SOL    HW123642   6.847   0.938   2.500
 7581SOL    HW223643   6.876   0.979   2.655
 7582SOL     OW23644   3.426   1.231   5.157
 7582SOL    HW123645   3.342   1.250   5.105
 7582SOL    HW223646   3.498   1.294   5.128
 7583SOL     OW23647   5.104   2.883   2.767
 7583SOL    HW123648   5.188   2.838   2.736
 7583SOL    HW223649   5.125   2.976   2.797
 7584SOL     OW23650   0.140   0.875   2.780
 7584SOL    HW123651   0.152   0.863   2.878
 7584SOL    HW223652   0.191   0.956   2.750
 7585SOL     OW23653   1.074   1.661   0.145
 7585SOL    HW123654   1.138   1.585   0.138
 7585SOL    HW223655   1.124   1.746   0.166
 7586SOL     OW23656   1.126   2.049   2.607
 7586SOL    HW123657   1.195   1.983   2.578
 7586SOL    HW223658   1.046   2.001   2.642
 7587SOL     OW23659   3.391   0.798   0.990
 7587SOL    HW123660   3.441   0.858   1.052
 7587SOL    HW223661   3.302   0.838   0.970
 7588SOL     OW23662   2.003   2.353   4.516
 7588SOL    HW123663   2.093   2.394   4.530
 7588SOL    HW223664   1.933   2.412   4.555
 7589SOL     OW23665   0.598   0.900   2.958
 7589SOL    HW123666   0.618   0.805   2.934
 7589SOL    HW223667   0.677   0.940   3.005
 7590SOL     OW23668   0.125   1.633   6.464
 7590SOL    HW123669   0.205   1.692   6.458
 7590SOL    HW223670   0.143   1.557   6.526
 7591SOL     OW23671   4.077   3.251   5.215
 7591SOL    HW123672   4.061   3.167   5.266
 7591SOL    HW223673   3.998   3.271   5.157
 7592SOL     OW23674   6.699   6.346   4.686
 7592SOL    HW123675   6.601   6.335   4.668
 7592SOL    HW223676   6.735   6.263   4.728
 7593SOL     OW23677   1.164   1.367   5.878
 7593SOL    HW123678   1.143   1.287   5.935
 7593SOL    HW223679   1.251   1.353   5.831
 7594SOL     OW23680   0.096   4.591   7.019
 7594SOL    HW123681   0.080   4.510   6.962
 7594SOL    HW223682   0.146   4.564   0.080
 7595SOL     OW23683   0.187   2.898   6.346
 7595SOL    HW123684   0.149   2.943   6.265
 7595SOL    HW223685   0.131   2.818   6.369
 7596SOL     OW23686   3.113   0.982   5.231
 7596SOL    HW123687   3.090   1.076   5.255
 7596SOL    HW223688   3.049   0.949   5.161
 7597SOL     OW23689   1.406   4.673   2.411
 7597SOL    HW123690   1.448   4.606   2.349
 7597SOL    HW223691   1.475   4.711   2.472
 7598SOL     OW23692   6.162   1.247   3.162
 7598SOL    HW123693   6.155   1.342   3.195
 7598SOL    HW223694   6.231   1.242   3.089
 7599SOL     OW23695   3.942   3.473   1.182
 7599SOL    HW123696   3.870   3.492   1.249
 7599SOL    HW223697   4.025   3.522   1.209
 7600SOL     OW23698   1.479   6.943   4.541
 7600SOL    HW123699   1.560   6.884   4.541
 7600SOL    HW223700   1.468   6.984   4.631
 7601SOL     OW23701   3.639   5.777   2.310
 7601SOL    HW123702   3.715   5.743   2.366
 7601SOL    HW223703   3.553   5.746   2.350
 7602SOL     OW23704   6.889   1.261   0.591
 7602SOL    HW123705   6.877   1.319   0.510
 7602SOL    HW223706   6.937   1.313   0.662
 7603SOL     OW23707   2.826   0.298   5.029
 7603SOL    HW123708   2.786   0.361   4.963
 7603SOL    HW223709   2.814   0.204   4.997
 7604SOL     OW23710   0.900   2.721   4.710
 7604SOL    HW123711   0.877   2.804   4.761
 7604SOL    HW223712   0.832   2.705   4.639
 7605SOL     OW23713   2.315   6.451   0.169
 7605SOL    HW123714   2.311   6.538   0.120
 7605SOL    HW223715   2.258   6.384   0.122
 7606SOL     OW23716   6.546   1.607   3.417
 7606SOL    HW123717   6.502   1.622   3.505
 7606SOL    HW223718   6.554   1.509   3.399
 7607SOL     OW23719   2.512   5.778   5.845
 7607SOL    HW123720   2.609   5.801   5.840
 7607SOL    HW223721   2.500   5.679   5.833
 7608SOL     OW23722   6.327   2.551   6.282
 7608SOL    HW123723   6.331   2.650   6.295
 7608SOL    HW223724   6.419   2.514   6.277
 7609SOL     OW23725   0.732   2.089   4.740
 7609SOL    HW123726   0.740   2.107   4.642
 7609SOL    HW223727   0.824   2.080   4.780
 7610SOL     OW23728   3.803   5.085   5.513
 7610SOL    HW123729   3.794   5.175   5.555
 7610SOL    HW223730   3.779   5.090   5.416
 7611SOL     OW23731   4.597   3.571   1.115
 7611SOL    HW123732   4.661   3.496   1.098
 7611SOL    HW223733   4.503   3.539   1.101
 7612SOL     OW23734   2.914   1.779   3.206
 7612SOL    HW123735   2.896   1.708   3.274
 7612SOL    HW223736   2.885   1.746   3.116
 7613SOL     OW23737   0.318   1.246   2.100
 7613SOL    HW123738   0.297   1.335   2.058
 7613SOL    HW223739   0.242   1.183   2.084
 7614SOL     OW23740   5.550   4.019   1.201
 7614SOL    HW123741   5.532   4.041   1.105
 7614SOL    HW223742   5.512   3.929   1.222
 7615SOL     OW23743   5.755   3.428   4.836
 7615SOL    HW123744   5.697   3.504   4.864
 7615SOL    HW223745   5.822   3.461   4.769
 7616SOL     OW23746   6.204   6.974   3.538
 7616SOL    HW123747   6.190   6.963   3.440
 7616SOL    HW223748   6.216   0.051   3.559
 7617SOL     OW23749   5.181   5.471   3.801
 7617SOL    HW123750   5.226   5.537   3.740
 7617SOL    HW223751   5.109   5.423   3.751
 7618SOL     OW23752   2.275   2.922   0.101
 7618SOL    HW123753   2.196   2.919   0.162
 7618SOL    HW223754   2.255   2.872   0.017
 7619SOL     OW23755   0.803   2.146   4.461
 7619SOL    HW123756   0.783   2.244   4.460
 7619SOL    HW223757   0.753   2.102   4.386
 7620SOL     OW23758   4.050   3.995   1.442
 7620SOL    HW123759   4.067   4.008   1.540
 7620SOL    HW223760   4.051   3.897   1.421
 7621SOL     OW23761   0.181   4.437   0.460
 7621SOL    HW123762   0.145   4.381   0.386
 7621SOL    HW223763   0.276   4.461   0.442
 7622SOL     OW23764   3.130   3.470   1.338
 7622SOL    HW123765   3.099   3.552   1.387
 7622SOL    HW223766   3.159   3.401   1.405
 7623SOL     OW23767   4.567   4.604   1.034
 7623SOL    HW123768   4.576   4.566   0.942
 7623SOL    HW223769   4.544   4.531   1.098
 7624SOL     OW23770   0.724   2.860   2.035
 7624SOL    HW123771   0.778   2.944   2.038
 7624SOL    HW223772   0.642   2.871   2.091
 7625SOL     OW23773   5.413   1.468   1.095
 7625SOL    HW123774   5.460   1.507   1.016
 7625SOL    HW223775   5.461   1.496   1.179
 7626SOL     OW23776   5.459   1.214   5.515
 7626SOL    HW123777   5.497   1.128   5.549
 7626SOL    HW223778   5.510   1.291   5.553
 7627SOL     OW23779   3.754   2.074   6.561
 7627SOL    HW123780   3.719   2.090   6.653
 7627SOL    HW223781   3.691   2.112   6.494
 7628SOL     OW23782   3.493   2.746   6.913
 7628SOL    HW123783   3.452   2.680   6.976
 7628SOL    HW223784   3.453   2.836   6.928
 7629SOL     OW23785   6.128   2.749   3.932
 7629SOL    HW123786   6.058   2.801   3.979
 7629SOL    HW223787   6.219   2.785   3.955
 7630SOL     OW23788   1.552   6.812   5.563
 7630SOL    HW123789   1.461   6.817   5.522
 7630SOL    HW223790   1.621   6.809   5.491
 7631SOL     OW23791   1.511   6.860   5.952
 7631SOL    HW123792   1.544   6.939   5.901
 7631SOL    HW223793   1.535   6.870   6.049
 7632SOL     OW23794   5.101   5.247   0.297
 7632SOL    HW123795   5.155   5.208   0.371
 7632SOL    HW223796   5.096   5.346   0.308
 7633SOL     OW23797   6.327   1.294   1.565
 7633SOL    HW123798   6.287   1.365   1.508
 7633SOL    HW223799   6.313   1.205   1.523
 7634SOL     OW23800   7.004   2.333   0.608
 7634SOL    HW123801   7.020   2.235   0.607
 7634SOL    HW223802   6.918   2.353   0.560
 7635SOL     OW23803   2.419   4.703   5.907
 7635SOL    HW123804   2.348   4.654   5.859
 7635SOL    HW223805   2.406   4.802   5.895
 7636SOL     OW23806   0.351   3.430   4.571
 7636SOL    HW123807   0.295   3.513   4.562
 7636SOL    HW223808   0.447   3.456   4.578
 7637SOL     OW23809   0.711   6.701   4.663
 7637SOL    HW123810   0.686   6.684   4.568
 7637SOL    HW223811   0.635   6.674   4.722
 7638SOL     OW23812   0.692   5.937   1.761
 7638SOL    HW123813   0.774   5.943   1.818
 7638SOL    HW223814   0.714   5.890   1.675
 7639SOL     OW23815   1.692   0.963   0.180
 7639SOL    HW123816   1.701   0.940   0.277
 7639SOL    HW223817   1.711   0.881   0.126
 7640SOL     OW23818   3.022   0.632   6.940
 7640SOL    HW123819   3.089   0.576   6.892
 7640SOL    HW223820   2.931   0.616   6.901
 7641SOL     OW23821   0.387   3.963   3.562
 7641SOL    HW123822   0.428   4.042   3.607
 7641SOL    HW223823   0.379   3.980   3.464
 7642SOL     OW23824   6.375   0.815   3.606
 7642SOL    HW123825   6.354   0.912   3.620
 7642SOL    HW223826   6.306   0.759   3.653
 7643SOL     OW23827   5.456   3.714   3.087
 7643SOL    HW123828   5.508   3.783   3.036
 7643SOL    HW223829   5.487   3.622   3.061
 7644SOL     OW23830   5.300   3.729   1.353
 7644SOL    HW123831   5.235   3.654   1.365
 7644SOL    HW223832   5.394   3.694   1.359
 7645SOL     OW23833   3.397   4.325   6.343
 7645SOL    HW123834   3.412   4.227   6.332
 7645SOL    HW223835   3.299   4.344   6.347
 7646SOL     OW23836   0.187   2.432   1.879
 7646SOL    HW123837   0.287   2.441   1.875
 7646SOL    HW223838   0.153   2.468   1.966
 7647SOL     OW23839   6.474   2.840   5.000
 7647SOL    HW123840   6.556   2.829   4.944
 7647SOL    HW223841   6.500   2.871   5.091
 7648SOL     OW23842   2.573   1.800   1.711
 7648SOL    HW123843   2.493   1.857   1.731
 7648SOL    HW223844   2.630   1.792   1.793
 7649SOL     OW23845   4.777   1.186   5.549
 7649SOL    HW123846   4.783   1.218   5.455
 7649SOL    HW223847   4.827   1.100   5.558
 7650SOL     OW23848   4.085   1.511   0.639
 7650SOL    HW123849   4.169   1.562   0.661
 7650SOL    HW223850   4.091   1.419   0.678
 7651SOL     OW23851   2.677   5.073   5.853
 7651SOL    HW123852   2.773   5.042   5.852
 7651SOL    HW223853   2.639   5.065   5.760
 7652SOL     OW23854   6.979   1.139   3.922
 7652SOL    HW123855   6.884   1.158   3.900
 7652SOL    HW223856   6.990   1.042   3.943
 7653SOL     OW23857   0.748   1.386   6.657
 7653SOL    HW123858   0.752   1.454   6.731
 7653SOL    HW223859   0.830   1.395   6.600
 7654SOL     OW23860   5.769   2.275   6.549
 7654SOL    HW123861   5.731   2.231   6.630
 7654SOL    HW223862   5.731   2.367   6.540
 7655SOL     OW23863   3.004   1.217   3.354
 7655SOL    HW123864   3.042   1.139   3.404
 7655SOL    HW223865   2.924   1.251   3.402
 7656SOL     OW23866   0.148   3.105   6.641
 7656SOL    HW123867   0.138   3.005   6.632
 7656SOL    HW223868   0.099   3.150   6.567
 7657SOL     OW23869   0.978   3.889   4.447
 7657SOL    HW123870   0.915   3.890   4.369
 7657SOL    HW223871   1.044   3.816   4.436
 7658SOL     OW23872   2.525   1.609   1.015
 7658SOL    HW123873   2.570   1.693   0.983
 7658SOL    HW223874   2.555   1.590   1.109
 7659SOL     OW23875   4.372   3.823   5.507
 7659SOL    HW123876   4.433   3.749   5.481
 7659SOL    HW223877   4.329   3.862   5.426
 7660SOL     OW23878   0.377   5.493   4.602
 7660SOL    HW123879   0.428   5.407   4.597
 7660SOL    HW223880   0.440   5.569   4.587
 7661SOL     OW23881   4.501   2.028   5.819
 7661SOL    HW123882   4.540   1.947   5.777
 7661SOL    HW223883   4.440   2.002   5.893
 7662SOL     OW23884   0.490   1.418   1.397
 7662SOL    HW123885   0.430   1.405   1.318
 7662SOL    HW223886   0.450   1.373   1.477
 7663SOL     OW23887   6.842   5.344   5.489
 7663SOL    HW123888   6.839   5.352   5.589
 7663SOL    HW223889   6.758   5.301   5.456
 7664SOL     OW23890   3.885   2.062   2.331
 7664SOL    HW123891   3.802   2.110   2.302
 7664SOL    HW223892   3.955   2.072   2.261
 7665SOL     OW23893   4.127   0.684   5.331
 7665SOL    HW123894   4.084   0.743   5.263
 7665SOL    HW223895   4.222   0.711   5.344
 7666SOL     OW23896   5.554   4.835   4.123
 7666SOL    HW123897   5.607   4.772   4.067
 7666SOL    HW223898   5.568   4.813   4.220
 7667SOL     OW23899   4.417   5.822   1.081
 7667SOL    HW123900   4.493   5.786   1.026
 7667SOL    HW223901   4.439   5.814   1.178
 7668SOL     OW23902   2.065   5.070   1.062
 7668SOL    HW123903   2.042   5.163   1.090
 7668SOL    HW223904   2.072   5.012   1.143
 7669SOL     OW23905   2.718   6.692   5.756
 7669SOL    HW123906   2.626   6.669   5.725
 7669SOL    HW223907   2.753   6.769   5.703
 7670SOL     OW23908   0.605   6.432   0.196
 7670SOL    HW123909   0.615   6.343   0.153
 7670SOL    HW223910   0.613   6.504   0.126
 7671SOL     OW23911   4.271   6.799   0.681
 7671SOL    HW123912   4.359   6.845   0.668
 7671SOL    HW223913   4.255   6.786   0.779
 7672SOL     OW23914   4.765   4.717   2.823
 7672SOL    HW123915   4.717   4.752   2.904
 7672SOL    HW223916   4.710   4.647   2.779
 7673SOL     OW23917   0.762   5.852   4.690
 7673SOL    HW123918   0.715   5.929   4.734
 7673SOL    HW223919   0.810   5.798   4.760
 7674SOL     OW23920   4.087   6.280   4.269
 7674SOL    HW123921   4.015   6.260   4.335
 7674SOL    HW223922   4.160   6.213   4.277
 7675SOL     OW23923   4.473   6.736   3.094
 7675SOL    HW123924   4.568   6.763   3.104
 7675SOL    HW223925   4.454   6.715   2.999
 7676SOL     OW23926   3.094   2.753   5.368
 7676SOL    HW123927   3.043   2.823   5.418
 7676SOL    HW223928   3.050   2.737   5.279
 7677SOL     OW23929   5.387   4.871   1.233
 7677SOL    HW123930   5.463   4.841   1.175
 7677SOL    HW223931   5.325   4.928   1.180
 7678SOL     OW23932   1.243   0.747   5.356
 7678SOL    HW123933   1.251   0.825   5.418
 7678SOL    HW223934   1.210   0.667   5.407
 7679SOL     OW23935   1.972   5.668   5.465
 7679SOL    HW123936   2.021   5.746   5.503
 7679SOL    HW223937   2.020   5.584   5.490
 7680SOL     OW23938   2.174   0.102   5.244
 7680SOL    HW123939   2.150   0.175   5.179
 7680SOL    HW223940   2.266   0.118   5.279
 7681SOL     OW23941   2.580   3.598   6.740
 7681SOL    HW123942   2.528   3.671   6.783
 7681SOL    HW223943   2.523   3.551   6.673
 7682SOL     OW23944   3.273   1.644   2.455
 7682SOL    HW123945   3.198   1.686   2.404
 7682SOL    HW223946   3.240   1.563   2.504
 7683SOL     OW23947   1.108   0.719   4.697
 7683SOL    HW123948   1.073   0.794   4.753
 7683SOL    HW223949   1.050   0.639   4.708
 7684SOL     OW23950   3.965   2.582   1.680
 7684SOL    HW123951   3.882   2.638   1.681
 7684SOL    HW223952   4.045   2.641   1.682
 7685SOL     OW23953   2.468   0.750   0.257
 7685SOL    HW123954   2.484   0.847   0.276
 7685SOL    HW223955   2.494   0.695   0.336
 7686SOL     OW23956   6.062   0.205   4.431
 7686SOL    HW123957   5.972   0.247   4.440
 7686SOL    HW223958   6.055   0.123   4.375
 7687SOL     OW23959   5.119   4.661   5.220
 7687SOL    HW123960   5.100   4.568   5.189
 7687SOL    HW223961   5.099   4.726   5.147
 7688SOL     OW23962   0.507   4.959   6.471
 7688SOL    HW123963   0.547   4.947   6.380
 7688SOL    HW223964   0.546   5.040   6.514
 7689SOL     OW23965   4.680   0.518   1.470
 7689SOL    HW123966   4.590   0.510   1.513
 7689SOL    HW223967   4.689   0.452   1.396
 7690SOL     OW23968   6.279   5.746   1.390
 7690SOL    HW123969   6.231   5.833   1.380
 7690SOL    HW223970   6.245   5.698   1.471
 7691SOL     OW23971   4.614   4.441   2.954
 7691SOL    HW123972   4.677   4.389   2.897
 7691SOL    HW223973   4.557   4.500   2.897
 7692SOL     OW23974   2.571   6.987   1.832
 7692SOL    HW123975   2.480   0.008   1.837
 7692SOL    HW223976   2.569   6.909   1.770
 7693SOL     OW23977   2.060   1.901   0.903
 7693SOL    HW123978   2.101   1.891   0.993
 7693SOL    HW223979   2.108   1.972   0.852
 7694SOL     OW23980   5.875   2.062   5.550
 7694SOL    HW123981   5.965   2.018   5.549
 7694SOL    HW223982   5.809   2.005   5.500
 7695SOL     OW23983   5.012   0.215   3.034
 7695SOL    HW123984   5.052   0.135   2.989
 7695SOL    HW223985   5.076   0.251   3.102
 7696SOL     OW23986   0.659   2.805   6.308
 7696SOL    HW123987   0.586   2.828   6.372
 7696SOL    HW223988   0.718   2.884   6.294
 7697SOL     OW23989   4.363   6.720   2.516
 7697SOL    HW123990   4.315   6.762   2.439
 7697SOL    HW223991   4.354   6.779   2.597
 7698SOL     OW23992   6.641   2.570   0.021
 7698SOL    HW123993   6.606   2.582   0.114
 7698SOL    HW223994   6.580   2.617   6.977
 7699SOL     OW23995   4.270   5.447   5.879
 7699SOL    HW123996   4.217   5.455   5.964
 7699SOL    HW223997   4.259   5.531   5.826
 7700SOL     OW23998   5.196   5.710   2.759
 7700SOL    HW123999   5.138   5.734   2.682
 7700SOL    HW224000   5.198   5.787   2.824
 7701SOL     OW24001   0.399   2.668   6.187
 7701SOL    HW124002   0.386   2.729   6.265
 7701SOL    HW224003   0.491   2.678   6.151
 7702SOL     OW24004   4.477   0.143   4.719
 7702SOL    HW124005   4.449   0.061   4.670
 7702SOL    HW224006   4.561   0.180   4.678
 7703SOL     OW24007   6.263   6.727   5.021
 7703SOL    HW124008   6.289   6.785   4.944
 7703SOL    HW224009   6.319   6.644   5.021
 7704SOL     OW24010   6.808   1.780   4.451
 7704SOL    HW124011   6.854   1.701   4.493
 7704SOL    HW224012   6.744   1.820   4.517
 7705SOL     OW24013   1.036   4.682   0.134
 7705SOL    HW124014   1.031   4.610   0.066
 7705SOL    HW224015   0.972   4.662   0.208
 7706SOL     OW24016   3.674   2.834   2.287
 7706SOL    HW124017   3.652   2.781   2.205
 7706SOL    HW224018   3.769   2.819   2.311
 7707SOL     OW24019   6.447   4.335   5.915
 7707SOL    HW124020   6.392   4.262   5.954
 7707SOL    HW224021   6.390   4.391   5.854
 7708SOL     OW24022   2.466   0.093   4.990
 7708SOL    HW124023   2.420   0.097   4.902
 7708SOL    HW224024   2.464   0.184   5.033
 7709SOL     OW24025   0.077   5.051   1.573
 7709SOL    HW124026   0.062   4.955   1.551
 7709SOL    HW224027   0.175   5.070   1.580
 7710SOL     OW24028   0.368   3.424   0.855
 7710SOL    HW124029   0.272   3.396   0.857
 7710SOL    HW224030   0.392   3.452   0.762
 7711SOL     OW24031   0.289   4.828   5.048
 7711SOL    HW124032   0.307   4.909   4.993
 7711SOL    HW224033   0.218   4.849   5.115
 7712SOL     OW24034   6.901   4.479   5.681
 7712SOL    HW124035   6.984   4.497   5.627
 7712SOL    HW224036   6.927   4.432   5.766
 7713SOL     OW24037   2.145   4.597   0.176
 7713SOL    HW124038   2.092   4.594   0.091
 7713SOL    HW224039   2.242   4.607   0.153
 7714SOL     OW24040   6.438   0.698   5.497
 7714SOL    HW124041   6.418   0.718   5.401
 7714SOL    HW224042   6.417   0.602   5.516
 7715SOL     OW24043   2.998   2.620   6.151
 7715SOL    HW124044   2.998   2.531   6.198
 7715SOL    HW224045   2.976   2.607   6.054
 7716SOL     OW24046   1.160   5.841   5.504
 7716SOL    HW124047   1.191   5.874   5.415
 7716SOL    HW224048   1.165   5.916   5.570
 7717SOL     OW24049   0.729   1.601   6.874
 7717SOL    HW124050   0.821   1.631   6.900
 7717SOL    HW224051   0.678   1.679   6.837
 7718SOL     OW24052   1.408   3.696   2.678
 7718SOL    HW124053   1.314   3.693   2.644
 7718SOL    HW224054   1.408   3.720   2.775
 7719SOL     OW24055   2.244   4.263   4.866
 7719SOL    HW124056   2.245   4.188   4.799
 7719SOL    HW224057   2.269   4.227   4.956
 7720SOL     OW24058   5.290   1.411   0.301
 7720SOL    HW124059   5.323   1.496   0.259
 7720SOL    HW224060   5.357   1.338   0.286
 7721SOL     OW24061   0.504   0.540   2.408
 7721SOL    HW124062   0.596   0.576   2.421
 7721SOL    HW224063   0.437   0.613   2.419
 7722SOL     OW24064   2.067   6.209   3.173
 7722SOL    HW124065   2.046   6.274   3.100
 7722SOL    HW224066   1.989   6.148   3.187
 7723SOL     OW24067   4.949   4.341   0.724
 7723SOL    HW124068   4.886   4.413   0.751
 7723SOL    HW224069   5.043   4.370   0.744
 7724SOL     OW24070   2.114   4.012   1.933
 7724SOL    HW124071   2.038   4.041   1.874
 7724SOL    HW224072   2.135   4.085   1.999
 7725SOL     OW24073   5.252   3.203   3.238
 7725SOL    HW124074   5.333   3.145   3.229
 7725SOL    HW224075   5.255   3.251   3.326
 7726SOL     OW24076   0.857   2.896   6.541
 7726SOL    HW124077   0.833   2.959   6.468
 7726SOL    HW224078   0.792   2.905   6.616
 7727SOL     OW24079   5.072   1.549   2.358
 7727SOL    HW124080   5.068   1.515   2.451
 7727SOL    HW224081   5.054   1.475   2.294
 7728SOL     OW24082   2.124   3.347   4.479
 7728SOL    HW124083   2.105   3.443   4.498
 7728SOL    HW224084   2.048   3.291   4.512
 7729SOL     OW24085   6.764   1.983   4.297
 7729SOL    HW124086   6.783   2.065   4.351
 7729SOL    HW224087   6.795   1.902   4.347
 7730SOL     OW24088   6.657   4.275   5.050
 7730SOL    HW124089   6.598   4.356   5.044
 7730SOL    HW224090   6.622   4.205   4.988
 7731SOL     OW24091   6.507   6.720   6.640
 7731SOL    HW124092   6.592   6.774   6.635
 7731SOL    HW224093   6.434   6.768   6.592
 7732SOL     OW24094   4.347   0.477   6.415
 7732SOL    HW124095   4.311   0.559   6.371
 7732SOL    HW224096   4.444   0.467   6.393
 7733SOL     OW24097   6.262   5.850   2.191
 7733SOL    HW124098   6.360   5.869   2.185
 7733SOL    HW224099   6.218   5.921   2.246
 7734SOL     OW24100   3.279   3.568   4.691
 7734SOL    HW124101   3.192   3.601   4.727
 7734SOL    HW224102   3.344   3.645   4.687
 7735SOL     OW24103   6.739   6.174   0.696
 7735SOL    HW124104   6.753   6.075   0.698
 7735SOL    HW224105   6.795   6.217   0.766
 7736SOL     OW24106   2.412   3.018   0.469
 7736SOL    HW124107   2.344   3.028   0.542
 7736SOL    HW224108   2.460   2.931   0.481
 7737SOL     OW24109   3.837   4.970   1.141
 7737SOL    HW124110   3.769   5.041   1.162
 7737SOL    HW224111   3.839   4.903   1.215
 7738SOL     OW24112   2.515   6.687   6.525
 7738SOL    HW124113   2.445   6.619   6.502
 7738SOL    HW224114   2.499   6.771   6.472
 7739SOL     OW24115   1.410   1.766   0.407
 7739SOL    HW124116   1.487   1.810   0.453
 7739SOL    HW224117   1.330   1.767   0.467
 7740SOL     OW24118   1.763   0.711   5.129
 7740SOL    HW124119   1.711   0.795   5.146
 7740SOL    HW224120   1.749   0.683   5.034
 7741SOL     OW24121   1.533   4.310   5.980
 7741SOL    HW124122   1.631   4.327   5.990
 7741SOL    HW224123   1.518   4.213   5.959
 7742SOL     OW24124   4.256   1.348   4.154
 7742SOL    HW124125   4.170   1.398   4.139
 7742SOL    HW224126   4.333   1.408   4.130
 7743SOL     OW24127   5.027   2.342   5.530
 7743SOL    HW124128   5.122   2.322   5.507
 7743SOL    HW224129   4.994   2.417   5.472
 7744SOL     OW24130   0.264   6.469   4.591
 7744SOL    HW124131   0.316   6.390   4.558
 7744SOL    HW224132   0.172   6.441   4.616
 7745SOL     OW24133   2.373   6.798   0.720
 7745SOL    HW124134   2.360   6.897   0.719
 7745SOL    HW224135   2.435   6.771   0.646
 7746SOL     OW24136   1.077   6.268   1.213
 7746SOL    HW124137   1.023   6.229   1.138
 7746SOL    HW224138   1.159   6.310   1.176
 7747SOL     OW24139   1.401   6.031   0.222
 7747SOL    HW124140   1.455   5.971   0.281
 7747SOL    HW224141   1.314   6.051   0.267
 7748SOL     OW24142   4.214   2.389   5.857
 7748SOL    HW124143   4.282   2.400   5.930
 7748SOL    HW224144   4.142   2.326   5.888
 7749SOL     OW24145   4.078   3.610   3.934
 7749SOL    HW124146   4.079   3.708   3.954
 7749SOL    HW224147   3.988   3.584   3.899
 7750SOL     OW24148   6.115   4.177   5.493
 7750SOL    HW124149   6.087   4.253   5.435
 7750SOL    HW224150   6.214   4.166   5.489
 7751SOL     OW24151   6.818   0.887   5.263
 7751SOL    HW124152   6.905   0.937   5.271
 7751SOL    HW224153   6.836   0.792   5.238
 7752SOL     OW24154   6.328   5.419   5.542
 7752SOL    HW124155   6.260   5.400   5.613
 7752SOL    HW224156   6.411   5.456   5.584
 7753SOL     OW24157   2.363   0.847   4.822
 7753SOL    HW124158   2.370   0.914   4.897
 7753SOL    HW224159   2.300   0.774   4.849
 7754SOL     OW24160   5.707   0.883   1.676
 7754SOL    HW124161   5.625   0.840   1.638
 7754SOL    HW224162   5.709   0.867   1.775
 7755SOL     OW24163   1.049   6.081   5.655
 7755SOL    HW124164   0.953   6.052   5.657
 7755SOL    HW224165   1.064   6.149   5.726
 7756SOL     OW24166   3.761   5.286   2.287
 7756SOL    HW124167   3.761   5.257   2.192
 7756SOL    HW224168   3.693   5.234   2.338
 7757SOL     OW24169   4.361   6.241   5.542
 7757SOL    HW124170   4.332   6.329   5.578
 7757SOL    HW224171   4.305   6.168   5.583
 7758SOL     OW24172   2.358   2.226   5.651
 7758SOL    HW124173   2.438   2.204   5.596
 7758SOL    HW224174   2.339   2.324   5.644
 7759SOL     OW24175   2.093   0.680   4.546
 7759SOL    HW124176   1.999   0.669   4.513
 7759SOL    HW224177   2.154   0.696   4.469
 7760SOL     OW24178   4.943   2.936   2.390
 7760SOL    HW124179   4.898   2.945   2.479
 7760SOL    HW224180   5.021   2.875   2.398
 7761SOL     OW24181   3.536   6.762   6.647
 7761SOL    HW124182   3.483   6.682   6.617
 7761SOL    HW224183   3.596   6.736   6.722
 7762SOL     OW24184   3.893   1.394   0.471
 7762SOL    HW124185   3.910   1.297   0.488
 7762SOL    HW224186   3.944   1.448   0.538
 7763SOL     OW24187   1.745   1.748   0.573
 7763SOL    HW124188   1.773   1.844   0.568
 7763SOL    HW224189   1.816   1.695   0.619
 7764SOL     OW24190   3.570   2.866   2.583
 7764SOL    HW124191   3.471   2.866   2.599
 7764SOL    HW224192   3.590   2.813   2.501
 7765SOL     OW24193   6.693   2.152   2.959
 7765SOL    HW124194   6.730   2.223   3.020
 7765SOL    HW224195   6.706   2.179   2.864
 7766SOL     OW24196   6.826   2.618   6.807
 7766SOL    HW124197   6.784   2.548   6.749
 7766SOL    HW224198   6.814   2.593   6.903
 7767SOL     OW24199   4.360   5.831   4.357
 7767SOL    HW124200   4.393   5.837   4.263
 7767SOL    HW224201   4.417   5.886   4.417
 7768SOL     OW24202   3.827   4.808   2.275
 7768SOL    HW124203   3.790   4.749   2.347
 7768SOL    HW224204   3.758   4.819   2.203
 7769SOL     OW24205   5.313   1.864   1.639
 7769SOL    HW124206   5.308   1.964   1.642
 7769SOL    HW224207   5.408   1.836   1.624
 7770SOL     OW24208   3.100   5.021   1.119
 7770SOL    HW124209   3.149   4.935   1.135
 7770SOL    HW224210   3.009   5.015   1.160
 7771SOL     OW24211   2.503   2.177   5.857
 7771SOL    HW124212   2.512   2.250   5.925
 7771SOL    HW224213   2.460   2.213   5.774
 7772SOL     OW24214   5.055   0.699   4.419
 7772SOL    HW124215   5.039   0.708   4.517
 7772SOL    HW224216   5.108   0.616   4.401
 7773SOL     OW24217   4.296   3.646   5.929
 7773SOL    HW124218   4.390   3.626   5.899
 7773SOL    HW224219   4.296   3.662   6.028
 7774SOL     OW24220   5.000   1.657   6.469
 7774SOL    HW124221   5.045   1.712   6.398
 7774SOL    HW224222   4.952   1.580   6.426
 7775SOL     OW24223   3.060   6.293   2.207
 7775SOL    HW124224   2.995   6.269   2.279
 7775SOL    HW224225   3.050   6.230   2.130
 7776SOL     OW24226   3.808   3.452   6.676
 7776SOL    HW124227   3.833   3.533   6.730
 7776SOL    HW224228   3.710   3.455   6.656
 7777SOL     OW24229   2.252   1.428   6.633
 7777SOL    HW124230   2.191   1.422   6.554
 7777SOL    HW224231   2.206   1.393   6.714
 7778SOL     OW24232   5.476   0.868   6.961
 7778SOL    HW124233   5.451   0.877   0.037
 7778SOL    HW224234   5.575   0.878   6.951
 7779SOL     OW24235   4.077   2.795   0.649
 7779SOL    HW124236   4.136   2.782   0.569
 7779SOL    HW224237   4.114   2.868   0.706
 7780SOL     OW24238   2.287   6.307   4.888
 7780SOL    HW124239   2.350   6.230   4.878
 7780SOL    HW224240   2.336   6.392   4.868
 7781SOL     OW24241   1.125   4.617   4.689
 7781SOL    HW124242   1.203   4.657   4.737
 7781SOL    HW224243   1.144   4.615   4.591
 7782SOL     OW24244   2.793   4.176   6.231
 7782SOL    HW124245   2.879   4.129   6.248
 7782SOL    HW224246   2.767   4.230   6.311
 7783SOL     OW24247   2.307   5.309   6.717
 7783SOL    HW124248   2.318   5.215   6.684
 7783SOL    HW224249   2.301   5.371   6.639
 7784SOL     OW24250   0.316   2.769   6.982
 7784SOL    HW124251   0.217   2.756   6.973
 7784SOL    HW224252   0.352   2.807   6.897
 7785SOL     OW24253   2.329   5.898   4.283
 7785SOL    HW124254   2.362   5.804   4.295
 7785SOL    HW224255   2.309   5.938   4.372
 7786SOL     OW24256   3.060   4.415   5.301
 7786SOL    HW124257   3.146   4.462   5.287
 7786SOL    HW224258   2.986   4.465   5.255
 7787SOL     OW24259   2.461   2.726   5.209
 7787SOL    HW124260   2.439   2.809   5.158
 7787SOL    HW224261   2.556   2.730   5.240
 7788SOL     OW24262   1.454   1.504   0.341
 7788SOL    HW124263   1.398   1.576   0.383
 7788SOL    HW224264   1.548   1.513   0.371
 7789SOL     OW24265   2.318   0.820   1.256
 7789SOL    HW124266   2.371   0.771   1.325
 7789SOL    HW224267   2.345   0.916   1.254
 7790SOL     OW24268   5.135   3.172   2.766
 7790SOL    HW124269   5.095   3.229   2.838
 7790SOL    HW224270   5.232   3.193   2.756
 7791SOL     OW24271   1.796   5.087   4.898
 7791SOL    HW124272   1.774   5.130   4.810
 7791SOL    HW224273   1.712   5.069   4.948
 7792SOL     OW24274   2.622   5.809   6.148
 7792SOL    HW124275   2.527   5.823   6.118
 7792SOL    HW224276   2.623   5.746   6.225
 7793SOL     OW24277   1.056   1.134   5.991
 7793SOL    HW124278   1.133   1.097   6.043
 7793SOL    HW224279   1.015   1.062   5.936
 7794SOL     OW24280   5.372   5.716   4.276
 7794SOL    HW124281   5.287   5.759   4.305
 7794SOL    HW224282   5.441   5.786   4.259
 7795SOL     OW24283   2.662   4.495   5.301
 7795SOL    HW124284   2.657   4.591   5.332
 7795SOL    HW224285   2.729   4.487   5.228
 7796SOL     OW24286   3.370   4.178   3.373
 7796SOL    HW124287   3.304   4.136   3.310
 7796SOL    HW224288   3.352   4.145   3.466
 7797SOL     OW24289   0.134   6.959   2.893
 7797SOL    HW124290   0.207   6.950   2.960
 7797SOL    HW224291   0.164   7.017   2.817
 7798SOL     OW24292   3.343   5.811   0.080
 7798SOL    HW124293   3.244   5.800   0.075
 7798SOL    HW224294   3.386   5.762   0.005
 7799SOL     OW24295   0.271   4.487   1.608
 7799SOL    HW124296   0.294   4.547   1.684
 7799SOL    HW224297   0.175   4.460   1.614
 7800SOL     OW24298   0.612   5.741   1.977
 7800SOL    HW124299   0.651   5.763   1.887
 7800SOL    HW224300   0.679   5.763   2.048
 7801SOL     OW24301   3.345   1.971   6.751
 7801SOL    HW124302   3.348   1.944   6.654
 7801SOL    HW224303   3.383   2.063   6.761
 7802SOL     OW24304   5.649   2.408   1.950
 7802SOL    HW124305   5.693   2.421   2.039
 7802SOL    HW224306   5.570   2.347   1.960
 7803SOL     OW24307   3.939   3.867   5.610
 7803SOL    HW124308   4.025   3.835   5.650
 7803SOL    HW224309   3.890   3.922   5.677
 7804SOL     OW24310   5.150   1.925   5.993
 7804SOL    HW124311   5.154   2.008   5.937
 7804SOL    HW224312   5.069   1.929   6.052
 7805SOL     OW24313   5.156   3.636   2.094
 7805SOL    HW124314   5.065   3.606   2.064
 7805SOL    HW224315   5.200   3.562   2.146
 7806SOL     OW24316   5.710   2.770   6.232
 7806SOL    HW124317   5.669   2.773   6.323
 7806SOL    HW224318   5.648   2.722   6.170
 7807SOL     OW24319   0.146   4.116   5.971
 7807SOL    HW124320   0.115   4.041   6.029
 7807SOL    HW224321   0.246   4.119   5.971
 7808SOL     OW24322   1.138   1.161   4.702
 7808SOL    HW124323   1.114   1.091   4.635
 7808SOL    HW224324   1.059   1.178   4.762
 7809SOL     OW24325   2.529   5.759   4.645
 7809SOL    HW124326   2.559   5.841   4.597
 7809SOL    HW224327   2.432   5.767   4.669
 7810SOL     OW24328   2.671   1.021   6.377
 7810SOL    HW124329   2.604   0.979   6.438
 7810SOL    HW224330   2.688   1.115   6.405
 7811SOL     OW24331   5.693   4.430   4.178
 7811SOL    HW124332   5.682   4.441   4.079
 7811SOL    HW224333   5.764   4.492   4.211
 7812SOL     OW24334   1.871   1.627   3.566
 7812SOL    HW124335   1.865   1.690   3.488
 7812SOL    HW224336   1.845   1.535   3.536
 7813SOL     OW24337   0.028   2.984   0.077
 7813SOL    HW124338   6.953   3.013   0.065
 7813SOL    HW224339   0.055   2.999   0.172
 7814SOL     OW24340   6.878   3.506   3.120
 7814SOL    HW124341   6.949   3.519   3.051
 7814SOL    HW224342   6.800   3.458   3.078
 7815SOL     OW24343   6.172   1.655   6.031
 7815SOL    HW124344   6.196   1.749   6.053
 7815SOL    HW224345   6.129   1.612   6.110
 7816SOL     OW24346   1.229   3.746   4.685
 7816SOL    HW124347   1.220   3.674   4.754
 7816SOL    HW224348   1.326   3.763   4.668
 7817SOL     OW24349   5.315   4.204   4.765
 7817SOL    HW124350   5.250   4.225   4.692
 7817SOL    HW224351   5.341   4.108   4.759
 7818SOL     OW24352   5.411   6.360   1.883
 7818SOL    HW124353   5.385   6.267   1.909
 7818SOL    HW224354   5.489   6.358   1.821
 7819SOL     OW24355   6.996   2.053   1.460
 7819SOL    HW124356   0.033   2.070   1.540
 7819SOL    HW224357   6.900   2.074   1.483
 7820SOL     OW24358   1.731   1.187   6.661
 7820SOL    HW124359   1.753   1.281   6.688
 7820SOL    HW224360   1.632   1.177   6.653
 7821SOL     OW24361   3.346   5.325   1.722
 7821SOL    HW124362   3.357   5.409   1.774
 7821SOL    HW224363   3.250   5.314   1.696
 7822SOL     OW24364   1.527   6.115   5.174
 7822SOL    HW124365   1.454   6.167   5.218
 7822SOL    HW224366   1.524   6.130   5.075
 7823SOL     OW24367   1.564   4.779   4.915
 7823SOL    HW124368   1.620   4.705   4.951
 7823SOL    HW224369   1.575   4.786   4.816
 7824SOL     OW24370   0.706   3.008   5.452
 7824SOL    HW124371   0.784   2.971   5.502
 7824SOL    HW224372   0.621   2.988   5.502
 7825SOL     OW24373   2.769   1.581   6.092
 7825SOL    HW124374   2.703   1.655   6.081
 7825SOL    HW224375   2.785   1.565   6.189
 7826SOL     OW24376   0.412   2.808   6.751
 7826SOL    HW124377   0.435   2.712   6.768
 7826SOL    HW224378   0.496   2.862   6.746
 7827SOL     OW24379   6.969   6.376   4.634
 7827SOL    HW124380   6.870   6.382   4.641
 7827SOL    HW224381   6.998   6.280   4.641
 7828SOL     OW24382   0.618   4.392   6.638
 7828SOL    HW124383   0.531   4.366   6.681
 7828SOL    HW224384   0.619   4.491   6.623
 7829SOL     OW24385   3.837   2.648   0.748
 7829SOL    HW124386   3.858   2.644   0.846
 7829SOL    HW224387   3.916   2.682   0.698
 7830SOL     OW24388   2.547   4.633   4.694
 7830SOL    HW124389   2.525   4.710   4.634
 7830SOL    HW224390   2.502   4.551   4.660
 7831SOL     OW24391   1.710   1.543   0.410
 7831SOL    HW124392   1.734   1.628   0.458
 7831SOL    HW224393   1.793   1.490   0.394
 7832SOL     OW24394   6.332   0.898   4.381
 7832SOL    HW124395   6.260   0.840   4.341
 7832SOL    HW224396   6.316   0.993   4.354
 7833SOL     OW24397   1.853   0.662   4.448
 7833SOL    HW124398   1.782   0.732   4.445
 7833SOL    HW224399   1.812   0.573   4.428
 7834SOL     OW24400   6.128   3.110   4.616
 7834SOL    HW124401   6.214   3.075   4.651
 7834SOL    HW224402   6.092   3.048   4.546
 7835SOL     OW24403   4.273   1.796   5.146
 7835SOL    HW124404   4.252   1.894   5.146
 7835SOL    HW224405   4.370   1.783   5.127
 7836SOL     OW24406   3.902   3.735   4.958
 7836SOL    HW124407   3.865   3.801   4.893
 7836SOL    HW224408   3.828   3.701   5.016
 7837SOL     OW24409   6.317   5.439   6.796
 7837SOL    HW124410   6.378   5.362   6.776
 7837SOL    HW224411   6.227   5.422   6.754
 7838SOL     OW24412   5.479   5.337   1.166
 7838SOL    HW124413   5.421   5.303   1.092
 7838SOL    HW224414   5.544   5.265   1.192
 7839SOL     OW24415   5.510   3.796   4.149
 7839SOL    HW124416   5.487   3.699   4.158
 7839SOL    HW224417   5.482   3.845   4.232
 7840SOL     OW24418   1.875   2.928   4.108
 7840SOL    HW124419   1.813   2.949   4.032
 7840SOL    HW224420   1.883   3.007   4.168
 7841SOL     OW24421   4.743   2.133   6.211
 7841SOL    HW124422   4.655   2.093   6.184
 7841SOL    HW224423   4.818   2.078   6.174
 7842SOL     OW24424   1.615   1.306   2.008
 7842SOL    HW124425   1.660   1.383   2.054
 7842SOL    HW224426   1.601   1.232   2.073
 7843SOL     OW24427   0.380   6.661   2.882
 7843SOL    HW124428   0.344   6.609   2.960
 7843SOL    HW224429   0.313   6.660   2.808
 7844SOL     OW24430   3.498   1.561   2.917
 7844SOL    HW124431   3.518   1.644   2.970
 7844SOL    HW224432   3.512   1.581   2.820
 7845SOL     OW24433   6.516   2.745   1.063
 7845SOL    HW124434   6.475   2.782   1.146
 7845SOL    HW224435   6.523   2.818   0.995
 7846SOL     OW24436   0.639   2.641   0.326
 7846SOL    HW124437   0.607   2.568   0.386
 7846SOL    HW224438   0.566   2.669   0.264
 7847SOL     OW24439   5.788   3.029   4.858
 7847SOL    HW124440   5.715   2.973   4.897
 7847SOL    HW224441   5.777   3.035   4.759
 7848SOL     OW24442   3.157   4.735   0.858
 7848SOL    HW124443   3.180   4.640   0.834
 7848SOL    HW224444   3.173   4.749   0.956
 7849SOL     OW24445   4.452   4.278   6.269
 7849SOL    HW124446   4.435   4.235   6.180
 7849SOL    HW224447   4.409   4.368   6.271
 7850SOL     OW24448   7.018   0.860   3.905
 7850SOL    HW124449   0.011   0.814   3.817
 7850SOL    HW224450   6.941   0.819   3.952
 7851SOL     OW24451   0.604   4.113   2.221
 7851SOL    HW124452   0.703   4.117   2.208
 7851SOL    HW224453   0.574   4.018   2.218
 7852SOL     OW24454   0.895   2.132   6.374
 7852SOL    HW124455   0.835   2.087   6.441
 7852SOL    HW224456   0.988   2.096   6.383
 7853SOL     OW24457   3.956   2.976   1.719
 7853SOL    HW124458   3.943   2.965   1.817
 7853SOL    HW224459   3.935   3.070   1.692
 7854SOL     OW24460   5.099   2.788   6.752
 7854SOL    HW124461   5.079   2.883   6.731
 7854SOL    HW224462   5.014   2.734   6.748
 7855SOL     OW24463   4.989   6.831   4.496
 7855SOL    HW124464   4.962   6.923   4.467
 7855SOL    HW224465   5.006   6.830   4.595
 7856SOL     OW24466   2.376   6.543   4.798
 7856SOL    HW124467   2.441   6.602   4.750
 7856SOL    HW224468   2.289   6.590   4.809
 7857SOL     OW24469   5.424   4.178   1.377
 7857SOL    HW124470   5.350   4.115   1.403
 7857SOL    HW224471   5.465   4.147   1.291
 7858SOL     OW24472   0.725   5.235   5.536
 7858SOL    HW124473   0.678   5.317   5.569
 7858SOL    HW224474   0.679   5.153   5.571
 7859SOL     OW24475   5.364   2.937   0.393
 7859SOL    HW124476   5.278   2.885   0.386
 7859SOL    HW224477   5.384   2.981   0.306
 7860SOL     OW24478   2.739   0.591   4.286
 7860SOL    HW124479   2.759   0.684   4.254
 7860SOL    HW224480   2.811   0.529   4.256
 7861SOL     OW24481   2.711   6.045   0.662
 7861SOL    HW124482   2.627   6.059   0.714
 7861SOL    HW224483   2.774   5.988   0.714
 7862SOL     OW24484   2.488   5.539   0.488
 7862SOL    HW124485   2.514   5.521   0.393
 7862SOL    HW224486   2.474   5.452   0.535
 7863SOL     OW24487   6.766   4.405   3.222
 7863SOL    HW124488   6.680   4.404   3.273
 7863SOL    HW224489   6.830   4.341   3.263
 7864SOL     OW24490   2.011   6.853   5.317
 7864SOL    HW124491   2.064   6.805   5.387
 7864SOL    HW224492   2.061   6.935   5.288
 7865SOL     OW24493   5.640   5.785   3.587
 7865SOL    HW124494   5.677   5.703   3.545
 7865SOL    HW224495   5.624   5.769   3.684
 7866SOL     OW24496   1.097   6.888   5.875
 7866SOL    HW124497   1.172   6.828   5.902
 7866SOL    HW224498   1.050   6.849   5.796
 7867SOL     OW24499   5.326   6.239   3.649
 7867SOL    HW124500   5.281   6.189   3.574
 7867SOL    HW224501   5.401   6.294   3.611
 7868SOL     OW24502   3.375   6.179   1.163
 7868SOL    HW124503   3.385   6.242   1.240
 7868SOL    HW224504   3.434   6.208   1.088
 7869SOL     OW24505   5.273   4.697   6.093
 7869SOL    HW124506   5.334   4.696   6.014
 7869SOL    HW224507   5.187   4.742   6.068
 7870SOL     OW24508   5.525   6.275   5.112
 7870SOL    HW124509   5.596   6.308   5.174
 7870SOL    HW224510   5.527   6.329   5.028
 7871SOL     OW24511   4.763   1.395   1.757
 7871SOL    HW124512   4.857   1.417   1.730
 7871SOL    HW224513   4.706   1.388   1.675
 7872SOL     OW24514   1.927   6.215   2.737
 7872SOL    HW124515   1.926   6.115   2.730
 7872SOL    HW224516   1.897   6.255   2.650
 7873SOL     OW24517   6.321   1.073   6.977
 7873SOL    HW124518   6.272   1.019   0.025
 7873SOL    HW224519   6.401   1.022   6.945
 7874SOL     OW24520   5.498   2.360   0.875
 7874SOL    HW124521   5.404   2.327   0.884
 7874SOL    HW224522   5.497   2.460   0.869
 7875SOL     OW24523   5.162   4.339   6.959
 7875SOL    HW124524   5.205   4.306   0.023
 7875SOL    HW224525   5.194   4.431   6.940
 7876SOL     OW24526   0.910   0.059   2.425
 7876SOL    HW124527   0.926   0.156   2.409
 7876SOL    HW224528   0.986   0.006   2.386
 7877SOL     OW24529   0.103   2.270   2.959
 7877SOL    HW124530   0.047   2.220   3.025
 7877SOL    HW224531   0.151   2.344   3.007
 7878SOL     OW24532   4.206   5.154   3.144
 7878SOL    HW124533   4.155   5.184   3.064
 7878SOL    HW224534   4.154   5.083   3.192
 7879SOL     OW24535   2.430   4.585   3.169
 7879SOL    HW124536   2.498   4.656   3.151
 7879SOL    HW224537   2.425   4.523   3.090
 7880SOL     OW24538   1.390   4.206   1.897
 7880SOL    HW124539   1.441   4.260   1.964
 7880SOL    HW224540   1.336   4.267   1.839
 7881SOL     OW24541   5.059   4.101   4.060
 7881SOL    HW124542   4.993   4.026   4.063
 7881SOL    HW224543   5.147   4.067   4.029
 7882SOL     OW24544   1.284   3.036   1.094
 7882SOL    HW124545   1.365   2.978   1.103
 7882SOL    HW224546   1.228   3.004   1.018
 7883SOL     OW24547   1.239   1.106   5.384
 7883SOL    HW124548   1.291   1.074   5.305
 7883SOL    HW224549   1.260   1.049   5.463
 7884SOL     OW24550   0.796   2.821   4.213
 7884SOL    HW124551   0.759   2.833   4.121
 7884SOL    HW224552   0.895   2.834   4.211
 7885SOL     OW24553   5.911   6.015   0.252
 7885SOL    HW124554   5.861   6.049   0.172
 7885SOL    HW224555   5.971   5.940   0.224
 7886SOL     OW24556   4.809   5.294   6.959
 7886SOL    HW124557   4.851   5.369   6.908
 7886SOL    HW224558   4.710   5.296   6.947
 7887SOL     OW24559   5.052   1.941   0.106
 7887SOL    HW124560   4.966   1.941   0.158
 7887SOL    HW224561   5.053   1.865   0.042
 7888SOL     OW24562   5.235   1.105   4.673
 7888SOL    HW124563   5.215   1.033   4.739
 7888SOL    HW224564   5.152   1.158   4.655
 7889SOL     OW24565   1.018   6.766   2.158
 7889SOL    HW124566   1.010   6.729   2.066
 7889SOL    HW224567   1.111   6.750   2.192
 7890SOL     OW24568   1.716   3.028   2.866
 7890SOL    HW124569   1.673   3.017   2.956
 7890SOL    HW224570   1.667   2.974   2.798
 7891SOL     OW24571   2.381   4.893   2.498
 7891SOL    HW124572   2.295   4.879   2.449
 7891SOL    HW224573   2.429   4.972   2.459
 7892SOL     OW24574   1.938   2.310   5.566
 7892SOL    HW124575   1.841   2.321   5.585
 7892SOL    HW224576   1.991   2.352   5.640
 7893SOL     OW24577   6.239   6.395   1.349
 7893SOL    HW124578   6.285   6.464   1.293
 7893SOL    HW224579   6.216   6.433   1.438
 7894SOL     OW24580   3.066   6.877   1.645
 7894SOL    HW124581   3.032   6.785   1.625
 7894SOL    HW224582   3.017   6.944   1.589
 7895SOL     OW24583   0.204   1.668   3.876
 7895SOL    HW124584   0.299   1.637   3.877
 7895SOL    HW224585   0.150   1.613   3.939
 7896SOL     OW24586   4.537   2.684   5.832
 7896SOL    HW124587   4.558   2.605   5.890
 7896SOL    HW224588   4.455   2.666   5.779
 7897SOL     OW24589   3.055   3.068   6.158
 7897SOL    HW124590   3.085   3.159   6.129
 7897SOL    HW224591   3.063   3.004   6.082
 7898SOL     OW24592   4.305   2.227   3.520
 7898SOL    HW124593   4.265   2.136   3.532
 7898SOL    HW224594   4.404   2.222   3.529
 7899SOL     OW24595   5.793   1.732   2.885
 7899SOL    HW124596   5.781   1.646   2.934
 7899SOL    HW224597   5.766   1.719   2.789
 7900SOL     OW24598   1.665   5.152   0.839
 7900SOL    HW124599   1.756   5.180   0.869
 7900SOL    HW224600   1.596   5.212   0.880
 7901SOL     OW24601   6.074   6.251   0.014
 7901SOL    HW124602   6.119   6.291   6.954
 7901SOL    HW224603   6.141   6.201   0.069
 7902SOL     OW24604   4.446   3.904   6.778
 7902SOL    HW124605   4.429   3.904   6.680
 7902SOL    HW224606   4.442   3.998   6.813
 7903SOL     OW24607   0.222   2.054   6.480
 7903SOL    HW124608   0.270   1.966   6.487
 7903SOL    HW224609   0.208   2.077   6.384
 7904SOL     OW24610   6.554   0.968   2.691
 7904SOL    HW124611   6.494   0.898   2.652
 7904SOL    HW224612   6.633   0.983   2.631
 7905SOL     OW24613   3.788   1.113   0.881
 7905SOL    HW124614   3.794   1.043   0.809
 7905SOL    HW224615   3.756   1.199   0.841
 7906SOL     OW24616   6.340   5.851   0.027
 7906SOL    HW124617   6.290   5.814   6.969
 7906SOL    HW224618   6.361   5.948   0.011
 7907SOL     OW24619   6.794   2.676   2.190
 7907SOL    HW124620   6.833   2.705   2.103
 7907SOL    HW224621   6.708   2.629   2.174
 7908SOL     OW24622   6.324   2.350   3.816
 7908SOL    HW124623   6.396   2.284   3.795
 7908SOL    HW224624   6.300   2.400   3.732
 7909SOL     OW24625   4.698   4.556   5.199
 7909SOL    HW124626   4.719   4.621   5.126
 7909SOL    HW224627   4.783   4.532   5.246
 7910SOL     OW24628   5.562   3.071   5.836
 7910SOL    HW124629   5.527   3.125   5.759
 7910SOL    HW224630   5.659   3.092   5.849
 7911SOL     OW24631   5.505   4.458   0.169
 7911SOL    HW124632   5.499   4.558   0.165
 7911SOL    HW224633   5.415   4.420   0.185
 7912SOL     OW24634   6.304   4.961   5.935
 7912SOL    HW124635   6.263   4.951   6.025
 7912SOL    HW224636   6.291   4.876   5.883
 7913SOL     OW24637   6.914   5.457   6.253
 7913SOL    HW124638   6.912   5.466   6.153
 7913SOL    HW224639   6.895   5.546   6.295
 7914SOL     OW24640   6.896   4.178   1.863
 7914SOL    HW124641   6.833   4.118   1.815
 7914SOL    HW224642   6.871   4.182   1.960
 7915SOL     OW24643   3.695   1.757   3.263
 7915SOL    HW124644   3.789   1.735   3.236
 7915SOL    HW224645   3.643   1.787   3.183
 7916SOL     OW24646   5.290   3.868   5.534
 7916SOL    HW124647   5.259   3.839   5.443
 7916SOL    HW224648   5.229   3.831   5.603
 7917SOL     OW24649   3.278   3.743   3.936
 7917SOL    HW124650   3.282   3.705   3.844
 7917SOL    HW224651   3.236   3.834   3.933
 7918SOL     OW24652   6.281   1.694   2.591
 7918SOL    HW124653   6.378   1.707   2.609
 7918SOL    HW224654   6.228   1.711   2.674
 7919SOL     OW24655   6.015   5.076   2.067
 7919SOL    HW124656   5.968   5.149   2.017
 7919SOL    HW224657   6.056   5.012   2.003
 7920SOL     OW24658   0.738   5.453   1.614
 7920SOL    HW124659   0.702   5.460   1.708
 7920SOL    HW224660   0.744   5.357   1.588
 7921SOL     OW24661   3.255   6.449   1.618
 7921SOL    HW124662   3.209   6.450   1.529
 7921SOL    HW224663   3.267   6.543   1.650
 7922SOL     OW24664   0.750   5.055   6.756
 7922SOL    HW124665   0.818   5.020   6.821
 7922SOL    HW224666   0.670   5.087   6.806
 7923SOL     OW24667   1.647   1.837   3.082
 7923SOL    HW124668   1.639   1.821   2.983
 7923SOL    HW224669   1.737   1.877   3.102
 7924SOL     OW24670   2.256   0.056   3.974
 7924SOL    HW124671   2.302   0.084   3.890
 7924SOL    HW224672   2.215   0.135   4.018
 7925SOL     OW24673   6.881   1.289   6.513
 7925SOL    HW124674   6.866   1.387   6.526
 7925SOL    HW224675   6.862   1.241   6.599
 7926SOL     OW24676   3.800   0.004   1.928
 7926SOL    HW124677   3.755   6.976   1.853
 7926SOL    HW224678   3.813   6.961   2.005
 7927SOL     OW24679   5.030   5.203   4.695
 7927SOL    HW124680   5.019   5.196   4.595
 7927SOL    HW224681   5.117   5.247   4.716
 7928SOL     OW24682   1.385   4.962   1.284
 7928SOL    HW124683   1.329   5.015   1.346
 7928SOL    HW224684   1.370   4.993   1.190
 7929SOL     OW24685   3.681   4.130   4.168
 7929SOL    HW124686   3.748   4.111   4.240
 7929SOL    HW224687   3.712   4.089   4.082
 7930SOL     OW24688   4.914   6.061   3.923
 7930SOL    HW124689   4.900   6.140   3.983
 7930SOL    HW224690   4.825   6.020   3.901
 7931SOL     OW24691   1.977   2.225   0.598
 7931SOL    HW124692   2.066   2.197   0.634
 7931SOL    HW224693   1.925   2.270   0.671
 7932SOL     OW24694   2.709   6.865   1.106
 7932SOL    HW124695   2.684   6.785   1.052
 7932SOL    HW224696   2.805   6.888   1.090
 7933SOL     OW24697   1.496   0.521   0.078
 7933SOL    HW124698   1.552   0.572   0.144
 7933SOL    HW224699   1.464   0.583   0.007
 7934SOL     OW24700   2.856   3.892   6.027
 7934SOL    HW124701   2.812   3.841   6.101
 7934SOL    HW224702   2.812   3.982   6.018
 7935SOL     OW24703   4.312   6.082   0.974
 7935SOL    HW124704   4.298   6.080   0.875
 7935SOL    HW224705   4.355   5.997   1.004
 7936SOL     OW24706   4.460   6.189   3.313
 7936SOL    HW124707   4.543   6.240   3.331
 7936SOL    HW224708   4.386   6.223   3.371
 7937SOL     OW24709   6.172   6.343   5.622
 7937SOL    HW124710   6.073   6.357   5.633
 7937SOL    HW224711   6.192   6.324   5.526
 7938SOL     OW24712   5.561   5.006   4.752
 7938SOL    HW124713   5.562   5.030   4.655
 7938SOL    HW224714   5.468   5.014   4.788
 7939SOL     OW24715   1.016   1.043   4.994
 7939SOL    HW124716   0.927   1.029   4.952
 7939SOL    HW224717   1.022   1.136   5.030
 7940SOL     OW24718   1.615   5.727   1.077
 7940SOL    HW124719   1.663   5.674   1.147
 7940SOL    HW224720   1.640   5.824   1.086
 7941SOL     OW24721   0.410   0.555   0.667
 7941SOL    HW124722   0.380   0.462   0.690
 7941SOL    HW224723   0.509   0.562   0.677
 7942SOL     OW24724   1.048   0.975   1.519
 7942SOL    HW124725   0.996   0.938   1.596
 7942SOL    HW224726   1.018   0.930   1.435
 7943SOL     OW24727   5.214   1.830   1.227
 7943SOL    HW124728   5.226   1.783   1.314
 7943SOL    HW224729   5.124   1.876   1.226
 7944SOL     OW24730   1.182   4.976   1.741
 7944SOL    HW124731   1.206   4.921   1.821
 7944SOL    HW224732   1.086   4.960   1.717
 7945SOL     OW24733   5.116   6.568   2.125
 7945SOL    HW124734   5.044   6.535   2.064
 7945SOL    HW224735   5.196   6.593   2.071
 7946SOL     OW24736   1.674   2.327   5.648
 7946SOL    HW124737   1.590   2.346   5.597
 7946SOL    HW224738   1.655   2.333   5.746
 7947SOL     OW24739   3.947   3.494   6.355
 7947SOL    HW124740   3.896   3.445   6.284
 7947SOL    HW224741   3.886   3.516   6.431
 7948SOL     OW24742   0.123   6.321   0.550
 7948SOL    HW124743   0.144   6.241   0.606
 7948SOL    HW224744   0.208   6.368   0.527
 7949SOL     OW24745   5.341   4.429   4.300
 7949SOL    HW124746   5.424   4.390   4.341
 7949SOL    HW224747   5.364   4.512   4.249
 7950SOL     OW24748   3.794   4.945   4.465
 7950SOL    HW124749   3.876   4.916   4.415
 7950SOL    HW224750   3.802   4.918   4.561
 7951SOL     OW24751   3.475   3.263   1.222
 7951SOL    HW124752   3.554   3.251   1.163
 7951SOL    HW224753   3.433   3.174   1.241
 7952SOL     OW24754   5.810   3.112   0.812
 7952SOL    HW124755   5.779   3.201   0.779
 7952SOL    HW224756   5.755   3.040   0.770
 7953SOL     OW24757   2.018   2.761   2.841
 7953SOL    HW124758   2.046   2.710   2.760
 7953SOL    HW224759   2.033   2.705   2.923
 7954SOL     OW24760   4.518   5.185   5.229
 7954SOL    HW124761   4.565   5.129   5.161
 7954SOL    HW224762   4.499   5.129   5.311
 7955SOL     OW24763   0.979   6.977   6.158
 7955SOL    HW124764   1.020   6.976   6.067
 7955SOL    HW224765   0.900   6.915   6.159
 7956SOL     OW24766   6.088   0.335   3.850
 7956SOL    HW124767   6.023   0.395   3.802
 7956SOL    HW224768   6.040   0.287   3.924
 7957SOL     OW24769   0.814   2.395   0.926
 7957SOL    HW124770   0.730   2.426   0.881
 7957SOL    HW224771   0.893   2.425   0.872
 7958SOL     OW24772   2.681   5.716   3.113
 7958SOL    HW124773   2.698   5.768   3.029
 7958SOL    HW224774   2.592   5.672   3.107
 7959SOL     OW24775   5.589   4.952   0.813
 7959SOL    HW124776   5.674   4.941   0.865
 7959SOL    HW224777   5.562   5.048   0.814
 7960SOL     OW24778   2.742   2.611   1.360
 7960SOL    HW124779   2.698   2.593   1.447
 7960SOL    HW224780   2.683   2.668   1.303
 7961SOL     OW24781   1.747   5.259   6.523
 7961SOL    HW124782   1.729   5.210   6.439
 7961SOL    HW224783   1.845   5.256   6.544
 7962SOL     OW24784   1.172   0.680   2.190
 7962SOL    HW124785   1.241   0.697   2.120
 7962SOL    HW224786   1.084   0.659   2.146
 7963SOL     OW24787   0.170   0.714   5.011
 7963SOL    HW124788   0.185   0.651   4.935
 7963SOL    HW224789   0.099   0.677   5.071
 7964SOL     OW24790   6.052   5.632   3.459
 7964SOL    HW124791   6.028   5.538   3.482
 7964SOL    HW224792   6.015   5.694   3.528
 7965SOL     OW24793   5.598   1.756   0.172
 7965SOL    HW124794   5.561   1.726   0.084
 7965SOL    HW224795   5.547   1.714   0.246
 7966SOL     OW24796   0.187   5.090   3.922
 7966SOL    HW124797   0.122   5.159   3.953
 7966SOL    HW224798   0.231   5.121   3.838
 7967SOL     OW24799   2.810   6.422   2.904
 7967SOL    HW124800   2.893   6.477   2.898
 7967SOL    HW224801   2.730   6.482   2.901
 7968SOL     OW24802   2.011   1.463   2.059
 7968SOL    HW124803   2.035   1.554   2.093
 7968SOL    HW224804   1.932   1.428   2.109
 7969SOL     OW24805   2.741   2.175   3.344
 7969SOL    HW124806   2.778   2.189   3.436
 7969SOL    HW224807   2.810   2.203   3.277
 7970SOL     OW24808   0.524   4.346   3.218
 7970SOL    HW124809   0.491   4.298   3.136
 7970SOL    HW224810   0.526   4.283   3.295
 7971SOL     OW24811   2.559   1.585   1.550
 7971SOL    HW124812   2.639   1.525   1.558
 7971SOL    HW224813   2.563   1.656   1.620
 7972SOL     OW24814   0.300   4.140   1.943
 7972SOL    HW124815   0.314   4.128   1.845
 7972SOL    HW224816   0.365   4.209   1.977
 7973SOL     OW24817   4.756   2.747   3.240
 7973SOL    HW124818   4.726   2.700   3.157
 7973SOL    HW224819   4.688   2.733   3.312
 7974SOL     OW24820   5.232   0.490   4.401
 7974SOL    HW124821   5.236   0.391   4.389
 7974SOL    HW224822   5.320   0.529   4.374
 7975SOL     OW24823   3.291   1.358   4.268
 7975SOL    HW124824   3.202   1.390   4.236
 7975SOL    HW224825   3.358   1.433   4.262
 7976SOL     OW24826   0.918   5.563   6.419
 7976SOL    HW124827   0.821   5.560   6.441
 7976SOL    HW224828   0.929   5.558   6.319
 7977SOL     OW24829   5.506   6.086   1.390
 7977SOL    HW124830   5.480   5.991   1.374
 7977SOL    HW224831   5.601   6.090   1.421
 7978SOL     OW24832   4.270   2.649   5.748
 7978SOL    HW124833   4.217   2.682   5.669
 7978SOL    HW224834   4.229   2.564   5.781
 7979SOL     OW24835   3.653   6.715   4.459
 7979SOL    HW124836   3.636   6.801   4.507
 7979SOL    HW224837   3.575   6.653   4.474
 7980SOL     OW24838   3.095   6.174   1.291
 7980SOL    HW124839   3.138   6.109   1.354
 7980SOL    HW224840   3.111   6.144   1.197
 7981SOL     OW24841   1.207   5.421   2.849
 7981SOL    HW124842   1.302   5.451   2.843
 7981SOL    HW224843   1.166   5.420   2.758
 7982SOL     OW24844   6.475   3.256   1.128
 7982SOL    HW124845   6.492   3.226   1.034
 7982SOL    HW224846   6.529   3.338   1.148
 7983SOL     OW24847   5.233   2.585   2.851
 7983SOL    HW124848   5.286   2.633   2.781
 7983SOL    HW224849   5.136   2.587   2.826
 7984SOL     OW24850   0.379   1.776   1.507
 7984SOL    HW124851   0.369   1.876   1.513
 7984SOL    HW224852   0.462   1.748   1.557
 7985SOL     OW24853   0.190   1.658   1.838
 7985SOL    HW124854   0.282   1.696   1.841
 7985SOL    HW224855   0.123   1.731   1.850
 7986SOL     OW24856   4.002   1.238   0.082
 7986SOL    HW124857   4.009   1.331   0.120
 7986SOL    HW224858   3.933   1.187   0.132
 7987SOL     OW24859   0.452   3.005   4.672
 7987SOL    HW124860   0.395   3.042   4.746
 7987SOL    HW224861   0.546   2.995   4.705
 7988SOL     OW24862   3.010   1.563   5.064
 7988SOL    HW124863   2.979   1.592   5.155
 7988SOL    HW224864   2.953   1.607   4.994
 7989SOL     OW24865   2.746   2.697   5.330
 7989SOL    HW124866   2.687   2.646   5.393
 7989SOL    HW224867   2.741   2.795   5.353
 7990SOL     OW24868   1.595   2.296   4.970
 7990SOL    HW124869   1.535   2.288   5.050
 7990SOL    HW224870   1.545   2.338   4.895
 7991SOL     OW24871   0.955   3.066   6.094
 7991SOL    HW124872   0.948   3.102   6.001
 7991SOL    HW224873   0.967   2.966   6.090
 7992SOL     OW24874   2.207   1.005   0.921
 7992SOL    HW124875   2.147   0.968   0.850
 7992SOL    HW224876   2.226   0.935   0.989
 7993SOL     OW24877   2.007   6.514   6.806
 7993SOL    HW124878   1.966   6.465   6.729
 7993SOL    HW224879   2.100   6.482   6.820
 7994SOL     OW24880   5.648   0.951   3.375
 7994SOL    HW124881   5.670   0.918   3.284
 7994SOL    HW224882   5.684   0.887   3.443
 7995SOL     OW24883   3.215   5.147   3.798
 7995SOL    HW124884   3.300   5.200   3.794
 7995SOL    HW224885   3.150   5.193   3.858
 7996SOL     OW24886   3.869   0.027   5.160
 7996SOL    HW124887   3.856   6.950   5.179
 7996SOL    HW224888   3.822   0.081   5.230
 7997SOL     OW24889   5.579   2.530   1.496
 7997SOL    HW124890   5.600   2.574   1.583
 7997SOL    HW224891   5.508   2.581   1.449
 7998SOL     OW24892   6.054   4.975   6.873
 7998SOL    HW124893   6.015   5.067   6.881
 7998SOL    HW224894   5.993   4.908   6.915
 7999SOL     OW24895   2.237   0.387   5.388
 7999SOL    HW124896   2.330   0.397   5.424
 7999SOL    HW224897   2.199   0.299   5.417
 8000SOL     OW24898   6.289   6.890   5.259
 8000SOL    HW124899   6.255   6.815   5.201
 8000SOL    HW224900   6.369   6.932   5.216
 8001SOL     OW24901   2.206   6.991   0.997
 8001SOL    HW124902   2.256   6.913   1.035
 8001SOL    HW224903   2.254   0.005   0.916
 8002SOL     OW24904   6.052   3.064   5.428
 8002SOL    HW124905   5.965   3.048   5.474
 8002SOL    HW224906   6.036   3.074   5.329
 8003SOL     OW24907   3.638   4.941   3.131
 8003SOL    HW124908   3.675   5.030   3.159
 8003SOL    HW224909   3.557   4.920   3.186
 8004SOL     OW24910   1.952   3.775   2.495
 8004SOL    HW124911   1.931   3.812   2.405
 8004SOL    HW224912   1.966   3.676   2.489
 8005SOL     OW24913   3.230   0.821   1.599
 8005SOL    HW124914   3.205   0.800   1.504
 8005SOL    HW224915   3.220   0.919   1.615
 8006SOL     OW24916   3.435   6.067   0.162
 8006SOL    HW124917   3.391   6.130   0.226
 8006SOL    HW224918   3.388   5.979   0.163
 8007SOL     OW24919   0.500   0.413   4.565
 8007SOL    HW124920   0.484   0.314   4.554
 8007SOL    HW224921   0.562   0.444   4.494
 8008SOL     OW24922   6.345   6.661   0.570
 8008SOL    HW124923   6.427   6.719   0.571
 8008SOL    HW224924   6.286   6.688   0.494
 8009SOL     OW24925   0.129   6.748   3.737
 8009SOL    HW124926   0.228   6.757   3.742
 8009SOL    HW224927   0.103   6.720   3.644
 8010SOL     OW24928   1.922   2.793   0.008
 8010SOL    HW124929   1.952   2.831   0.096
 8010SOL    HW224930   1.997   2.800   6.962
 8011SOL     OW24931   3.190   1.919   0.471
 8011SOL    HW124932   3.147   1.926   0.560
 8011SOL    HW224933   3.194   1.823   0.442
 8012SOL     OW24934   2.701   6.524   1.880
 8012SOL    HW124935   2.743   6.441   1.843
 8012SOL    HW224936   2.772   6.583   1.918
 8013SOL     OW24937   6.482   4.450   4.731
 8013SOL    HW124938   6.549   4.457   4.657
 8013SOL    HW224939   6.425   4.370   4.716
 8014SOL     OW24940   1.941   6.643   0.026
 8014SOL    HW124941   2.022   6.649   0.085
 8014SOL    HW224942   1.964   6.591   6.964
 8015SOL     OW24943   2.231   2.507   7.004
 8015SOL    HW124944   2.222   2.409   0.001
 8015SOL    HW224945   2.176   2.533   6.925
 8016SOL     OW24946   3.526   6.513   1.048
 8016SOL    HW124947   3.495   6.580   0.980
 8016SOL    HW224948   3.586   6.558   1.114
 8017SOL     OW24949   5.883   4.679   4.588
 8017SOL    HW124950   5.950   4.718   4.651
 8017SOL    HW224951   5.818   4.750   4.561
 8018SOL     OW24952   5.341   2.139   5.155
 8018SOL    HW124953   5.304   2.062   5.103
 8018SOL    HW224954   5.266   2.187   5.202
 8019SOL     OW24955   2.984   5.654   0.690
 8019SOL    HW124956   3.066   5.677   0.741
 8019SOL    HW224957   2.907   5.642   0.753
 8020SOL     OW24958   5.453   5.643   6.867
 8020SOL    HW124959   5.425   5.722   6.922
 8020SOL    HW224960   5.373   5.604   6.821
 8021SOL     OW24961   0.577   0.569   0.989
 8021SOL    HW124962   0.601   0.517   1.070
 8021SOL    HW224963   0.477   0.574   0.981
 8022SOL     OW24964   4.265   6.337   2.969
 8022SOL    HW124965   4.308   6.358   3.057
 8022SOL    HW224966   4.201   6.410   2.945
 8023SOL     OW24967   5.964   6.964   2.837
 8023SOL    HW124968   5.956   0.002   2.756
 8023SOL    HW224969   5.932   6.872   2.816
 8024SOL     OW24970   4.630   4.941   5.124
 8024SOL    HW124971   4.589   4.868   5.068
 8024SOL    HW224972   4.670   4.900   5.206
 8025SOL     OW24973   4.051   5.307   0.034
 8025SOL    HW124974   4.018   5.318   6.961
 8025SOL    HW224975   4.002   5.369   0.095
 8026SOL     OW24976   1.112   2.857   0.235
 8026SOL    HW124977   1.047   2.792   0.272
 8026SOL    HW224978   1.205   2.825   0.252
 8027SOL     OW24979   4.539   2.526   5.551
 8027SOL    HW124980   4.545   2.427   5.554
 8027SOL    HW224981   4.515   2.555   5.458
 8028SOL     OW24982   5.393   4.467   6.709
 8028SOL    HW124983   5.475   4.487   6.655
 8028SOL    HW224984   5.387   4.369   6.726
 8029SOL     OW24985   3.774   4.168   0.678
 8029SOL    HW124986   3.754   4.226   0.598
 8029SOL    HW224987   3.867   4.134   0.671
 8030SOL     OW24988   5.872   4.112   6.183
 8030SOL    HW124989   5.824   4.174   6.245
 8030SOL    HW224990   5.964   4.146   6.166
 8031SOL     OW24991   3.619   5.575   1.449
 8031SOL    HW124992   3.587   5.580   1.544
 8031SOL    HW224993   3.703   5.629   1.440
 8032SOL     OW24994   5.400   3.602   5.854
 8032SOL    HW124995   5.303   3.577   5.851
 8032SOL    HW224996   5.423   3.655   5.773
 8033SOL     OW24997   5.881   3.185   6.918
 8033SOL    HW124998   5.867   3.103   6.974
 8033SOL    HW224999   5.794   3.234   6.911
 8034SOL     OW25000   5.929   0.294   5.050
 8034SOL    HW125001   5.923   0.355   4.971
 8034SOL    HW225002   5.971   0.207   5.021
 8035SOL     OW25003   5.908   6.843   6.460
 8035SOL    HW125004   5.826   6.808   6.507
 8035SOL    HW225005   5.980   6.774   6.464
 8036SOL     OW25006   1.731   4.408   1.802
 8036SOL    HW125007   1.659   4.474   1.782
 8036SOL    HW225008   1.819   4.455   1.807
 8037SOL     OW25009   1.763   3.209   1.288
 8037SOL    HW125010   1.734   3.305   1.291
 8037SOL    HW225011   1.684   3.150   1.272
 8038SOL     OW25012   0.164   2.417   4.286
 8038SOL    HW125013   0.177   2.459   4.196
 8038SOL    HW225014   0.251   2.382   4.320
 8039SOL     OW25015   2.648   0.040   3.484
 8039SOL    HW125016   2.740   0.028   3.446
 8039SOL    HW225017   2.652   0.032   3.584
 8040SOL     OW25018   6.885   5.856   1.080
 8040SOL    HW125019   6.926   5.805   1.156
 8040SOL    HW225020   6.834   5.934   1.116
 8041SOL     OW25021   4.353   1.338   0.467
 8041SOL    HW125022   4.413   1.310   0.392
 8041SOL    HW225023   4.290   1.408   0.436
 8042SOL     OW25024   3.267   3.343   1.543
 8042SOL    HW125025   3.249   3.252   1.505
 8042SOL    HW225026   3.365   3.358   1.550
 8043SOL     OW25027   2.522   6.638   2.071
 8043SOL    HW125028   2.561   6.578   2.000
 8043SOL    HW225029   2.519   6.588   2.158
 8044SOL     OW25030   2.957   3.742   1.967
 8044SOL    HW125031   2.882   3.686   2.003
 8044SOL    HW225032   3.044   3.704   1.999
 8045SOL     OW25033   5.777   2.572   3.181
 8045SOL    HW125034   5.862   2.521   3.173
 8045SOL    HW225035   5.724   2.563   3.097
 8046SOL     OW25036   6.908   4.883   6.053
 8046SOL    HW125037   6.976   4.821   6.092
 8046SOL    HW225038   6.950   4.972   6.034
 8047SOL     OW25039   3.621   6.183   4.302
 8047SOL    HW125040   3.715   6.200   4.332
 8047SOL    HW225041   3.574   6.126   4.369
 8048SOL     OW25042   6.650   0.105   5.723
 8048SOL    HW125043   6.591   0.159   5.664
 8048SOL    HW225044   6.596   0.039   5.775
 8049SOL     OW25045   1.146   5.849   0.488
 8049SOL    HW125046   1.229   5.904   0.496
 8049SOL    HW225047   1.155   5.766   0.542
 8050SOL     OW25048   1.766   2.821   1.158
 8050SOL    HW125049   1.805   2.830   1.249
 8050SOL    HW225050   1.808   2.743   1.111
 8051SOL     OW25051   4.876   0.746   3.771
 8051SOL    HW125052   4.846   0.652   3.756
 8051SOL    HW225053   4.899   0.789   3.684
 8052SOL     OW25054   2.800   1.337   2.930
 8052SOL    HW125055   2.866   1.357   3.002
 8052SOL    HW225056   2.849   1.305   2.849
 8053SOL     OW25057   3.868   3.720   2.353
 8053SOL    HW125058   3.780   3.686   2.319
 8053SOL    HW225059   3.852   3.793   2.419
 8054SOL     OW25060   4.200   6.325   4.915
 8054SOL    HW125061   4.256   6.341   4.996
 8054SOL    HW225062   4.130   6.396   4.908
 8055SOL     OW25063   1.778   6.726   6.022
 8055SOL    HW125064   1.749   6.726   5.926
 8055SOL    HW225065   1.754   6.813   6.064
 8056SOL     OW25066   4.476   1.609   2.988
 8056SOL    HW125067   4.475   1.645   2.895
 8056SOL    HW225068   4.448   1.513   2.988
 8057SOL     OW25069   3.278   6.906   3.210
 8057SOL    HW125070   3.285   6.919   3.309
 8057SOL    HW225071   3.310   6.988   3.163
 8058SOL     OW25072   2.604   1.102   2.883
 8058SOL    HW125073   2.650   1.179   2.927
 8058SOL    HW225074   2.591   1.028   2.950
 8059SOL     OW25075   2.929   1.681   4.061
 8059SOL    HW125076   2.923   1.780   4.064
 8059SOL    HW225077   2.969   1.653   3.974
 8060SOL     OW25078   0.627   1.542   4.352
 8060SOL    HW125079   0.580   1.458   4.379
 8060SOL    HW225080   0.560   1.611   4.326
 8061SOL     OW25081   0.088   5.128   2.251
 8061SOL    HW125082   0.017   5.176   2.303
 8061SOL    HW225083   0.154   5.194   2.216
 8062SOL     OW25084   1.745   3.999   3.212
 8062SOL    HW125085   1.776   4.094   3.208
 8062SOL    HW225086   1.822   3.941   3.239
 8063SOL     OW25087   3.326   2.895   0.401
 8063SOL    HW125088   3.406   2.890   0.342
 8063SOL    HW225089   3.290   2.988   0.399
 8064SOL     OW25090   6.992   3.937   6.779
 8064SOL    HW125091   0.071   3.939   6.786
 8064SOL    HW225092   6.953   4.008   6.839
 8065SOL     OW25093   4.620   0.482   5.541
 8065SOL    HW125094   4.524   0.467   5.562
 8065SOL    HW225095   4.650   0.419   5.470
 8066SOL     OW25096   1.817   0.124   1.110
 8066SOL    HW125097   1.841   0.037   1.068
 8066SOL    HW225098   1.742   0.111   1.175
 8067SOL     OW25099   5.081   2.707   2.335
 8067SOL    HW125100   5.071   2.644   2.259
 8067SOL    HW225101   5.052   2.662   2.420
 8068SOL     OW25102   1.181   4.332   4.519
 8068SOL    HW125103   1.143   4.246   4.553
 8068SOL    HW225104   1.170   4.403   4.588
 8069SOL     OW25105   1.430   6.474   1.698
 8069SOL    HW125106   1.409   6.446   1.604
 8069SOL    HW225107   1.363   6.543   1.727
 8070SOL     OW25108   3.671   6.887   1.372
 8070SOL    HW125109   3.745   6.899   1.306
 8070SOL    HW225110   3.585   6.919   1.332
 8071SOL     OW25111   3.989   6.170   6.693
 8071SOL    HW125112   3.952   6.136   6.780
 8071SOL    HW225113   4.087   6.152   6.690
 8072SOL     OW25114   5.842   1.073   1.002
 8072SOL    HW125115   5.760   1.129   0.992
 8072SOL    HW225116   5.910   1.123   1.056
 8073SOL     OW25117   3.979   6.191   5.758
 8073SOL    HW125118   4.011   6.247   5.835
 8073SOL    HW225119   3.879   6.186   5.761
 8074SOL     OW25120   3.568   3.703   6.908
 8074SOL    HW125121   3.623   3.620   6.912
 8074SOL    HW225122   3.591   3.762   6.986
 8075SOL     OW25123   0.339   1.896   3.012
 8075SOL    HW125124   0.366   1.944   2.928
 8075SOL    HW225125   0.357   1.954   3.091
 8076SOL     OW25126   6.198   3.286   5.820
 8076SOL    HW125127   6.214   3.368   5.876
 8076SOL    HW225128   6.112   3.296   5.771
 8077SOL     OW25129   1.358   0.321   0.936
 8077SOL    HW125130   1.331   0.409   0.897
 8077SOL    HW225131   1.353   0.326   1.036
 8078SOL     OW25132   6.466   3.580   0.756
 8078SOL    HW125133   6.380   3.574   0.805
 8078SOL    HW225134   6.498   3.674   0.755
 8079SOL     OW25135   6.579   2.081   2.391
 8079SOL    HW125136   6.542   2.171   2.369
 8079SOL    HW225137   6.554   2.016   2.319
 8080SOL     OW25138   3.427   4.905   7.013
 8080SOL    HW125139   3.413   4.882   0.089
 8080SOL    HW225140   3.339   4.924   6.970
 8081SOL     OW25141   6.131   0.904   5.797
 8081SOL    HW125142   6.228   0.892   5.777
 8081SOL    HW225143   6.097   0.985   5.749
 8082SOL     OW25144   6.683   2.893   3.794
 8082SOL    HW125145   6.584   2.880   3.806
 8082SOL    HW225146   6.731   2.864   3.876
 8083SOL     OW25147   4.440   2.293   4.075
 8083SOL    HW125148   4.450   2.243   3.989
 8083SOL    HW225149   4.496   2.248   4.146
 8084SOL     OW25150   6.781   0.552   1.043
 8084SOL    HW125151   6.732   0.631   1.079
 8084SOL    HW225152   6.733   0.468   1.068
 8085SOL     OW25153   5.244   1.635   1.435
 8085SOL    HW125154   5.324   1.578   1.415
 8085SOL    HW225155   5.273   1.713   1.491
 8086SOL     OW25156   3.362   0.119   5.621
 8086SOL    HW125157   3.402   0.205   5.651
 8086SOL    HW225158   3.359   0.116   5.521
 8087SOL     OW25159   3.000   2.710   1.646
 8087SOL    HW125160   3.068   2.759   1.701
 8087SOL    HW225161   3.047   2.643   1.588
 8088SOL     OW25162   4.381   0.967   3.046
 8088SOL    HW125163   4.417   1.014   3.127
 8088SOL    HW225164   4.315   0.898   3.075
 8089SOL     OW25165   6.056   3.262   0.103
 8089SOL    HW125166   5.989   3.261   0.029
 8089SOL    HW225167   6.040   3.185   0.164
 8090SOL     OW25168   4.549   2.019   5.461
 8090SOL    HW125169   4.550   2.056   5.369
 8090SOL    HW225170   4.554   2.093   5.528
 8091SOL     OW25171   3.154   4.915   5.706
 8091SOL    HW125172   3.112   4.832   5.668
 8091SOL    HW225173   3.244   4.929   5.666
 8092SOL     OW25174   1.493   1.799   4.309
 8092SOL    HW125175   1.583   1.840   4.325
 8092SOL    HW225176   1.498   1.701   4.328
 8093SOL     OW25177   5.604   5.958   1.165
 8093SOL    HW125178   5.612   5.882   1.230
 8093SOL    HW225179   5.687   6.014   1.170
 8094SOL     OW25180   1.015   3.706   6.003
 8094SOL    HW125181   1.019   3.762   5.920
 8094SOL    HW225182   0.998   3.765   6.082
 8095SOL     OW25183   5.194   3.680   4.157
 8095SOL    HW125184   5.241   3.594   4.178
 8095SOL    HW225185   5.205   3.743   4.234
 8096SOL     OW25186   3.714   6.179   1.912
 8096SOL    HW125187   3.668   6.241   1.849
 8096SOL    HW225188   3.663   6.094   1.919
 8097SOL     OW25189   5.139   1.240   3.804
 8097SOL    HW125190   5.091   1.157   3.831
 8097SOL    HW225191   5.192   1.222   3.721
 8098SOL     OW25192   2.465   6.859   3.782
 8098SOL    HW125193   2.421   6.949   3.783
 8098SOL    HW225194   2.560   6.868   3.814
 8099SOL     OW25195   4.734   6.189   5.103
 8099SOL    HW125196   4.647   6.204   5.150
 8099SOL    HW225197   4.800   6.257   5.135
 8100SOL     OW25198   0.574   6.640   1.008
 8100SOL    HW125199   0.520   6.662   1.089
 8100SOL    HW225200   0.619   6.551   1.021
 8101SOL     OW25201   1.346   5.913   3.219
 8101SOL    HW125202   1.407   5.992   3.227
 8101SOL    HW225203   1.348   5.880   3.124
 8102SOL     OW25204   0.124   5.653   5.887
 8102SOL    HW125205   0.065   5.698   5.954
 8102SOL    HW225206   0.143   5.716   5.812
 8103SOL     OW25207   3.322   1.272   2.642
 8103SOL    HW125208   3.301   1.192   2.586
 8103SOL    HW225209   3.421   1.282   2.650
 8104SOL     OW25210   2.716   6.634   6.220
 8104SOL    HW125211   2.709   6.586   6.308
 8104SOL    HW225212   2.797   6.693   6.221
 8105SOL     OW25213   2.064   2.072   3.189
 8105SOL    HW125214   2.124   2.012   3.242
 8105SOL    HW225215   2.119   2.141   3.142
 8106SOL     OW25216   0.913   3.858   4.165
 8106SOL    HW125217   0.854   3.778   4.153
 8106SOL    HW225218   0.896   3.923   4.091
 8107SOL     OW25219   1.797   6.259   6.127
 8107SOL    HW125220   1.847   6.275   6.212
 8107SOL    HW225221   1.719   6.322   6.122
 8108SOL     OW25222   0.679   3.144   3.905
 8108SOL    HW125223   0.603   3.168   3.846
 8108SOL    HW225224   0.685   3.045   3.914
 8109SOL     OW25225   1.713   5.536   5.142
 8109SOL    HW125226   1.776   5.471   5.099
 8109SOL    HW225227   1.765   5.612   5.180
 8110SOL     OW25228   2.348   4.792   1.004
 8110SOL    HW125229   2.268   4.749   0.962
 8110SOL    HW225230   2.405   4.832   0.932
 8111SOL     OW25231   2.582   5.400   4.223
 8111SOL    HW125232   2.536   5.390   4.311
 8111SOL    HW225233   2.521   5.371   4.150
 8112SOL     OW25234   3.195   1.093   4.954
 8112SOL    HW125235   3.177   1.010   5.006
 8112SOL    HW225236   3.173   1.173   5.009
 8113SOL     OW25237   3.609   2.510   6.115
 8113SOL    HW125238   3.592   2.510   6.017
 8113SOL    HW225239   3.685   2.572   6.135
 8114SOL     OW25240   2.553   3.141   1.456
 8114SOL    HW125241   2.511   3.180   1.538
 8114SOL    HW225242   2.501   3.169   1.375
 8115SOL     OW25243   3.733   0.874   1.040
 8115SOL    HW125244   3.730   0.885   1.140
 8115SOL    HW225245   3.766   0.958   0.998
 8116SOL     OW25246   6.074   0.740   5.545
 8116SOL    HW125247   6.008   0.792   5.599
 8116SOL    HW225248   6.167   0.772   5.567
 8117SOL     OW25249   2.003   1.834   5.789
 8117SOL    HW125250   1.968   1.814   5.697
 8117SOL    HW225251   2.085   1.890   5.782
 8118SOL     OW25252   0.736   3.298   4.989
 8118SOL    HW125253   0.811   3.290   4.924
 8118SOL    HW225254   0.763   3.254   5.075
 8119SOL     OW25255   1.361   6.479   2.668
 8119SOL    HW125256   1.413   6.401   2.633
 8119SOL    HW225257   1.348   6.546   2.595
 8120SOL     OW25258   4.345   3.814   1.656
 8120SOL    HW125259   4.439   3.805   1.689
 8120SOL    HW225260   4.326   3.911   1.640
 8121SOL     OW25261   5.968   0.370   3.134
 8121SOL    HW125262   6.028   0.450   3.127
 8121SOL    HW225263   6.015   0.290   3.097
 8122SOL     OW25264   6.638   6.549   2.353
 8122SOL    HW125265   6.584   6.486   2.297
 8122SOL    HW225266   6.577   6.616   2.396
 8123SOL     OW25267   1.069   6.371   0.109
 8123SOL    HW125268   1.129   6.451   0.113
 8123SOL    HW225269   0.973   6.402   0.115
 8124SOL     OW25270   0.865   5.874   2.708
 8124SOL    HW125271   0.952   5.894   2.755
 8124SOL    HW225272   0.855   5.936   2.630
 8125SOL     OW25273   5.424   5.588   2.857
 8125SOL    HW125274   5.499   5.620   2.799
 8125SOL    HW225275   5.338   5.629   2.825
 8126SOL     OW25276   5.700   4.930   2.234
 8126SOL    HW125277   5.796   4.915   2.259
 8126SOL    HW225278   5.670   4.859   2.172
 8127SOL     OW25279   2.581   4.530   0.247
 8127SOL    HW125280   2.586   4.441   0.292
 8127SOL    HW225281   2.604   4.602   0.312
 8128SOL     OW25282   4.029   2.417   5.359
 8128SOL    HW125283   4.086   2.387   5.437
 8128SOL    HW225284   4.078   2.488   5.309
 8129SOL     OW25285   5.047   0.108   6.560
 8129SOL    HW125286   4.970   0.169   6.582
 8129SOL    HW225287   5.124   0.129   6.620
 8130SOL     OW25288   1.746   6.406   0.273
 8130SOL    HW125289   1.785   6.421   0.182
 8130SOL    HW225290   1.647   6.421   0.269
 8131SOL     OW25291   2.037   1.700   0.687
 8131SOL    HW125292   2.109   1.716   0.620
 8131SOL    HW225293   2.037   1.775   0.754
 8132SOL     OW25294   6.688   4.941   3.889
 8132SOL    HW125295   6.604   4.990   3.911
 8132SOL    HW225296   6.766   5.003   3.894
 8133SOL     OW25297   1.103   5.665   1.786
 8133SOL    HW125298   1.156   5.750   1.778
 8133SOL    HW225299   1.103   5.618   1.697
 8134SOL     OW25300   2.075   2.286   2.575
 8134SOL    HW125301   2.025   2.204   2.549
 8134SOL    HW225302   2.020   2.340   2.638
 8135SOL     OW25303   4.542   5.851   1.715
 8135SOL    HW125304   4.448   5.876   1.691
 8135SOL    HW225305   4.561   5.759   1.682
 8136SOL     OW25306   4.409   5.872   1.380
 8136SOL    HW125307   4.336   5.941   1.383
 8136SOL    HW225308   4.373   5.786   1.415
 8137SOL     OW25309   2.428   4.120   5.613
 8137SOL    HW125310   2.500   4.076   5.667
 8137SOL    HW225311   2.449   4.111   5.516
 8138SOL     OW25312   5.075   0.995   3.837
 8138SOL    HW125313   5.038   0.957   3.752
 8138SOL    HW225314   5.025   0.956   3.915
 8139SOL     OW25315   1.824   2.855   3.715
 8139SOL    HW125316   1.789   2.810   3.633
 8139SOL    HW225317   1.917   2.823   3.733
 8140SOL     OW25318   4.018   0.218   0.861
 8140SOL    HW125319   4.062   0.154   0.923
 8140SOL    HW225320   3.931   0.249   0.901
 8141SOL     OW25321   4.635   1.148   5.027
 8141SOL    HW125322   4.639   1.165   4.929
 8141SOL    HW225323   4.723   1.173   5.069
 8142SOL     OW25324   2.108   5.995   0.972
 8142SOL    HW125325   2.081   6.017   1.066
 8142SOL    HW225326   2.066   5.908   0.946
 8143SOL     OW25327   6.333   5.024   0.463
 8143SOL    HW125328   6.263   4.953   0.459
 8143SOL    HW225329   6.386   5.024   0.378
 8144SOL     OW25330   7.018   5.077   6.653
 8144SOL    HW125331   0.026   5.034   6.567
 8144SOL    HW225332   6.932   5.035   6.685
 8145SOL     OW25333   5.539   6.135   6.814
 8145SOL    HW125334   5.541   6.147   6.913
 8145SOL    HW225335   5.534   6.037   6.793
 8146SOL     OW25336   5.993   0.470   4.238
 8146SOL    HW125337   5.912   0.507   4.285
 8146SOL    HW225338   6.068   0.463   4.303
 8147SOL     OW25339   1.786   0.951   6.296
 8147SOL    HW125340   1.883   0.974   6.289
 8147SOL    HW225341   1.738   1.027   6.341
 8148SOL     OW25342   4.579   5.202   0.243
 8148SOL    HW125343   4.490   5.224   0.283
 8148SOL    HW225344   4.643   5.276   0.265
 8149SOL     OW25345   0.910   5.929   5.338
 8149SOL    HW125346   0.983   5.865   5.316
 8149SOL    HW225347   0.869   5.904   5.426
 8150SOL     OW25348   0.646   3.442   0.934
 8150SOL    HW125349   0.694   3.358   0.960
 8150SOL    HW225350   0.548   3.422   0.924
 8151SOL     OW25351   6.443   5.712   3.062
 8151SOL    HW125352   6.526   5.732   3.114
 8151SOL    HW225353   6.459   5.730   2.965
 8152SOL     OW25354   4.691   1.496   3.848
 8152SOL    HW125355   4.668   1.571   3.786
 8152SOL    HW225356   4.713   1.414   3.794
 8153SOL     OW25357   0.399   1.366   2.339
 8153SOL    HW125358   0.314   1.365   2.392
 8153SOL    HW225359   0.388   1.312   2.256
 8154SOL     OW25360   1.620   0.706   2.882
 8154SOL    HW125361   1.668   0.632   2.929
 8154SOL    HW225362   1.681   0.748   2.815
 8155SOL     OW25363   1.955   5.358   2.732
 8155SOL    HW125364   1.963   5.266   2.771
 8155SOL    HW225365   1.940   5.424   2.805
 8156SOL     OW25366   6.687   5.247   1.569
 8156SOL    HW125367   6.619   5.301   1.519
 8156SOL    HW225368   6.772   5.245   1.516
 8157SOL     OW25369   0.401   3.180   5.382
 8157SOL    HW125370   0.364   3.223   5.299
 8157SOL    HW225371   0.381   3.082   5.379
 8158SOL     OW25372   5.532   5.305   6.743
 8158SOL    HW125373   5.489   5.368   6.808
 8158SOL    HW225374   5.632   5.315   6.749
 8159SOL     OW25375   3.304   6.468   5.595
 8159SOL    HW125376   3.219   6.496   5.550
 8159SOL    HW225377   3.353   6.550   5.626
 8160SOL     OW25378   5.089   1.097   3.229
 8160SOL    HW125379   5.145   1.032   3.280
 8160SOL    HW225380   5.109   1.089   3.132
 8161SOL     OW25381   5.565   3.044   1.490
 8161SOL    HW125382   5.489   2.979   1.495
 8161SOL    HW225383   5.623   3.033   1.571
 8162SOL     OW25384   0.352   5.434   6.019
 8162SOL    HW125385   0.252   5.443   6.024
 8162SOL    HW225386   0.384   5.464   5.929
 8163SOL     OW25387   4.469   4.434   5.413
 8163SOL    HW125388   4.528   4.501   5.459
 8163SOL    HW225389   4.428   4.373   5.481
 8164SOL     OW25390   4.823   1.608   0.728
 8164SOL    HW125391   4.907   1.657   0.753
 8164SOL    HW225392   4.744   1.666   0.746
 8165SOL     OW25393   6.835   1.515   6.784
 8165SOL    HW125394   6.806   1.544   6.693
 8165SOL    HW225395   6.863   1.419   6.780
 8166SOL     OW25396   1.681   1.918   4.885
 8166SOL    HW125397   1.699   1.889   4.791
 8166SOL    HW225398   1.739   1.865   4.947
 8167SOL     OW25399   1.353   2.595   4.789
 8167SOL    HW125400   1.367   2.616   4.885
 8167SOL    HW225401   1.274   2.534   4.779
 8168SOL     OW25402   2.444   1.034   2.057
 8168SOL    HW125403   2.390   0.997   1.982
 8168SOL    HW225404   2.389   1.098   2.111
 8169SOL     OW25405   5.268   2.531   0.577
 8169SOL    HW125406   5.292   2.477   0.496
 8169SOL    HW225407   5.301   2.625   0.565
 8170SOL     OW25408   6.197   5.112   2.279
 8170SOL    HW125409   6.155   5.171   2.348
 8170SOL    HW225410   6.136   5.106   2.199
 8171SOL     OW25411   1.896   1.099   1.081
 8171SOL    HW125412   1.990   1.133   1.072
 8171SOL    HW225413   1.832   1.169   1.050
 8172SOL     OW25414   0.569   2.500   0.811
 8172SOL    HW125415   0.473   2.501   0.839
 8172SOL    HW225416   0.616   2.578   0.851
 8173SOL     OW25417   6.042   1.124   2.126
 8173SOL    HW125418   6.021   1.048   2.065
 8173SOL    HW225419   6.004   1.105   2.217
 8174SOL     OW25420   2.653   4.734   3.084
 8174SOL    HW125421   2.637   4.671   3.008
 8174SOL    HW225422   2.748   4.765   3.082
 8175SOL     OW25423   0.342   1.569   4.858
 8175SOL    HW125424   0.318   1.508   4.933
 8175SOL    HW225425   0.439   1.594   4.865
 8176SOL     OW25426   2.527   4.019   0.588
 8176SOL    HW125427   2.608   3.992   0.640
 8176SOL    HW225428   2.525   3.968   0.502
 8177SOL     OW25429   3.709   0.705   3.309
 8177SOL    HW125430   3.789   0.748   3.350
 8177SOL    HW225431   3.657   0.657   3.380
 8178SOL     OW25432   2.326   6.735   1.265
 8178SOL    HW125433   2.229   6.716   1.275
 8178SOL    HW225434   2.350   6.735   1.168
 8179SOL     OW25435   5.851   1.164   3.350
 8179SOL    HW125436   5.943   1.133   3.374
 8179SOL    HW225437   5.783   1.101   3.388
 8180SOL     OW25438   4.939   6.517   7.008
 8180SOL    HW125439   4.939   6.611   0.022
 8180SOL    HW225440   4.890   6.458   0.051
 8181SOL     OW25441   0.760   1.029   0.826
 8181SOL    HW125442   0.715   1.047   0.913
 8181SOL    HW225443   0.691   1.018   0.754
 8182SOL     OW25444   2.921   3.552   4.856
 8182SOL    HW125445   2.865   3.498   4.919
 8182SOL    HW225446   2.933   3.645   4.892
 8183SOL     OW25447   0.459   0.469   4.973
 8183SOL    HW125448   0.470   0.480   5.072
 8183SOL    HW225449   0.523   0.530   4.926
 8184SOL     OW25450   0.069   6.151   6.779
 8184SOL    HW125451   0.155   6.102   6.793
 8184SOL    HW225452   7.013   6.094   6.809
 8185SOL     OW25453   0.954   6.030   7.005
 8185SOL    HW125454   1.020   6.082   6.951
 8185SOL    HW225455   0.896   6.093   0.036
 8186SOL     OW25456   1.129   5.428   6.584
 8186SOL    HW125457   1.063   5.445   6.512
 8186SOL    HW225458   1.114   5.492   6.660
 8187SOL     OW25459   0.430   0.869   5.785
 8187SOL    HW125460   0.436   0.787   5.728
 8187SOL    HW225461   0.479   0.854   5.871
 8188SOL     OW25462   2.090   2.979   3.601
 8188SOL    HW125463   2.155   2.908   3.576
 8188SOL    HW225464   2.093   2.993   3.700
 8189SOL     OW25465   5.541   5.063   3.582
 8189SOL    HW125466   5.553   4.994   3.654
 8189SOL    HW225467   5.494   5.023   3.504
 8190SOL     OW25468   6.510   3.419   3.330
 8190SOL    HW125469   6.577   3.363   3.379
 8190SOL    HW225470   6.462   3.364   3.263
 8191SOL     OW25471   3.202   5.657   0.942
 8191SOL    HW125472   3.258   5.740   0.946
 8191SOL    HW225473   3.261   5.577   0.953
 8192SOL     OW25474   0.728   4.898   3.447
 8192SOL    HW125475   0.805   4.962   3.454
 8192SOL    HW225476   0.753   4.810   3.488
 8193SOL     OW25477   0.673   4.235   4.748
 8193SOL    HW125478   0.707   4.167   4.683
 8193SOL    HW225479   0.657   4.322   4.701
 8194SOL     OW25480   4.854   6.298   1.481
 8194SOL    HW125481   4.941   6.302   1.530
 8194SOL    HW225482   4.779   6.294   1.547
 8195SOL     OW25483   5.700   6.503   3.057
 8195SOL    HW125484   5.609   6.476   3.028
 8195SOL    HW225485   5.755   6.422   3.079
 8196SOL     OW25486   5.036   0.641   0.536
 8196SOL    HW125487   4.959   0.659   0.474
 8196SOL    HW225488   5.061   0.545   0.532
 8197SOL     OW25489   4.652   1.569   2.606
 8197SOL    HW125490   4.748   1.542   2.615
 8197SOL    HW225491   4.609   1.516   2.533
 8198SOL     OW25492   1.434   6.918   2.243
 8198SOL    HW125493   1.341   6.892   2.272
 8198SOL    HW225494   1.435   7.014   2.216
 8199SOL     OW25495   5.871   3.160   5.885
 8199SOL    HW125496   5.913   3.080   5.929
 8199SOL    HW225497   5.867   3.235   5.951
 8200SOL     OW25498   4.472   2.644   0.948
 8200SOL    HW125499   4.542   2.705   0.985
 8200SOL    HW225500   4.383   2.689   0.951
 8201SOL     OW25501   6.692   6.671   5.239
 8201SOL    HW125502   6.754   6.598   5.207
 8201SOL    HW225503   6.695   6.675   5.339
 8202SOL     OW25504   1.033   6.229   2.092
 8202SOL    HW125505   0.994   6.295   2.156
 8202SOL    HW225506   1.090   6.276   2.025
 8203SOL     OW25507   0.920   3.692   1.372
 8203SOL    HW125508   1.000   3.705   1.430
 8203SOL    HW225509   0.842   3.740   1.411
 8204SOL     OW25510   3.245   2.873   0.770
 8204SOL    HW125511   3.175   2.915   0.713
 8204SOL    HW225512   3.312   2.826   0.712
 8205SOL     OW25513   1.186   3.790   0.658
 8205SOL    HW125514   1.094   3.756   0.637
 8205SOL    HW225515   1.183   3.849   0.738
 8206SOL     OW25516   3.626   0.629   6.874
 8206SOL    HW125517   3.553   0.575   6.917
 8206SOL    HW225518   3.667   0.690   6.941
 8207SOL     OW25519   3.811   2.914   4.858
 8207SOL    HW125520   3.908   2.898   4.873
 8207SOL    HW225521   3.784   2.878   4.769
 8208SOL     OW25522   2.098   0.618   0.502
 8208SOL    HW125523   2.098   0.519   0.492
 8208SOL    HW225524   2.066   0.642   0.594
 8209SOL     OW25525   6.582   1.006   5.309
 8209SOL    HW125526   6.628   1.043   5.390
 8209SOL    HW225527   6.641   0.938   5.266
 8210SOL     OW25528   1.398   2.794   7.008
 8210SOL    HW125529   1.377   2.801   0.086
 8210SOL    HW225530   1.434   2.882   6.976
 8211SOL     OW25531   3.201   4.761   1.160
 8211SOL    HW125532   3.140   4.709   1.219
 8211SOL    HW225533   3.295   4.751   1.192
 8212SOL     OW25534   1.588   2.701   3.768
 8212SOL    HW125535   1.635   2.688   3.681
 8212SOL    HW225536   1.650   2.743   3.834
 8213SOL     OW25537   6.946   5.243   1.421
 8213SOL    HW125538   6.996   5.171   1.469
 8213SOL    HW225539   6.983   5.253   1.328
 8214SOL     OW25540   5.093   4.352   3.353
 8214SOL    HW125541   5.033   4.430   3.371
 8214SOL    HW225542   5.080   4.283   3.424
 8215SOL     OW25543   3.591   5.557   4.670
 8215SOL    HW125544   3.542   5.596   4.749
 8215SOL    HW225545   3.527   5.548   4.593
 8216SOL     OW25546   4.576   4.399   3.719
 8216SOL    HW125547   4.485   4.364   3.741
 8216SOL    HW225548   4.641   4.372   3.790
 8217SOL     OW25549   2.350   6.015   0.093
 8217SOL    HW125550   2.321   5.985   0.184
 8217SOL    HW225551   2.446   5.990   0.079
 8218SOL     OW25552   0.660   1.292   0.146
 8218SOL    HW125553   0.589   1.232   0.182
 8218SOL    HW225554   0.747   1.243   0.144
 8219SOL     OW25555   6.092   2.067   6.302
 8219SOL    HW125556   6.095   2.051   6.401
 8219SOL    HW225557   6.034   2.146   6.282
 8220SOL     OW25558   3.792   3.292   2.752
 8220SOL    HW125559   3.716   3.237   2.716
 8220SOL    HW225560   3.758   3.359   2.817
 8221SOL     OW25561   5.094   5.702   3.600
 8221SOL    HW125562   5.174   5.679   3.544
 8221SOL    HW225563   5.020   5.733   3.542
 8222SOL     OW25564   5.407   1.963   2.336
 8222SOL    HW125565   5.393   1.975   2.434
 8222SOL    HW225566   5.498   1.996   2.311
 8223SOL     OW25567   0.515   4.852   5.873
 8223SOL    HW125568   0.577   4.804   5.936
 8223SOL    HW225569   0.497   4.795   5.793
 8224SOL     OW25570   1.304   2.761   4.110
 8224SOL    HW125571   1.335   2.763   4.016
 8224SOL    HW225572   1.370   2.712   4.167
 8225SOL     OW25573   4.696   1.353   6.820
 8225SOL    HW125574   4.785   1.314   6.846
 8225SOL    HW225575   4.669   1.422   6.886
 8226SOL     OW25576   5.193   0.823   0.920
 8226SOL    HW125577   5.172   0.858   1.012
 8226SOL    HW225578   5.292   0.824   0.907
 8227SOL     OW25579   6.472   3.075   3.292
 8227SOL    HW125580   6.452   2.984   3.258
 8227SOL    HW225581   6.459   3.142   3.219
 8228SOL     OW25582   6.569   2.775   5.409
 8228SOL    HW125583   6.644   2.803   5.469
 8228SOL    HW225584   6.535   2.855   5.360
 8229SOL     OW25585   3.613   5.113   7.009
 8229SOL    HW125586   3.546   5.039   6.996
 8229SOL    HW225587   3.705   5.078   6.989
 8230SOL     OW25588   5.654   0.592   4.628
 8230SOL    HW125589   5.606   0.673   4.663
 8230SOL    HW225590   5.589   0.516   4.620
 8231SOL     OW25591   5.138   6.228   0.506
 8231SOL    HW125592   5.196   6.203   0.584
 8231SOL    HW225593   5.069   6.157   0.491
 8232SOL     OW25594   3.621   1.748   6.621
 8232SOL    HW125595   3.593   1.781   6.712
 8232SOL    HW225596   3.719   1.763   6.609
 8233SOL     OW25597   0.719   5.213   6.271
 8233SOL    HW125598   0.689   5.118   6.276
 8233SOL    HW225599   0.639   5.272   6.257
 8234SOL     OW25600   3.059   2.942   0.062
 8234SOL    HW125601   3.039   2.924   0.159
 8234SOL    HW225602   2.979   2.920   0.007
 8235SOL     OW25603   4.253   3.678   1.445
 8235SOL    HW125604   4.300   3.738   1.510
 8235SOL    HW225605   4.156   3.673   1.469
 8236SOL     OW25606   6.192   3.057   6.976
 8236SOL    HW125607   6.217   3.119   6.902
 8236SOL    HW225608   6.143   3.107   0.027
 8237SOL     OW25609   3.821   6.108   5.485
 8237SOL    HW125610   3.821   6.124   5.583
 8237SOL    HW225611   3.845   6.192   5.437
 8238SOL     OW25612   1.829   2.629   6.431
 8238SOL    HW125613   1.812   2.621   6.529
 8238SOL    HW225614   1.895   2.702   6.415
 8239SOL     OW25615   0.188   1.208   5.809
 8239SOL    HW125616   0.153   1.293   5.771
 8239SOL    HW225617   0.211   1.144   5.735
 8240SOL     OW25618   3.207   4.110   2.894
 8240SOL    HW125619   3.156   4.048   2.835
 8240SOL    HW225620   3.205   4.202   2.855
 8241SOL     OW25621   3.769   6.958   6.954
 8241SOL    HW125622   3.735   6.867   6.931
 8241SOL    HW225623   3.747   6.978   0.030
 8242SOL     OW25624   1.115   4.440   5.232
 8242SOL    HW125625   1.178   4.497   5.286
 8242SOL    HW225626   1.159   4.353   5.211
 8243SOL     OW25627   0.952   3.408   5.723
 8243SOL    HW125628   1.045   3.418   5.759
 8243SOL    HW225629   0.949   3.330   5.660
 8244SOL     OW25630   0.551   6.447   4.078
 8244SOL    HW125631   0.620   6.387   4.119
 8244SOL    HW225632   0.490   6.480   4.150
 8245SOL     OW25633   4.145   1.949   1.002
 8245SOL    HW125634   4.194   1.862   1.005
 8245SOL    HW225635   4.207   2.022   1.031
 8246SOL     OW25636   5.603   3.224   6.095
 8246SOL    HW125637   5.552   3.208   6.011
 8246SOL    HW225638   5.593   3.145   6.156
 8247SOL     OW25639   0.831   0.109   1.563
 8247SOL    HW125640   0.757   0.059   1.518
 8247SOL    HW225641   0.915   0.101   1.508
 8248SOL     OW25642   5.267   4.398   3.667
 8248SOL    HW125643   5.232   4.307   3.646
 8248SOL    HW225644   5.190   4.462   3.675
 8249SOL     OW25645   1.803   4.765   3.861
 8249SOL    HW125646   1.807   4.863   3.839
 8249SOL    HW225647   1.853   4.748   3.946
 8250SOL     OW25648   4.060   3.653   2.680
 8250SOL    HW125649   4.053   3.711   2.599
 8250SOL    HW225650   4.061   3.710   2.762
 8251SOL     OW25651   5.677   1.736   4.808
 8251SOL    HW125652   5.693   1.654   4.864
 8251SOL    HW225653   5.765   1.776   4.782
 8252SOL     OW25654   2.147   2.780   5.647
 8252SOL    HW125655   2.147   2.815   5.741
 8252SOL    HW225656   2.177   2.851   5.584
 8253SOL     OW25657   3.402   2.773   5.352
 8253SOL    HW125658   3.319   2.795   5.300
 8253SOL    HW225659   3.380   2.705   5.421
 8254SOL     OW25660   4.257   4.962   3.686
 8254SOL    HW125661   4.351   4.994   3.695
 8254SOL    HW225662   4.246   4.875   3.733
 8255SOL     OW25663   4.262   6.080   4.291
 8255SOL    HW125664   4.278   5.982   4.303
 8255SOL    HW225665   4.348   6.126   4.272
 8256SOL     OW25666   6.608   1.551   4.638
 8256SOL    HW125667   6.656   1.627   4.682
 8256SOL    HW225668   6.625   1.553   4.539
 8257SOL     OW25669   5.789   5.167   3.304
 8257SOL    HW125670   5.715   5.232   3.291
 8257SOL    HW225671   5.757   5.075   3.285
 8258SOL     OW25672   3.965   1.485   0.207
 8258SOL    HW125673   3.960   1.483   0.307
 8258SOL    HW225674   3.875   1.507   0.169
 8259SOL     OW25675   3.478   1.945   3.500
 8259SOL    HW125676   3.480   1.845   3.501
 8259SOL    HW225677   3.561   1.980   3.545
 8260SOL     OW25678   2.828   6.540   0.234
 8260SOL    HW125679   2.914   6.490   0.226
 8260SOL    HW225680   2.784   6.544   0.144
 8261SOL     OW25681   5.285   1.311   1.512
 8261SOL    HW125682   5.283   1.364   1.596
 8261SOL    HW225683   5.378   1.280   1.494
 8262SOL     OW25684   1.069   3.229   1.954
 8262SOL    HW125685   1.150   3.177   1.984
 8262SOL    HW225686   1.059   3.219   1.855
 8263SOL     OW25687   6.211   1.474   1.258
 8263SOL    HW125688   6.176   1.564   1.283
 8263SOL    HW225689   6.282   1.484   1.188
 8264SOL     OW25690   1.610   5.465   2.451
 8264SOL    HW125691   1.590   5.536   2.519
 8264SOL    HW225692   1.684   5.407   2.484
 8265SOL     OW25693   1.800   0.435   1.753
 8265SOL    HW125694   1.896   0.420   1.774
 8265SOL    HW225695   1.757   0.487   1.828
 8266SOL     OW25696   3.147   6.529   2.533
 8266SOL    HW125697   3.150   6.429   2.537
 8266SOL    HW225698   3.232   6.566   2.569
 8267SOL     OW25699   1.689   3.468   1.308
 8267SOL    HW125700   1.766   3.523   1.274
 8267SOL    HW225701   1.604   3.504   1.270
 8268SOL     OW25702   2.409   6.570   5.684
 8268SOL    HW125703   2.465   6.602   5.607
 8268SOL    HW225704   2.373   6.648   5.735
 8269SOL     OW25705   5.554   1.503   1.412
 8269SOL    HW125706   5.611   1.556   1.475
 8269SOL    HW225707   5.556   1.407   1.438
 8270SOL     OW25708   3.538   6.149   4.004
 8270SOL    HW125709   3.450   6.170   3.963
 8270SOL    HW225710   3.539   6.181   4.099
 8271SOL     OW25711   0.058   1.724   3.075
 8271SOL    HW125712   0.052   1.792   3.148
 8271SOL    HW225713   0.110   1.762   2.999
 8272SOL     OW25714   3.970   1.027   2.746
 8272SOL    HW125715   3.912   0.972   2.686
 8272SOL    HW225716   3.998   1.110   2.699
 8273SOL     OW25717   3.006   6.850   1.010
 8273SOL    HW125718   3.097   6.871   0.975
 8273SOL    HW225719   3.011   6.772   1.072
 8274SOL     OW25720   4.997   5.245   2.774
 8274SOL    HW125721   4.914   5.210   2.731
 8274SOL    HW225722   5.053   5.169   2.808
 8275SOL     OW25723   4.923   1.922   6.145
 8275SOL    HW125724   4.964   1.891   6.231
 8275SOL    HW225725   4.834   1.878   6.133
 8276SOL     OW25726   1.077   2.077   3.956
 8276SOL    HW125727   1.002   2.011   3.946
 8276SOL    HW225728   1.043   2.169   3.936
 8277SOL     OW25729   0.053   0.074   6.659
 8277SOL    HW125730   0.113   0.114   6.728
 8277SOL    HW225731   0.045   0.137   6.582
 8278SOL     OW25732   2.520   2.176   0.882
 8278SOL    HW125733   2.460   2.248   0.916
 8278SOL    HW225734   2.603   2.173   0.938
 8279SOL     OW25735   0.750   6.618   4.394
 8279SOL    HW125736   0.749   6.531   4.443
 8279SOL    HW225737   0.826   6.618   4.328
 8280SOL     OW25738   3.559   2.517   5.845
 8280SOL    HW125739   3.461   2.533   5.828
 8280SOL    HW225740   3.611   2.599   5.819
 8281SOL     OW25741   0.217   6.198   1.676
 8281SOL    HW125742   0.214   6.186   1.576
 8281SOL    HW225743   0.275   6.127   1.716
 8282SOL     OW25744   5.328   2.563   5.877
 8282SOL    HW125745   5.397   2.610   5.932
 8282SOL    HW225746   5.324   2.467   5.903
 8283SOL     OW25747   1.950   3.852   5.830
 8283SOL    HW125748   2.023   3.821   5.769
 8283SOL    HW225749   1.943   3.952   5.826
 8284SOL     OW25750   6.738   4.218   2.395
 8284SOL    HW125751   6.653   4.205   2.446
 8284SOL    HW225752   6.784   4.300   2.428
 8285SOL     OW25753   3.735   3.159   4.968
 8285SOL    HW125754   3.769   3.071   4.934
 8285SOL    HW225755   3.693   3.209   4.892
 8286SOL     OW25756   6.364   2.199   5.961
 8286SOL    HW125757   6.459   2.203   5.991
 8286SOL    HW225758   6.357   2.229   5.866
 8287SOL     OW25759   1.127   5.616   4.715
 8287SOL    HW125760   1.123   5.656   4.624
 8287SOL    HW225761   1.044   5.638   4.765
 8288SOL     OW25762   2.296   2.811   2.921
 8288SOL    HW125763   2.329   2.719   2.944
 8288SOL    HW225764   2.228   2.804   2.849
 8289SOL     OW25765   0.839   0.104   0.480
 8289SOL    HW125766   0.783   0.179   0.446
 8289SOL    HW225767   0.935   0.121   0.460
 8290SOL     OW25768   6.110   1.756   0.431
 8290SOL    HW125769   6.015   1.735   0.409
 8290SOL    HW225770   6.116   1.847   0.472
 8291SOL     OW25771   4.164   6.740   6.036
 8291SOL    HW125772   4.205   6.763   5.947
 8291SOL    HW225773   4.070   6.709   6.022
 8292SOL     OW25774   3.406   6.528   6.644
 8292SOL    HW125775   3.360   6.504   6.730
 8292SOL    HW225776   3.467   6.453   6.617
 8293SOL     OW25777   4.523   6.287   5.909
 8293SOL    HW125778   4.558   6.194   5.899
 8293SOL    HW225779   4.597   6.352   5.891
 8294SOL     OW25780   5.700   2.551   6.561
 8294SOL    HW125781   5.766   2.607   6.612
 8294SOL    HW225782   5.660   2.606   6.487
 8295SOL     OW25783   5.308   4.322   1.584
 8295SOL    HW125784   5.374   4.324   1.659
 8295SOL    HW225785   5.352   4.286   1.502
 8296SOL     OW25786   1.384   5.831   6.782
 8296SOL    HW125787   1.301   5.881   6.755
 8296SOL    HW225788   1.385   5.741   6.738
 8297SOL     OW25789   6.247   2.466   3.594
 8297SOL    HW125790   6.271   2.439   3.500
 8297SOL    HW225791   6.180   2.539   3.592
 8298SOL     OW25792   4.944   1.284   1.525
 8298SOL    HW125793   4.909   1.208   1.581
 8298SOL    HW225794   4.996   1.347   1.583
 8299SOL     OW25795   6.428   2.785   2.020
 8299SOL    HW125796   6.488   2.865   2.018
 8299SOL    HW225797   6.483   2.702   2.023
 8300SOL     OW25798   0.634   4.489   4.570
 8300SOL    HW125799   0.615   4.580   4.532
 8300SOL    HW225800   0.716   4.452   4.527
 8301SOL     OW25801   4.355   2.882   1.368
 8301SOL    HW125802   4.296   2.949   1.414
 8301SOL    HW225803   4.301   2.801   1.344
 8302SOL     OW25804   6.255   6.192   6.694
 8302SOL    HW125805   6.287   6.259   6.628
 8302SOL    HW225806   6.323   6.181   6.766
 8303SOL     OW25807   0.241   0.352   4.862
 8303SOL    HW125808   0.306   0.393   4.927
 8303SOL    HW225809   0.165   0.415   4.847
 8304SOL     OW25810   0.760   3.739   6.286
 8304SOL    HW125811   0.735   3.742   6.383
 8304SOL    HW225812   0.677   3.732   6.231
 8305SOL     OW25813   3.791   5.432   4.073
 8305SOL    HW125814   3.825   5.478   3.991
 8305SOL    HW225815   3.850   5.355   4.095
 8306SOL     OW25816   0.784   3.169   5.225
 8306SOL    HW125817   0.880   3.144   5.235
 8306SOL    HW225818   0.730   3.120   5.294
 8307SOL     OW25819   3.732   5.599   0.419
 8307SOL    HW125820   3.815   5.646   0.449
 8307SOL    HW225821   3.667   5.666   0.383
 8308SOL     OW25822   3.736   6.701   2.346
 8308SOL    HW125823   3.692   6.612   2.332
 8308SOL    HW225824   3.666   6.771   2.361
 8309SOL     OW25825   5.839   6.191   2.330
 8309SOL    HW125826   5.767   6.154   2.272
 8309SOL    HW225827   5.888   6.116   2.374
 8310SOL     OW25828   0.047   4.969   0.550
 8310SOL    HW125829   7.010   4.984   0.469
 8310SOL    HW225830   0.064   4.871   0.560
 8311SOL     OW25831   6.805   1.012   0.189
 8311SOL    HW125832   6.726   0.984   0.133
 8311SOL    HW225833   6.792   0.979   0.282
 8312SOL     OW25834   5.323   6.758   1.608
 8312SOL    HW125835   5.273   6.686   1.561
 8312SOL    HW225836   5.287   6.768   1.701
 8313SOL     OW25837   3.784   1.472   2.891
 8313SOL    HW125838   3.871   1.520   2.900
 8313SOL    HW225839   3.715   1.516   2.948
 8314SOL     OW25840   5.915   0.083   1.925
 8314SOL    HW125841   5.863   0.161   1.888
 8314SOL    HW225842   5.942   0.103   2.019
 8315SOL     OW25843   4.479   3.390   0.715
 8315SOL    HW125844   4.386   3.425   0.702
 8315SOL    HW225845   4.477   3.313   0.779
 8316SOL     OW25846   1.117   4.526   0.801
 8316SOL    HW125847   1.139   4.592   0.729
 8316SOL    HW225848   1.022   4.538   0.829
 8317SOL     OW25849   1.911   4.350   2.472
 8317SOL    HW125850   1.933   4.417   2.401
 8317SOL    HW225851   1.881   4.265   2.430
 8318SOL     OW25852   3.964   1.216   4.792
 8318SOL    HW125853   3.906   1.252   4.866
 8318SOL    HW225854   3.936   1.257   4.706
 8319SOL     OW25855   3.311   0.896   5.584
 8319SOL    HW125856   3.353   0.871   5.497
 8319SOL    HW225857   3.370   0.864   5.659
 8320SOL     OW25858   2.867   4.701   1.280
 8320SOL    HW125859   2.835   4.655   1.362
 8320SOL    HW225860   2.788   4.727   1.224
 8321SOL     OW25861   0.852   0.483   0.468
 8321SOL    HW125862   0.806   0.419   0.408
 8321SOL    HW225863   0.942   0.448   0.493
 8322SOL     OW25864   0.261   0.271   6.894
 8322SOL    HW125865   0.313   0.329   6.832
 8322SOL    HW225866   0.324   0.217   6.949
 8323SOL     OW25867   0.843   1.167   2.815
 8323SOL    HW125868   0.900   1.092   2.849
 8323SOL    HW225869   0.892   1.216   2.743
 8324SOL     OW25870   6.018   0.769   2.217
 8324SOL    HW125871   5.934   0.717   2.230
 8324SOL    HW225872   6.036   0.824   2.299
 8325SOL     OW25873   3.306   2.986   4.304
 8325SOL    HW125874   3.370   2.950   4.236
 8325SOL    HW225875   3.341   3.072   4.340
 8326SOL     OW25876   4.224   2.839   6.045
 8326SOL    HW125877   4.211   2.772   5.972
 8326SOL    HW225878   4.314   2.881   6.035
 8327SOL     OW25879   5.937   2.286   6.295
 8327SOL    HW125880   5.988   2.371   6.279
 8327SOL    HW225881   5.924   2.274   6.393
 8328SOL     OW25882   2.122   2.839   6.328
 8328SOL    HW125883   2.183   2.908   6.288
 8328SOL    HW225884   2.031   2.879   6.342
 8329SOL     OW25885   6.904   2.823   5.237
 8329SOL    HW125886   6.888   2.832   5.335
 8329SOL    HW225887   6.908   2.727   5.212
 8330SOL     OW25888   1.806   6.163   0.437
 8330SOL    HW125889   1.729   6.224   0.422
 8330SOL    HW225890   1.887   6.217   0.461
 8331SOL     OW25891   2.898   0.482   1.428
 8331SOL    HW125892   2.915   0.451   1.522
 8331SOL    HW225893   2.916   0.407   1.364
 8332SOL     OW25894   4.429   5.070   1.976
 8332SOL    HW125895   4.434   5.020   2.062
 8332SOL    HW225896   4.389   5.010   1.906
 8333SOL     OW25897   0.569   5.786   0.388
 8333SOL    HW125898   0.545   5.882   0.402
 8333SOL    HW225899   0.639   5.779   0.317
 8334SOL     OW25900   6.581   2.067   3.917
 8334SOL    HW125901   6.564   1.969   3.932
 8334SOL    HW225902   6.544   2.093   3.828
 8335SOL     OW25903   6.117   5.721   5.676
 8335SOL    HW125904   6.019   5.705   5.685
 8335SOL    HW225905   6.136   5.769   5.591
 8336SOL     OW25906   0.647   1.772   1.682
 8336SOL    HW125907   0.694   1.705   1.625
 8336SOL    HW225908   0.711   1.846   1.706
 8337SOL     OW25909   0.909   6.487   2.506
 8337SOL    HW125910   0.952   6.460   2.592
 8337SOL    HW225911   0.811   6.502   2.521
 8338SOL     OW25912   1.903   4.818   1.251
 8338SOL    HW125913   1.929   4.882   1.322
 8338SOL    HW225914   1.803   4.805   1.253
 8339SOL     OW25915   5.694   1.327   2.517
 8339SOL    HW125916   5.612   1.369   2.478
 8339SOL    HW225917   5.765   1.396   2.527
 8340SOL     OW25918   4.924   4.083   0.759
 8340SOL    HW125919   4.923   4.054   0.664
 8340SOL    HW225920   4.921   4.183   0.764
 8341SOL     OW25921   1.960   6.432   1.032
 8341SOL    HW125922   2.040   6.489   1.015
 8341SOL    HW225923   1.961   6.354   0.969
 8342SOL     OW25924   3.596   0.752   0.419
 8342SOL    HW125925   3.562   0.734   0.512
 8342SOL    HW225926   3.691   0.782   0.424
 8343SOL     OW25927   1.216   5.418   6.181
 8343SOL    HW125928   1.246   5.510   6.160
 8343SOL    HW225929   1.116   5.413   6.174
 8344SOL     OW25930   4.256   6.295   6.131
 8344SOL    HW125931   4.276   6.296   6.033
 8344SOL    HW225932   4.244   6.389   6.164
 8345SOL     OW25933   6.076   1.518   2.890
 8345SOL    HW125934   5.983   1.482   2.883
 8345SOL    HW225935   6.138   1.462   2.834
 8346SOL     OW25936   2.665   4.968   1.152
 8346SOL    HW125937   2.725   4.990   1.229
 8346SOL    HW225938   2.570   4.986   1.177
 8347SOL     OW25939   2.936   6.847   5.425
 8347SOL    HW125940   3.029   6.878   5.405
 8347SOL    HW225941   2.870   6.906   5.378
 8348SOL     OW25942   1.249   0.697   1.459
 8348SOL    HW125943   1.208   0.676   1.371
 8348SOL    HW225944   1.229   0.791   1.484
 8349SOL     OW25945   6.014   3.731   0.770
 8349SOL    HW125946   6.053   3.736   0.863
 8349SOL    HW225947   6.043   3.811   0.718
 8350SOL     OW25948   6.230   1.057   5.343
 8350SOL    HW125949   6.169   1.100   5.410
 8350SOL    HW225950   6.322   1.052   5.381
 8351SOL     OW25951   3.150   6.053   4.135
 8351SOL    HW125952   3.205   5.982   4.091
 8351SOL    HW225953   3.154   6.041   4.235
 8352SOL     OW25954   6.757   6.780   2.542
 8352SOL    HW125955   6.792   6.687   2.546
 8352SOL    HW225956   6.658   6.778   2.528
 8353SOL     OW25957   6.569   3.612   1.817
 8353SOL    HW125958   6.567   3.524   1.769
 8353SOL    HW225959   6.608   3.600   1.908
 8354SOL     OW25960   2.977   1.397   6.743
 8354SOL    HW125961   2.963   1.481   6.796
 8354SOL    HW225962   3.024   1.330   6.800
 8355SOL     OW25963   3.299   0.032   6.723
 8355SOL    HW125964   3.322   0.035   6.821
 8355SOL    HW225965   3.200   0.042   6.712
 8356SOL     OW25966   1.664   5.765   0.402
 8356SOL    HW125967   1.582   5.745   0.350
 8356SOL    HW225968   1.735   5.697   0.380
 8357SOL     OW25969   3.991   5.601   5.000
 8357SOL    HW125970   3.971   5.675   4.936
 8357SOL    HW225971   4.054   5.634   5.071
 8358SOL     OW25972   1.957   2.807   5.920
 8358SOL    HW125973   2.048   2.850   5.924
 8358SOL    HW225974   1.900   2.855   5.853
 8359SOL     OW25975   4.249   5.422   4.335
 8359SOL    HW125976   4.189   5.501   4.325
 8359SOL    HW225977   4.197   5.338   4.320
 8360SOL     OW25978   5.030   6.752   2.810
 8360SOL    HW125979   4.990   6.660   2.807
 8360SOL    HW225980   4.963   6.819   2.779
 8361SOL     OW25981   1.471   0.857   2.548
 8361SOL    HW125982   1.526   0.862   2.632
 8361SOL    HW225983   1.451   0.950   2.516
 8362SOL     OW25984   2.642   2.385   0.240
 8362SOL    HW125985   2.668   2.452   0.310
 8362SOL    HW225986   2.609   2.434   0.159
 8363SOL     OW25987   0.524   3.020   0.477
 8363SOL    HW125988   0.444   2.982   0.431
 8363SOL    HW225989   0.541   3.113   0.443
 8364SOL     OW25990   6.175   3.700   3.153
 8364SOL    HW125991   6.218   3.652   3.230
 8364SOL    HW225992   6.234   3.695   3.073
 8365SOL     OW25993   1.530   3.388   0.088
 8365SOL    HW125994   1.509   3.351   0.179
 8365SOL    HW225995   1.507   3.485   0.086
 8366SOL     OW25996   4.477   6.190   2.268
 8366SOL    HW125997   4.442   6.284   2.262
 8366SOL    HW225998   4.558   6.189   2.328
 8367SOL     OW25999   4.820   6.381   3.681
 8367SOL    HW126000   4.751   6.348   3.617
 8367SOL    HW226001   4.885   6.308   3.700
 8368SOL     OW26002   2.475   5.509   5.814
 8368SOL    HW126003   2.381   5.544   5.814
 8368SOL    HW226004   2.478   5.422   5.863
 8369SOL     OW26005   2.243   1.474   0.241
 8369SOL    HW126006   2.155   1.470   0.193
 8369SOL    HW226007   2.230   1.448   0.337
 8370SOL     OW26008   1.305   1.851   6.499
 8370SOL    HW126009   1.250   1.771   6.525
 8370SOL    HW226010   1.400   1.837   6.527
 8371SOL     OW26011   1.485   3.144   0.723
 8371SOL    HW126012   1.580   3.138   0.693
 8371SOL    HW226013   1.452   3.053   0.749
 8372SOL     OW26014   0.058   0.813   2.528
 8372SOL    HW126015   0.079   0.819   2.626
 8372SOL    HW226016   0.105   0.887   2.480
 8373SOL     OW26017   0.863   6.203   5.418
 8373SOL    HW126018   0.851   6.104   5.411
 8373SOL    HW226019   0.946   6.222   5.472
 8374SOL     OW26020   6.826   0.334   0.163
 8374SOL    HW126021   6.832   0.304   0.068
 8374SOL    HW226022   6.762   0.411   0.170
 8375SOL     OW26023   3.402   0.091   6.097
 8375SOL    HW126024   3.442   0.120   6.010
 8375SOL    HW226025   3.365   7.019   6.087
 8376SOL     OW26026   2.790   0.433   3.946
 8376SOL    HW126027   2.876   0.482   3.940
 8376SOL    HW226028   2.790   0.376   4.029
 8377SOL     OW26029   5.994   5.111   1.715
 8377SOL    HW126030   6.049   5.027   1.719
 8377SOL    HW226031   5.906   5.096   1.759
 8378SOL     OW26032   5.524   3.059   3.175
 8378SOL    HW126033   5.591   2.995   3.137
 8378SOL    HW226034   5.571   3.138   3.214
 8379SOL     OW26035   6.366   3.319   1.432
 8379SOL    HW126036   6.297   3.361   1.373
 8379SOL    HW226037   6.369   3.221   1.415
 8380SOL     OW26038   5.359   1.335   2.781
 8380SOL    HW126039   5.398   1.271   2.714
 8380SOL    HW226040   5.311   1.284   2.852
 8381SOL     OW26041   1.236   5.392   4.799
 8381SOL    HW126042   1.205   5.478   4.759
 8381SOL    HW226043   1.211   5.388   4.895
 8382SOL     OW26044   1.088   2.506   2.626
 8382SOL    HW126045   0.992   2.481   2.641
 8382SOL    HW226046   1.106   2.511   2.527
 8383SOL     OW26047   2.958   2.286   6.939
 8383SOL    HW126048   2.948   2.220   6.864
 8383SOL    HW226049   2.910   2.370   6.916
 8384SOL     OW26050   6.892   6.870   1.965
 8384SOL    HW126051   6.892   6.802   2.038
 8384SOL    HW226052   6.985   6.883   1.931
 8385SOL     OW26053   5.240   2.437   2.541
 8385SOL    HW126054   5.166   2.409   2.480
 8385SOL    HW226055   5.226   2.532   2.569
 8386SOL     OW26056   0.624   3.980   2.960
 8386SOL    HW126057   0.618   3.933   2.872
 8386SOL    HW226058   0.599   4.076   2.949
 8387SOL     OW26059   0.693   1.819   1.344
 8387SOL    HW126060   0.733   1.824   1.435
 8387SOL    HW226061   0.628   1.743   1.340
 8388SOL     OW26062   2.810   0.109   1.894
 8388SOL    HW126063   2.730   0.060   1.858
 8388SOL    HW226064   2.806   0.110   1.994
 8389SOL     OW26065   5.150   3.202   2.044
 8389SOL    HW126066   5.177   3.114   2.085
 8389SOL    HW226067   5.056   3.223   2.070
 8390SOL     OW26068   4.791   1.879   5.457
 8390SOL    HW126069   4.705   1.928   5.440
 8390SOL    HW226070   4.781   1.784   5.428
 8391SOL     OW26071   6.250   1.110   1.324
 8391SOL    HW126072   6.166   1.060   1.345
 8391SOL    HW226073   6.228   1.203   1.297
 8392SOL     OW26074   5.661   3.392   4.429
 8392SOL    HW126075   5.623   3.332   4.498
 8392SOL    HW226076   5.761   3.391   4.435
 8393SOL     OW26077   4.940   0.583   1.556
 8393SOL    HW126078   4.864   0.559   1.496
 8393SOL    HW226079   5.023   0.535   1.527
 8394SOL     OW26080   6.094   4.080   2.160
 8394SOL    HW126081   6.028   4.128   2.101
 8394SOL    HW226082   6.183   4.125   2.153
 8395SOL     OW26083   2.613   1.332   5.164
 8395SOL    HW126084   2.515   1.322   5.180
 8395SOL    HW226085   2.663   1.267   5.221
 8396SOL     OW26086   4.151   5.375   4.957
 8396SOL    HW126087   4.134   5.471   4.979
 8396SOL    HW226088   4.232   5.343   5.007
 8397SOL     OW26089   6.411   0.858   3.317
 8397SOL    HW126090   6.431   0.842   3.414
 8397SOL    HW226091   6.422   0.955   3.296
 8398SOL     OW26092   5.751   2.278   5.875
 8398SOL    HW126093   5.809   2.229   5.941
 8398SOL    HW226094   5.804   2.352   5.833
 8399SOL     OW26095   0.289   5.829   0.710
 8399SOL    HW126096   0.194   5.800   0.722
 8399SOL    HW226097   0.330   5.780   0.633
 8400SOL     OW26098   1.288   2.435   4.398
 8400SOL    HW126099   1.198   2.414   4.361
 8400SOL    HW226100   1.352   2.363   4.373
 8401SOL     OW26101   3.171   0.457   5.730
 8401SOL    HW126102   3.170   0.490   5.825
 8401SOL    HW226103   3.134   0.365   5.726
 8402SOL     OW26104   3.920   0.826   6.070
 8402SOL    HW126105   3.902   0.872   6.157
 8402SOL    HW226106   3.913   0.893   5.996
 8403SOL     OW26107   5.871   4.896   4.372
 8403SOL    HW126108   5.903   4.908   4.278
 8403SOL    HW226109   5.773   4.914   4.377
 8404SOL     OW26110   1.921   1.840   6.524
 8404SOL    HW126111   1.915   1.939   6.517
 8404SOL    HW226112   2.007   1.815   6.570
 8405SOL     OW26113   4.189   1.004   5.618
 8405SOL    HW126114   4.115   0.939   5.600
 8405SOL    HW226115   4.177   1.085   5.560
 8406SOL     OW26116   5.188   0.963   6.479
 8406SOL    HW126117   5.225   0.891   6.420
 8406SOL    HW226118   5.211   0.943   6.574
 8407SOL     OW26119   3.459   6.622   4.130
 8407SOL    HW126120   3.392   6.660   4.194
 8407SOL    HW226121   3.549   6.621   4.172
 8408SOL     OW26122   4.925   0.763   1.184
 8408SOL    HW126123   4.898   0.681   1.134
 8408SOL    HW226124   4.854   0.833   1.175
 8409SOL     OW26125   5.001   2.618   2.603
 8409SOL    HW126126   4.931   2.689   2.613
 8409SOL    HW226127   4.974   2.537   2.654
 8410SOL     OW26128   0.004   1.858   1.878
 8410SOL    HW126129   7.000   1.939   1.825
 8410SOL    HW226130   6.941   1.818   1.918
 8411SOL     OW26131   1.476   5.753   0.836
 8411SOL    HW126132   1.478   5.850   0.812
 8411SOL    HW226133   1.530   5.739   0.919
 8412SOL     OW26134   3.058   2.813   0.326
 8412SOL    HW126135   3.127   2.862   0.378
 8412SOL    HW226136   2.967   2.840   0.358
 8413SOL     OW26137   4.384   5.020   5.467
 8413SOL    HW126138   4.340   5.107   5.443
 8413SOL    HW226139   4.314   4.950   5.479
 8414SOL     OW26140   1.069   1.423   2.722
 8414SOL    HW126141   0.990   1.419   2.661
 8414SOL    HW226142   1.045   1.474   2.804
 8415SOL     OW26143   2.647   0.547   5.126
 8415SOL    HW126144   2.699   0.632   5.139
 8415SOL    HW226145   2.637   0.530   5.028
 8416SOL     OW26146   6.404   1.544   5.148
 8416SOL    HW126147   6.345   1.463   5.155
 8416SOL    HW226148   6.416   1.584   5.238
 8417SOL     OW26149   1.499   3.744   4.626
 8417SOL    HW126150   1.517   3.697   4.540
 8417SOL    HW226151   1.572   3.809   4.645
 8418SOL     OW26152   1.095   6.127   2.620
 8418SOL    HW126153   1.136   6.145   2.531
 8418SOL    HW226154   1.145   6.052   2.665
 8419SOL     OW26155   5.470   0.896   4.212
 8419SOL    HW126156   5.548   0.907   4.150
 8419SOL    HW226157   5.403   0.968   4.193
 8420SOL     OW26158   3.165   0.073   2.202
 8420SOL    HW126159   3.249   0.122   2.179
 8420SOL    HW226160   3.130   0.026   2.120
 8421SOL     OW26161   4.094   5.681   5.922
 8421SOL    HW126162   4.152   5.694   5.841
 8421SOL    HW226163   4.026   5.754   5.925
 8422SOL     OW26164   4.815   2.379   3.322
 8422SOL    HW126165   4.746   2.309   3.302
 8422SOL    HW226166   4.808   2.407   3.417
 8423SOL     OW26167   5.642   4.884   6.244
 8423SOL    HW126168   5.686   4.795   6.232
 8423SOL    HW226169   5.575   4.898   6.172
 8424SOL     OW26170   2.093   0.424   3.745
 8424SOL    HW126171   2.163   0.398   3.679
 8424SOL    HW226172   2.007   0.442   3.697
 8425SOL     OW26173   3.482   3.187   2.970
 8425SOL    HW126174   3.518   3.094   2.968
 8425SOL    HW226175   3.429   3.204   2.887
 8426SOL     OW26176   3.709   2.955   1.989
 8426SOL    HW126177   3.662   3.020   2.050
 8426SOL    HW226178   3.806   2.953   2.011
 8427SOL     OW26179   3.250   3.536   3.392
 8427SOL    HW126180   3.329   3.478   3.371
 8427SOL    HW226181   3.172   3.478   3.415
 8428SOL     OW26182   7.012   0.754   1.184
 8428SOL    HW126183   6.968   0.841   1.159
 8428SOL    HW226184   0.025   0.709   1.102
 8429SOL     OW26185   1.364   5.649   6.588
 8429SOL    HW126186   1.346   5.553   6.571
 8429SOL    HW226187   1.317   5.705   6.519
 8430SOL     OW26188   4.138   6.326   4.662
 8430SOL    HW126189   4.146   6.244   4.605
 8430SOL    HW226190   4.189   6.312   4.747
 8431SOL     OW26191   3.198   3.776   5.733
 8431SOL    HW126192   3.261   3.788   5.656
 8431SOL    HW226193   3.226   3.696   5.787
 8432SOL     OW26194   6.307   5.886   6.610
 8432SOL    HW126195   6.315   5.814   6.679
 8432SOL    HW226196   6.222   5.936   6.624
 8433SOL     OW26197   5.102   2.379   0.737
 8433SOL    HW126198   5.153   2.428   0.666
 8433SOL    HW226199   5.018   2.341   0.698
 8434SOL     OW26200   1.768   5.397   5.430
 8434SOL    HW126201   1.708   5.407   5.350
 8434SOL    HW226202   1.862   5.418   5.403
 8435SOL     OW26203   4.944   1.239   2.955
 8435SOL    HW126204   4.862   1.234   3.012
 8435SOL    HW226205   4.979   1.333   2.956
 8436SOL     OW26206   2.272   6.737   2.512
 8436SOL    HW126207   2.186   6.788   2.511
 8436SOL    HW226208   2.276   6.677   2.432
 8437SOL     OW26209   1.988   3.494   2.412
 8437SOL    HW126210   2.005   3.406   2.457
 8437SOL    HW226211   2.014   3.487   2.315
 8438SOL     OW26212   1.540   4.293   2.627
 8438SOL    HW126213   1.571   4.209   2.672
 8438SOL    HW226214   1.493   4.270   2.542
 8439SOL     OW26215   5.850   5.997   3.522
 8439SOL    HW126216   5.789   5.937   3.573
 8439SOL    HW226217   5.945   5.968   3.536
 8440SOL     OW26218   1.532   1.311   3.164
 8440SOL    HW126219   1.522   1.347   3.071
 8440SOL    HW226220   1.500   1.216   3.166
 8441SOL     OW26221   5.641   0.953   5.147
 8441SOL    HW126222   5.731   0.972   5.186
 8441SOL    HW226223   5.650   0.882   5.077
 8442SOL     OW26224   3.662   1.735   5.375
 8442SOL    HW126225   3.686   1.818   5.425
 8442SOL    HW226226   3.573   1.747   5.331
 8443SOL     OW26227   1.682   4.590   2.867
 8443SOL    HW126228   1.689   4.578   2.768
 8443SOL    HW226229   1.622   4.667   2.887
 8444SOL     OW26230   4.939   5.365   3.697
 8444SOL    HW126231   4.964   5.308   3.619
 8444SOL    HW226232   4.840   5.376   3.701
 8445SOL     OW26233   4.423   6.194   6.762
 8445SOL    HW126234   4.505   6.179   6.817
 8445SOL    HW226235   4.412   6.292   6.744
 8446SOL     OW26236   0.144   6.001   4.944
 8446SOL    HW126237   0.169   6.004   5.041
 8446SOL    HW226238   0.106   6.090   4.917
 8447SOL     OW26239   4.333   1.570   3.460
 8447SOL    HW126240   4.318   1.664   3.431
 8447SOL    HW226241   4.271   1.509   3.411
 8448SOL     OW26242   4.713   6.875   3.206
 8448SOL    HW126243   4.797   6.824   3.189
 8448SOL    HW226244   4.714   6.959   3.151
 8449SOL     OW26245   1.668   2.392   2.897
 8449SOL    HW126246   1.744   2.330   2.915
 8449SOL    HW226247   1.692   2.484   2.926
 8450SOL     OW26248   6.651   0.566   0.229
 8450SOL    HW126249   6.590   0.517   0.292
 8450SOL    HW226250   6.730   0.602   0.280
 8451SOL     OW26251   4.592   1.968   1.222
 8451SOL    HW126252   4.506   2.018   1.210
 8451SOL    HW226253   4.586   1.911   1.304
 8452SOL     OW26254   5.145   1.744   5.373
 8452SOL    HW126255   5.091   1.801   5.311
 8452SOL    HW226256   5.083   1.687   5.427
 8453SOL     OW26257   0.213   5.971   0.456
 8453SOL    HW126258   0.231   5.899   0.523
 8453SOL    HW226259   0.120   6.005   0.468
 8454SOL     OW26260   0.434   4.279   0.223
 8454SOL    HW126261   0.450   4.202   0.161
 8454SOL    HW226262   0.420   4.245   0.316
 8455SOL     OW26263   0.852   0.733   2.745
 8455SOL    HW126264   0.942   0.766   2.775
 8455SOL    HW226265   0.806   0.688   2.822
 8456SOL     OW26266   5.839   1.390   3.940
 8456SOL    HW126267   5.841   1.291   3.950
 8456SOL    HW226268   5.912   1.431   3.994
 8457SOL     OW26269   5.990   5.953   4.628
 8457SOL    HW126270   6.056   5.878   4.635
 8457SOL    HW226271   5.917   5.939   4.696
 8458SOL     OW26272   0.493   0.159   7.014
 8458SOL    HW126273   0.481   0.086   0.062
 8458SOL    HW226274   0.548   0.124   6.938
 8459SOL     OW26275   1.665   5.391   3.063
 8459SOL    HW126276   1.717   5.306   3.056
 8459SOL    HW226277   1.594   5.381   3.133
 8460SOL     OW26278   3.272   4.117   4.866
 8460SOL    HW126279   3.298   4.108   4.770
 8460SOL    HW226280   3.220   4.202   4.879
 8461SOL     OW26281   6.103   4.053   3.671
 8461SOL    HW126282   6.101   4.042   3.771
 8461SOL    HW226283   6.195   4.081   3.642
 8462SOL     OW26284   2.151   2.875   1.619
 8462SOL    HW126285   2.162   2.913   1.527
 8462SOL    HW226286   2.221   2.913   1.679
 8463SOL     OW26287   5.488   0.970   2.344
 8463SOL    HW126288   5.560   1.034   2.318
 8463SOL    HW226289   5.521   0.876   2.336
 8464SOL     OW26290   5.989   2.629   5.056
 8464SOL    HW126291   6.058   2.697   5.081
 8464SOL    HW226292   5.979   2.564   5.131
 8465SOL     OW26293   1.646   2.860   0.640
 8465SOL    HW126294   1.701   2.943   0.631
 8465SOL    HW226295   1.550   2.885   0.654
 8466SOL     OW26296   1.108   6.142   3.344
 8466SOL    HW126297   1.193   6.183   3.311
 8466SOL    HW226298   1.106   6.144   3.444
 8467SOL     OW26299   2.799   5.597   0.867
 8467SOL    HW126300   2.784   5.498   0.860
 8467SOL    HW226301   2.719   5.645   0.831
 8468SOL     OW26302   4.488   1.966   6.977
 8468SOL    HW126303   4.455   1.998   6.889
 8468SOL    HW226304   4.519   2.044   0.011
 8469SOL     OW26305   3.406   2.236   6.783
 8469SOL    HW126306   3.381   2.289   6.703
 8469SOL    HW226307   3.403   2.294   6.864
 8470SOL     OW26308   2.650   3.142   6.477
 8470SOL    HW126309   2.575   3.178   6.422
 8470SOL    HW226310   2.684   3.058   6.436
 8471SOL     OW26311   3.851   0.804   4.250
 8471SOL    HW126312   3.769   0.749   4.239
 8471SOL    HW226313   3.862   0.863   4.171
 8472SOL     OW26314   1.435   6.363   4.349
 8472SOL    HW126315   1.406   6.374   4.444
 8472SOL    HW226316   1.363   6.316   4.298
 8473SOL     OW26317   6.352   5.197   7.011
 8473SOL    HW126318   6.258   5.195   6.977
 8473SOL    HW226319   6.387   5.291   7.007
 8474SOL     OW26320   3.504   3.934   1.609
 8474SOL    HW126321   3.477   3.992   1.686
 8474SOL    HW226322   3.585   3.881   1.633
 8475SOL     OW26323   5.537   1.736   2.496
 8475SOL    HW126324   5.496   1.787   2.420
 8475SOL    HW226325   5.466   1.685   2.544
 8476SOL     OW26326   4.670   0.527   2.353
 8476SOL    HW126327   4.674   0.476   2.440
 8476SOL    HW226328   4.748   0.589   2.347
 8477SOL     OW26329   3.232   1.090   1.611
 8477SOL    HW126330   3.302   1.149   1.653
 8477SOL    HW226331   3.206   1.127   1.522
 8478SOL     OW26332   1.423   0.177   5.744
 8478SOL    HW126333   1.325   0.183   5.722
 8478SOL    HW226334   1.439   0.216   5.834
 8479SOL     OW26335   5.412   1.036   1.363
 8479SOL    HW126336   5.393   1.099   1.289
 8479SOL    HW226337   5.329   1.018   1.415
 8480SOL     OW26338   2.640   1.610   1.269
 8480SOL    HW126339   2.700   1.537   1.301
 8480SOL    HW226340   2.600   1.657   1.348
 8481SOL     OW26341   3.618   0.429   4.298
 8481SOL    HW126342   3.718   0.422   4.302
 8481SOL    HW226343   3.592   0.521   4.269
 8482SOL     OW26344   1.669   6.741   2.314
 8482SOL    HW126345   1.615   6.790   2.246
 8482SOL    HW226346   1.645   6.644   2.313
 8483SOL     OW26347   4.069   5.937   0.968
 8483SOL    HW126348   4.145   6.000   0.981
 8483SOL    HW226349   4.051   5.888   1.053
 8484SOL     OW26350   0.728   5.157   4.259
 8484SOL    HW126351   0.638   5.200   4.263
 8484SOL    HW226352   0.723   5.065   4.299
 8485SOL     OW26353   2.331   3.298   6.807
 8485SOL    HW126354   2.278   3.296   6.891
 8485SOL    HW226355   2.428   3.280   6.827
 8486SOL     OW26356   5.117   0.717   2.638
 8486SOL    HW126357   5.184   0.776   2.592
 8486SOL    HW226358   5.033   0.769   2.653
 8487SOL     OW26359   4.486   6.962   0.593
 8487SOL    HW126360   4.501   6.950   0.495
 8487SOL    HW226361   4.473   0.039   0.614
 8488SOL     OW26362   4.873   3.075   4.261
 8488SOL    HW126363   4.799   3.029   4.211
 8488SOL    HW226364   4.862   3.174   4.253
 8489SOL     OW26365   4.274   4.902   1.795
 8489SOL    HW126366   4.329   4.833   1.749
 8489SOL    HW226367   4.188   4.861   1.826
 8490SOL     OW26368   4.316   5.322   2.715
 8490SOL    HW126369   4.329   5.223   2.723
 8490SOL    HW226370   4.218   5.341   2.703
 8491SOL     OW26371   2.406   0.573   2.126
 8491SOL    HW126372   2.443   0.500   2.183
 8491SOL    HW226373   2.338   0.625   2.178
 8492SOL     OW26374   6.059   3.442   5.032
 8492SOL    HW126375   6.093   3.424   4.940
 8492SOL    HW226376   5.969   3.400   5.043
 8493SOL     OW26377   4.364   1.814   0.219
 8493SOL    HW126378   4.397   1.891   0.274
 8493SOL    HW226379   4.385   1.831   0.123
 8494SOL     OW26380   3.822   5.458   6.076
 8494SOL    HW126381   3.813   5.394   6.152
 8494SOL    HW226382   3.778   5.545   6.099
 8495SOL     OW26383   0.084   2.668   0.984
 8495SOL    HW126384   7.005   2.669   0.994
 8495SOL    HW226385   0.126   2.710   1.064
 8496SOL     OW26386   0.154   2.824   3.649
 8496SOL    HW126387   0.207   2.879   3.714
 8496SOL    HW226388   0.094   2.762   3.700
 8497SOL     OW26389   5.814   5.949   2.892
 8497SOL    HW126390   5.826   6.025   2.828
 8497SOL    HW226391   5.762   5.980   2.972
 8498SOL     OW26392   0.499   0.815   0.892
 8498SOL    HW126393   0.562   0.753   0.937
 8498SOL    HW226394   0.423   0.763   0.853
 8499SOL     OW26395   3.692   3.793   6.338
 8499SOL    HW126396   3.709   3.821   6.432
 8499SOL    HW226397   3.737   3.857   6.276
 8500SOL     OW26398   3.074   6.952   5.880
 8500SOL    HW126399   2.990   6.953   5.934
 8500SOL    HW226400   3.070   6.879   5.812
 8501SOL     OW26401   1.668   4.104   6.477
 8501SOL    HW126402   1.646   4.121   6.381
 8501SOL    HW226403   1.732   4.028   6.484
 8502SOL     OW26404   6.387   0.066   1.545
 8502SOL    HW126405   6.318   0.014   1.495
 8502SOL    HW226406   6.347   0.152   1.576
 8503SOL     OW26407   2.734   4.953   3.443
 8503SOL    HW126408   2.797   4.945   3.520
 8503SOL    HW226409   2.757   5.034   3.389
 8504SOL     OW26410   1.460   5.357   3.235
 8504SOL    HW126411   1.386   5.415   3.200
 8504SOL    HW226412   1.422   5.288   3.296
 8505SOL     OW26413   4.887   3.267   3.229
 8505SOL    HW126414   4.982   3.284   3.254
 8505SOL    HW226415   4.856   3.338   3.166
 8506SOL     OW26416   1.480   6.459   0.269
 8506SOL    HW126417   1.440   6.421   0.185
 8506SOL    HW226418   1.459   6.399   0.346
 8507SOL     OW26419   1.221   0.906   5.629
 8507SOL    HW126420   1.125   0.881   5.630
 8507SOL    HW226421   1.252   0.928   5.721
 8508SOL     OW26422   0.804   1.909   6.001
 8508SOL    HW126423   0.784   1.812   5.993
 8508SOL    HW226424   0.813   1.949   5.910
 8509SOL     OW26425   6.433   1.676   4.812
 8509SOL    HW126426   6.364   1.626   4.864
 8509SOL    HW226427   6.499   1.611   4.773
 8510SOL     OW26428   5.705   6.418   2.406
 8510SOL    HW126429   5.762   6.341   2.377
 8510SOL    HW226430   5.697   6.418   2.506
 8511SOL     OW26431   6.496   4.702   1.641
 8511SOL    HW126432   6.548   4.729   1.722
 8511SOL    HW226433   6.505   4.773   1.570
 8512SOL     OW26434   5.454   2.592   0.046
 8512SOL    HW126435   5.511   2.604   0.127
 8512SOL    HW226436   5.470   2.667   7.002
 8513SOL     OW26437   6.558   4.950   1.412
 8513SOL    HW126438   6.618   5.003   1.473
 8513SOL    HW226439   6.591   4.855   1.409
 8514SOL     OW26440   2.801   1.893   4.748
 8514SOL    HW126441   2.820   1.982   4.791
 8514SOL    HW226442   2.748   1.907   4.665
 8515SOL     OW26443   1.107   0.678   1.183
 8515SOL    HW126444   1.153   0.758   1.144
 8515SOL    HW226445   1.013   0.704   1.208
 8516SOL     OW26446   6.196   2.772   2.445
 8516SOL    HW126447   6.240   2.683   2.429
 8516SOL    HW226448   6.196   2.825   2.361
 8517SOL     OW26449   1.697   2.748   5.015
 8517SOL    HW126450   1.644   2.815   5.067
 8517SOL    HW226451   1.794   2.755   5.039
 8518SOL     OW26452   5.050   5.037   6.612
 8518SOL    HW126453   5.111   4.981   6.668
 8518SOL    HW226454   5.039   4.994   6.522
 8519SOL     OW26455   1.498   4.113   0.680
 8519SOL    HW126456   1.503   4.021   0.643
 8519SOL    HW226457   1.588   4.140   0.716
 8520SOL     OW26458   4.135   3.595   4.965
 8520SOL    HW126459   4.047   3.640   4.949
 8520SOL    HW226460   4.178   3.572   4.878
 8521SOL     OW26461   1.399   6.147   5.551
 8521SOL    HW126462   1.350   6.088   5.615
 8521SOL    HW226463   1.334   6.203   5.500
 8522SOL     OW26464   1.520   6.011   0.771
 8522SOL    HW126465   1.571   5.981   0.691
 8522SOL    HW226466   1.431   6.045   0.742
 8523SOL     OW26467   2.734   0.924   6.774
 8523SOL    HW126468   2.743   1.012   6.727
 8523SOL    HW226469   2.672   0.934   6.852
 8524SOL     OW26470   1.674   5.777   4.632
 8524SOL    HW126471   1.660   5.733   4.721
 8524SOL    HW226472   1.591   5.826   4.606
 8525SOL     OW26473   0.367   4.851   1.432
 8525SOL    HW126474   0.282   4.834   1.482
 8525SOL    HW226475   0.401   4.765   1.394
 8526SOL     OW26476   2.318   6.257   0.363
 8526SOL    HW126477   2.304   6.306   0.277
 8526SOL    HW226478   2.412   6.222   0.367
 8527SOL     OW26479   3.434   0.455   6.146
 8527SOL    HW126480   3.434   0.454   6.246
 8527SOL    HW226481   3.433   0.361   6.112
 8528SOL     OW26482   5.311   2.353   0.146
 8528SOL    HW126483   5.374   2.279   0.121
 8528SOL    HW226484   5.340   2.438   0.103
 8529SOL     OW26485   1.288   6.351   6.550
 8529SOL    HW126486   1.282   6.437   6.500
 8529SOL    HW226487   1.308   6.369   6.646
 8530SOL     OW26488   3.193   3.978   4.595
 8530SOL    HW126489   3.117   3.947   4.653
 8530SOL    HW226490   3.174   3.953   4.500
 8531SOL     OW26491   6.647   5.960   3.566
 8531SOL    HW126492   6.743   5.987   3.565
 8531SOL    HW226493   6.593   6.025   3.513
 8532SOL     OW26494   2.924   5.716   4.674
 8532SOL    HW126495   3.023   5.712   4.692
 8532SOL    HW226496   2.898   5.640   4.615
 8533SOL     OW26497   0.866   6.572   5.933
 8533SOL    HW126498   0.912   6.538   5.851
 8533SOL    HW226499   0.821   6.658   5.913
 8534SOL     OW26500   4.129   2.228   4.081
 8534SOL    HW126501   4.228   2.239   4.089
 8534SOL    HW226502   4.107   2.181   3.996
 8535SOL     OW26503   5.814   1.219   2.907
 8535SOL    HW126504   5.738   1.155   2.912
 8535SOL    HW226505   5.898   1.174   2.938
 8536SOL     OW26506   0.167   0.819   4.548
 8536SOL    HW126507   0.109   0.740   4.567
 8536SOL    HW226508   0.263   0.789   4.541
 8537SOL     OW26509   6.928   1.069   2.837
 8537SOL    HW126510   6.924   0.988   2.896
 8537SOL    HW226511   7.013   1.118   2.855
 8538SOL     OW26512   0.982   2.675   6.934
 8538SOL    HW126513   0.917   2.605   6.905
 8538SOL    HW226514   1.068   2.632   6.961
 8539SOL     OW26515   6.712   2.654   3.171
 8539SOL    HW126516   6.784   2.608   3.118
 8539SOL    HW226517   6.679   2.592   3.242
 8540SOL     OW26518   4.219   0.000   0.250
 8540SOL    HW126519   4.178   6.985   0.334
 8540SOL    HW226520   4.215   0.100   0.250
 8541SOL     OW26521   2.274   2.282   3.633
 8541SOL    HW126522   2.195   2.225   3.652
 8541SOL    HW226523   2.346   2.227   3.592
 8542SOL     OW26524   4.181   3.807   6.661
 8542SOL    HW126525   4.242   3.818   6.583
 8542SOL    HW226526   4.146   3.897   6.689
 8543SOL     OW26527   1.720   2.596   6.951
 8543SOL    HW126528   1.765   2.518   6.906
 8543SOL    HW226529   1.790   2.659   6.986
 8544SOL     OW26530   5.506   2.522   4.484
 8544SOL    HW126531   5.540   2.517   4.578
 8544SOL    HW226532   5.460   2.436   4.460
 8545SOL     OW26533   4.968   6.411   4.666
 8545SOL    HW126534   5.033   6.484   4.687
 8545SOL    HW226535   4.955   6.405   4.567
 8546SOL     OW26536   4.743   1.546   4.631
 8546SOL    HW126537   4.770   1.602   4.709
 8546SOL    HW226538   4.810   1.555   4.558
 8547SOL     OW26539   0.837   4.359   3.194
 8547SOL    HW126540   0.857   4.375   3.290
 8547SOL    HW226541   0.751   4.309   3.185
 8548SOL     OW26542   5.809   1.167   5.513
 8548SOL    HW126543   5.792   1.262   5.539
 8548SOL    HW226544   5.726   1.113   5.525
 8549SOL     OW26545   6.471   3.556   4.573
 8549SOL    HW126546   6.489   3.458   4.583
 8549SOL    HW226547   6.557   3.605   4.562
 8550SOL     OW26548   1.555   4.480   6.729
 8550SOL    HW126549   1.534   4.559   6.671
 8550SOL    HW226550   1.642   4.439   6.699
 8551SOL     OW26551   3.475   3.982   0.034
 8551SOL    HW126552   3.455   4.035   6.972
 8551SOL    HW226553   3.402   3.915   0.049
 8552SOL     OW26554   1.910   6.493   4.013
 8552SOL    HW126555   1.958   6.579   4.032
 8552SOL    HW226556   1.874   6.455   4.098
 8553SOL     OW26557   5.199   0.093   0.335
 8553SOL    HW126558   5.219   0.092   0.433
 8553SOL    HW226559   5.132   0.022   0.313
 8554SOL     OW26560   6.847   3.749   6.696
 8554SOL    HW126561   6.907   3.825   6.719
 8554SOL    HW226562   6.782   3.734   6.770
 8555SOL     OW26563   1.345   6.944   3.696
 8555SOL    HW126564   1.294   0.006   3.722
 8555SOL    HW226565   1.376   6.897   3.778
 8556SOL     OW26566   6.248   0.478   3.551
 8556SOL    HW126567   6.242   0.536   3.633
 8556SOL    HW226568   6.343   0.476   3.519
 8557SOL     OW26569   0.045   0.571   1.466
 8557SOL    HW126570   0.060   0.590   1.563
 8557SOL    HW226571   0.133   0.573   1.417
 8558SOL     OW26572   1.140   5.256   1.792
 8558SOL    HW126573   1.176   5.167   1.766
 8558SOL    HW226574   1.210   5.326   1.775
 8559SOL     OW26575   1.087   0.187   0.922
 8559SOL    HW126576   1.117   0.260   0.982
 8559SOL    HW226577   1.006   0.217   0.871
 8560SOL     OW26578   6.321   1.989   0.370
 8560SOL    HW126579   6.228   2.020   0.349
 8560SOL    HW226580   6.337   1.900   0.327
 8561SOL     OW26581   4.555   6.631   3.680
 8561SOL    HW126582   4.630   6.657   3.741
 8561SOL    HW226583   4.584   6.640   3.585
 8562SOL     OW26584   3.242   6.267   3.938
 8562SOL    HW126585   3.271   6.348   3.989
 8562SOL    HW226586   3.218   6.194   4.002
 8563SOL     OW26587   3.100   2.650   6.717
 8563SOL    HW126588   3.103   2.690   6.626
 8563SOL    HW226589   3.082   2.721   6.785
 8564SOL     OW26590   1.344   0.208   3.686
 8564SOL    HW126591   1.390   0.154   3.616
 8564SOL    HW226592   1.411   0.248   3.748
 8565SOL     OW26593   3.657   6.566   1.260
 8565SOL    HW126594   3.733   6.623   1.228
 8565SOL    HW226595   3.687   6.514   1.341
 8566SOL     OW26596   1.740   2.663   3.541
 8566SOL    HW126597   1.797   2.585   3.516
 8566SOL    HW226598   1.718   2.716   3.459
 8567SOL     OW26599   5.160   1.067   1.474
 8567SOL    HW126600   5.066   1.068   1.507
 8567SOL    HW226601   5.199   1.159   1.480
 8568SOL     OW26602   5.516   1.168   0.300
 8568SOL    HW126603   5.560   1.258   0.303
 8568SOL    HW226604   5.464   1.154   0.384
 8569SOL     OW26605   4.308   1.357   4.420
 8569SOL    HW126606   4.307   1.266   4.462
 8569SOL    HW226607   4.283   1.350   4.324
 8570SOL     OW26608   0.188   4.391   0.169
 8570SOL    HW126609   0.285   4.367   0.165
 8570SOL    HW226610   0.134   4.315   0.133
 8571SOL     OW26611   0.070   4.301   5.079
 8571SOL    HW126612   0.170   4.290   5.080
 8571SOL    HW226613   0.029   4.223   5.030
 8572SOL     OW26614   2.645   5.044   5.241
 8572SOL    HW126615   2.711   5.111   5.273
 8572SOL    HW226616   2.684   4.992   5.165
 8573SOL     OW26617   3.179   5.915   5.625
 8573SOL    HW126618   3.133   5.842   5.574
 8573SOL    HW226619   3.256   5.877   5.676
 8574SOL     OW26620   1.012   3.658   5.595
 8574SOL    HW126621   1.109   3.651   5.569
 8574SOL    HW226622   0.977   3.568   5.619
 8575SOL     OW26623   3.269   2.396   0.471
 8575SOL    HW126624   3.237   2.461   0.403
 8575SOL    HW226625   3.225   2.415   0.559
 8576SOL     OW26626   1.526   6.943   1.401
 8576SOL    HW126627   1.516   0.012   1.357
 8576SOL    HW226628   1.609   6.898   1.367
 8577SOL     OW26629   6.553   6.198   3.389
 8577SOL    HW126630   6.612   6.272   3.420
 8577SOL    HW226631   6.600   6.145   3.318
 8578SOL     OW26632   4.168   6.897   3.719
 8578SOL    HW126633   4.235   6.970   3.705
 8578SOL    HW226634   4.173   6.833   3.642
 8579SOL     OW26635   1.320   5.155   3.346
 8579SOL    HW126636   1.227   5.187   3.329
 8579SOL    HW226637   1.323   5.104   3.432
 8580SOL     OW26638   1.830   5.307   0.190
 8580SOL    HW126639   1.771   5.266   0.121
 8580SOL    HW226640   1.783   5.306   0.279
 8581SOL     OW26641   3.278   1.895   1.434
 8581SOL    HW126642   3.317   1.804   1.443
 8581SOL    HW226643   3.351   1.961   1.412
 8582SOL     OW26644   4.328   4.083   1.610
 8582SOL    HW126645   4.353   4.149   1.680
 8582SOL    HW226646   4.383   4.099   1.528
 8583SOL     OW26647   6.232   0.224   6.122
 8583SOL    HW126648   6.156   0.186   6.069
 8583SOL    HW226649   6.197   0.280   6.197
 8584SOL     OW26650   6.849   5.911   0.683
 8584SOL    HW126651   6.930   5.852   0.682
 8584SOL    HW226652   6.769   5.856   0.707
 8585SOL     OW26653   0.199   1.073   7.001
 8585SOL    HW126654   0.158   1.047   0.069
 8585SOL    HW226655   0.219   1.171   7.003
 8586SOL     OW26656   3.963   5.605   3.251
 8586SOL    HW126657   3.867   5.621   3.272
 8586SOL    HW226658   4.015   5.690   3.266
 8587SOL     OW26659   0.032   2.118   1.743
 8587SOL    HW126660   0.127   2.114   1.774
 8587SOL    HW226661   7.014   2.208   1.763
 8588SOL     OW26662   4.874   2.684   0.161
 8588SOL    HW126663   4.956   2.709   0.109
 8588SOL    HW226664   4.895   2.608   0.222
 8589SOL     OW26665   3.413   2.112   4.488
 8589SOL    HW126666   3.322   2.070   4.486
 8589SOL    HW226667   3.450   2.107   4.581
 8590SOL     OW26668   6.129   4.977   5.537
 8590SOL    HW126669   6.099   4.898   5.485
 8590SOL    HW226670   6.118   5.060   5.481
 8591SOL     OW26671   1.268   3.352   6.968
 8591SOL    HW126672   1.283   3.319   6.874
 8591SOL    HW226673   1.274   3.452   6.970
 8592SOL     OW26674   5.919   4.466   0.104
 8592SOL    HW126675   5.877   4.538   0.160
 8592SOL    HW226676   5.882   4.470   0.011
 8593SOL     OW26677   1.126   0.555   2.631
 8593SOL    HW126678   1.106   0.640   2.679
 8593SOL    HW226679   1.041   0.513   2.600
 8594SOL     OW26680   3.579   3.585   4.520
 8594SOL    HW126681   3.541   3.669   4.559
 8594SOL    HW226682   3.522   3.557   4.442
 8595SOL     OW26683   1.633   1.786   2.816
 8595SOL    HW126684   1.549   1.804   2.765
 8595SOL    HW226685   1.710   1.829   2.770
 8596SOL     OW26686   6.258   5.237   1.699
 8596SOL    HW126687   6.312   5.269   1.622
 8596SOL    HW226688   6.162   5.227   1.672
 8597SOL     OW26689   2.557   1.341   1.006
 8597SOL    HW126690   2.573   1.300   1.096
 8597SOL    HW226691   2.528   1.436   1.018
 8598SOL     OW26692   5.725   5.333   0.918
 8598SOL    HW126693   5.706   5.412   0.977
 8598SOL    HW226694   5.810   5.290   0.947
 8599SOL     OW26695   1.743   2.673   2.876
 8599SOL    HW126696   1.820   2.734   2.856
 8599SOL    HW226697   1.678   2.720   2.935
 8600SOL     OW26698   6.489   4.422   6.542
 8600SOL    HW126699   6.480   4.516   6.508
 8600SOL    HW226700   6.439   4.361   6.482
 8601SOL     OW26701   0.152   0.009   4.438
 8601SOL    HW126702   0.182   0.088   4.492
 8601SOL    HW226703   0.190   6.946   4.478
 8602SOL     OW26704   2.907   5.333   2.268
 8602SOL    HW126705   2.897   5.417   2.322
 8602SOL    HW226706   2.824   5.278   2.276
 8603SOL     OW26707   3.917   3.470   0.528
 8603SOL    HW126708   3.892   3.431   0.617
 8603SOL    HW226709   3.839   3.461   0.465
 8604SOL     OW26710   5.273   2.693   3.697
 8604SOL    HW126711   5.185   2.686   3.649
 8604SOL    HW226712   5.283   2.615   3.759
 8605SOL     OW26713   2.225   6.194   2.784
 8605SOL    HW126714   2.140   6.243   2.769
 8605SOL    HW226715   2.230   6.116   2.722
 8606SOL     OW26716   3.867   4.412   5.722
 8606SOL    HW126717   3.779   4.368   5.709
 8606SOL    HW226718   3.940   4.352   5.691
 8607SOL     OW26719   4.629   5.539   1.412
 8607SOL    HW126720   4.703   5.604   1.396
 8607SOL    HW226721   4.629   5.512   1.509
 8608SOL     OW26722   4.630   5.919   2.160
 8608SOL    HW126723   4.628   5.983   2.084
 8608SOL    HW226724   4.558   5.851   2.149
 8609SOL     OW26725   3.414   0.746   5.373
 8609SOL    HW126726   3.319   0.717   5.355
 8609SOL    HW226727   3.451   0.790   5.291
 8610SOL     OW26728   0.875   6.019   4.057
 8610SOL    HW126729   0.939   5.942   4.053
 8610SOL    HW226730   0.781   5.985   4.055
 8611SOL     OW26731   2.237   2.114   4.000
 8611SOL    HW126732   2.147   2.120   4.043
 8611SOL    HW226733   2.280   2.205   4.001
 8612SOL     OW26734   4.406   2.923   5.369
 8612SOL    HW126735   4.382   2.930   5.466
 8612SOL    HW226736   4.389   3.010   5.324
 8613SOL     OW26737   1.724   1.552   1.205
 8613SOL    HW126738   1.766   1.610   1.275
 8613SOL    HW226739   1.624   1.561   1.210
 8614SOL     OW26740   0.836   2.037   3.447
 8614SOL    HW126741   0.781   2.101   3.393
 8614SOL    HW226742   0.851   1.954   3.393
 8615SOL     OW26743   4.343   2.296   5.261
 8615SOL    HW126744   4.343   2.346   5.348
 8615SOL    HW226745   4.309   2.356   5.188
 8616SOL     OW26746   1.071   4.410   0.234
 8616SOL    HW126747   1.146   4.472   0.211
 8616SOL    HW226748   1.008   4.456   0.297
 8617SOL     OW26749   6.068   2.692   1.306
 8617SOL    HW126750   6.082   2.743   1.391
 8617SOL    HW226751   6.082   2.595   1.323
 8618SOL     OW26752   4.717   0.173   3.270
 8618SOL    HW126753   4.653   0.096   3.263
 8618SOL    HW226754   4.801   0.143   3.314
 8619SOL     OW26755   4.569   5.177   6.927
 8619SOL    HW126756   4.515   5.230   6.993
 8619SOL    HW226757   4.569   5.081   6.954
 8620SOL     OW26758   6.657   6.071   3.176
 8620SOL    HW126759   6.653   5.973   3.158
 8620SOL    HW226760   6.751   6.099   3.190
 8621SOL     OW26761   5.785   0.766   3.564
 8621SOL    HW126762   5.731   0.721   3.635
 8621SOL    HW226763   5.852   0.702   3.527
 8622SOL     OW26764   4.589   5.513   0.329
 8622SOL    HW126765   4.573   5.607   0.358
 8622SOL    HW226766   4.670   5.477   0.377
 8623SOL     OW26767   0.044   3.649   2.856
 8623SOL    HW126768   0.083   3.740   2.853
 8623SOL    HW226769   6.978   3.648   2.805
 8624SOL     OW26770   0.475   4.205   2.990
 8624SOL    HW126771   0.434   4.119   3.021
 8624SOL    HW226772   0.423   4.240   2.912
 8625SOL     OW26773   3.687   0.302   4.602
 8625SOL    HW126774   3.749   0.369   4.560
 8625SOL    HW226775   3.593   0.325   4.578
 8626SOL     OW26776   2.891   3.596   3.263
 8626SOL    HW126777   2.902   3.497   3.256
 8626SOL    HW226778   2.867   3.634   3.174
 8627SOL     OW26779   1.794   0.184   0.163
 8627SOL    HW126780   1.791   0.090   0.197
 8627SOL    HW226781   1.700   0.217   0.150
 8628SOL     OW26782   5.317   0.773   6.755
 8628SOL    HW126783   5.227   0.793   6.794
 8628SOL    HW226784   5.387   0.786   6.825
 8629SOL     OW26785   1.541   3.945   3.817
 8629SOL    HW126786   1.537   4.031   3.867
 8629SOL    HW226787   1.616   3.889   3.851
 8630SOL     OW26788   5.560   4.827   3.722
 8630SOL    HW126789   5.640   4.808   3.779
 8630SOL    HW226790   5.487   4.764   3.746
 8631SOL     OW26791   3.724   5.708   5.373
 8631SOL    HW126792   3.647   5.663   5.328
 8631SOL    HW226793   3.729   5.804   5.343
 8632SOL     OW26794   4.079   0.022   3.417
 8632SOL    HW126795   4.140   0.019   3.496
 8632SOL    HW226796   4.025   6.958   3.414
 8633SOL     OW26797   6.347   1.052   3.703
 8633SOL    HW126798   6.248   1.068   3.709
 8633SOL    HW226799   6.389   1.071   3.791
 8634SOL     OW26800   6.460   5.213   2.031
 8634SOL    HW126801   6.451   5.194   2.129
 8634SOL    HW226802   6.542   5.268   2.015
 8635SOL     OW26803   6.047   3.629   5.432
 8635SOL    HW126804   5.990   3.685   5.373
 8635SOL    HW226805   6.025   3.532   5.419
 8636SOL     OW26806   6.440   5.774   0.913
 8636SOL    HW126807   6.444   5.844   0.984
 8636SOL    HW226808   6.354   5.782   0.862
 8637SOL     OW26809   2.230   0.720   0.982
 8637SOL    HW126810   2.319   0.747   0.945
 8637SOL    HW226811   2.229   0.737   1.081
 8638SOL     OW26812   3.389   4.890   0.347
 8638SOL    HW126813   3.419   4.983   0.329
 8638SOL    HW226814   3.304   4.872   0.298
 8639SOL     OW26815   6.366   3.787   1.751
 8639SOL    HW126816   6.437   3.722   1.779
 8639SOL    HW226817   6.300   3.798   1.826
 8640SOL     OW26818   4.941   5.450   1.049
 8640SOL    HW126819   4.927   5.548   1.065
 8640SOL    HW226820   4.977   5.436   0.956
 8641SOL     OW26821   5.970   4.281   3.130
 8641SOL    HW126822   5.995   4.296   3.034
 8641SOL    HW226823   5.876   4.249   3.135
 8642SOL     OW26824   4.138   1.582   1.602
 8642SOL    HW126825   4.216   1.541   1.648
 8642SOL    HW226826   4.167   1.661   1.549
 8643SOL     OW26827   5.142   0.266   5.930
 8643SOL    HW126828   5.154   0.353   5.882
 8643SOL    HW226829   5.093   0.202   5.871
 8644SOL     OW26830   6.483   3.281   5.133
 8644SOL    HW126831   6.568   3.279   5.187
 8644SOL    HW226832   6.405   3.278   5.195
 8645SOL     OW26833   6.059   4.826   1.652
 8645SOL    HW126834   6.033   4.783   1.565
 8645SOL    HW226835   6.128   4.770   1.697
 8646SOL     OW26836   5.367   0.941   0.543
 8646SOL    HW126837   5.382   1.038   0.562
 8646SOL    HW226838   5.399   0.887   0.620
 8647SOL     OW26839   4.325   5.275   0.359
 8647SOL    HW126840   4.236   5.231   0.370
 8647SOL    HW226841   4.360   5.303   0.448
 8648SOL     OW26842   5.331   1.219   3.995
 8648SOL    HW126843   5.415   1.174   3.966
 8648SOL    HW226844   5.276   1.243   3.915
 8649SOL     OW26845   6.348   4.473   5.677
 8649SOL    HW126846   6.410   4.551   5.688
 8649SOL    HW226847   6.372   4.424   5.593
 8650SOL     OW26848   1.963   4.754   3.145
 8650SOL    HW126849   2.041   4.716   3.195
 8650SOL    HW226850   1.995   4.796   3.060
 8651SOL     OW26851   3.236   1.162   0.300
 8651SOL    HW126852   3.238   1.260   0.282
 8651SOL    HW226853   3.188   1.145   0.387
 8652SOL     OW26854   1.907   3.540   3.484
 8652SOL    HW126855   1.920   3.568   3.390
 8652SOL    HW226856   1.887   3.620   3.541
 8653SOL     OW26857   0.354   3.087   0.091
 8653SOL    HW126858   0.338   3.012   0.156
 8653SOL    HW226859   0.267   3.133   0.072
 8654SOL     OW26860   0.669   0.177   3.161
 8654SOL    HW126861   0.573   0.197   3.140
 8654SOL    HW226862   0.684   0.186   3.259
 8655SOL     OW26863   6.154   6.167   4.607
 8655SOL    HW126864   6.161   6.197   4.702
 8655SOL    HW226865   6.082   6.098   4.599
 8656SOL     OW26866   6.136   1.327   0.908
 8656SOL    HW126867   6.172   1.420   0.912
 8656SOL    HW226868   6.192   1.267   0.964
 8657SOL     OW26869   4.035   4.073   6.731
 8657SOL    HW126870   3.969   4.076   6.807
 8657SOL    HW226871   4.028   4.157   6.678
 8658SOL     OW26872   6.080   5.398   6.652
 8658SOL    HW126873   6.034   5.477   6.612
 8658SOL    HW226874   6.014   5.343   6.703
 8659SOL     OW26875   5.481   0.596   4.307
 8659SOL    HW126876   5.474   0.678   4.250
 8659SOL    HW226877   5.547   0.533   4.267
 8660SOL     OW26878   5.797   4.088   1.262
 8660SOL    HW126879   5.708   4.042   1.258
 8660SOL    HW226880   5.817   4.129   1.172
 8661SOL     OW26881   6.992   3.932   1.366
 8661SOL    HW126882   6.945   3.845   1.381
 8661SOL    HW226883   0.048   3.940   1.431
 8662SOL     OW26884   6.945   6.795   0.925
 8662SOL    HW126885   6.912   6.880   0.965
 8662SOL    HW226886   6.992   6.815   0.839
 8663SOL     OW26887   2.294   5.217   0.517
 8663SOL    HW126888   2.242   5.231   0.601
 8663SOL    HW226889   2.392   5.217   0.537
 8664SOL     OW26890   4.536   5.855   6.976
 8664SOL    HW126891   4.543   5.951   7.002
 8664SOL    HW226892   4.607   5.833   6.909
 8665SOL     OW26893   5.124   5.638   5.718
 8665SOL    HW126894   5.100   5.726   5.679
 8665SOL    HW226895   5.165   5.580   5.647
 8666SOL     OW26896   5.204   2.425   4.602
 8666SOL    HW126897   5.237   2.519   4.597
 8666SOL    HW226898   5.172   2.405   4.695
 8667SOL     OW26899   5.044   1.353   4.333
 8667SOL    HW126900   5.124   1.365   4.273
 8667SOL    HW226901   4.982   1.286   4.293
 8668SOL     OW26902   3.848   2.111   4.522
 8668SOL    HW126903   3.897   2.157   4.448
 8668SOL    HW226904   3.904   2.038   4.559
 8669SOL     OW26905   4.173   0.522   5.550
 8669SOL    HW126906   4.123   0.545   5.633
 8669SOL    HW226907   4.159   0.594   5.482
 8670SOL     OW26908   3.805   5.516   4.335
 8670SOL    HW126909   3.778   5.440   4.394
 8670SOL    HW226910   3.811   5.485   4.240
 8671SOL     OW26911   5.954   7.008   3.643
 8671SOL    HW126912   5.923   6.930   3.697
 8671SOL    HW226913   6.045   6.989   3.606
 8672SOL     OW26914   4.033   4.898   4.363
 8672SOL    HW126915   4.032   4.830   4.436
 8672SOL    HW226916   4.073   4.858   4.280
 8673SOL     OW26917   6.059   1.985   0.583
 8673SOL    HW126918   6.091   2.079   0.589
 8673SOL    HW226919   6.000   1.965   0.662
 8674SOL     OW26920   6.829   0.012   2.868
 8674SOL    HW126921   6.924   0.014   2.900
 8674SOL    HW226922   6.782   6.955   2.911
 8675SOL     OW26923   1.920   1.207   2.803
 8675SOL    HW126924   1.964   1.167   2.722
 8675SOL    HW226925   1.989   1.250   2.860
 8676SOL     OW26926   4.604   6.854   2.694
 8676SOL    HW126927   4.626   6.757   2.706
 8676SOL    HW226928   4.511   6.871   2.725
 8677SOL     OW26929   2.613   4.853   5.668
 8677SOL    HW126930   2.576   4.786   5.733
 8677SOL    HW226931   2.582   4.831   5.576
 8678SOL     OW26932   1.105   6.955   6.759
 8678SOL    HW126933   1.069   6.906   6.680
 8678SOL    HW226934   1.124   0.030   6.733
 8679SOL     OW26935   6.559   2.557   5.242
 8679SOL    HW126936   6.564   2.623   5.317
 8679SOL    HW226937   6.465   2.554   5.207
 8680SOL     OW26938   1.496   3.845   6.894
 8680SOL    HW126939   1.434   3.922   6.909
 8680SOL    HW226940   1.504   3.827   6.796
 8681SOL     OW26941   3.520   4.017   0.704
 8681SOL    HW126942   3.610   4.060   0.710
 8681SOL    HW226943   3.453   4.074   0.750
 8682SOL     OW26944   2.547   6.281   3.082
 8682SOL    HW126945   2.572   6.373   3.113
 8682SOL    HW226946   2.629   6.224   3.077
 8683SOL     OW26947   6.766   3.184   0.709
 8683SOL    HW126948   6.862   3.184   0.735
 8683SOL    HW226949   6.757   3.161   0.612
 8684SOL     OW26950   5.924   3.582   4.681
 8684SOL    HW126951   6.013   3.555   4.644
 8684SOL    HW226952   5.860   3.600   4.606
 8685SOL     OW26953   0.649   2.413   6.068
 8685SOL    HW126954   0.615   2.375   5.982
 8685SOL    HW226955   0.728   2.359   6.098
 8686SOL     OW26956   6.911   2.015   3.140
 8686SOL    HW126957   6.912   2.114   3.149
 8686SOL    HW226958   6.860   1.989   3.057
 8687SOL     OW26959   3.590   7.002   2.790
 8687SOL    HW126960   3.626   0.046   2.857
 8687SOL    HW226961   3.536   0.032   2.722
 8688SOL     OW26962   2.470   0.425   1.578
 8688SOL    HW126963   2.442   0.451   1.671
 8688SOL    HW226964   2.394   0.376   1.534
 8689SOL     OW26965   4.866   5.896   0.065
 8689SOL    HW126966   4.825   5.906   6.995
 8689SOL    HW226967   4.800   5.854   0.127
 8690SOL     OW26968   0.398   1.202   3.038
 8690SOL    HW126969   0.472   1.217   2.973
 8690SOL    HW226970   0.434   1.203   3.131
 8691SOL     OW26971   5.463   2.148   0.034
 8691SOL    HW126972   5.434   2.181   6.964
 8691SOL    HW226973   5.416   2.062   0.054
 8692SOL     OW26974   2.450   1.575   4.000
 8692SOL    HW126975   2.398   1.659   4.019
 8692SOL    HW226976   2.388   1.503   3.972
 8693SOL     OW26977   5.694   1.941   1.060
 8693SOL    HW126978   5.625   1.980   1.121
 8693SOL    HW226979   5.654   1.929   0.969
 8694SOL     OW26980   4.793   6.910   5.965
 8694SOL    HW126981   4.811   6.967   6.045
 8694SOL    HW226982   4.695   6.909   5.945
 8695SOL     OW26983   4.807   4.165   5.791
 8695SOL    HW126984   4.906   4.181   5.792
 8695SOL    HW226985   4.762   4.229   5.853
 8696SOL     OW26986   2.521   5.815   1.409
 8696SOL    HW126987   2.437   5.763   1.394
 8696SOL    HW226988   2.598   5.767   1.367
 8697SOL     OW26989   6.438   4.061   0.335
 8697SOL    HW126990   6.425   4.004   0.416
 8697SOL    HW226991   6.411   4.155   0.355
 8698SOL     OW26992   5.445   6.070   4.462
 8698SOL    HW126993   5.376   6.113   4.405
 8698SOL    HW226994   5.514   6.026   4.404
 8699SOL     OW26995   1.436   1.756   5.548
 8699SOL    HW126996   1.450   1.772   5.451
 8699SOL    HW226997   1.361   1.692   5.561
 8700SOL     OW26998   3.118   1.267   5.341
 8700SOL    HW126999   3.064   1.350   5.355
 8700SOL    HW227000   3.203   1.274   5.392
 8701SOL     OW27001   0.617   1.662   4.835
 8701SOL    HW127002   0.685   1.735   4.838
 8701SOL    HW227003   0.660   1.575   4.857
 8702SOL     OW27004   5.531   5.442   0.167
 8702SOL    HW127005   5.519   5.380   0.244
 8702SOL    HW227006   5.480   5.406   0.088
 8703SOL     OW27007   2.590   5.705   0.769
 8703SOL    HW127008   2.601   5.713   0.670
 8703SOL    HW227009   2.496   5.726   0.794
 8704SOL     OW27010   0.265   4.488   2.147
 8704SOL    HW127011   0.345   4.429   2.149
 8704SOL    HW227012   0.186   4.439   2.186
 8705SOL     OW27013   5.010   0.267   6.175
 8705SOL    HW127014   5.069   0.281   6.096
 8705SOL    HW227015   5.010   0.349   6.232
 8706SOL     OW27016   5.287   1.993   0.219
 8706SOL    HW127017   5.208   1.953   0.172
 8706SOL    HW227018   5.278   1.979   0.317
 8707SOL     OW27019   4.977   2.733   6.197
 8707SOL    HW127020   4.941   2.816   6.156
 8707SOL    HW227021   5.058   2.703   6.147
 8708SOL     OW27022   4.050   1.345   1.050
 8708SOL    HW127023   4.041   1.297   0.963
 8708SOL    HW227024   4.147   1.362   1.069
 8709SOL     OW27025   6.473   4.256   0.728
 8709SOL    HW127026   6.567   4.269   0.760
 8709SOL    HW227027   6.437   4.170   0.765
 8710SOL     OW27028   2.089   3.411   3.290
 8710SOL    HW127029   2.065   3.326   3.243
 8710SOL    HW227030   2.034   3.421   3.372
 8711SOL     OW27031   6.839   0.858   3.028
 8711SOL    HW127032   6.768   0.822   2.969
 8711SOL    HW227033   6.807   0.943   3.071
 8712SOL     OW27034   3.656   1.392   5.113
 8712SOL    HW127035   3.691   1.439   5.032
 8712SOL    HW227036   3.725   1.330   5.149
 8713SOL     OW27037   6.681   4.728   4.078
 8713SOL    HW127038   6.689   4.814   4.027
 8713SOL    HW227039   6.659   4.654   4.015
 8714SOL     OW27040   1.657   0.809   5.524
 8714SOL    HW127041   1.624   0.736   5.464
 8714SOL    HW227042   1.611   0.803   5.613
 8715SOL     OW27043   6.278   2.055   1.567
 8715SOL    HW127044   6.190   2.082   1.607
 8715SOL    HW227045   6.345   2.041   1.640
 8716SOL     OW27046   1.251   1.473   1.481
 8716SOL    HW127047   1.201   1.525   1.551
 8716SOL    HW227048   1.198   1.475   1.396
 8717SOL     OW27049   4.210   3.608   1.772
 8717SOL    HW127050   4.264   3.668   1.712
 8717SOL    HW227051   4.181   3.659   1.853
 8718SOL     OW27052   6.553   3.005   5.239
 8718SOL    HW127053   6.484   3.073   5.211
 8718SOL    HW227054   6.642   3.032   5.205
 8719SOL     OW27055   0.735   0.276   5.142
 8719SOL    HW127056   0.756   0.209   5.213
 8719SOL    HW227057   0.788   0.254   5.060
 8720SOL     OW27058   5.745   4.545   5.471
 8720SOL    HW127059   5.720   4.547   5.374
 8720SOL    HW227060   5.772   4.453   5.497
 8721SOL     OW27061   6.836   2.213   4.469
 8721SOL    HW127062   6.793   2.249   4.552
 8721SOL    HW227063   6.927   2.178   4.491
 8722SOL     OW27064   3.714   2.482   0.581
 8722SOL    HW127065   3.630   2.455   0.628
 8722SOL    HW227066   3.781   2.514   0.648
 8723SOL     OW27067   6.749   5.610   1.333
 8723SOL    HW127068   6.728   5.704   1.360
 8723SOL    HW227069   6.698   5.586   1.250
 8724SOL     OW27070   5.667   0.286   5.589
 8724SOL    HW127071   5.758   0.246   5.579
 8724SOL    HW227072   5.605   0.245   5.523
 8725SOL     OW27073   2.126   6.611   0.271
 8725SOL    HW127074   2.072   6.557   0.336
 8725SOL    HW227075   2.217   6.570   0.262
 8726SOL     OW27076   5.931   0.446   1.552
 8726SOL    HW127077   5.956   0.543   1.550
 8726SOL    HW227078   5.884   0.422   1.467
 8727SOL     OW27079   6.522   6.460   1.561
 8727SOL    HW127080   6.614   6.421   1.551
 8727SOL    HW227081   6.523   6.555   1.531
 8728SOL     OW27082   2.925   6.710   4.969
 8728SOL    HW127083   3.022   6.704   4.992
 8728SOL    HW227084   2.887   6.794   5.008
 8729SOL     OW27085   4.676   5.852   3.552
 8729SOL    HW127086   4.711   5.804   3.471
 8729SOL    HW227087   4.590   5.809   3.581
 8730SOL     OW27088   0.097   6.026   2.058
 8730SOL    HW127089   0.120   5.943   2.108
 8730SOL    HW227090   0.177   6.086   2.054
 8731SOL     OW27091   1.261   1.817   2.924
 8731SOL    HW127092   1.316   1.889   2.968
 8731SOL    HW227093   1.169   1.818   2.962
 8732SOL     OW27094   5.699   3.803   1.581
 8732SOL    HW127095   5.738   3.800   1.489
 8732SOL    HW227096   5.674   3.710   1.609
 8733SOL     OW27097   1.021   6.312   1.520
 8733SOL    HW127098   1.028   6.410   1.540
 8733SOL    HW227099   1.033   6.297   1.422
 8734SOL     OW27100   0.165   6.325   1.160
 8734SOL    HW127101   0.186   6.273   1.077
 8734SOL    HW227102   0.106   6.403   1.136
 8735SOL     OW27103   6.993   2.038   6.605
 8735SOL    HW127104   0.058   2.065   6.559
 8735SOL    HW227105   6.978   1.940   6.593
 8736SOL     OW27106   0.859   4.885   6.555
 8736SOL    HW127107   0.873   4.907   6.458
 8736SOL    HW227108   0.827   4.966   6.603
 8737SOL     OW27109   3.574   5.866   6.374
 8737SOL    HW127110   3.544   5.770   6.377
 8737SOL    HW227111   3.578   5.897   6.279
 8738SOL     OW27112   1.311   3.287   3.713
 8738SOL    HW127113   1.395   3.240   3.741
 8738SOL    HW227114   1.246   3.287   3.789
 8739SOL     OW27115   0.191   3.645   5.423
 8739SOL    HW127116   0.105   3.687   5.450
 8739SOL    HW227117   0.208   3.563   5.478
 8740SOL     OW27118   3.075   6.460   0.330
 8740SOL    HW127119   3.141   6.386   0.318
 8740SOL    HW227120   3.124   6.548   0.332
 8741SOL     OW27121   1.613   3.310   2.604
 8741SOL    HW127122   1.636   3.390   2.658
 8741SOL    HW227123   1.675   3.303   2.526
 8742SOL     OW27124   4.314   0.227   1.405
 8742SOL    HW127125   4.231   0.219   1.461
 8742SOL    HW227126   4.312   0.158   1.333
 8743SOL     OW27127   2.766   5.393   2.603
 8743SOL    HW127128   2.717   5.452   2.667
 8743SOL    HW227129   2.802   5.448   2.528
 8744SOL     OW27130   4.116   2.399   6.195
 8744SOL    HW127131   4.149   2.494   6.195
 8744SOL    HW227132   4.084   2.374   6.286
 8745SOL     OW27133   6.158   2.489   5.897
 8745SOL    HW127134   6.159   2.406   5.952
 8745SOL    HW227135   6.251   2.528   5.895
 8746SOL     OW27136   5.052   4.776   5.675
 8746SOL    HW127137   5.085   4.682   5.680
 8746SOL    HW227138   5.107   4.834   5.735
 8747SOL     OW27139   1.723   2.406   4.096
 8747SOL    HW127140   1.782   2.395   4.015
 8747SOL    HW227141   1.642   2.458   4.071
 8748SOL     OW27142   1.515   0.457   6.776
 8748SOL    HW127143   1.453   0.524   6.816
 8748SOL    HW227144   1.560   0.498   6.696
 8749SOL     OW27145   4.350   0.476   3.371
 8749SOL    HW127146   4.266   0.504   3.326
 8749SOL    HW227147   4.353   0.516   3.463
 8750SOL     OW27148   2.058   1.727   5.061
 8750SOL    HW127149   2.081   1.688   4.972
 8750SOL    HW227150   1.969   1.694   5.090
 8751SOL     OW27151   1.405   0.055   2.630
 8751SOL    HW127152   1.428   6.997   2.572
 8751SOL    HW227153   1.479   0.123   2.625
 8752SOL     OW27154   1.579   2.639   6.244
 8752SOL    HW127155   1.604   2.660   6.149
 8752SOL    HW227156   1.660   2.608   6.293
 8753SOL     OW27157   5.024   1.675   4.674
 8753SOL    HW127158   5.026   1.651   4.578
 8753SOL    HW227159   5.118   1.677   4.710
 8754SOL     OW27160   1.752   1.881   5.911
 8754SOL    HW127161   1.684   1.891   5.838
 8754SOL    HW227162   1.835   1.839   5.874
 8755SOL     OW27163   2.293   1.440   0.512
 8755SOL    HW127164   2.393   1.442   0.514
 8755SOL    HW227165   2.259   1.413   0.602
 8756SOL     OW27166   2.192   3.039   4.153
 8756SOL    HW127167   2.180   2.941   4.164
 8756SOL    HW227168   2.224   3.059   4.060
 8757SOL     OW27169   4.505   6.260   4.686
 8757SOL    HW127170   4.527   6.173   4.731
 8757SOL    HW227171   4.406   6.265   4.671
 8758SOL     OW27172   6.190   6.881   1.422
 8758SOL    HW127173   6.261   6.811   1.430
 8758SOL    HW227174   6.190   6.918   1.329
 8759SOL     OW27175   5.107   0.671   5.715
 8759SOL    HW127176   5.169   0.598   5.745
 8759SOL    HW227177   5.090   0.662   5.617
 8760SOL     OW27178   1.675   1.779   3.933
 8760SOL    HW127179   1.704   1.691   3.969
 8760SOL    HW227180   1.604   1.818   3.992
 8761SOL     OW27181   4.369   6.867   6.991
 8761SOL    HW127182   4.285   6.893   0.017
 8761SOL    HW227183   4.413   6.948   6.952
 8762SOL     OW27184   1.088   4.189   1.161
 8762SOL    HW127185   1.079   4.203   1.063
 8762SOL    HW227186   1.055   4.270   1.210
 8763SOL     OW27187   0.298   6.390   6.156
 8763SOL    HW127188   0.320   6.483   6.185
 8763SOL    HW227189   0.267   6.337   6.235
 8764SOL     OW27190   4.221   1.768   4.862
 8764SOL    HW127191   4.218   1.773   4.962
 8764SOL    HW227192   4.308   1.726   4.833
 8765SOL     OW27193   5.767   0.320   4.442
 8765SOL    HW127194   5.698   0.267   4.491
 8765SOL    HW227195   5.724   0.403   4.405
 8766SOL     OW27196   1.926   4.828   2.604
 8766SOL    HW127197   1.957   4.735   2.620
 8766SOL    HW227198   1.995   4.877   2.551
 8767SOL     OW27199   4.366   0.641   3.565
 8767SOL    HW127200   4.414   0.587   3.634
 8767SOL    HW227201   4.325   0.721   3.609
 8768SOL     OW27202   1.920   3.194   0.084
 8768SOL    HW127203   1.898   3.112   0.136
 8768SOL    HW227204   1.886   3.183   7.010
 8769SOL     OW27205   2.078   6.943   5.840
 8769SOL    HW127206   2.058   7.016   5.905
 8769SOL    HW227207   2.000   6.933   5.777
 8770SOL     OW27208   5.314   3.204   1.345
 8770SOL    HW127209   5.304   3.282   1.406
 8770SOL    HW227210   5.223   3.175   1.314
 8771SOL     OW27211   1.101   1.612   6.294
 8771SOL    HW127212   1.181   1.634   6.237
 8771SOL    HW227213   1.068   1.521   6.270
 8772SOL     OW27214   5.722   1.267   6.706
 8772SOL    HW127215   5.785   1.311   6.770
 8772SOL    HW227216   5.706   1.327   6.628
 8773SOL     OW27217   2.607   2.473   2.936
 8773SOL    HW127218   2.574   2.485   3.030
 8773SOL    HW227219   2.551   2.527   2.874
 8774SOL     OW27220   1.461   1.242   1.006
 8774SOL    HW127221   1.443   1.225   1.102
 8774SOL    HW227222   1.558   1.263   0.993
 8775SOL     OW27223   6.539   0.217   3.579
 8775SOL    HW127224   6.593   0.210   3.663
 8775SOL    HW227225   6.443   0.233   3.603
 8776SOL     OW27226   3.507   2.965   5.186
 8776SOL    HW127227   3.433   3.032   5.190
 8776SOL    HW227228   3.480   2.881   5.232
 8777SOL     OW27229   6.351   6.237   1.642
 8777SOL    HW127230   6.412   6.315   1.626
 8777SOL    HW227231   6.258   6.269   1.657
 8778SOL     OW27232   0.446   2.311   3.881
 8778SOL    HW127233   0.512   2.265   3.941
 8778SOL    HW227234   0.358   2.318   3.928
 8779SOL     OW27235   0.628   5.161   0.753
 8779SOL    HW127236   0.683   5.215   0.817
 8779SOL    HW227237   0.537   5.148   0.791
 8780SOL     OW27238   1.024   5.674   4.331
 8780SOL    HW127239   0.962   5.598   4.312
 8780SOL    HW227240   1.119   5.642   4.329
 8781SOL     OW27241   0.756   1.970   2.659
 8781SOL    HW127242   0.788   2.053   2.705
 8781SOL    HW227243   0.697   1.995   2.582
 8782SOL     OW27244   4.571   1.324   3.282
 8782SOL    HW127245   4.576   1.363   3.375
 8782SOL    HW227246   4.639   1.368   3.224
 8783SOL     OW27247   5.786   3.657   4.429
 8783SOL    HW127248   5.728   3.576   4.419
 8783SOL    HW227249   5.728   3.739   4.435
 8784SOL     OW27250   5.159   5.102   5.538
 8784SOL    HW127251   5.135   5.081   5.443
 8784SOL    HW227252   5.183   5.199   5.546
 8785SOL     OW27253   6.117   4.677   6.610
 8785SOL    HW127254   6.181   4.729   6.666
 8785SOL    HW227255   6.066   4.740   6.550
 8786SOL     OW27256   2.062   6.906   0.299
 8786SOL    HW127257   2.084   6.809   0.311
 8786SOL    HW227258   1.967   6.922   0.326
 8787SOL     OW27259   1.471   3.725   0.876
 8787SOL    HW127260   1.476   3.705   0.778
 8787SOL    HW227261   1.474   3.824   0.890
 8788SOL     OW27262   1.183   1.605   5.565
 8788SOL    HW127263   1.108   1.671   5.567
 8788SOL    HW227264   1.150   1.519   5.526
 8789SOL     OW27265   6.706   0.796   6.674
 8789SOL    HW127266   6.754   0.713   6.645
 8789SOL    HW227267   6.616   0.801   6.631
 8790SOL     OW27268   5.744   1.728   6.817
 8790SOL    HW127269   5.669   1.697   6.876
 8790SOL    HW227270   5.750   1.828   6.819
 8791SOL     OW27271   4.697   6.514   5.691
 8791SOL    HW127272   4.687   6.598   5.638
 8791SOL    HW227273   4.725   6.536   5.784
 8792SOL     OW27274   5.196   0.285   2.796
 8792SOL    HW127275   5.263   0.294   2.723
 8792SOL    HW227276   5.149   0.372   2.809
 8793SOL     OW27277   1.519   5.877   3.686
 8793SOL    HW127278   1.577   5.796   3.698
 8793SOL    HW227279   1.554   5.952   3.743
 8794SOL     OW27280   1.812   0.147   2.141
 8794SOL    HW127281   1.858   0.154   2.052
 8794SOL    HW227282   1.715   0.170   2.130
 8795SOL     OW27283   1.786   5.933   5.679
 8795SOL    HW127284   1.784   6.011   5.741
 8795SOL    HW227285   1.704   5.932   5.623
 8796SOL     OW27286   4.502   2.238   5.605
 8796SOL    HW127287   4.477   2.172   5.676
 8796SOL    HW227288   4.421   2.289   5.576
 8797SOL     OW27289   0.396   6.903   6.998
 8797SOL    HW127290   0.327   6.839   0.012
 8797SOL    HW227291   0.401   6.896   6.898
 8798SOL     OW27292   5.062   3.774   5.372
 8798SOL    HW127293   5.064   3.820   5.461
 8798SOL    HW227294   4.969   3.777   5.336
 8799SOL     OW27295   2.890   5.192   3.342
 8799SOL    HW127296   2.900   5.279   3.390
 8799SOL    HW227297   2.972   5.136   3.357
 8800SOL     OW27298   4.482   4.924   7.006
 8800SOL    HW127299   4.460   4.835   6.966
 8800SOL    HW227300   4.397   4.969   0.015
 8801SOL     OW27301   2.799   1.129   4.829
 8801SOL    HW127302   2.778   1.216   4.785
 8801SOL    HW227303   2.715   1.090   4.868
 8802SOL     OW27304   2.883   6.216   2.410
 8802SOL    HW127305   2.817   6.140   2.409
 8802SOL    HW227306   2.847   6.291   2.465
 8803SOL     OW27307   3.046   5.150   0.254
 8803SOL    HW127308   3.012   5.152   0.348
 8803SOL    HW227309   2.976   5.188   0.193
 8804SOL     OW27310   4.882   0.542   1.024
 8804SOL    HW127311   4.787   0.515   1.039
 8804SOL    HW227312   4.888   0.604   0.946
 8805SOL     OW27313   0.511   0.482   3.103
 8805SOL    HW127314   0.414   0.504   3.098
 8805SOL    HW227315   0.527   0.390   3.067
 8806SOL     OW27316   1.781   4.741   6.811
 8806SOL    HW127317   1.880   4.728   6.805
 8806SOL    HW227318   1.739   4.661   6.855
 8807SOL     OW27319   1.017   6.101   6.038
 8807SOL    HW127320   1.069   6.118   5.954
 8807SOL    HW227321   0.927   6.144   6.031
 8808SOL     OW27322   5.119   1.480   1.159
 8808SOL    HW127323   5.097   1.513   1.250
 8808SOL    HW227324   5.218   1.473   1.149
 8809SOL     OW27325   5.977   4.149   1.451
 8809SOL    HW127326   5.930   4.151   1.363
 8809SOL    HW227327   5.909   4.142   1.525
 8810SOL     OW27328   3.860   1.275   4.212
 8810SOL    HW127329   3.778   1.225   4.184
 8810SOL    HW227330   3.841   1.373   4.209
 8811SOL     OW27331   1.339   1.323   2.699
 8811SOL    HW127332   1.410   1.372   2.648
 8811SOL    HW227333   1.251   1.369   2.688
 8812SOL     OW27334   1.935   0.952   0.819
 8812SOL    HW127335   1.901   0.952   0.913
 8812SOL    HW227336   1.964   1.045   0.795
 8813SOL     OW27337   2.234   6.355   1.863
 8813SOL    HW127338   2.200   6.362   1.769
 8813SOL    HW227339   2.212   6.439   1.912
 8814SOL     OW27340   6.359   0.966   6.079
 8814SOL    HW127341   6.354   0.880   6.029
 8814SOL    HW227342   6.299   0.962   6.159
 8815SOL     OW27343   0.234   6.511   2.560
 8815SOL    HW127344   0.198   6.429   2.604
 8815SOL    HW227345   0.218   6.590   2.619
 8816SOL     OW27346   1.199   5.957   1.473
 8816SOL    HW127347   1.114   5.985   1.518
 8816SOL    HW227348   1.256   5.907   1.538
 8817SOL     OW27349   1.161   5.039   5.283
 8817SOL    HW127350   1.134   4.957   5.335
 8817SOL    HW227351   1.103   5.116   5.310
 8818SOL     OW27352   0.319   5.674   4.185
 8818SOL    HW127353   0.337   5.742   4.256
 8818SOL    HW227354   0.249   5.709   4.122
 8819SOL     OW27355   4.272   6.591   4.576
 8819SOL    HW127356   4.216   6.511   4.596
 8819SOL    HW227357   4.269   6.610   4.478
 8820SOL     OW27358   1.261   2.036   3.753
 8820SOL    HW127359   1.182   2.051   3.694
 8820SOL    HW227360   1.232   2.033   3.848
 8821SOL     OW27361   2.168   0.807   6.614
 8821SOL    HW127362   2.233   0.857   6.671
 8821SOL    HW227363   2.217   0.738   6.560
 8822SOL     OW27364   0.490   2.129   3.691
 8822SOL    HW127365   0.410   2.088   3.646
 8822SOL    HW227366   0.460   2.200   3.755
 8823SOL     OW27367   1.789   5.939   1.372
 8823SOL    HW127368   1.863   6.005   1.370
 8823SOL    HW227369   1.809   5.868   1.440
 8824SOL     OW27370   3.481   3.811   1.144
 8824SOL    HW127371   3.526   3.898   1.166
 8824SOL    HW227372   3.485   3.796   1.045
 8825SOL     OW27373   0.951   1.347   2.189
 8825SOL    HW127374   0.852   1.343   2.193
 8825SOL    HW227375   0.987   1.266   2.142
 8826SOL     OW27376   5.042   1.928   6.668
 8826SOL    HW127377   5.021   2.018   6.631
 8826SOL    HW227378   5.014   1.857   6.603
 8827SOL     OW27379   1.313   1.548   3.612
 8827SOL    HW127380   1.386   1.490   3.649
 8827SOL    HW227381   1.350   1.637   3.588
 8828SOL     OW27382   2.774   0.137   2.822
 8828SOL    HW127383   2.752   0.049   2.865
 8828SOL    HW227384   2.854   0.126   2.763
 8829SOL     OW27385   6.783   2.035   0.456
 8829SOL    HW127386   6.785   2.109   0.389
 8829SOL    HW227387   6.863   2.042   0.516
 8830SOL     OW27388   0.535   1.848   0.681
 8830SOL    HW127389   0.584   1.846   0.768
 8830SOL    HW227390   0.600   1.865   0.607
 8831SOL     OW27391   6.820   0.629   2.665
 8831SOL    HW127392   6.787   0.598   2.576
 8831SOL    HW227393   6.806   0.728   2.672
 8832SOL     OW27394   6.377   0.778   2.589
 8832SOL    HW127395   6.392   0.743   2.497
 8832SOL    HW227396   6.320   0.713   2.640
 8833SOL     OW27397   2.013   4.736   3.674
 8833SOL    HW127398   2.094   4.753   3.618
 8833SOL    HW227399   1.942   4.803   3.650
 8834SOL     OW27400   5.814   3.823   5.324
 8834SOL    HW127401   5.761   3.738   5.327
 8834SOL    HW227402   5.841   3.842   5.230
 8835SOL     OW27403   6.867   6.952   6.020
 8835SOL    HW127404   6.922   0.012   6.042
 8835SOL    HW227405   6.921   6.888   5.966
 8836SOL     OW27406   4.274   1.378   0.134
 8836SOL    HW127407   4.324   1.451   0.087
 8836SOL    HW227408   4.307   1.289   0.102
 8837SOL     OW27409   0.247   1.486   2.050
 8837SOL    HW127410   0.208   1.517   2.136
 8837SOL    HW227411   0.210   1.541   1.975
 8838SOL     OW27412   2.242   5.580   3.546
 8838SOL    HW127413   2.155   5.559   3.590
 8838SOL    HW227414   2.311   5.514   3.577
 8839SOL     OW27415   6.605   6.942   4.002
 8839SOL    HW127416   6.609   6.876   3.927
 8839SOL    HW227417   6.616   6.894   4.089
 8840SOL     OW27418   5.729   2.498   2.198
 8840SOL    HW127419   5.732   2.430   2.271
 8840SOL    HW227420   5.812   2.554   2.200
 8841SOL     OW27421   1.482   1.391   5.371
 8841SOL    HW127422   1.475   1.347   5.282
 8841SOL    HW227423   1.391   1.416   5.403
 8842SOL     OW27424   2.327   2.941   1.827
 8842SOL    HW127425   2.327   3.040   1.823
 8842SOL    HW227426   2.410   2.906   1.783
 8843SOL     OW27427   1.046   3.090   5.253
 8843SOL    HW127428   1.088   3.059   5.338
 8843SOL    HW227429   1.050   3.016   5.185
 8844SOL     OW27430   6.769   1.262   6.252
 8844SOL    HW127431   6.802   1.298   6.339
 8844SOL    HW227432   6.670   1.248   6.257
 8845SOL     OW27433   5.653   4.375   6.962
 8845SOL    HW127434   5.620   4.438   6.892
 8845SOL    HW227435   5.609   4.396   0.029
 8846SOL     OW27436   1.732   4.505   4.064
 8846SOL    HW127437   1.821   4.550   4.064
 8846SOL    HW227438   1.733   4.428   4.128
 8847SOL     OW27439   3.163   0.608   2.354
 8847SOL    HW127440   3.140   0.517   2.320
 8847SOL    HW227441   3.100   0.633   2.428
 8848SOL     OW27442   1.262   0.477   2.928
 8848SOL    HW127443   1.237   0.548   2.863
 8848SOL    HW227444   1.334   0.420   2.889
 8849SOL     OW27445   2.909   6.648   1.170
 8849SOL    HW127446   2.845   6.670   1.243
 8849SOL    HW227447   2.872   6.571   1.116
 8850SOL     OW27448   3.436   2.841   6.656
 8850SOL    HW127449   3.454   2.802   6.746
 8850SOL    HW227450   3.470   2.780   6.585
 8851SOL     OW27451   0.983   3.461   2.854
 8851SOL    HW127452   1.065   3.412   2.885
 8851SOL    HW227453   0.906   3.397   2.853
 8852SOL     OW27454   1.039   1.876   6.155
 8852SOL    HW127455   0.955   1.912   6.115
 8852SOL    HW227456   1.023   1.781   6.185
 8853SOL     OW27457   3.978   0.626   0.439
 8853SOL    HW127458   4.035   0.708   0.431
 8853SOL    HW227459   3.898   0.646   0.495
 8854SOL     OW27460   0.955   3.258   4.797
 8854SOL    HW127461   0.981   3.306   4.713
 8854SOL    HW227462   1.027   3.195   4.824
 8855SOL     OW27463   5.809   5.668   1.083
 8855SOL    HW127464   5.905   5.645   1.096
 8855SOL    HW227465   5.801   5.755   1.034
 8856SOL     OW27466   0.424   6.015   5.788
 8856SOL    HW127467   0.399   5.925   5.754
 8856SOL    HW227468   0.387   6.028   5.880
 8857SOL     OW27469   6.415   1.633   5.400
 8857SOL    HW127470   6.426   1.713   5.460
 8857SOL    HW227471   6.321   1.602   5.403
 8858SOL     OW27472   6.568   5.408   4.531
 8858SOL    HW127473   6.559   5.350   4.450
 8858SOL    HW227474   6.629   5.485   4.510
 8859SOL     OW27475   1.105   0.322   3.566
 8859SOL    HW127476   1.051   0.257   3.512
 8859SOL    HW227477   1.169   0.272   3.624
 8860SOL     OW27478   0.166   3.148   1.938
 8860SOL    HW127479   0.150   3.069   1.997
 8860SOL    HW227480   0.121   3.133   1.849
 8861SOL     OW27481   4.370   2.361   1.593
 8861SOL    HW127482   4.373   2.387   1.690
 8861SOL    HW227483   4.327   2.435   1.541
 8862SOL     OW27484   4.807   4.703   4.890
 8862SOL    HW127485   4.792   4.797   4.858
 8862SOL    HW227486   4.792   4.639   4.815
 8863SOL     OW27487   2.103   4.030   3.489
 8863SOL    HW127488   2.158   4.113   3.501
 8863SOL    HW227489   2.006   4.053   3.496
 8864SOL     OW27490   6.266   1.830   5.052
 8864SOL    HW127491   6.223   1.765   4.988
 8864SOL    HW227492   6.332   1.781   5.109
 8865SOL     OW27493   2.158   1.705   6.601
 8865SOL    HW127494   2.176   1.623   6.654
 8865SOL    HW227495   2.226   1.714   6.528
 8866SOL     OW27496   5.873   6.206   1.844
 8866SOL    HW127497   5.954   6.248   1.802
 8866SOL    HW227498   5.796   6.269   1.835
 8867SOL     OW27499   6.026   4.227   2.837
 8867SOL    HW127500   6.108   4.232   2.893
 8867SOL    HW227501   6.040   4.279   2.753
 8868SOL     OW27502   6.955   3.133   3.459
 8868SOL    HW127503   0.003   3.160   3.527
 8868SOL    HW227504   6.905   3.054   3.493
 8869SOL     OW27505   3.642   0.055   3.278
 8869SOL    HW127506   3.613   6.980   3.282
 8869SOL    HW227507   3.697   0.077   3.359
 8870SOL     OW27508   1.336   0.928   3.543
 8870SOL    HW127509   1.398   0.868   3.493
 8870SOL    HW227510   1.329   0.897   3.638
 8871SOL     OW27511   0.322   0.703   2.580
 8871SOL    HW127512   0.252   0.749   2.525
 8871SOL    HW227513   0.381   0.772   2.623
 8872SOL     OW27514   0.114   5.244   4.812
 8872SOL    HW127515   0.102   5.185   4.733
 8872SOL    HW227516   0.140   5.336   4.782
 8873SOL     OW27517   1.777   1.309   2.537
 8873SOL    HW127518   1.726   1.257   2.469
 8873SOL    HW227519   1.767   1.266   2.627
 8874SOL     OW27520   3.497   6.504   0.563
 8874SOL    HW127521   3.547   6.461   0.488
 8874SOL    HW227522   3.561   6.542   0.629
 8875SOL     OW27523   6.721   3.154   3.721
 8875SOL    HW127524   6.647   3.141   3.654
 8875SOL    HW227525   6.757   3.064   3.747
 8876SOL     OW27526   3.847   1.004   6.276
 8876SOL    HW127527   3.937   1.044   6.288
 8876SOL    HW227528   3.778   1.064   6.316
 8877SOL     OW27529   1.856   4.111   1.114
 8877SOL    HW127530   1.898   4.042   1.056
 8877SOL    HW227531   1.872   4.202   1.075
 8878SOL     OW27532   5.195   3.916   0.905
 8878SOL    HW127533   5.117   3.859   0.879
 8878SOL    HW227534   5.164   3.988   0.968
 8879SOL     OW27535   5.598   4.953   2.985
 8879SOL    HW127536   5.579   5.011   3.064
 8879SOL    HW227537   5.635   4.865   3.016
 8880SOL     OW27538   4.295   0.750   4.192
 8880SOL    HW127539   4.373   0.687   4.195
 8880SOL    HW227540   4.210   0.698   4.198
 8881SOL     OW27541   4.331   4.777   4.539
 8881SOL    HW127542   4.242   4.803   4.577
 8881SOL    HW227543   4.395   4.762   4.614
 8882SOL     OW27544   4.417   0.453   0.541
 8882SOL    HW127545   4.348   0.454   0.613
 8882SOL    HW227546   4.508   0.457   0.582
 8883SOL     OW27547   6.425   6.303   4.677
 8883SOL    HW127548   6.393   6.281   4.585
 8883SOL    HW227549   6.355   6.355   4.725
 8884SOL     OW27550   5.257   3.377   5.150
 8884SOL    HW127551   5.239   3.310   5.222
 8884SOL    HW227552   5.173   3.428   5.129
 8885SOL     OW27553   6.619   5.765   0.699
 8885SOL    HW127554   6.569   5.760   0.613
 8885SOL    HW227555   6.556   5.784   0.774
 8886SOL     OW27556   4.110   5.390   6.077
 8886SOL    HW127557   4.040   5.433   6.135
 8886SOL    HW227558   4.073   5.306   6.037
 8887SOL     OW27559   4.882   1.148   1.295
 8887SOL    HW127560   4.907   1.190   1.382
 8887SOL    HW227561   4.965   1.128   1.243
 8888SOL     OW27562   2.386   2.042   3.033
 8888SOL    HW127563   2.482   2.060   3.052
 8888SOL    HW227564   2.361   1.952   3.069
 8889SOL     OW27565   0.518   5.947   6.545
 8889SOL    HW127566   0.446   5.943   6.476
 8889SOL    HW227567   0.513   5.866   6.604
 8890SOL     OW27568   0.333   6.479   0.244
 8890SOL    HW127569   0.420   6.430   0.238
 8890SOL    HW227570   0.350   6.573   0.272
 8891SOL     OW27571   5.994   3.713   6.831
 8891SOL    HW127572   6.053   3.793   6.820
 8891SOL    HW227573   5.963   3.708   6.926
 8892SOL     OW27574   3.402   5.322   3.882
 8892SOL    HW127575   3.498   5.293   3.890
 8892SOL    HW227576   3.362   5.327   3.973
 8893SOL     OW27577   1.236   5.118   4.675
 8893SOL    HW127578   1.261   5.211   4.703
 8893SOL    HW227579   1.312   5.076   4.626
 8894SOL     OW27580   4.496   1.664   0.548
 8894SOL    HW127581   4.563   1.590   0.539
 8894SOL    HW227582   4.433   1.660   0.470
 8895SOL     OW27583   6.918   3.813   1.095
 8895SOL    HW127584   6.866   3.787   1.176
 8895SOL    HW227585   7.014   3.789   1.108
 8896SOL     OW27586   0.457   2.636   4.871
 8896SOL    HW127587   0.438   2.622   4.774
 8896SOL    HW227588   0.389   2.698   4.909
 8897SOL     OW27589   2.135   3.835   3.680
 8897SOL    HW127590   2.041   3.847   3.710
 8897SOL    HW227591   2.151   3.890   3.598
 8898SOL     OW27592   4.743   4.321   2.743
 8898SOL    HW127593   4.794   4.235   2.744
 8898SOL    HW227594   4.749   4.362   2.652
 8899SOL     OW27595   0.834   3.806   4.824
 8899SOL    HW127596   0.927   3.837   4.843
 8899SOL    HW227597   0.818   3.719   4.871
 8900SOL     OW27598   4.843   2.395   3.938
 8900SOL    HW127599   4.810   2.382   4.031
 8900SOL    HW227600   4.882   2.309   3.904
 8901SOL     OW27601   1.665   3.364   4.649
 8901SOL    HW127602   1.602   3.287   4.657
 8901SOL    HW227603   1.633   3.438   4.708
 8902SOL     OW27604   0.282   4.739   0.724
 8902SOL    HW127605   0.325   4.656   0.688
 8902SOL    HW227606   0.199   4.759   0.671
 8903SOL     OW27607   1.418   6.526   5.389
 8903SOL    HW127608   1.470   6.492   5.467
 8903SOL    HW227609   1.480   6.538   5.311
 8904SOL     OW27610   0.312   0.690   2.913
 8904SOL    HW127611   0.327   0.755   2.987
 8904SOL    HW227612   0.318   0.737   2.825
 8905SOL     OW27613   1.571   4.071   2.217
 8905SOL    HW127614   1.512   4.074   2.297
 8905SOL    HW227615   1.621   3.985   2.216
 8906SOL     OW27616   6.399   0.441   0.910
 8906SOL    HW127617   6.388   0.429   0.811
 8906SOL    HW227618   6.494   0.424   0.935
 8907SOL     OW27619   2.944   3.203   4.839
 8907SOL    HW127620   2.939   3.257   4.755
 8907SOL    HW227621   2.851   3.184   4.872
 8908SOL     OW27622   1.189   5.193   0.307
 8908SOL    HW127623   1.118   5.131   0.343
 8908SOL    HW227624   1.185   5.194   0.208
 8909SOL     OW27625   2.873   0.218   0.377
 8909SOL    HW127626   2.951   0.276   0.403
 8909SOL    HW227627   2.879   0.197   0.279
 8910SOL     OW27628   2.452   0.920   3.807
 8910SOL    HW127629   2.496   0.885   3.724
 8910SOL    HW227630   2.521   0.952   3.871
 8911SOL     OW27631   4.337   2.168   3.856
 8911SOL    HW127632   4.241   2.164   3.829
 8911SOL    HW227633   4.377   2.077   3.848
 8912SOL     OW27634   3.571   3.920   4.455
 8912SOL    HW127635   3.647   3.978   4.484
 8912SOL    HW227636   3.514   3.970   4.390
 8913SOL     OW27637   5.255   6.735   6.402
 8913SOL    HW127638   5.291   6.803   6.467
 8913SOL    HW227639   5.317   6.726   6.325
 8914SOL     OW27640   4.237   5.371   6.744
 8914SOL    HW127641   4.327   5.396   6.708
 8914SOL    HW227642   4.176   5.450   6.740
 8915SOL     OW27643   1.443   1.400   4.151
 8915SOL    HW127644   1.346   1.422   4.145
 8915SOL    HW227645   1.455   1.301   4.160
 8916SOL     OW27646   4.235   1.106   6.966
 8916SOL    HW127647   4.278   1.169   6.902
 8916SOL    HW227648   4.149   1.145   6.999
 8917SOL     OW27649   5.757   1.903   0.531
 8917SOL    HW127650   5.845   1.945   0.552
 8917SOL    HW227651   5.703   1.965   0.474
 8918SOL     OW27652   0.813   3.747   2.662
 8918SOL    HW127653   0.897   3.800   2.678
 8918SOL    HW227654   0.838   3.652   2.644
 8919SOL     OW27655   6.187   3.848   1.083
 8919SOL    HW127656   6.141   3.924   1.036
 8919SOL    HW227657   6.156   3.844   1.178
 8920SOL     OW27658   6.219   1.765   6.967
 8920SOL    HW127659   6.223   1.683   6.910
 8920SOL    HW227660   6.268   1.840   6.922
 8921SOL     OW27661   1.905   2.804   1.744
 8921SOL    HW127662   1.976   2.837   1.682
 8921SOL    HW227663   1.941   2.730   1.800
 8922SOL     OW27664   3.492   6.999   3.611
 8922SOL    HW127665   3.541   7.018   3.696
 8922SOL    HW227666   3.495   0.060   3.553
 8923SOL     OW27667   1.855   2.255   4.924
 8923SOL    HW127668   1.758   2.276   4.940
 8923SOL    HW227669   1.884   2.185   4.989
 8924SOL     OW27670   5.278   5.648   4.931
 8924SOL    HW127671   5.288   5.558   4.889
 8924SOL    HW227672   5.241   5.638   5.023
 8925SOL     OW27673   1.064   6.888   3.319
 8925SOL    HW127674   0.994   6.817   3.316
 8925SOL    HW227675   1.107   6.896   3.229
 8926SOL     OW27676   6.093   2.509   6.365
 8926SOL    HW127677   6.191   2.513   6.342
 8926SOL    HW227678   6.082   2.526   6.463
 8927SOL     OW27679   0.791   0.865   6.120
 8927SOL    HW127680   0.793   0.838   6.217
 8927SOL    HW227681   0.697   0.881   6.092
 8928SOL     OW27682   1.617   6.550   5.191
 8928SOL    HW127683   1.585   6.575   5.099
 8928SOL    HW227684   1.709   6.511   5.185
 8929SOL     OW27685   6.715   2.988   4.759
 8929SOL    HW127686   6.657   2.976   4.679
 8929SOL    HW227687   6.712   3.084   4.788
 8930SOL     OW27688   1.655   4.446   3.335
 8930SOL    HW127689   1.730   4.380   3.327
 8930SOL    HW227690   1.600   4.426   3.416
 8931SOL     OW27691   3.867   2.197   1.320
 8931SOL    HW127692   3.791   2.218   1.382
 8931SOL    HW227693   3.943   2.260   1.338
 8932SOL     OW27694   0.150   3.155   3.620
 8932SOL    HW127695   0.237   3.158   3.570
 8932SOL    HW227696   0.140   3.065   3.663
 8933SOL     OW27697   3.420   1.626   5.624
 8933SOL    HW127698   3.376   1.538   5.643
 8933SOL    HW227699   3.363   1.679   5.561
 8934SOL     OW27700   3.387   5.880   3.417
 8934SOL    HW127701   3.332   5.959   3.390
 8934SOL    HW227702   3.427   5.837   3.336
 8935SOL     OW27703   0.097   4.498   0.873
 8935SOL    HW127704   0.108   4.585   0.826
 8935SOL    HW227705   0.163   4.491   0.948
 8936SOL     OW27706   2.143   2.721   0.464
 8936SOL    HW127707   2.178   2.659   0.535
 8936SOL    HW227708   2.172   2.814   0.485
 8937SOL     OW27709   0.776   6.031   5.661
 8937SOL    HW127710   0.736   5.981   5.584
 8937SOL    HW227711   0.767   5.977   5.745
 8938SOL     OW27712   6.078   5.617   1.204
 8938SOL    HW127713   6.172   5.604   1.237
 8938SOL    HW227714   6.042   5.703   1.240
 8939SOL     OW27715   5.320   2.103   4.790
 8939SOL    HW127716   5.220   2.111   4.796
 8939SOL    HW227717   5.348   2.013   4.821
 8940SOL     OW27718   5.723   0.858   3.140
 8940SOL    HW127719   5.815   0.888   3.116
 8940SOL    HW227720   5.693   0.789   3.075
 8941SOL     OW27721   5.380   2.344   6.344
 8941SOL    HW127722   5.301   2.359   6.284
 8941SOL    HW227723   5.463   2.369   6.295
 8942SOL     OW27724   0.665   2.283   5.498
 8942SOL    HW127725   0.678   2.316   5.592
 8942SOL    HW227726   0.647   2.360   5.438
 8943SOL     OW27727   5.356   3.782   1.076
 8943SOL    HW127728   5.315   3.782   1.167
 8943SOL    HW227729   5.310   3.851   1.019
 8944SOL     OW27730   4.276   5.558   0.570
 8944SOL    HW127731   4.181   5.569   0.543
 8944SOL    HW227732   4.287   5.471   0.619
 8945SOL     OW27733   2.682   1.076   4.340
 8945SOL    HW127734   2.593   1.034   4.358
 8945SOL    HW227735   2.673   1.175   4.342
 8946SOL     OW27736   3.396   1.614   4.251
 8946SOL    HW127737   3.481   1.666   4.259
 8946SOL    HW227738   3.329   1.648   4.318
 8947SOL     OW27739   4.288   3.915   5.274
 8947SOL    HW127740   4.235   4.000   5.283
 8947SOL    HW227741   4.264   3.870   5.188
 8948SOL     OW27742   6.050   5.225   3.261
 8948SOL    HW127743   5.956   5.197   3.278
 8948SOL    HW227744   6.052   5.295   3.189
 8949SOL     OW27745   1.919   6.196   0.095
 8949SOL    HW127746   1.860   6.211   0.175
 8949SOL    HW227747   1.862   6.176   0.015
 8950SOL     OW27748   4.475   2.577   4.121
 8950SOL    HW127749   4.437   2.632   4.047
 8950SOL    HW227750   4.446   2.482   4.111
 8951SOL     OW27751   1.772   2.610   5.547
 8951SOL    HW127752   1.861   2.572   5.519
 8951SOL    HW227753   1.757   2.591   5.644
 8952SOL     OW27754   0.156   1.393   2.465
 8952SOL    HW127755   0.067   1.392   2.510
 8952SOL    HW227756   0.194   1.486   2.469
 8953SOL     OW27757   1.289   3.136   0.099
 8953SOL    HW127758   1.210   3.085   0.064
 8953SOL    HW227759   1.294   3.225   0.053
 8954SOL     OW27760   1.982   5.965   6.336
 8954SOL    HW127761   1.932   6.026   6.397
 8954SOL    HW227762   1.997   5.877   6.381
 8955SOL     OW27763   6.357   3.847   3.376
 8955SOL    HW127764   6.353   3.936   3.331
 8955SOL    HW227765   6.431   3.846   3.443
 8956SOL     OW27766   1.119   0.405   6.168
 8956SOL    HW127767   1.098   0.406   6.071
 8956SOL    HW227768   1.197   0.345   6.186
 8957SOL     OW27769   3.108   4.862   2.759
 8957SOL    HW127770   3.076   4.819   2.674
 8957SOL    HW227771   3.032   4.910   2.803
 8958SOL     OW27772   1.752   6.705   4.165
 8958SOL    HW127773   1.739   6.608   4.181
 8958SOL    HW227774   1.816   6.743   4.231
 8959SOL     OW27775   1.780   4.438   0.194
 8959SOL    HW127776   1.754   4.431   0.098
 8959SOL    HW227777   1.733   4.367   0.247
 8960SOL     OW27778   3.798   5.406   1.096
 8960SOL    HW127779   3.855   5.483   1.067
 8960SOL    HW227780   3.798   5.336   1.025
 8961SOL     OW27781   1.118   2.139   3.521
 8961SOL    HW127782   1.146   2.071   3.453
 8961SOL    HW227783   1.019   2.153   3.515
 8962SOL     OW27784   5.706   0.418   3.137
 8962SOL    HW127785   5.805   0.402   3.135
 8962SOL    HW227786   5.659   0.335   3.168
 8963SOL     OW27787   6.209   0.964   4.046
 8963SOL    HW127788   6.140   0.965   3.973
 8963SOL    HW227789   6.181   0.898   4.117
 8964SOL     OW27790   5.051   4.746   2.471
 8964SOL    HW127791   5.032   4.789   2.559
 8964SOL    HW227792   5.086   4.653   2.485
 8965SOL     OW27793   1.578   5.238   2.072
 8965SOL    HW127794   1.641   5.315   2.081
 8965SOL    HW227795   1.487   5.273   2.048
 8966SOL     OW27796   2.337   2.506   6.052
 8966SOL    HW127797   2.371   2.525   6.144
 8966SOL    HW227798   2.237   2.517   6.051
 8967SOL     OW27799   4.606   0.599   0.290
 8967SOL    HW127800   4.552   0.622   0.371
 8967SOL    HW227801   4.545   0.591   0.211
 8968SOL     OW27802   4.741   6.067   1.649
 8968SOL    HW127803   4.671   6.002   1.679
 8968SOL    HW227804   4.701   6.159   1.644
 8969SOL     OW27805   6.549   0.767   4.314
 8969SOL    HW127806   6.570   0.806   4.225
 8969SOL    HW227807   6.486   0.827   4.363
 8970SOL     OW27808   3.358   1.832   1.815
 8970SOL    HW127809   3.277   1.883   1.787
 8970SOL    HW227810   3.440   1.885   1.796
 8971SOL     OW27811   4.042   5.344   2.672
 8971SOL    HW127812   3.981   5.285   2.618
 8971SOL    HW227813   4.007   5.438   2.669
 8972SOL     OW27814   5.333   6.838   5.378
 8972SOL    HW127815   5.332   6.743   5.347
 8972SOL    HW227816   5.423   6.859   5.417
 8973SOL     OW27817   1.364   4.858   0.298
 8973SOL    HW127818   1.316   4.896   0.219
 8973SOL    HW227819   1.458   4.837   0.272
 8974SOL     OW27820   0.708   3.562   5.070
 8974SOL    HW127821   0.688   3.469   5.040
 8974SOL    HW227822   0.737   3.561   5.166
 8975SOL     OW27823   3.129   6.828   0.611
 8975SOL    HW127824   3.176   6.762   0.553
 8975SOL    HW227825   3.031   6.807   0.613
 8976SOL     OW27826   1.584   5.461   4.223
 8976SOL    HW127827   1.621   5.472   4.316
 8976SOL    HW227828   1.587   5.364   4.197
 8977SOL     OW27829   6.290   1.469   5.882
 8977SOL    HW127830   6.337   1.540   5.830
 8977SOL    HW227831   6.214   1.510   5.933
 8978SOL     OW27832   5.631   6.905   0.335
 8978SOL    HW127833   5.668   6.818   0.302
 8978SOL    HW227834   5.561   6.938   0.272
 8979SOL     OW27835   1.926   4.016   4.821
 8979SOL    HW127836   1.933   4.070   4.904
 8979SOL    HW227837   1.862   3.940   4.835
 8980SOL     OW27838   3.598   2.865   4.415
 8980SOL    HW127839   3.527   2.869   4.485
 8980SOL    HW227840   3.597   2.950   4.362
 8981SOL     OW27841   3.883   1.533   5.367
 8981SOL    HW127842   3.865   1.465   5.296
 8981SOL    HW227843   3.816   1.606   5.362
 8982SOL     OW27844   2.953   4.242   0.675
 8982SOL    HW127845   2.897   4.314   0.716
 8982SOL    HW227846   2.976   4.174   0.745
 8983SOL     OW27847   4.303   5.496   0.206
 8983SOL    HW127848   4.362   5.572   0.232
 8983SOL    HW227849   4.326   5.416   0.262
 8984SOL     OW27850   2.172   5.800   3.174
 8984SOL    HW127851   2.239   5.799   3.100
 8984SOL    HW227852   2.216   5.834   3.258
 8985SOL     OW27853   3.947   2.668   6.533
 8985SOL    HW127854   4.036   2.695   6.495
 8985SOL    HW227855   3.956   2.578   6.575
 8986SOL     OW27856   3.872   4.914   2.993
 8986SOL    HW127857   3.829   4.911   2.902
 8986SOL    HW227858   3.802   4.905   3.063
 8987SOL     OW27859   5.337   6.114   1.972
 8987SOL    HW127860   5.375   6.021   1.976
 8987SOL    HW227861   5.370   6.167   2.050
 8988SOL     OW27862   0.569   5.530   4.203
 8988SOL    HW127863   0.556   5.441   4.245
 8988SOL    HW227864   0.482   5.579   4.200
 8989SOL     OW27865   4.191   2.777   6.446
 8989SOL    HW127866   4.162   2.873   6.452
 8989SOL    HW227867   4.237   2.751   6.530
 8990SOL     OW27868   6.710   5.338   3.315
 8990SOL    HW127869   6.789   5.304   3.366
 8990SOL    HW227870   6.649   5.262   3.293
 8991SOL     OW27871   1.407   2.223   5.180
 8991SOL    HW127872   1.383   2.270   5.265
 8991SOL    HW227873   1.351   2.257   5.105
 8992SOL     OW27874   6.129   2.126   6.792
 8992SOL    HW127875   6.130   2.223   6.819
 8992SOL    HW227876   6.077   2.073   6.858
 8993SOL     OW27877   4.690   2.485   6.587
 8993SOL    HW127878   4.689   2.426   6.506
 8993SOL    HW227879   4.699   2.580   6.559
 8994SOL     OW27880   1.838   4.750   4.597
 8994SOL    HW127881   1.914   4.707   4.646
 8994SOL    HW227882   1.869   4.778   4.506
 8995SOL     OW27883   0.161   1.581   1.099
 8995SOL    HW127884   0.080   1.567   1.157
 8995SOL    HW227885   0.173   1.679   1.082
 8996SOL     OW27886   5.214   4.515   6.311
 8996SOL    HW127887   5.161   4.561   6.382
 8996SOL    HW227888   5.237   4.580   6.238
 8997SOL     OW27889   5.382   1.217   4.851
 8997SOL    HW127890   5.403   1.314   4.841
 8997SOL    HW227891   5.337   1.185   4.767
 8998SOL     OW27892   5.927   4.296   4.374
 8998SOL    HW127893   5.936   4.395   4.367
 8998SOL    HW227894   5.832   4.272   4.394
 8999SOL     OW27895   5.017   6.775   5.954
 8999SOL    HW127896   5.043   6.773   6.050
 8999SOL    HW227897   4.928   6.820   5.944
 9000SOL     OW27898   1.896   4.267   1.523
 9000SOL    HW127899   1.913   4.194   1.456
 9000SOL    HW227900   1.874   4.352   1.475
 9001SOL     OW27901   0.427   4.965   2.022
 9001SOL    HW127902   0.380   4.884   2.057
 9001SOL    HW227903   0.361   5.028   1.983
 9002SOL     OW27904   1.160   4.398   6.249
 9002SOL    HW127905   1.127   4.361   6.162
 9002SOL    HW227906   1.234   4.463   6.231
 9003SOL     OW27907   5.802   1.570   1.592
 9003SOL    HW127908   5.865   1.492   1.589
 9003SOL    HW227909   5.809   1.614   1.682
 9004SOL     OW27910   4.082   4.795   0.583
 9004SOL    HW127911   4.019   4.873   0.582
 9004SOL    HW227912   4.056   4.733   0.658
 9005SOL     OW27913   5.597   0.979   5.534
 9005SOL    HW127914   5.630   0.958   5.626
 9005SOL    HW227915   5.599   0.897   5.478
 9006SOL     OW27916   3.755   6.890   0.685
 9006SOL    HW127917   3.712   6.959   0.743
 9006SOL    HW227918   3.807   6.934   0.613
 9007SOL     OW27919   2.563   1.543   2.552
 9007SOL    HW127920   2.634   1.496   2.605
 9007SOL    HW227921   2.592   1.636   2.532
 9008SOL     OW27922   0.438   5.649   2.893
 9008SOL    HW127923   0.387   5.664   2.978
 9008SOL    HW227924   0.432   5.552   2.868
 9009SOL     OW27925   3.938   5.766   0.455
 9009SOL    HW127926   3.979   5.856   0.466
 9009SOL    HW227927   3.976   5.721   0.374
 9010SOL     OW27928   1.434   6.775   3.901
 9010SOL    HW127929   1.483   6.706   3.847
 9010SOL    HW227930   1.499   6.826   3.957
 9011SOL     OW27931   4.404   0.767   3.311
 9011SOL    HW127932   4.311   0.789   3.281
 9011SOL    HW227933   4.402   0.684   3.366
 9012SOL     OW27934   2.227   5.687   0.103
 9012SOL    HW127935   2.167   5.609   0.113
 9012SOL    HW227936   2.179   5.760   0.054
 9013SOL     OW27937   1.687   6.427   4.234
 9013SOL    HW127938   1.707   6.340   4.189
 9013SOL    HW227939   1.590   6.431   4.258
 9014SOL     OW27940   6.222   2.415   2.163
 9014SOL    HW127941   6.149   2.385   2.225
 9014SOL    HW227942   6.184   2.425   2.071
 9015SOL     OW27943   5.672   1.875   0.794
 9015SOL    HW127944   5.654   1.973   0.802
 9015SOL    HW227945   5.688   1.852   0.698
 9016SOL     OW27946   5.937   5.398   6.027
 9016SOL    HW127947   5.964   5.494   6.022
 9016SOL    HW227948   5.915   5.364   5.935
 9017SOL     OW27949   3.379   0.362   4.888
 9017SOL    HW127950   3.333   0.320   4.967
 9017SOL    HW227951   3.477   0.368   4.907
 9018SOL     OW27952   4.108   3.050   6.792
 9018SOL    HW127953   4.055   2.998   6.858
 9018SOL    HW227954   4.169   2.988   6.742
 9019SOL     OW27955   0.614   2.621   3.149
 9019SOL    HW127956   0.586   2.589   3.239
 9019SOL    HW227957   0.596   2.719   3.142
 9020SOL     OW27958   6.239   5.956   1.662
 9020SOL    HW127959   6.294   6.037   1.680
 9020SOL    HW227960   6.298   5.876   1.652
 9021SOL     OW27961   0.079   0.656   4.211
 9021SOL    HW127962   7.006   0.684   4.233
 9021SOL    HW227963   0.129   0.733   4.173
 9022SOL     OW27964   4.023   2.139   6.657
 9022SOL    HW127965   3.925   2.156   6.659
 9022SOL    HW227966   4.057   2.131   6.750
 9023SOL     OW27967   4.360   3.422   1.119
 9023SOL    HW127968   4.391   3.328   1.135
 9023SOL    HW227969   4.327   3.430   1.025
 9024SOL     OW27970   1.712   5.129   6.258
 9024SOL    HW127971   1.647   5.130   6.183
 9024SOL    HW227972   1.805   5.136   6.223
 9025SOL     OW27973   0.429   5.707   0.947
 9025SOL    HW127974   0.379   5.772   0.890
 9025SOL    HW227975   0.364   5.648   0.994
 9026SOL     OW27976   3.831   1.755   0.250
 9026SOL    HW127977   3.840   1.749   0.150
 9026SOL    HW227978   3.920   1.775   0.290
 9027SOL     OW27979   0.481   3.584   4.078
 9027SOL    HW127980   0.473   3.595   3.979
 9027SOL    HW227981   0.428   3.505   4.108
 9028SOL     OW27982   3.598   3.895   5.440
 9028SOL    HW127983   3.660   3.854   5.506
 9028SOL    HW227984   3.622   3.865   5.348
 9029SOL     OW27985   4.121   7.007   4.841
 9029SOL    HW127986   4.192   0.056   4.854
 9029SOL    HW227987   4.031   0.031   4.844
 9030SOL     OW27988   2.897   2.078   3.634
 9030SOL    HW127989   2.978   2.137   3.628
 9030SOL    HW227990   2.826   2.123   3.688
 9031SOL     OW27991   4.700   0.251   4.566
 9031SOL    HW127992   4.735   0.341   4.590
 9031SOL    HW227993   4.666   0.253   4.472
 9032SOL     OW27994   4.581   3.462   1.599
 9032SOL    HW127995   4.561   3.529   1.527
 9032SOL    HW227996   4.675   3.474   1.630
 9033SOL     OW27997   1.390   5.731   2.988
 9033SOL    HW127998   1.471   5.688   2.949
 9033SOL    HW227999   1.343   5.666   3.046
 9034SOL     OW28000   3.024   6.246   4.902
 9034SOL    HW128001   2.956   6.266   4.832
 9034SOL    HW228002   3.058   6.153   4.890
 9035SOL     OW28003   1.865   4.932   0.765
 9035SOL    HW128004   1.872   4.967   0.671
 9035SOL    HW228005   1.806   4.993   0.819
 9036SOL     OW28006   1.297   3.721   5.661
 9036SOL    HW128007   1.315   3.732   5.759
 9036SOL    HW228008   1.357   3.650   5.624
 9037SOL     OW28009   0.789   2.285   3.105
 9037SOL    HW128010   0.866   2.322   3.157
 9037SOL    HW228011   0.725   2.242   3.169
 9038SOL     OW28012   4.650   3.167   6.377
 9038SOL    HW128013   4.652   3.170   6.477
 9038SOL    HW228014   4.738   3.202   6.342
 9039SOL     OW28015   2.964   4.989   0.030
 9039SOL    HW128016   2.919   5.076   0.008
 9039SOL    HW228017   3.053   4.986   7.004
 9040SOL     OW28018   1.767   2.000   1.211
 9040SOL    HW128019   1.787   2.014   1.308
 9040SOL    HW228020   1.821   2.063   1.156
 9041SOL     OW28021   6.998   2.285   0.862
 9041SOL    HW128022   7.000   2.186   0.852
 9041SOL    HW228023   7.015   2.328   0.773
 9042SOL     OW28024   3.653   5.654   6.122
 9042SOL    HW128025   3.572   5.613   6.081
 9042SOL    HW228026   3.642   5.754   6.123
 9043SOL     OW28027   2.868   1.073   0.473
 9043SOL    HW128028   2.881   1.017   0.391
 9043SOL    HW228029   2.803   1.027   0.534
 9044SOL     OW28030   0.893   0.187   6.501
 9044SOL    HW128031   0.842   0.195   6.586
 9044SOL    HW228032   0.864   0.258   6.437
 9045SOL     OW28033   4.179   0.136   2.778
 9045SOL    HW128034   4.083   0.118   2.798
 9045SOL    HW228035   4.187   0.224   2.730
 9046SOL     OW28036   2.892   3.698   2.989
 9046SOL    HW128037   2.956   3.650   2.929
 9046SOL    HW228038   2.864   3.784   2.946
 9047SOL     OW28039   1.477   4.046   5.950
 9047SOL    HW128040   1.497   3.965   5.896
 9047SOL    HW228041   1.426   4.020   6.032
 9048SOL     OW28042   6.289   2.204   5.688
 9048SOL    HW128043   6.215   2.267   5.667
 9048SOL    HW228044   6.367   2.222   5.627
 9049SOL     OW28045   3.110   6.274   6.336
 9049SOL    HW128046   3.045   6.267   6.260
 9049SOL    HW228047   3.193   6.223   6.313
 9050SOL     OW28048   0.330   4.065   1.346
 9050SOL    HW128049   0.270   4.032   1.274
 9050SOL    HW228050   0.296   4.153   1.380
 9051SOL     OW28051   2.371   1.878   1.116
 9051SOL    HW128052   2.394   1.862   1.021
 9051SOL    HW228053   2.453   1.906   1.166
 9052SOL     OW28054   1.717   3.211   4.967
 9052SOL    HW128055   1.750   3.289   4.914
 9052SOL    HW228056   1.647   3.242   5.032
 9053SOL     OW28057   1.657   1.860   1.009
 9053SOL    HW128058   1.723   1.790   0.981
 9053SOL    HW228059   1.698   1.917   1.081
 9054SOL     OW28060   2.613   5.475   3.362
 9054SOL    HW128061   2.704   5.499   3.395
 9054SOL    HW228062   2.613   5.473   3.262
 9055SOL     OW28063   0.373   4.361   4.633
 9055SOL    HW128064   0.432   4.442   4.633
 9055SOL    HW228065   0.373   4.319   4.724
 9056SOL     OW28066   6.548   1.727   2.639
 9056SOL    HW128067   6.622   1.684   2.588
 9056SOL    HW228068   6.580   1.751   2.731
 9057SOL     OW28069   4.722   1.483   4.243
 9057SOL    HW128070   4.775   1.528   4.315
 9057SOL    HW228071   4.782   1.458   4.168
 9058SOL     OW28072   1.817   0.790   6.521
 9058SOL    HW128073   1.734   0.739   6.544
 9058SOL    HW228074   1.806   0.834   6.432
 9059SOL     OW28075   1.486   1.767   2.565
 9059SOL    HW128076   1.572   1.747   2.520
 9059SOL    HW228077   1.483   1.865   2.589
 9060SOL     OW28078   5.559   2.881   4.925
 9060SOL    HW128079   5.466   2.845   4.918
 9060SOL    HW228080   5.604   2.844   5.006
 9061SOL     OW28081   5.222   5.490   2.475
 9061SOL    HW128082   5.133   5.527   2.505
 9061SOL    HW228083   5.225   5.392   2.495
 9062SOL     OW28084   1.282   5.004   1.021
 9062SOL    HW128085   1.217   5.042   0.956
 9062SOL    HW228086   1.301   4.908   0.998
 9063SOL     OW28087   3.476   2.080   2.678
 9063SOL    HW128088   3.400   2.135   2.645
 9063SOL    HW228089   3.449   1.984   2.683
 9064SOL     OW28090   6.549   3.143   6.755
 9064SOL    HW128091   6.562   3.234   6.716
 9064SOL    HW228092   6.532   3.151   6.853
 9065SOL     OW28093   2.159   0.972   0.606
 9065SOL    HW128094   2.203   0.883   0.611
 9065SOL    HW228095   2.069   0.968   0.648
 9066SOL     OW28096   4.641   6.816   0.061
 9066SOL    HW128097   4.668   6.907   0.093
 9066SOL    HW228098   4.544   6.818   0.034
 9067SOL     OW28099   1.768   6.838   3.669
 9067SOL    HW128100   1.709   6.893   3.610
 9067SOL    HW228101   1.794   6.892   3.749
 9068SOL     OW28102   1.573   5.455   6.869
 9068SOL    HW128103   1.623   5.539   6.849
 9068SOL    HW228104   1.597   5.422   6.960
 9069SOL     OW28105   1.460   2.602   6.493
 9069SOL    HW128106   1.498   2.644   6.575
 9069SOL    HW228107   1.511   2.634   6.413
 9070SOL     OW28108   1.136   4.678   4.402
 9070SOL    HW128109   1.115   4.629   4.318
 9070SOL    HW228110   1.072   4.753   4.415
 9071SOL     OW28111   6.150   6.599   6.979
 9071SOL    HW128112   6.173   6.695   6.993
 9071SOL    HW228113   6.125   6.584   6.883
 9072SOL     OW28114   5.875   4.268   6.752
 9072SOL    HW128115   5.815   4.285   6.830
 9072SOL    HW228116   5.890   4.170   6.741
 9073SOL     OW28117   2.056   0.627   1.627
 9073SOL    HW128118   2.048   0.679   1.542
 9073SOL    HW228119   2.041   0.688   1.704
 9074SOL     OW28120   1.248   6.918   3.097
 9074SOL    HW128121   1.247   7.013   3.067
 9074SOL    HW228122   1.257   6.858   3.017
 9075SOL     OW28123   6.926   0.951   2.279
 9075SOL    HW128124   6.952   0.857   2.305
 9075SOL    HW228125   6.878   0.949   2.192
 9076SOL     OW28126   6.512   1.016   5.846
 9076SOL    HW128127   6.467   0.987   5.930
 9076SOL    HW228128   6.526   1.115   5.847
 9077SOL     OW28129   5.872   6.662   2.215
 9077SOL    HW128130   5.957   6.711   2.197
 9077SOL    HW228131   5.861   6.649   2.313
 9078SOL     OW28132   3.769   2.854   5.137
 9078SOL    HW128133   3.806   2.868   5.046
 9078SOL    HW228134   3.678   2.896   5.143
 9079SOL     OW28135   3.690   0.362   6.012
 9079SOL    HW128136   3.769   0.422   6.007
 9079SOL    HW228137   3.606   0.417   6.017
 9080SOL     OW28138   5.434   1.822   1.079
 9080SOL    HW128139   5.426   1.795   0.983
 9080SOL    HW228140   5.345   1.816   1.123
 9081SOL     OW28141   5.616   6.699   2.022
 9081SOL    HW128142   5.646   6.792   2.041
 9081SOL    HW228143   5.695   6.639   2.013
 9082SOL     OW28144   3.405   1.183   3.520
 9082SOL    HW128145   3.361   1.227   3.598
 9082SOL    HW228146   3.336   1.136   3.465
 9083SOL     OW28147   4.505   4.728   4.743
 9083SOL    HW128148   4.508   4.629   4.755
 9083SOL    HW228149   4.484   4.772   4.830
 9084SOL     OW28150   3.053   3.358   3.153
 9084SOL    HW128151   3.073   3.292   3.225
 9084SOL    HW228152   3.119   3.433   3.157
 9085SOL     OW28153   1.005   2.194   0.509
 9085SOL    HW128154   1.091   2.246   0.512
 9085SOL    HW228155   0.977   2.170   0.602
 9086SOL     OW28156   0.333   4.360   0.978
 9086SOL    HW128157   0.383   4.419   0.916
 9086SOL    HW228158   0.265   4.307   0.926
 9087SOL     OW28159   4.838   3.770   1.883
 9087SOL    HW128160   4.852   3.862   1.917
 9087SOL    HW228161   4.866   3.704   1.953
 9088SOL     OW28162   5.097   0.244   0.117
 9088SOL    HW128163   5.146   0.218   0.200
 9088SOL    HW228164   5.161   0.291   0.055
 9089SOL     OW28165   4.789   0.307   5.418
 9089SOL    HW128166   4.781   0.260   5.330
 9089SOL    HW228167   4.869   0.272   5.467
 9090SOL     OW28168   6.189   1.798   4.638
 9090SOL    HW128169   6.289   1.806   4.637
 9090SOL    HW228170   6.162   1.733   4.709
 9091SOL     OW28171   2.978   3.525   6.889
 9091SOL    HW128172   2.917   3.448   6.873
 9091SOL    HW228173   2.991   3.576   6.804
 9092SOL     OW28174   0.055   2.329   0.013
 9092SOL    HW128175   0.117   2.395   6.991
 9092SOL    HW228176   0.035   2.256   6.968
 9093SOL     OW28177   1.164   6.241   5.844
 9093SOL    HW128178   1.152   6.337   5.818
 9093SOL    HW228179   1.261   6.217   5.836
 9094SOL     OW28180   0.599   3.810   1.731
 9094SOL    HW128181   0.697   3.796   1.740
 9094SOL    HW228182   0.554   3.787   1.818
 9095SOL     OW28183   5.852   6.449   4.646
 9095SOL    HW128184   5.865   6.359   4.688
 9095SOL    HW228185   5.811   6.438   4.556
 9096SOL     OW28186   6.277   6.120   3.347
 9096SOL    HW128187   6.365   6.168   3.356
 9096SOL    HW228188   6.287   6.045   3.282
 9097SOL     OW28189   1.272   2.856   6.076
 9097SOL    HW128190   1.336   2.799   6.023
 9097SOL    HW228191   1.300   2.855   6.172
 9098SOL     OW28192   1.741   3.739   3.890
 9098SOL    HW128193   1.787   3.774   3.972
 9098SOL    HW228194   1.662   3.684   3.917
 9099SOL     OW28195   2.844   2.933   6.908
 9099SOL    HW128196   2.805   3.010   6.961
 9099SOL    HW228197   2.770   2.876   6.874
 9100SOL     OW28198   0.598   4.906   3.171
 9100SOL    HW128199   0.639   4.899   3.262
 9100SOL    HW228200   0.658   4.960   3.112
 9101SOL     OW28201   0.948   2.836   1.683
 9101SOL    HW128202   0.914   2.744   1.701
 9101SOL    HW228203   1.047   2.834   1.675
 9102SOL     OW28204   4.079   6.520   3.396
 9102SOL    HW128205   4.022   6.476   3.326
 9102SOL    HW228206   4.156   6.460   3.418
 9103SOL     OW28207   6.278   1.533   0.454
 9103SOL    HW128208   6.209   1.605   0.454
 9103SOL    HW228209   6.242   1.452   0.501
 9104SOL     OW28210   6.072   1.119   6.870
 9104SOL    HW128211   6.150   1.128   6.932
 9104SOL    HW228212   6.055   1.022   6.851
 9105SOL     OW28213   2.259   0.532   6.401
 9105SOL    HW128214   2.203   0.610   6.373
 9105SOL    HW228215   2.220   0.491   6.483
 9106SOL     OW28216   1.582   4.231   1.043
 9106SOL    HW128217   1.652   4.258   1.109
 9106SOL    HW228218   1.491   4.249   1.081
 9107SOL     OW28219   2.333   1.007   0.041
 9107SOL    HW128220   2.362   1.082   0.101
 9107SOL    HW228221   2.233   1.004   0.037
 9108SOL     OW28222   5.886   5.401   6.287
 9108SOL    HW128223   5.941   5.319   6.305
 9108SOL    HW228224   5.884   5.418   6.189
 9109SOL     OW28225   5.269   3.506   2.493
 9109SOL    HW128226   5.274   3.474   2.398
 9109SOL    HW228227   5.232   3.599   2.494
 9110SOL     OW28228   1.256   5.968   4.897
 9110SOL    HW128229   1.167   5.960   4.854
 9110SOL    HW228230   1.252   6.037   4.970
 9111SOL     OW28231   4.188   2.644   6.215
 9111SOL    HW128232   4.181   2.720   6.151
 9111SOL    HW228233   4.186   2.678   6.309
 9112SOL     OW28234   0.970   5.575   2.006
 9112SOL    HW128235   0.989   5.614   1.916
 9112SOL    HW228236   0.913   5.639   2.058
 9113SOL     OW28237   5.573   1.473   4.020
 9113SOL    HW128238   5.542   1.423   4.101
 9113SOL    HW228239   5.659   1.434   3.988
 9114SOL     OW28240   1.219   6.330   5.435
 9114SOL    HW128241   1.289   6.394   5.402
 9114SOL    HW228242   1.134   6.379   5.453
 9115SOL     OW28243   5.063   4.384   4.008
 9115SOL    HW128244   5.155   4.412   3.982
 9115SOL    HW228245   5.065   4.290   4.043
 9116SOL     OW28246   1.569   6.955   3.522
 9116SOL    HW128247   1.534   6.947   3.428
 9116SOL    HW228248   1.493   6.944   3.586
 9117SOL     OW28249   3.367   6.727   0.438
 9117SOL    HW128250   3.428   6.804   0.457
 9117SOL    HW228251   3.403   6.644   0.479
 9118SOL     OW28252   6.214   4.387   1.707
 9118SOL    HW128253   6.295   4.355   1.657
 9118SOL    HW228254   6.153   4.309   1.724
 9119SOL     OW28255   3.424   0.397   0.565
 9119SOL    HW128256   3.439   0.353   0.653
 9119SOL    HW228257   3.510   0.400   0.514
 9120SOL     OW28258   5.868   3.924   5.082
 9120SOL    HW128259   5.910   3.891   4.997
 9120SOL    HW228260   5.927   3.994   5.123
 9121SOL     OW28261   3.170   0.719   5.248
 9121SOL    HW128262   3.080   0.686   5.219
 9121SOL    HW228263   3.170   0.819   5.249
 9122SOL     OW28264   1.598   3.819   2.318
 9122SOL    HW128265   1.502   3.816   2.288
 9122SOL    HW228266   1.640   3.729   2.304
 9123SOL     OW28267   0.296   0.277   4.036
 9123SOL    HW128268   0.344   0.214   3.976
 9123SOL    HW228269   0.351   0.296   4.117
 9124SOL     OW28270   2.893   5.524   1.245
 9124SOL    HW128271   2.938   5.435   1.235
 9124SOL    HW228272   2.939   5.592   1.189
 9125SOL     OW28273   4.602   5.748   0.914
 9125SOL    HW128274   4.582   5.828   0.858
 9125SOL    HW228275   4.624   5.670   0.855
 9126SOL     OW28276   3.797   4.522   0.188
 9126SOL    HW128277   3.867   4.516   0.259
 9126SOL    HW228278   3.790   4.616   0.155
 9127SOL     OW28279   6.905   4.752   4.251
 9127SOL    HW128280   6.826   4.756   4.190
 9127SOL    HW228281   6.874   4.760   4.346
 9128SOL     OW28282   5.887   3.627   6.159
 9128SOL    HW128283   5.904   3.713   6.207
 9128SOL    HW228284   5.860   3.645   6.064
 9129SOL     OW28285   1.063   2.694   0.982
 9129SOL    HW128286   1.062   2.626   0.909
 9129SOL    HW228287   1.086   2.783   0.944
 9130SOL     OW28288   2.922   3.856   4.990
 9130SOL    HW128289   2.862   3.847   5.069
 9130SOL    HW228290   3.015   3.878   5.021
 9131SOL     OW28291   4.814   2.313   0.554
 9131SOL    HW128292   4.760   2.380   0.606
 9131SOL    HW228293   4.859   2.359   0.478
 9132SOL     OW28294   6.673   4.175   3.538
 9132SOL    HW128295   6.724   4.168   3.624
 9132SOL    HW228296   6.667   4.084   3.496
 9133SOL     OW28297   4.543   0.969   0.977
 9133SOL    HW128298   4.631   0.985   1.023
 9133SOL    HW228299   4.539   1.022   0.893
 9134SOL     OW28300   4.579   5.051   0.525
 9134SOL    HW128301   4.571   5.127   0.589
 9134SOL    HW228302   4.490   5.005   0.516
 9135SOL     OW28303   6.483   6.753   2.463
 9135SOL    HW128304   6.394   6.715   2.489
 9135SOL    HW228305   6.474   6.803   2.377
 9136SOL     OW28306   6.305   4.617   0.213
 9136SOL    HW128307   6.257   4.705   0.211
 9136SOL    HW228308   6.365   4.614   0.293
 9137SOL     OW28309   5.235   6.232   6.217
 9137SOL    HW128310   5.303   6.190   6.277
 9137SOL    HW228311   5.156   6.262   6.271
 9138SOL     OW28312   3.195   3.147   0.381
 9138SOL    HW128313   3.109   3.172   0.335
 9138SOL    HW228314   3.199   3.192   0.470
 9139SOL     OW28315   6.618   0.337   1.110
 9139SOL    HW128316   6.537   0.294   1.152
 9139SOL    HW228317   6.700   0.289   1.140
 9140SOL     OW28318   1.040   3.712   3.224
 9140SOL    HW128319   1.045   3.735   3.127
 9140SOL    HW228320   1.006   3.619   3.235
 9141SOL     OW28321   6.683   5.827   4.906
 9141SOL    HW128322   6.771   5.798   4.944
 9141SOL    HW228323   6.642   5.750   4.855
 9142SOL     OW28324   1.630   4.347   4.621
 9142SOL    HW128325   1.623   4.426   4.682
 9142SOL    HW228326   1.718   4.301   4.636
 9143SOL     OW28327   6.555   4.175   2.911
 9143SOL    HW128328   6.588   4.264   2.942
 9143SOL    HW228329   6.597   4.103   2.964
 9144SOL     OW28330   2.662   4.848   5.029
 9144SOL    HW128331   2.746   4.807   4.993
 9144SOL    HW228332   2.600   4.775   5.059
 9145SOL     OW28333   1.297   5.947   5.771
 9145SOL    HW128334   1.363   5.875   5.749
 9145SOL    HW228335   1.324   5.990   5.857
 9146SOL     OW28336   5.525   2.798   3.508
 9146SOL    HW128337   5.482   2.845   3.432
 9146SOL    HW228338   5.461   2.793   3.585
 9147SOL     OW28339   4.139   6.963   5.186
 9147SOL    HW128340   4.180   6.994   5.100
 9147SOL    HW228341   4.055   7.013   5.203
 9148SOL     OW28342   5.627   5.780   1.362
 9148SOL    HW128343   5.530   5.765   1.381
 9148SOL    HW228344   5.681   5.706   1.400
 9149SOL     OW28345   0.135   3.646   1.499
 9149SOL    HW128346   0.186   3.575   1.547
 9149SOL    HW228347   0.200   3.708   1.454
 9150SOL     OW28348   2.064   2.888   0.265
 9150SOL    HW128349   2.089   2.798   0.299
 9150SOL    HW228350   1.983   2.921   0.314
 9151SOL     OW28351   1.497   3.391   3.557
 9151SOL    HW128352   1.408   3.374   3.597
 9151SOL    HW228353   1.500   3.483   3.518
 9152SOL     OW28354   1.564   4.311   2.071
 9152SOL    HW128355   1.564   4.239   2.141
 9152SOL    HW228356   1.648   4.305   2.018
 9153SOL     OW28357   0.630   3.381   6.063
 9153SOL    HW128358   0.684   3.447   6.115
 9153SOL    HW228359   0.534   3.410   6.061
 9154SOL     OW28360   5.469   5.353   2.995
 9154SOL    HW128361   5.439   5.420   2.928
 9154SOL    HW228362   5.559   5.317   2.969
 9155SOL     OW28363   1.375   6.532   3.096
 9155SOL    HW128364   1.475   6.541   3.093
 9155SOL    HW228365   1.333   6.617   3.064
 9156SOL     OW28366   6.604   3.785   6.182
 9156SOL    HW128367   6.661   3.819   6.257
 9156SOL    HW228368   6.595   3.686   6.188
 9157SOL     OW28369   1.583   4.561   6.409
 9157SOL    HW128370   1.618   4.475   6.445
 9157SOL    HW228371   1.550   4.618   6.484
 9158SOL     OW28372   6.727   4.059   4.645
 9158SOL    HW128373   6.654   4.085   4.708
 9158SOL    HW228374   6.770   4.141   4.607
 9159SOL     OW28375   3.013   1.506   4.260
 9159SOL    HW128376   2.976   1.578   4.203
 9159SOL    HW228377   2.966   1.504   4.348
 9160SOL     OW28378   0.601   4.358   1.800
 9160SOL    HW128379   0.547   4.294   1.746
 9160SOL    HW228380   0.694   4.362   1.763
 9161SOL     OW28381   6.782   3.906   2.365
 9161SOL    HW128382   6.749   3.999   2.379
 9161SOL    HW228383   6.707   3.842   2.379
 9162SOL     OW28384   4.268   1.912   1.576
 9162SOL    HW128385   4.214   1.990   1.607
 9162SOL    HW228386   4.281   1.848   1.651
 9163SOL     OW28387   1.899   2.323   3.371
 9163SOL    HW128388   1.866   2.415   3.350
 9163SOL    HW228389   1.990   2.309   3.332
 9164SOL     OW28390   2.748   6.069   6.808
 9164SOL    HW128391   2.736   6.093   6.712
 9164SOL    HW228392   2.771   6.151   6.860
 9165SOL     OW28393   5.884   1.703   5.793
 9165SOL    HW128394   5.835   1.754   5.864
 9165SOL    HW228395   5.858   1.607   5.798
 9166SOL     OW28396   4.973   6.154   1.268
 9166SOL    HW128397   4.908   6.209   1.319
 9166SOL    HW228398   5.027   6.213   1.208
 9167SOL     OW28399   1.728   1.132   5.212
 9167SOL    HW128400   1.659   1.088   5.270
 9167SOL    HW228401   1.819   1.112   5.248
 9168SOL     OW28402   6.378   6.158   4.434
 9168SOL    HW128403   6.366   6.137   4.337
 9168SOL    HW228404   6.297   6.129   4.485
 9169SOL     OW28405   6.744   6.174   1.775
 9169SOL    HW128406   6.836   6.160   1.812
 9169SOL    HW228407   6.689   6.092   1.792
 9170SOL     OW28408   1.471   0.932   6.300
 9170SOL    HW128409   1.489   0.926   6.202
 9170SOL    HW228410   1.542   0.988   6.343
 9171SOL     OW28411   3.522   5.032   6.137
 9171SOL    HW128412   3.547   5.122   6.172
 9171SOL    HW228413   3.436   5.002   6.177
 9172SOL     OW28414   4.509   1.866   4.683
 9172SOL    HW128415   4.454   1.866   4.600
 9172SOL    HW228416   4.491   1.782   4.736
 9173SOL     OW28417   5.617   3.667   4.877
 9173SOL    HW128418   5.543   3.648   4.941
 9173SOL    HW228419   5.647   3.761   4.887
 9174SOL     OW28420   6.731   4.948   0.959
 9174SOL    HW128421   6.639   4.981   0.982
 9174SOL    HW228422   6.738   4.932   0.861
 9175SOL     OW28423   2.325   6.949   0.301
 9175SOL    HW128424   2.225   6.946   0.298
 9175SOL    HW228425   2.353   0.000   0.365
 9176SOL     OW28426   1.612   1.747   2.209
 9176SOL    HW128427   1.666   1.718   2.288
 9176SOL    HW228428   1.611   1.847   2.205
 9177SOL     OW28429   0.233   5.361   3.560
 9177SOL    HW128430   0.247   5.288   3.628
 9177SOL    HW228431   0.285   5.341   3.478
 9178SOL     OW28432   2.066   4.773   0.897
 9178SOL    HW128433   1.984   4.787   0.842
 9178SOL    HW228434   2.077   4.849   0.961
 9179SOL     OW28435   3.087   5.246   4.080
 9179SOL    HW128436   3.025   5.196   4.019
 9179SOL    HW228437   3.063   5.226   4.175
 9180SOL     OW28438   0.183   1.244   5.186
 9180SOL    HW128439   0.134   1.279   5.107
 9180SOL    HW228440   0.279   1.228   5.161
 9181SOL     OW28441   2.425   1.934   3.544
 9181SOL    HW128442   2.517   1.968   3.523
 9181SOL    HW228443   2.429   1.837   3.565
 9182SOL     OW28444   0.621   1.537   2.880
 9182SOL    HW128445   0.631   1.443   2.912
 9182SOL    HW228446   0.603   1.597   2.958
 9183SOL     OW28447   1.555   2.024   6.264
 9183SOL    HW128448   1.612   1.943   6.245
 9183SOL    HW228449   1.483   1.999   6.329
 9184SOL     OW28450   3.891   3.714   0.665
 9184SOL    HW128451   3.984   3.750   0.673
 9184SOL    HW228452   3.891   3.638   0.600
 9185SOL     OW28453   1.577   0.480   6.292
 9185SOL    HW128454   1.595   0.393   6.246
 9185SOL    HW228455   1.563   0.552   6.223
 9186SOL     OW28456   5.179   1.202   6.236
 9186SOL    HW128457   5.105   1.151   6.192
 9186SOL    HW228458   5.201   1.160   6.324
 9187SOL     OW28459   5.585   2.491   0.586
 9187SOL    HW128460   5.516   2.463   0.653
 9187SOL    HW228461   5.577   2.434   0.504
 9188SOL     OW28462   1.515   0.141   2.070
 9188SOL    HW128463   1.440   0.206   2.071
 9188SOL    HW228464   1.561   0.144   1.981
 9189SOL     OW28465   4.759   1.098   5.811
 9189SOL    HW128466   4.770   1.000   5.824
 9189SOL    HW228467   4.753   1.119   5.714
 9190SOL     OW28468   5.688   1.915   5.403
 9190SOL    HW128469   5.606   1.867   5.435
 9190SOL    HW228470   5.692   1.911   5.303
 9191SOL     OW28471   5.271   0.336   0.862
 9191SOL    HW128472   5.176   0.346   0.830
 9191SOL    HW228473   5.303   0.424   0.899
 9192SOL     OW28474   4.880   3.662   3.844
 9192SOL    HW128475   4.878   3.730   3.771
 9192SOL    HW228476   4.914   3.575   3.808
 9193SOL     OW28477   3.474   2.953   3.235
 9193SOL    HW128478   3.407   2.957   3.161
 9193SOL    HW228479   3.566   2.965   3.198
 9194SOL     OW28480   4.206   5.915   2.614
 9194SOL    HW128481   4.124   5.876   2.656
 9194SOL    HW228482   4.187   5.935   2.518
 9195SOL     OW28483   6.927   2.925   2.848
 9195SOL    HW128484   6.970   2.988   2.912
 9195SOL    HW228485   6.875   2.977   2.780
 9196SOL     OW28486   5.188   6.786   3.756
 9196SOL    HW128487   5.107   6.839   3.781
 9196SOL    HW228488   5.268   6.846   3.756
 9197SOL     OW28489   3.964   2.840   5.963
 9197SOL    HW128490   3.883   2.898   5.976
 9197SOL    HW228491   4.038   2.872   6.021
 9198SOL     OW28492   5.847   2.320   5.483
 9198SOL    HW128493   5.935   2.363   5.505
 9198SOL    HW228494   5.856   2.221   5.493
 9199SOL     OW28495   1.863   3.464   6.313
 9199SOL    HW128496   1.862   3.402   6.233
 9199SOL    HW228497   1.775   3.509   6.320
 9200SOL     OW28498   5.787   6.454   0.887
 9200SOL    HW128499   5.778   6.424   0.982
 9200SOL    HW228500   5.719   6.407   0.830
 9201SOL     OW28501   1.300   4.002   2.766
 9201SOL    HW128502   1.341   4.052   2.843
 9201SOL    HW228503   1.371   3.949   2.719
 9202SOL     OW28504   3.216   5.573   3.601
 9202SOL    HW128505   3.190   5.532   3.688
 9202SOL    HW228506   3.233   5.501   3.534
 9203SOL     OW28507   4.838   0.805   6.179
 9203SOL    HW128508   4.909   0.870   6.150
 9203SOL    HW228509   4.749   0.851   6.181
 9204SOL     OW28510   5.031   4.126   2.208
 9204SOL    HW128511   4.959   4.176   2.255
 9204SOL    HW228512   5.085   4.189   2.153
 9205SOL     OW28513   4.930   3.172   2.220
 9205SOL    HW128514   4.940   3.092   2.279
 9205SOL    HW228515   4.869   3.150   2.144
 9206SOL     OW28516   1.028   6.476   3.192
 9206SOL    HW128517   1.110   6.442   3.238
 9206SOL    HW228518   1.006   6.416   3.115
 9207SOL     OW28519   4.219   6.193   6.962
 9207SOL    HW128520   4.261   6.220   0.029
 9207SOL    HW228521   4.288   6.192   6.890
 9208SOL     OW28522   4.793   4.289   1.921
 9208SOL    HW128523   4.698   4.287   1.953
 9208SOL    HW228524   4.800   4.350   1.842
 9209SOL     OW28525   3.906   0.073   3.137
 9209SOL    HW128526   3.826   0.066   3.197
 9209SOL    HW228527   3.973   0.004   3.163
 9210SOL     OW28528   1.363   6.697   0.320
 9210SOL    HW128529   1.317   6.684   0.232
 9210SOL    HW228530   1.423   6.619   0.338
 9211SOL     OW28531   5.039   1.455   6.158
 9211SOL    HW128532   4.958   1.451   6.217
 9211SOL    HW228533   5.114   1.403   6.201
 9212SOL     OW28534   5.396   3.642   5.072
 9212SOL    HW128535   5.318   3.580   5.069
 9212SOL    HW228536   5.365   3.736   5.055
 9213SOL     OW28537   6.434   6.985   2.624
 9213SOL    HW128538   6.473   0.040   2.571
 9213SOL    HW228539   6.448   6.899   2.575
 9214SOL     OW28540   2.569   2.535   5.460
 9214SOL    HW128541   2.637   2.469   5.491
 9214SOL    HW228542   2.525   2.577   5.539
 9215SOL     OW28543   0.041   2.676   2.913
 9215SOL    HW128544   0.014   2.769   2.888
 9215SOL    HW228545   0.094   2.635   2.838
 9216SOL     OW28546   2.781   5.709   3.932
 9216SOL    HW128547   2.766   5.791   3.988
 9216SOL    HW228548   2.749   5.628   3.981
 9217SOL     OW28549   4.250   0.970   6.524
 9217SOL    HW128550   4.215   0.920   6.603
 9217SOL    HW228551   4.206   0.936   6.441
 9218SOL     OW28552   5.922   5.705   6.055
 9218SOL    HW128553   5.852   5.735   6.120
 9218SOL    HW228554   6.006   5.756   6.070
 9219SOL     OW28555   3.507   2.277   5.727
 9219SOL    HW128556   3.528   2.357   5.783
 9219SOL    HW228557   3.439   2.301   5.658
 9220SOL     OW28558   0.423   0.063   2.971
 9220SOL    HW128559   0.468   7.002   3.009
 9220SOL    HW228560   0.493   0.126   2.937
 9221SOL     OW28561   2.000   1.567   0.374
 9221SOL    HW128562   2.010   1.592   0.278
 9221SOL    HW228563   2.060   1.624   0.430
 9222SOL     OW28564   1.847   3.134   4.298
 9222SOL    HW128565   1.853   3.228   4.263
 9222SOL    HW228566   1.871   3.133   4.395
 9223SOL     OW28567   0.466   2.875   5.281
 9223SOL    HW128568   0.444   2.928   5.199
 9223SOL    HW228569   0.389   2.815   5.303
 9224SOL     OW28570   2.631   4.701   3.376
 9224SOL    HW128571   2.655   4.700   3.279
 9224SOL    HW228572   2.641   4.793   3.412
 9225SOL     OW28573   5.717   5.768   6.233
 9225SOL    HW128574   5.635   5.759   6.177
 9225SOL    HW228575   5.697   5.824   6.314
 9226SOL     OW28576   0.719   0.716   0.481
 9226SOL    HW128577   0.646   0.705   0.548
 9226SOL    HW228578   0.766   0.629   0.467
 9227SOL     OW28579   2.955   4.090   0.455
 9227SOL    HW128580   3.049   4.066   0.431
 9227SOL    HW228581   2.953   4.132   0.545
 9228SOL     OW28582   3.506   3.518   5.176
 9228SOL    HW128583   3.495   3.491   5.081
 9228SOL    HW228584   3.545   3.610   5.180
 9229SOL     OW28585   6.749   4.968   0.225
 9229SOL    HW128586   6.842   4.966   0.261
 9229SOL    HW228587   6.717   4.874   0.211
 9230SOL     OW28588   4.197   1.268   5.168
 9230SOL    HW128589   4.274   1.313   5.123
 9230SOL    HW228590   4.175   1.183   5.120
 9231SOL     OW28591   6.640   6.099   2.691
 9231SOL    HW128592   6.575   6.152   2.744
 9231SOL    HW228593   6.732   6.136   2.704
 9232SOL     OW28594   1.387   5.430   2.276
 9232SOL    HW128595   1.338   5.345   2.255
 9232SOL    HW228596   1.462   5.409   2.339
 9233SOL     OW28597   0.738   6.573   6.190
 9233SOL    HW128598   0.730   6.664   6.230
 9233SOL    HW228599   0.788   6.578   6.104
 9234SOL     OW28600   2.542   3.873   6.829
 9234SOL    HW128601   2.473   3.835   6.890
 9234SOL    HW228602   2.623   3.897   6.882
 9235SOL     OW28603   2.033   1.928   2.901
 9235SOL    HW128604   2.075   1.837   2.899
 9235SOL    HW228605   2.050   1.971   2.989
 9236SOL     OW28606   1.737   2.990   6.624
 9236SOL    HW128607   1.729   2.987   6.524
 9236SOL    HW228608   1.780   3.075   6.652
 9237SOL     OW28609   5.503   5.235   3.245
 9237SOL    HW128610   5.442   5.276   3.313
 9237SOL    HW228611   5.501   5.289   3.161
 9238SOL     OW28612   1.755   2.952   4.821
 9238SOL    HW128613   1.722   3.032   4.870
 9238SOL    HW228614   1.706   2.871   4.854
 9239SOL     OW28615   1.460   4.622   6.963
 9239SOL    HW128616   1.368   4.654   6.937
 9239SOL    HW228617   1.508   4.592   6.881
 9240SOL     OW28618   4.722   1.693   3.122
 9240SOL    HW128619   4.749   1.674   3.217
 9240SOL    HW228620   4.627   1.664   3.108
 9241SOL     OW28621   5.032   0.385   0.813
 9241SOL    HW128622   5.003   0.479   0.831
 9241SOL    HW228623   4.954   0.324   0.820
 9242SOL     OW28624   2.059   2.521   0.272
 9242SOL    HW128625   2.103   2.590   0.329
 9242SOL    HW228626   2.122   2.491   0.201
 9243SOL     OW28627   1.520   0.251   0.162
 9243SOL    HW128628   1.501   0.341   0.122
 9243SOL    HW228629   1.477   0.244   0.251
 9244SOL     OW28630   3.905   6.669   6.029
 9244SOL    HW128631   3.867   6.670   6.121
 9244SOL    HW228632   3.872   6.750   5.979
 9245SOL     OW28633   1.328   5.052   2.854
 9245SOL    HW128634   1.336   5.078   2.950
 9245SOL    HW228635   1.235   5.020   2.836
 9246SOL     OW28636   5.312   0.343   6.432
 9246SOL    HW128637   5.316   0.404   6.512
 9246SOL    HW228638   5.340   0.251   6.459
 9247SOL     OW28639   4.017   5.735   2.718
 9247SOL    HW128640   4.109   5.696   2.710
 9247SOL    HW228641   3.992   5.739   2.815
 9248SOL     OW28642   2.483   0.667   6.723
 9248SOL    HW128643   2.431   0.737   6.772
 9248SOL    HW228644   2.538   0.711   6.651
 9249SOL     OW28645   2.620   6.235   0.438
 9249SOL    HW128646   2.689   6.176   0.479
 9249SOL    HW228647   2.569   6.282   0.509
 9250SOL     OW28648   0.442   2.790   4.438
 9250SOL    HW128649   0.370   2.719   4.439
 9250SOL    HW228650   0.419   2.862   4.503
 9251SOL     OW28651   2.811   2.081   0.795
 9251SOL    HW128652   2.817   2.081   0.894
 9251SOL    HW228653   2.849   2.166   0.758
 9252SOL     OW28654   5.755   1.624   5.394
 9252SOL    HW128655   5.822   1.561   5.356
 9252SOL    HW228656   5.696   1.657   5.320
 9253SOL     OW28657   1.206   6.163   5.086
 9253SOL    HW128658   1.255   6.242   5.049
 9253SOL    HW228659   1.116   6.192   5.118
 9254SOL     OW28660   0.309   4.756   2.147
 9254SOL    HW128661   0.257   4.670   2.136
 9254SOL    HW228662   0.264   4.813   2.216
 9255SOL     OW28663   6.621   4.537   1.026
 9255SOL    HW128664   6.590   4.463   1.086
 9255SOL    HW228665   6.544   4.599   1.008
 9256SOL     OW28666   2.684   6.287   1.038
 9256SOL    HW128667   2.780   6.268   1.059
 9256SOL    HW228668   2.677   6.318   0.943
 9257SOL     OW28669   6.376   5.783   4.300
 9257SOL    HW128670   6.469   5.813   4.280
 9257SOL    HW228671   6.375   5.683   4.313
 9258SOL     OW28672   3.568   5.212   0.967
 9258SOL    HW128673   3.558   5.164   1.054
 9258SOL    HW228674   3.502   5.287   0.962
 9259SOL     OW28675   1.626   1.936   0.086
 9259SOL    HW128676   1.616   1.981   7.018
 9259SOL    HW228677   1.550   1.873   0.101
 9260SOL     OW28678   5.290   3.767   4.575
 9260SOL    HW128679   5.339   3.680   4.570
 9260SOL    HW228680   5.331   3.825   4.645
 9261SOL     OW28681   3.351   2.241   1.175
 9261SOL    HW128682   3.404   2.200   1.101
 9261SOL    HW228683   3.255   2.242   1.151
 9262SOL     OW28684   6.739   6.205   5.619
 9262SOL    HW128685   6.702   6.295   5.643
 9262SOL    HW228686   6.709   6.137   5.686
 9263SOL     OW28687   2.043   4.452   3.237
 9263SOL    HW128688   1.974   4.485   3.173
 9263SOL    HW228689   2.092   4.530   3.277
 9264SOL     OW28690   5.406   4.337   6.411
 9264SOL    HW128691   5.359   4.416   6.372
 9264SOL    HW228692   5.341   4.278   6.459
 9265SOL     OW28693   5.888   1.778   1.402
 9265SOL    HW128694   5.838   1.799   1.318
 9265SOL    HW228695   5.844   1.701   1.448
 9266SOL     OW28696   1.535   4.534   1.407
 9266SOL    HW128697   1.505   4.462   1.469
 9266SOL    HW228698   1.457   4.590   1.380
 9267SOL     OW28699   6.801   0.458   4.127
 9267SOL    HW128700   6.816   0.512   4.209
 9267SOL    HW228701   6.716   0.405   4.137
 9268SOL     OW28702   0.404   0.160   1.232
 9268SOL    HW128703   0.428   0.234   1.169
 9268SOL    HW228704   0.465   0.083   1.218
 9269SOL     OW28705   2.930   0.952   0.200
 9269SOL    HW128706   3.022   0.956   0.161
 9269SOL    HW228707   2.877   0.881   0.154
 9270SOL     OW28708   2.577   0.171   6.486
 9270SOL    HW128709   2.502   0.218   6.533
 9270SOL    HW228710   2.657   0.230   6.482
 9271SOL     OW28711   1.310   5.702   4.951
 9271SOL    HW128712   1.263   5.789   4.937
 9271SOL    HW228713   1.259   5.629   4.905
 9272SOL     OW28714   6.980   6.520   6.199
 9272SOL    HW128715   6.963   6.511   6.297
 9272SOL    HW228716   6.954   6.435   6.153
 9273SOL     OW28717   5.100   4.157   3.536
 9273SOL    HW128718   5.026   4.131   3.598
 9273SOL    HW228719   5.179   4.098   3.553
 9274SOL     OW28720   0.807   3.244   0.708
 9274SOL    HW128721   0.793   3.167   0.646
 9274SOL    HW228722   0.781   3.217   0.801
 9275SOL     OW28723   6.460   0.890   0.434
 9275SOL    HW128724   6.450   0.824   0.509
 9275SOL    HW228725   6.422   0.978   0.463
 9276SOL     OW28726   2.482   5.270   0.116
 9276SOL    HW128727   2.494   5.216   0.200
 9276SOL    HW228728   2.474   5.367   0.140
 9277SOL     OW28729   5.316   5.317   2.223
 9277SOL    HW128730   5.234   5.268   2.193
 9277SOL    HW228731   5.316   5.325   2.323
 9278SOL     OW28732   0.998   0.014   5.537
 9278SOL    HW128733   1.030   0.088   5.596
 9278SOL    HW228734   1.002   0.044   5.441
 9279SOL     OW28735   3.617   5.608   1.713
 9279SOL    HW128736   3.598   5.530   1.773
 9279SOL    HW228737   3.691   5.662   1.752
 9280SOL     OW28738   1.771   6.686   2.982
 9280SOL    HW128739   1.724   6.616   3.036
 9280SOL    HW228740   1.766   6.662   2.885
 9281SOL     OW28741   2.029   5.593   0.492
 9281SOL    HW128742   1.960   5.561   0.427
 9281SOL    HW228743   2.010   5.555   0.582
 9282SOL     OW28744   3.215   6.846   5.402
 9282SOL    HW128745   3.240   6.768   5.344
 9282SOL    HW228746   3.273   6.846   5.483
 9283SOL     OW28747   4.169   6.573   1.287
 9283SOL    HW128748   4.246   6.615   1.238
 9283SOL    HW228749   4.191   6.478   1.308
 9284SOL     OW28750   4.548   4.063   5.569
 9284SOL    HW128751   4.456   4.033   5.544
 9284SOL    HW228752   4.574   4.020   5.655
 9285SOL     OW28753   0.784   5.170   2.672
 9285SOL    HW128754   0.807   5.258   2.713
 9285SOL    HW228755   0.690   5.172   2.640
 9286SOL     OW28756   4.228   6.918   1.626
 9286SOL    HW128757   4.146   6.896   1.573
 9286SOL    HW228758   4.309   6.908   1.568
 9287SOL     OW28759   3.767   4.032   5.738
 9287SOL    HW128760   3.704   4.048   5.814
 9287SOL    HW228761   3.774   4.115   5.682
 9288SOL     OW28762   3.566   1.601   2.624
 9288SOL    HW128763   3.536   1.626   2.532
 9288SOL    HW228764   3.647   1.655   2.649
 9289SOL     OW28765   4.962   6.958   0.435
 9289SOL    HW128766   4.901   6.935   0.510
 9289SOL    HW228767   5.004   6.875   0.399
 9290SOL     OW28768   5.051   1.306   4.615
 9290SOL    HW128769   5.131   1.365   4.619
 9290SOL    HW228770   5.004   1.319   4.528
 9291SOL     OW28771   1.392   3.941   6.180
 9291SOL    HW128772   1.381   3.844   6.198
 9291SOL    HW228773   1.324   3.993   6.232
 9292SOL     OW28774   1.185   1.164   0.099
 9292SOL    HW128775   1.087   1.167   0.078
 9292SOL    HW228776   1.201   1.097   0.171
 9293SOL     OW28777   4.887   2.377   4.464
 9293SOL    HW128778   4.975   2.377   4.417
 9293SOL    HW228779   4.880   2.458   4.522
 9294SOL     OW28780   4.607   6.849   6.343
 9294SOL    HW128781   4.669   6.851   6.422
 9294SOL    HW228782   4.529   6.910   6.360
 9295SOL     OW28783   0.167   1.169   4.805
 9295SOL    HW128784   0.162   1.195   4.708
 9295SOL    HW228785   0.147   1.071   4.814
 9296SOL     OW28786   2.476   5.248   5.964
 9296SOL    HW128787   2.559   5.205   5.925
 9296SOL    HW228788   2.483   5.249   6.063
 9297SOL     OW28789   6.197   6.066   2.395
 9297SOL    HW128790   6.288   6.054   2.434
 9297SOL    HW228791   6.201   6.129   2.318
 9298SOL     OW28792   1.166   4.434   6.544
 9298SOL    HW128793   1.140   4.530   6.560
 9298SOL    HW228794   1.145   4.410   6.449
 9299SOL     OW28795   2.506   2.590   4.501
 9299SOL    HW128796   2.483   2.675   4.549
 9299SOL    HW228797   2.539   2.523   4.568
 9300SOL     OW28798   1.801   6.025   5.294
 9300SOL    HW128799   1.741   6.081   5.237
 9300SOL    HW228800   1.812   6.068   5.384
 9301SOL     OW28801   6.938   4.363   4.269
 9301SOL    HW128802   6.972   4.271   4.287
 9301SOL    HW228803   7.015   4.425   4.253
 9302SOL     OW28804   2.133   3.645   4.825
 9302SOL    HW128805   2.112   3.657   4.728
 9302SOL    HW228806   2.150   3.734   4.867
 9303SOL     OW28807   2.379   4.590   0.063
 9303SOL    HW128808   2.477   4.585   0.082
 9303SOL    HW228809   2.355   4.520   7.017
 9304SOL     OW28810   4.887   5.519   6.675
 9304SOL    HW128811   4.859   5.572   6.595
 9304SOL    HW228812   4.945   5.443   6.645
 9305SOL     OW28813   1.683   2.145   0.869
 9305SOL    HW128814   1.670   2.051   0.900
 9305SOL    HW228815   1.629   2.207   0.926
 9306SOL     OW28816   6.765   6.341   5.120
 9306SOL    HW128817   6.764   6.425   5.066
 9306SOL    HW228818   6.690   6.343   5.186
 9307SOL     OW28819   1.661   3.361   1.576
 9307SOL    HW128820   1.745   3.345   1.627
 9307SOL    HW228821   1.683   3.400   1.486
 9308SOL     OW28822   1.905   3.128   2.034
 9308SOL    HW128823   1.908   3.050   2.097
 9308SOL    HW228824   1.812   3.166   2.032
 9309SOL     OW28825   5.084   5.320   6.586
 9309SOL    HW128826   5.093   5.224   6.612
 9309SOL    HW228827   5.044   5.327   6.495
 9310SOL     OW28828   5.913   6.055   6.995
 9310SOL    HW128829   5.991   6.117   7.000
 9310SOL    HW228830   5.829   6.106   7.012
 9311SOL     OW28831   4.859   3.781   0.579
 9311SOL    HW128832   4.889   3.750   0.488
 9311SOL    HW228833   4.775   3.733   0.604
 9312SOL     OW28834   0.517   2.878   3.167
 9312SOL    HW128835   0.452   2.861   3.241
 9312SOL    HW228836   0.521   2.976   3.149
 9313SOL     OW28837   0.585   0.705   2.143
 9313SOL    HW128838   0.514   0.654   2.095
 9313SOL    HW228839   0.552   0.798   2.162
 9314SOL     OW28840   5.316   4.214   0.851
 9314SOL    HW128841   5.299   4.135   0.793
 9314SOL    HW228842   5.249   4.216   0.926
 9315SOL     OW28843   4.772   6.673   6.202
 9315SOL    HW128844   4.702   6.742   6.223
 9315SOL    HW228845   4.861   6.718   6.192
 9316SOL     OW28846   5.350   0.924   5.694
 9316SOL    HW128847   5.305   0.995   5.749
 9316SOL    HW228848   5.337   0.944   5.597
 9317SOL     OW28849   3.418   6.140   3.125
 9317SOL    HW128850   3.350   6.112   3.057
 9317SOL    HW228851   3.371   6.168   3.209
 9318SOL     OW28852   3.887   6.881   2.163
 9318SOL    HW128853   3.980   6.855   2.137
 9318SOL    HW228854   3.855   6.822   2.237
 9319SOL     OW28855   3.322   2.471   6.663
 9319SOL    HW128856   3.281   2.436   6.579
 9319SOL    HW228857   3.262   2.541   6.702
 9320SOL     OW28858   6.389   6.426   6.646
 9320SOL    HW128859   6.426   6.514   6.617
 9320SOL    HW228860   6.390   6.421   6.746
 9321SOL     OW28861   0.497   2.974   4.986
 9321SOL    HW128862   0.584   2.961   4.938
 9321SOL    HW228863   0.486   3.071   5.008
 9322SOL     OW28864   6.296   3.283   6.820
 9322SOL    HW128865   6.294   3.235   6.733
 9322SOL    HW228866   6.247   3.370   6.812
 9323SOL     OW28867   0.690   2.114   5.857
 9323SOL    HW128868   0.739   2.130   5.771
 9323SOL    HW228869   0.596   2.086   5.836
 9324SOL     OW28870   0.864   4.088   2.158
 9324SOL    HW128871   0.959   4.067   2.182
 9324SOL    HW228872   0.837   4.035   2.078
 9325SOL     OW28873   1.010   4.103   3.192
 9325SOL    HW128874   0.991   4.200   3.206
 9325SOL    HW228875   1.052   4.090   3.102
 9326SOL     OW28876   4.647   4.110   1.715
 9326SOL    HW128877   4.730   4.160   1.742
 9326SOL    HW228878   4.567   4.152   1.758
 9327SOL     OW28879   3.074   1.072   3.125
 9327SOL    HW128880   3.010   1.135   3.170
 9327SOL    HW228881   3.143   1.042   3.191
 9328SOL     OW28882   2.337   0.696   4.013
 9328SOL    HW128883   2.390   0.672   4.095
 9328SOL    HW228884   2.397   0.739   3.946
 9329SOL     OW28885   6.924   5.404   6.827
 9329SOL    HW128886   6.905   5.468   6.753
 9329SOL    HW228887   6.986   5.333   6.795
 9330SOL     OW28888   6.677   6.323   7.019
 9330SOL    HW128889   6.659   6.345   0.094
 9330SOL    HW228890   6.658   6.403   6.962
 9331SOL     OW28891   2.161   3.290   3.773
 9331SOL    HW128892   2.142   3.387   3.758
 9331SOL    HW228893   2.150   3.241   3.687
 9332SOL     OW28894   5.296   6.136   0.713
 9332SOL    HW128895   5.273   6.192   0.792
 9332SOL    HW228896   5.387   6.096   0.725
 9333SOL     OW28897   3.843   3.687   1.043
 9333SOL    HW128898   3.875   3.596   1.071
 9333SOL    HW228899   3.773   3.676   0.972
 9334SOL     OW28900   6.250   6.190   6.009
 9334SOL    HW128901   6.188   6.139   6.068
 9334SOL    HW228902   6.219   6.182   5.914
 9335SOL     OW28903   1.046   3.522   1.978
 9335SOL    HW128904   1.098   3.437   1.968
 9335SOL    HW228905   0.950   3.504   1.956
 9336SOL     OW28906   5.777   6.879   5.833
 9336SOL    HW128907   5.708   6.895   5.763
 9336SOL    HW228908   5.864   6.920   5.804
 9337SOL     OW28909   2.310   0.711   6.009
 9337SOL    HW128910   2.405   0.681   6.019
 9337SOL    HW228911   2.249   0.637   6.033
 9338SOL     OW28912   5.570   6.501   0.286
 9338SOL    HW128913   5.518   6.442   0.225
 9338SOL    HW228914   5.658   6.525   0.244
 9339SOL     OW28915   6.672   4.120   5.687
 9339SOL    HW128916   6.612   4.045   5.658
 9339SOL    HW228917   6.641   4.205   5.645
 9340SOL     OW28918   3.631   5.036   0.686
 9340SOL    HW128919   3.655   4.972   0.759
 9340SOL    HW228920   3.573   5.109   0.723
 9341SOL     OW28921   5.409   5.082   6.493
 9341SOL    HW128922   5.507   5.085   6.474
 9341SOL    HW228923   5.364   5.023   6.425
 9342SOL     OW28924   3.432   0.247   4.234
 9342SOL    HW128925   3.507   0.310   4.256
 9342SOL    HW228926   3.368   0.293   4.173
 9343SOL     OW28927   4.668   4.221   0.967
 9343SOL    HW128928   4.617   4.300   0.933
 9343SOL    HW228929   4.649   4.141   0.910
 9344SOL     OW28930   6.422   0.114   5.183
 9344SOL    HW128931   6.374   0.185   5.234
 9344SOL    HW228932   6.389   0.112   5.089
 9345SOL     OW28933   0.881   5.156   0.174
 9345SOL    HW128934   0.915   5.183   0.264
 9345SOL    HW228935   0.814   5.082   0.184
 9346SOL     OW28936   5.966   6.463   1.251
 9346SOL    HW128937   5.993   6.550   1.210
 9346SOL    HW228938   6.047   6.405   1.263
 9347SOL     OW28939   3.546   5.661   0.818
 9347SOL    HW128940   3.477   5.713   0.868
 9347SOL    HW228941   3.596   5.722   0.757
 9348SOL     OW28942   2.510   5.628   1.877
 9348SOL    HW128943   2.547   5.710   1.834
 9348SOL    HW228944   2.537   5.547   1.825
 9349SOL     OW28945   6.492   6.115   1.990
 9349SOL    HW128946   6.398   6.132   1.958
 9349SOL    HW228947   6.524   6.027   1.956
 9350SOL     OW28948   6.579   0.922   6.317
 9350SOL    HW128949   6.546   1.000   6.263
 9350SOL    HW228950   6.678   0.924   6.321
 9351SOL     OW28951   3.651   3.133   6.161
 9351SOL    HW128952   3.566   3.187   6.165
 9351SOL    HW228953   3.649   3.062   6.231
 9352SOL     OW28954   3.345   2.519   6.239
 9352SOL    HW128955   3.318   2.455   6.167
 9352SOL    HW228956   3.433   2.560   6.216
 9353SOL     OW28957   0.468   3.866   0.854
 9353SOL    HW128958   0.452   3.943   0.916
 9353SOL    HW228959   0.381   3.826   0.827
 9354SOL     OW28960   4.793   2.043   1.935
 9354SOL    HW128961   4.745   1.957   1.914
 9354SOL    HW228962   4.866   2.057   1.869
 9355SOL     OW28963   6.121   0.583   3.058
 9355SOL    HW128964   6.200   0.581   2.996
 9355SOL    HW228965   6.122   0.669   3.109
 9356SOL     OW28966   4.557   4.697   2.487
 9356SOL    HW128967   4.533   4.782   2.533
 9356SOL    HW228968   4.476   4.662   2.438
 9357SOL     OW28969   3.400   2.707   0.619
 9357SOL    HW128970   3.365   2.614   0.607
 9357SOL    HW228971   3.379   2.762   0.539
 9358SOL     OW28972   5.676   4.411   2.064
 9358SOL    HW128973   5.772   4.422   2.039
 9358SOL    HW228974   5.668   4.355   2.146
 9359SOL     OW28975   5.388   4.166   5.876
 9359SOL    HW128976   5.455   4.130   5.812
 9359SOL    HW228977   5.435   4.217   5.948
 9360SOL     OW28978   2.175   0.445   6.014
 9360SOL    HW128979   2.223   0.367   6.055
 9360SOL    HW228980   2.148   0.423   5.921
 9361SOL     OW28981   2.877   0.607   2.420
 9361SOL    HW128982   2.824   0.670   2.364
 9361SOL    HW228983   2.950   0.567   2.365
 9362SOL     OW28984   2.453   1.693   3.016
 9362SOL    HW128985   2.503   1.713   3.101
 9362SOL    HW228986   2.494   1.614   2.971
 9363SOL     OW28987   2.812   5.791   2.208
 9363SOL    HW128988   2.751   5.860   2.169
 9363SOL    HW228989   2.904   5.828   2.213
 9364SOL     OW28990   5.300   4.938   7.008
 9364SOL    HW128991   5.330   4.975   6.921
 9364SOL    HW228992   5.200   4.937   7.012
 9365SOL     OW28993   2.061   1.435   5.205
 9365SOL    HW128994   2.093   1.473   5.118
 9365SOL    HW228995   2.100   1.487   5.280
 9366SOL     OW28996   3.265   1.485   0.565
 9366SOL    HW128997   3.314   1.492   0.652
 9366SOL    HW228998   3.170   1.458   0.583
 9367SOL     OW28999   6.905   5.864   2.941
 9367SOL    HW129000   6.903   5.806   2.860
 9367SOL    HW229001   6.997   5.902   2.952
 9368SOL     OW29002   3.339   2.675   1.419
 9368SOL    HW129003   3.278   2.713   1.349
 9368SOL    HW229004   3.420   2.734   1.428
 9369SOL     OW29005   7.007   2.414   4.965
 9369SOL    HW129006   6.967   2.498   5.001
 9369SOL    HW229007   0.053   2.378   5.030
 9370SOL     OW29008   6.023   1.011   3.117
 9370SOL    HW129009   6.063   0.987   3.028
 9370SOL    HW229010   6.051   1.104   3.141
 9371SOL     OW29011   0.430   6.769   0.657
 9371SOL    HW129012   0.391   6.859   0.640
 9371SOL    HW229013   0.507   6.777   0.721
 9372SOL     OW29014   6.411   6.735   5.823
 9372SOL    HW129015   6.316   6.717   5.798
 9372SOL    HW229016   6.455   6.650   5.852
 9373SOL     OW29017   4.487   1.217   3.605
 9373SOL    HW129018   4.398   1.251   3.638
 9373SOL    HW229019   4.474   1.130   3.558
 9374SOL     OW29020   5.322   3.946   0.672
 9374SOL    HW129021   5.264   3.937   0.753
 9374SOL    HW229022   5.311   3.865   0.614
 9375SOL     OW29023   0.928   0.976   4.052
 9375SOL    HW129024   0.890   1.052   3.998
 9375SOL    HW229025   0.870   0.961   4.132
 9376SOL     OW29026   1.649   3.265   2.055
 9376SOL    HW129027   1.552   3.251   2.034
 9376SOL    HW229028   1.681   3.349   2.012
 9377SOL     OW29029   6.010   5.749   3.751
 9377SOL    HW129030   5.967   5.830   3.790
 9377SOL    HW229031   6.056   5.698   3.823
 9378SOL     OW29032   2.951   6.377   0.538
 9378SOL    HW129033   2.982   6.419   0.623
 9378SOL    HW229034   2.992   6.425   0.460
 9379SOL     OW29035   5.231   4.574   4.725
 9379SOL    HW129036   5.156   4.622   4.771
 9379SOL    HW229037   5.213   4.571   4.627
 9380SOL     OW29038   6.230   6.781   6.127
 9380SOL    HW129039   6.184   6.710   6.073
 9380SOL    HW229040   6.272   6.847   6.065
 9381SOL     OW29041   2.384   1.240   6.409
 9381SOL    HW129042   2.292   1.275   6.390
 9381SOL    HW229043   2.449   1.316   6.409
 9382SOL     OW29044   4.472   2.414   2.987
 9382SOL    HW129045   4.381   2.382   3.016
 9382SOL    HW229046   4.514   2.466   3.061
 9383SOL     OW29047   4.634   5.539   4.937
 9383SOL    HW129048   4.672   5.577   4.853
 9383SOL    HW229049   4.707   5.525   5.004
 9384SOL     OW29050   4.889   5.714   1.326
 9384SOL    HW129051   4.861   5.722   1.231
 9384SOL    HW229052   4.931   5.800   1.356
 9385SOL     OW29053   3.832   1.264   3.245
 9385SOL    HW129054   3.810   1.264   3.147
 9385SOL    HW229055   3.822   1.356   3.282
 9386SOL     OW29056   3.145   6.695   4.471
 9386SOL    HW129057   3.149   6.672   4.569
 9386SOL    HW229058   3.151   6.611   4.417
 9387SOL     OW29059   3.623   0.234   6.676
 9387SOL    HW129060   3.659   0.141   6.666
 9387SOL    HW229061   3.684   0.298   6.630
 9388SOL     OW29062   6.740   0.349   3.124
 9388SOL    HW129063   6.777   0.439   3.147
 9388SOL    HW229064   6.740   0.337   3.025
 9389SOL     OW29065   2.795   0.849   6.195
 9389SOL    HW129066   2.761   0.916   6.262
 9389SOL    HW229067   2.790   0.888   6.104
 9390SOL     OW29068   3.347   5.367   2.380
 9390SOL    HW129069   3.357   5.350   2.478
 9390SOL    HW229070   3.304   5.288   2.336
 9391SOL     OW29071   0.771   1.097   5.470
 9391SOL    HW129072   0.858   1.068   5.430
 9391SOL    HW229073   0.698   1.084   5.404
 9392SOL     OW29074   1.137   6.031   4.638
 9392SOL    HW129075   1.089   5.972   4.572
 9392SOL    HW229076   1.236   6.013   4.632
 9393SOL     OW29077   3.797   2.263   5.250
 9393SOL    HW129078   3.765   2.206   5.174
 9393SOL    HW229079   3.881   2.310   5.223
 9394SOL     OW29080   6.073   2.614   2.653
 9394SOL    HW129081   6.115   2.674   2.585
 9394SOL    HW229082   5.974   2.614   2.641
 9395SOL     OW29083   2.161   3.326   0.021
 9395SOL    HW129084   2.094   3.263   0.059
 9395SOL    HW229085   2.114   3.401   6.994
 9396SOL     OW29086   6.508   0.242   6.354
 9396SOL    HW129087   6.430   0.289   6.397
 9396SOL    HW229088   6.490   0.230   6.256
 9397SOL     OW29089   2.657   0.616   0.989
 9397SOL    HW129090   2.602   0.695   0.962
 9397SOL    HW229091   2.669   0.617   1.088
 9398SOL     OW29092   2.579   1.499   6.333
 9398SOL    HW129093   2.567   1.569   6.403
 9398SOL    HW229094   2.572   1.541   6.242
 9399SOL     OW29095   6.877   0.538   5.548
 9399SOL    HW129096   6.938   0.536   5.469
 9399SOL    HW229097   6.896   0.620   5.602
 9400SOL     OW29098   5.555   2.663   2.878
 9400SOL    HW129099   5.558   2.571   2.916
 9400SOL    HW229100   5.550   2.730   2.953
 9401SOL     OW29101   3.143   0.347   3.088
 9401SOL    HW129102   3.211   0.327   3.158
 9401SOL    HW229103   3.120   0.263   3.039
 9402SOL     OW29104   2.352   4.953   6.313
 9402SOL    HW129105   2.345   4.859   6.347
 9402SOL    HW229106   2.449   4.979   6.308
 9403SOL     OW29107   5.638   1.238   4.318
 9403SOL    HW129108   5.563   1.216   4.379
 9403SOL    HW229109   5.644   1.338   4.307
 9404SOL     OW29110   1.333   4.008   6.512
 9404SOL    HW129111   1.263   4.038   6.446
 9404SOL    HW229112   1.380   4.087   6.550
 9405SOL     OW29113   5.750   0.057   1.086
 9405SOL    HW129114   5.846   0.083   1.074
 9405SOL    HW229115   5.740   0.000   1.167
 9406SOL     OW29116   0.030   1.571   5.178
 9406SOL    HW129117   0.053   1.523   5.093
 9406SOL    HW229118   6.962   1.538   5.211
 9407SOL     OW29119   3.173   6.268   2.743
 9407SOL    HW129120   3.255   6.307   2.784
 9407SOL    HW229121   3.181   6.268   2.644
 9408SOL     OW29122   3.503   1.982   6.012
 9408SOL    HW129123   3.404   1.975   6.011
 9408SOL    HW229124   3.544   1.893   5.990
 9409SOL     OW29125   5.465   4.163   3.388
 9409SOL    HW129126   5.478   4.086   3.451
 9409SOL    HW229127   5.390   4.143   3.325
 9410SOL     OW29128   4.232   6.521   2.401
 9410SOL    HW129129   4.156   6.471   2.442
 9410SOL    HW229130   4.278   6.575   2.471
 9411SOL     OW29131   4.888   5.050   0.859
 9411SOL    HW129132   4.963   5.050   0.793
 9411SOL    HW229133   4.852   4.957   0.869
 9412SOL     OW29134   6.667   2.533   1.006
 9412SOL    HW129135   6.619   2.620   1.013
 9412SOL    HW229136   6.613   2.469   0.950
 9413SOL     OW29137   3.614   5.928   6.117
 9413SOL    HW129138   3.522   5.955   6.088
 9413SOL    HW229139   3.673   6.008   6.121
 9414SOL     OW29140   2.310   1.960   1.788
 9414SOL    HW129141   2.245   2.024   1.827
 9414SOL    HW229142   2.277   1.866   1.802
 9415SOL     OW29143   2.856   0.010   2.241
 9415SOL    HW129144   2.947   6.991   2.256
 9415SOL    HW229145   2.802   6.968   2.184
 9416SOL     OW29146   0.942   2.557   1.498
 9416SOL    HW129147   0.884   2.557   1.416
 9416SOL    HW229148   1.035   2.583   1.472
 9417SOL     OW29149   2.353   5.804   4.967
 9417SOL    HW129150   2.350   5.765   5.058
 9417SOL    HW229151   2.268   5.781   4.918
 9418SOL     OW29152   3.647   5.349   0.481
 9418SOL    HW129153   3.658   5.445   0.457
 9418SOL    HW229154   3.626   5.340   0.578
 9419SOL     OW29155   3.050   6.761   5.677
 9419SOL    HW129156   3.146   6.741   5.656
 9419SOL    HW229157   3.009   6.811   5.600
 9420SOL     OW29158   0.198   1.454   4.326
 9420SOL    HW129159   0.116   1.510   4.335
 9420SOL    HW229160   0.176   1.369   4.278
 9421SOL     OW29161   1.328   4.425   5.488
 9421SOL    HW129162   1.401   4.418   5.556
 9421SOL    HW229163   1.317   4.519   5.458
 9422SOL     OW29164   4.516   1.276   2.400
 9422SOL    HW129165   4.538   1.213   2.475
 9422SOL    HW229166   4.417   1.289   2.396
 9423SOL     OW29167   4.112   0.984   4.620
 9423SOL    HW129168   4.051   1.046   4.670
 9423SOL    HW229169   4.094   0.990   4.522
 9424SOL     OW29170   2.888   6.414   4.430
 9424SOL    HW129171   2.885   6.396   4.528
 9424SOL    HW229172   2.827   6.352   4.382
 9425SOL     OW29173   1.415   3.091   4.236
 9425SOL    HW129174   1.479   3.041   4.294
 9425SOL    HW229175   1.430   3.190   4.247
 9426SOL     OW29176   3.429   0.408   6.877
 9426SOL    HW129177   3.490   0.397   6.799
 9426SOL    HW229178   3.340   0.439   6.846
 9427SOL     OW29179   3.007   5.229   4.344
 9427SOL    HW129180   2.913   5.211   4.372
 9427SOL    HW229181   3.051   5.287   4.412
 9428SOL     OW29182   5.158   7.010   2.896
 9428SOL    HW129183   5.120   6.931   2.849
 9428SOL    HW229184   5.176   0.063   2.830
 9429SOL     OW29185   0.298   3.604   2.527
 9429SOL    HW129186   0.355   3.686   2.532
 9429SOL    HW229187   0.336   3.533   2.587
 9430SOL     OW29188   6.141   6.594   1.521
 9430SOL    HW129189   6.118   6.618   1.616
 9430SOL    HW229190   6.060   6.607   1.464
 9431SOL     OW29191   6.550   4.269   2.084
 9431SOL    HW129192   6.483   4.242   2.153
 9431SOL    HW229193   6.619   4.328   2.126
 9432SOL     OW29194   6.806   6.898   3.592
 9432SOL    HW129195   6.821   6.902   3.690
 9432SOL    HW229196   6.875   6.838   3.550
 9433SOL     OW29197   3.206   5.208   5.139
 9433SOL    HW129198   3.171   5.269   5.211
 9433SOL    HW229199   3.242   5.262   5.064
 9434SOL     OW29200   4.998   5.088   2.358
 9434SOL    HW129201   4.915   5.038   2.334
 9434SOL    HW229202   4.988   5.184   2.334
 9435SOL     OW29203   1.480   0.740   4.624
 9435SOL    HW129204   1.445   0.776   4.710
 9435SOL    HW229205   1.574   0.770   4.610
 9436SOL     OW29206   2.546   2.995   6.712
 9436SOL    HW129207   2.569   3.027   6.620
 9436SOL    HW229208   2.528   3.073   6.771
 9437SOL     OW29209   1.469   4.551   4.057
 9437SOL    HW129210   1.568   4.540   4.067
 9437SOL    HW229211   1.443   4.646   4.078
 9438SOL     OW29212   1.254   6.622   2.247
 9438SOL    HW129213   1.339   6.595   2.201
 9438SOL    HW229214   1.273   6.644   2.343
 9439SOL     OW29215   0.269   2.777   1.802
 9439SOL    HW129216   0.207   2.770   1.880
 9439SOL    HW229217   0.361   2.799   1.835
 9440SOL     OW29218   5.028   6.515   5.931
 9440SOL    HW129219   5.116   6.509   5.977
 9440SOL    HW229220   4.989   6.607   5.944
 9441SOL     OW29221   1.455   4.881   5.418
 9441SOL    HW129222   1.520   4.809   5.445
 9441SOL    HW229223   1.504   4.953   5.370
 9442SOL     OW29224   0.175   3.424   1.139
 9442SOL    HW129225   0.125   3.382   1.063
 9442SOL    HW229226   0.110   3.462   1.205
 9443SOL     OW29227   1.577   3.770   1.764
 9443SOL    HW129228   1.608   3.825   1.843
 9443SOL    HW229229   1.649   3.706   1.738
 9444SOL     OW29230   0.394   3.583   6.869
 9444SOL    HW129231   0.420   3.678   6.853
 9444SOL    HW229232   0.457   3.523   6.820
 9445SOL     OW29233   5.831   3.775   1.347
 9445SOL    HW129234   5.820   3.719   1.265
 9445SOL    HW229235   5.877   3.861   1.324
 9446SOL     OW29236   6.867   5.892   1.551
 9446SOL    HW129237   6.949   5.942   1.575
 9446SOL    HW229238   6.818   5.866   1.635
 9447SOL     OW29239   5.652   3.140   1.938
 9447SOL    HW129240   5.653   3.116   2.035
 9447SOL    HW229241   5.697   3.229   1.925
 9448SOL     OW29242   6.122   6.744   0.390
 9448SOL    HW129243   6.088   6.822   0.336
 9448SOL    HW229244   6.051   6.716   0.455
 9449SOL     OW29245   6.688   5.133   5.305
 9449SOL    HW129246   6.617   5.079   5.259
 9449SOL    HW229247   6.658   5.155   5.398
 9450SOL     OW29248   3.547   4.932   4.310
 9450SOL    HW129249   3.479   4.945   4.382
 9450SOL    HW229250   3.635   4.905   4.350
 9451SOL     OW29251   4.955   5.189   6.031
 9451SOL    HW129252   4.951   5.195   5.931
 9451SOL    HW229253   4.985   5.277   6.068
 9452SOL     OW29254   2.440   4.767   1.560
 9452SOL    HW129255   2.459   4.708   1.482
 9452SOL    HW229256   2.476   4.858   1.543
 9453SOL     OW29257   2.974   5.417   2.812
 9453SOL    HW129258   2.934   5.430   2.903
 9453SOL    HW229259   2.903   5.425   2.743
 9454SOL     OW29260   2.114   2.937   5.412
 9454SOL    HW129261   2.052   2.866   5.444
 9454SOL    HW229262   2.122   2.933   5.313
 9455SOL     OW29263   3.684   1.505   2.296
 9455SOL    HW129264   3.611   1.570   2.313
 9455SOL    HW229265   3.745   1.541   2.226
 9456SOL     OW29266   1.452   3.587   1.205
 9456SOL    HW129267   1.416   3.556   1.293
 9456SOL    HW229268   1.377   3.590   1.138
 9457SOL     OW29269   0.699   3.682   0.812
 9457SOL    HW129270   0.620   3.743   0.820
 9457SOL    HW229271   0.681   3.598   0.863
 9458SOL     OW29272   6.593   5.763   5.160
 9458SOL    HW129273   6.631   5.798   5.074
 9458SOL    HW229274   6.541   5.679   5.141
 9459SOL     OW29275   6.200   5.579   1.606
 9459SOL    HW129276   6.135   5.503   1.616
 9459SOL    HW229277   6.269   5.573   1.678
 9460SOL     OW29278   1.056   2.071   5.289
 9460SOL    HW129279   1.061   1.983   5.336
 9460SOL    HW229280   1.098   2.064   5.199
 9461SOL     OW29281   1.351   0.979   3.890
 9461SOL    HW129282   1.262   0.967   3.934
 9461SOL    HW229283   1.360   1.074   3.860
 9462SOL     OW29284   0.891   3.461   2.358
 9462SOL    HW129285   0.930   3.553   2.355
 9462SOL    HW229286   0.961   3.395   2.382
 9463SOL     OW29287   5.603   1.474   0.302
 9463SOL    HW129288   5.566   1.489   0.393
 9463SOL    HW229289   5.685   1.529   0.290
 9464SOL     OW29290   6.028   0.404   6.248
 9464SOL    HW129291   5.966   0.403   6.169
 9464SOL    HW229292   5.982   0.448   6.326
 9465SOL     OW29293   6.465   1.059   3.974
 9465SOL    HW129294   6.377   1.020   4.002
 9465SOL    HW229295   6.539   1.007   4.017
 9466SOL     OW29296   2.974   2.394   6.675
 9466SOL    HW129297   3.024   2.476   6.648
 9466SOL    HW229298   2.877   2.416   6.688
 9467SOL     OW29299   2.014   3.384   2.138
 9467SOL    HW129300   2.071   3.434   2.074
 9467SOL    HW229301   2.017   3.286   2.116
 9468SOL     OW29302   0.182   3.275   5.779
 9468SOL    HW129303   0.270   3.241   5.814
 9468SOL    HW229304   0.198   3.327   5.695
 9469SOL     OW29305   6.219   4.867   1.920
 9469SOL    HW129306   6.229   4.776   1.879
 9469SOL    HW229307   6.282   4.931   1.875
 9470SOL     OW29308   5.001   3.737   0.840
 9470SOL    HW129309   4.957   3.777   0.760
 9470SOL    HW229310   4.937   3.739   0.917
 9471SOL     OW29311   0.544   1.820   5.335
 9471SOL    HW129312   0.632   1.861   5.360
 9471SOL    HW229313   0.512   1.860   5.248
 9472SOL     OW29314   6.218   4.365   3.996
 9472SOL    HW129315   6.280   4.287   3.997
 9472SOL    HW229316   6.261   4.442   3.950
 9473SOL     OW29317   2.933   5.286   5.872
 9473SOL    HW129318   3.021   5.240   5.857
 9473SOL    HW229319   2.902   5.327   5.787
 9474SOL     OW29320   4.125   5.009   2.082
 9474SOL    HW129321   4.040   5.035   2.035
 9474SOL    HW229322   4.197   5.075   2.058
 9475SOL     OW29323   2.432   3.509   1.459
 9475SOL    HW129324   2.340   3.518   1.420
 9475SOL    HW229325   2.454   3.591   1.512
 9476SOL     OW29326   3.543   3.400   5.795
 9476SOL    HW129327   3.629   3.370   5.754
 9476SOL    HW229328   3.561   3.438   5.886
 9477SOL     OW29329   1.174   2.619   1.393
 9477SOL    HW129330   1.192   2.622   1.295
 9477SOL    HW229331   1.259   2.636   1.443
 9478SOL     OW29332   6.048   4.713   5.439
 9478SOL    HW129333   6.056   4.616   5.463
 9478SOL    HW229334   5.952   4.736   5.426
 9479SOL     OW29335   6.114   6.204   6.286
 9479SOL    HW129336   6.106   6.111   6.321
 9479SOL    HW229337   6.193   6.249   6.328
 9480SOL     OW29338   5.808   4.775   6.925
 9480SOL    HW129339   5.726   4.814   6.883
 9480SOL    HW229340   5.833   4.691   6.877
 9481SOL     OW29341   0.201   3.793   2.279
 9481SOL    HW129342   0.123   3.739   2.309
 9481SOL    HW229343   0.264   3.734   2.226
 9482SOL     OW29344   4.630   1.069   2.033
 9482SOL    HW129345   4.681   1.054   2.118
 9482SOL    HW229346   4.606   0.981   1.992
 9483SOL     OW29347   1.830   1.528   6.570
 9483SOL    HW129348   1.881   1.614   6.564
 9483SOL    HW229349   1.856   1.479   6.653
 9484SOL     OW29350   6.807   1.550   3.760
 9484SOL    HW129351   6.772   1.490   3.687
 9484SOL    HW229352   6.839   1.636   3.719
 9485SOL     OW29353   0.956   0.333   2.329
 9485SOL    HW129354   0.871   0.340   2.277
 9485SOL    HW229355   0.945   0.379   2.417
 9486SOL     OW29356   3.143   5.952   1.469
 9486SOL    HW129357   3.094   5.867   1.449
 9486SOL    HW229358   3.143   5.968   1.568
 9487SOL     OW29359   3.196   3.576   4.140
 9487SOL    HW129360   3.106   3.549   4.106
 9487SOL    HW229361   3.235   3.645   4.079
 9488SOL     OW29362   1.228   6.584   1.265
 9488SOL    HW129363   1.265   6.667   1.308
 9488SOL    HW229364   1.130   6.597   1.248
 9489SOL     OW29365   3.947   5.026   0.655
 9489SOL    HW129366   3.860   4.977   0.667
 9489SOL    HW229367   3.929   5.119   0.624
 9490SOL     OW29368   4.915   1.016   1.611
 9490SOL    HW129369   4.839   0.967   1.569
 9490SOL    HW229370   4.907   1.011   1.711
 9491SOL     OW29371   5.681   4.766   5.980
 9491SOL    HW129372   5.627   4.846   6.004
 9491SOL    HW229373   5.755   4.792   5.919
 9492SOL     OW29374   3.264   3.820   1.528
 9492SOL    HW129375   3.342   3.854   1.580
 9492SOL    HW229376   3.244   3.882   1.453
 9493SOL     OW29377   4.581   6.143   3.005
 9493SOL    HW129378   4.508   6.118   3.069
 9493SOL    HW229379   4.604   6.240   3.017
 9494SOL     OW29380   4.366   3.180   5.283
 9494SOL    HW129381   4.401   3.272   5.270
 9494SOL    HW229382   4.266   3.183   5.291
 9495SOL     OW29383   5.959   2.451   5.257
 9495SOL    HW129384   5.918   2.410   5.338
 9495SOL    HW229385   5.983   2.380   5.192
 9496SOL     OW29386   5.550   4.130   0.019
 9496SOL    HW129387   5.583   4.199   6.975
 9496SOL    HW229388   5.592   4.042   7.018
 9497SOL     OW29389   5.770   6.093   6.640
 9497SOL    HW129390   5.709   6.088   6.719
 9497SOL    HW229391   5.859   6.055   6.664
 9498SOL     OW29392   3.839   0.016   6.153
 9498SOL    HW129393   3.859   0.038   6.058
 9498SOL    HW229394   3.784   0.090   6.194
 9499SOL     OW29395   3.336   3.798   5.505
 9499SOL    HW129396   3.428   3.835   5.508
 9499SOL    HW229397   3.295   3.817   5.415
 9500SOL     OW29398   4.985   5.700   1.774
 9500SOL    HW129399   5.053   5.703   1.847
 9500SOL    HW229400   5.001   5.775   1.710
 9501SOL     OW29401   2.998   1.263   4.687
 9501SOL    HW129402   3.053   1.228   4.611
 9501SOL    HW229403   2.942   1.189   4.724
 9502SOL     OW29404   5.875   2.710   5.332
 9502SOL    HW129405   5.780   2.733   5.311
 9502SOL    HW229406   5.891   2.613   5.313
 9503SOL     OW29407   1.130   6.875   1.278
 9503SOL    HW129408   1.188   6.894   1.199
 9503SOL    HW229409   1.044   6.835   1.248
 9504SOL     OW29410   0.699   2.904   6.740
 9504SOL    HW129411   0.764   2.972   6.772
 9504SOL    HW229412   0.693   2.829   6.806
 9505SOL     OW29413   5.951   2.989   3.567
 9505SOL    HW129414   5.861   2.990   3.611
 9505SOL    HW229415   5.940   2.967   3.471
 9506SOL     OW29416   6.666   3.847   0.421
 9506SOL    HW129417   6.573   3.860   0.455
 9506SOL    HW229418   6.682   3.750   0.403
 9507SOL     OW29419   0.979   1.607   3.777
 9507SOL    HW129420   0.986   1.554   3.693
 9507SOL    HW229421   1.057   1.670   3.782
 9508SOL     OW29422   5.968   1.888   0.827
 9508SOL    HW129423   5.984   1.885   0.925
 9508SOL    HW229424   5.877   1.852   0.807
 9509SOL     OW29425   2.355   6.298   5.899
 9509SOL    HW129426   2.395   6.235   5.966
 9509SOL    HW229427   2.292   6.247   5.840
 9510SOL     OW29428   6.134   4.746   3.525
 9510SOL    HW129429   6.121   4.822   3.590
 9510SOL    HW229430   6.105   4.776   3.434
 9511SOL     OW29431   0.637   1.556   0.942
 9511SOL    HW129432   0.721   1.602   0.970
 9511SOL    HW229433   0.559   1.616   0.960
 9512SOL     OW29434   1.333   2.449   4.066
 9512SOL    HW129435   1.372   2.509   4.136
 9512SOL    HW229436   1.241   2.481   4.043
 9513SOL     OW29437   2.237   3.988   4.246
 9513SOL    HW129438   2.273   3.897   4.268
 9513SOL    HW229439   2.198   3.986   4.154
 9514SOL     OW29440   2.154   2.815   6.888
 9514SOL    HW129441   2.185   2.878   6.816
 9514SOL    HW229442   2.184   2.722   6.866
 9515SOL     OW29443   1.760   5.709   6.337
 9515SOL    HW129444   1.697   5.765   6.392
 9515SOL    HW229445   1.846   5.699   6.386
 9516SOL     OW29446   4.945   3.589   4.104
 9516SOL    HW129447   5.036   3.627   4.122
 9516SOL    HW229448   4.915   3.615   4.013
 9517SOL     OW29449   0.343   5.814   1.962
 9517SOL    HW129450   0.307   5.835   2.052
 9517SOL    HW229451   0.434   5.772   1.971
 9518SOL     OW29452   0.424   2.288   6.166
 9518SOL    HW129453   0.503   2.256   6.114
 9518SOL    HW229454   0.449   2.370   6.217
 9519SOL     OW29455   3.545   3.904   3.231
 9519SOL    HW129456   3.516   3.909   3.135
 9519SOL    HW229457   3.637   3.866   3.236
 9520SOL     OW29458   6.682   0.154   5.196
 9520SOL    HW129459   6.589   0.118   5.187
 9520SOL    HW229460   6.686   0.212   5.278
 9521SOL     OW29461   3.136   0.535   0.875
 9521SOL    HW129462   3.140   0.476   0.956
 9521SOL    HW229463   3.109   0.627   0.903
 9522SOL     OW29464   3.536   5.967   1.908
 9522SOL    HW129465   3.494   5.904   1.843
 9522SOL    HW229466   3.465   6.004   1.968
 9523SOL     OW29467   2.331   5.030   4.175
 9523SOL    HW129468   2.254   4.970   4.198
 9523SOL    HW229469   2.372   4.998   4.090
 9524SOL     OW29470   1.578   4.178   1.696
 9524SOL    HW129471   1.513   4.191   1.771
 9524SOL    HW229472   1.663   4.225   1.717
 9525SOL     OW29473   2.014   3.098   5.623
 9525SOL    HW129474   2.054   3.170   5.678
 9525SOL    HW229475   2.057   3.097   5.533
 9526SOL     OW29476   5.272   4.575   6.912
 9526SOL    HW129477   5.317   4.544   6.828
 9526SOL    HW229478   5.338   4.628   6.966
 9527SOL     OW29479   3.696   6.650   3.485
 9527SOL    HW129480   3.742   6.721   3.539
 9527SOL    HW229481   3.648   6.691   3.409
 9528SOL     OW29482   5.477   1.757   1.352
 9528SOL    HW129483   5.462   1.798   1.262
 9528SOL    HW229484   5.512   1.664   1.341
 9529SOL     OW29485   6.054   1.610   1.771
 9529SOL    HW129486   6.151   1.612   1.749
 9529SOL    HW229487   6.039   1.655   1.859
 9530SOL     OW29488   0.700   5.733   3.811
 9530SOL    HW129489   0.747   5.727   3.899
 9530SOL    HW229490   0.731   5.814   3.761
 9531SOL     OW29491   3.790   4.921   2.719
 9531SOL    HW129492   3.731   4.880   2.649
 9531SOL    HW229493   3.763   5.016   2.734
 9532SOL     OW29494   5.725   5.175   2.396
 9532SOL    HW129495   5.695   5.094   2.346
 9532SOL    HW229496   5.769   5.148   2.482
 9533SOL     OW29497   2.191   4.686   3.295
 9533SOL    HW129498   2.187   4.741   3.378
 9533SOL    HW229499   2.283   4.651   3.282
 9534SOL     OW29500   5.374   4.892   5.128
 9534SOL    HW129501   5.446   4.956   5.155
 9534SOL    HW229502   5.350   4.834   5.206
 9535SOL     OW29503   0.969   0.841   5.593
 9535SOL    HW129504   0.941   0.749   5.619
 9535SOL    HW229505   0.908   0.876   5.521
 9536SOL     OW29506   3.986   3.954   4.603
 9536SOL    HW129507   4.064   3.984   4.657
 9536SOL    HW229508   3.958   3.862   4.632
 9537SOL     OW29509   1.646   1.148   3.999
 9537SOL    HW129510   1.640   1.236   3.953
 9537SOL    HW229511   1.562   1.131   4.050
 9538SOL     OW29512   3.090   0.829   4.923
 9538SOL    HW129513   3.102   0.885   4.841
 9538SOL    HW229514   3.161   0.760   4.927
 9539SOL     OW29515   3.628   2.947   2.924
 9539SOL    HW129516   3.661   2.919   3.013
 9539SOL    HW229517   3.702   2.942   2.857
 9540SOL     OW29518   4.717   4.794   4.024
 9540SOL    HW129519   4.716   4.731   4.102
 9540SOL    HW229520   4.664   4.875   4.046
 9541SOL     OW29521   1.713   5.874   4.988
 9541SOL    HW129522   1.778   5.858   5.062
 9541SOL    HW229523   1.676   5.787   4.956
 9542SOL     OW29524   5.886   4.556   4.323
 9542SOL    HW129525   5.907   4.611   4.404
 9542SOL    HW229526   5.964   4.558   4.261
 9543SOL     OW29527   2.551   0.579   6.054
 9543SOL    HW129528   2.636   0.544   6.015
 9543SOL    HW229529   2.523   0.521   6.131
 9544SOL     OW29530   5.391   3.316   3.826
 9544SOL    HW129531   5.391   3.383   3.752
 9544SOL    HW229532   5.304   3.322   3.875
 9545SOL     OW29533   1.354   4.679   1.923
 9545SOL    HW129534   1.390   4.771   1.940
 9545SOL    HW229535   1.353   4.627   2.008
 9546SOL     OW29536   2.573   1.695   6.509
 9546SOL    HW129537   2.627   1.638   6.570
 9546SOL    HW229538   2.549   1.780   6.555
 9547SOL     OW29539   3.748   5.931   3.998
 9547SOL    HW129540   3.677   6.002   3.999
 9547SOL    HW229541   3.829   5.966   3.950
 9548SOL     OW29542   1.216   4.748   6.870
 9548SOL    HW129543   1.245   4.776   6.779
 9548SOL    HW229544   1.123   4.709   6.865
 9549SOL     OW29545   4.309   2.169   1.391
 9549SOL    HW129546   4.310   2.232   1.469
 9549SOL    HW229547   4.323   2.076   1.424
 9550SOL     OW29548   5.020   2.979   1.604
 9550SOL    HW129549   5.000   2.986   1.701
 9550SOL    HW229550   5.058   2.889   1.584
 9551SOL     OW29551   6.727   2.181   6.621
 9551SOL    HW129552   6.823   2.157   6.609
 9551SOL    HW229553   6.671   2.127   6.559
 9552SOL     OW29554   2.702   1.514   6.672
 9552SOL    HW129555   2.784   1.456   6.679
 9552SOL    HW229556   2.658   1.519   6.762
 9553SOL     OW29557   5.779   2.025   6.854
 9553SOL    HW129558   5.699   2.044   6.797
 9553SOL    HW229559   5.818   2.111   6.886
 9554SOL     OW29560   1.970   6.821   4.297
 9554SOL    HW129561   2.041   6.804   4.229
 9554SOL    HW229562   2.011   6.822   4.388
 9555SOL     OW29563   6.520   0.628   3.991
 9555SOL    HW129564   6.489   0.609   4.084
 9555SOL    HW229565   6.480   0.560   3.929
 9556SOL     OW29566   2.168   4.151   0.984
 9556SOL    HW129567   2.089   4.211   0.972
 9556SOL    HW229568   2.183   4.098   0.901
 9557SOL     OW29569   4.884   0.525   1.960
 9557SOL    HW129570   4.865   0.477   1.875
 9557SOL    HW229571   4.798   0.551   2.004
 9558SOL     OW29572   5.421   6.658   6.168
 9558SOL    HW129573   5.384   6.596   6.099
 9558SOL    HW229574   5.458   6.740   6.124
 9559SOL     OW29575   1.750   3.874   0.396
 9559SOL    HW129576   1.813   3.941   0.435
 9559SOL    HW229577   1.691   3.919   0.329
 9560SOL     OW29578   2.976   6.644   1.915
 9560SOL    HW129579   3.052   6.597   1.960
 9560SOL    HW229580   2.976   6.623   1.817
 9561SOL     OW29581   1.207   0.900   1.058
 9561SOL    HW129582   1.144   0.925   0.986
 9561SOL    HW229583   1.301   0.918   1.029
 9562SOL     OW29584   2.922   5.151   3.887
 9562SOL    HW129585   2.870   5.213   3.829
 9562SOL    HW229586   2.869   5.068   3.904
 9563SOL     OW29587   0.927   6.166   1.002
 9563SOL    HW129588   0.890   6.149   1.093
 9563SOL    HW229589   0.879   6.108   0.936
 9564SOL     OW29590   1.647   6.955   0.548
 9564SOL    HW129591   1.655   6.878   0.612
 9564SOL    HW229592   1.704   0.010   0.580
 9565SOL     OW29593   3.656   1.073   4.124
 9565SOL    HW129594   3.618   1.138   4.059
 9565SOL    HW229595   3.706   1.002   4.075
 9566SOL     OW29596   2.475   6.781   0.482
 9566SOL    HW129597   2.429   6.852   0.429
 9566SOL    HW229598   2.472   6.694   0.432
 9567SOL     OW29599   6.163   4.817   0.896
 9567SOL    HW129600   6.131   4.813   0.991
 9567SOL    HW229601   6.143   4.907   0.858
 9568SOL     OW29602   4.175   1.883   6.986
 9568SOL    HW129603   4.250   1.898   6.922
 9568SOL    HW229604   4.157   1.785   6.995
 9569SOL     OW29605   5.360   0.231   1.781
 9569SOL    HW129606   5.393   0.325   1.788
 9569SOL    HW229607   5.260   0.230   1.777
 9570SOL     OW29608   6.865   2.721   1.072
 9570SOL    HW129609   6.800   2.646   1.062
 9570SOL    HW229610   6.842   2.794   1.007
 9571SOL     OW29611   3.192   2.335   0.125
 9571SOL    HW129612   3.121   2.309   0.060
 9571SOL    HW229613   3.238   2.252   0.158
 9572SOL     OW29614   2.158   3.932   3.218
 9572SOL    HW129615   2.190   3.955   3.310
 9572SOL    HW229616   2.128   3.836   3.217
 9573SOL     OW29617   6.853   1.095   4.616
 9573SOL    HW129618   6.867   1.094   4.715
 9573SOL    HW229619   6.799   1.175   4.591
 9574SOL     OW29620   4.052   2.998   1.331
 9574SOL    HW129621   4.138   3.016   1.379
 9574SOL    HW229622   3.983   3.063   1.362
 9575SOL     OW29623   5.648   6.422   1.746
 9575SOL    HW129624   5.698   6.484   1.806
 9575SOL    HW229625   5.699   6.408   1.661
 9576SOL     OW29626   1.080   0.683   0.135
 9576SOL    HW129627   1.162   0.729   0.100
 9576SOL    HW229628   1.015   0.752   0.169
 9577SOL     OW29629   6.445   5.767   1.638
 9577SOL    HW129630   6.468   5.795   1.545
 9577SOL    HW229631   6.465   5.670   1.649
 9578SOL     OW29632   1.244   2.505   3.135
 9578SOL    HW129633   1.264   2.429   3.073
 9578SOL    HW229634   1.178   2.566   3.092
 9579SOL     OW29635   5.777   6.689   2.471
 9579SOL    HW129636   5.715   6.767   2.479
 9579SOL    HW229637   5.726   6.611   2.434
 9580SOL     OW29638   4.822   4.834   1.609
 9580SOL    HW129639   4.740   4.824   1.666
 9580SOL    HW229640   4.801   4.807   1.515
 9581SOL     OW29641   6.198   0.887   0.102
 9581SOL    HW129642   6.102   0.862   0.096
 9581SOL    HW229643   6.211   0.952   0.177
 9582SOL     OW29644   4.070   5.512   4.016
 9582SOL    HW129645   4.050   5.541   4.109
 9582SOL    HW229646   3.991   5.533   3.957
 9583SOL     OW29647   3.388   4.625   1.755
 9583SOL    HW129648   3.461   4.662   1.813
 9583SOL    HW229649   3.399   4.525   1.748
 9584SOL     OW29650   1.804   4.181   4.208
 9584SOL    HW129651   1.789   4.216   4.116
 9584SOL    HW229652   1.722   4.195   4.263
 9585SOL     OW29653   5.038   6.024   1.620
 9585SOL    HW129654   5.075   5.983   1.536
 9585SOL    HW229655   4.940   6.041   1.609
 9586SOL     OW29656   4.452   5.086   1.470
 9586SOL    HW129657   4.501   5.000   1.485
 9586SOL    HW229658   4.484   5.155   1.535
 9587SOL     OW29659   2.611   6.335   1.504
 9587SOL    HW129660   2.629   6.238   1.483
 9587SOL    HW229661   2.545   6.371   1.437
 9588SOL     OW29662   6.334   6.074   0.550
 9588SOL    HW129663   6.396   6.153   0.541
 9588SOL    HW229664   6.387   5.990   0.549
 9589SOL     OW29665   1.610   4.097   6.204
 9589SOL    HW129666   1.563   4.009   6.205
 9589SOL    HW229667   1.607   4.137   6.113
 9590SOL     OW29668   5.438   1.474   2.186
 9590SOL    HW129669   5.455   1.424   2.272
 9590SOL    HW229670   5.417   1.569   2.206
 9591SOL     OW29671   3.068   0.434   6.300
 9591SOL    HW129672   2.993   0.499   6.312
 9591SOL    HW229673   3.082   0.416   6.203
 9592SOL     OW29674   2.697   4.283   6.671
 9592SOL    HW129675   2.601   4.261   6.660
 9592SOL    HW229676   2.720   4.288   6.769
 9593SOL     OW29677   1.796   1.456   5.629
 9593SOL    HW129678   1.869   1.491   5.570
 9593SOL    HW229679   1.815   1.361   5.653
 9594SOL     OW29680   1.323   5.826   3.887
 9594SOL    HW129681   1.375   5.804   3.969
 9594SOL    HW229682   1.383   5.822   3.807
 9595SOL     OW29683   0.306   2.970   3.834
 9595SOL    HW129684   0.358   3.049   3.865
 9595SOL    HW229685   0.366   2.890   3.830
 9596SOL     OW29686   0.212   5.906   1.183
 9596SOL    HW129687   0.309   5.885   1.195
 9596SOL    HW229688   0.159   5.822   1.196
 9597SOL     OW29689   1.023   3.927   2.782
 9597SOL    HW129690   0.976   3.986   2.848
 9597SOL    HW229691   1.119   3.954   2.775
 9598SOL     OW29692   1.738   3.527   2.723
 9598SOL    HW129693   1.754   3.624   2.706
 9598SOL    HW229694   1.791   3.498   2.802
 9599SOL     OW29695   3.069   6.929   3.594
 9599SOL    HW129696   3.034   6.887   3.677
 9599SOL    HW229697   2.995   6.941   3.528
 9600SOL     OW29698   3.038   0.745   1.041
 9600SOL    HW129699   2.942   0.766   1.062
 9600SOL    HW229700   3.082   0.825   1.002
 9601SOL     OW29701   6.501   4.324   1.168
 9601SOL    HW129702   6.545   4.309   1.256
 9601SOL    HW229703   6.430   4.254   1.154
 9602SOL     OW29704   5.179   4.323   5.405
 9602SOL    HW129705   5.129   4.391   5.458
 9602SOL    HW229706   5.274   4.319   5.435
 9603SOL     OW29707   5.633   6.923   5.472
 9603SOL    HW129708   5.651   7.004   5.416
 9603SOL    HW229709   5.715   6.865   5.472
 9604SOL     OW29710   5.366   0.523   0.538
 9604SOL    HW129711   5.296   0.453   0.528
 9604SOL    HW229712   5.430   0.496   0.610
 9605SOL     OW29713   6.813   4.969   3.494
 9605SOL    HW129714   6.760   5.000   3.415
 9605SOL    HW229715   6.757   4.906   3.548
 9606SOL     OW29716   1.133   1.238   6.690
 9606SOL    HW129717   1.176   1.324   6.716
 9606SOL    HW229718   1.058   1.255   6.626
 9607SOL     OW29719   3.097   1.924   6.212
 9607SOL    HW129720   3.134   1.864   6.283
 9607SOL    HW229721   3.008   1.889   6.182
 9608SOL     OW29722   6.643   4.437   2.983
 9608SOL    HW129723   6.577   4.505   3.016
 9608SOL    HW229724   6.712   4.421   3.053
 9609SOL     OW29725   3.835   2.605   6.275
 9609SOL    HW129726   3.842   2.506   6.290
 9609SOL    HW229727   3.905   2.652   6.328
 9610SOL     OW29728   1.911   3.893   2.809
 9610SOL    HW129729   1.901   3.877   2.711
 9610SOL    HW229730   2.006   3.879   2.836
 9611SOL     OW29731   1.937   6.370   1.314
 9611SOL    HW129732   1.970   6.403   1.226
 9611SOL    HW229733   1.841   6.395   1.326
 9612SOL     OW29734   0.623   3.037   2.482
 9612SOL    HW129735   0.582   3.127   2.493
 9612SOL    HW229736   0.720   3.047   2.461
 9613SOL     OW29737   6.119   5.963   3.520
 9613SOL    HW129738   6.165   6.023   3.453
 9613SOL    HW229739   6.187   5.902   3.561
 9614SOL     OW29740   4.115   2.287   3.335
 9614SOL    HW129741   4.193   2.292   3.398
 9614SOL    HW229742   4.038   2.243   3.381
 9615SOL     OW29743   2.538   2.550   0.951
 9615SOL    HW129744   2.534   2.518   1.045
 9615SOL    HW229745   2.630   2.538   0.915
 9616SOL     OW29746   3.781   2.818   1.010
 9616SOL    HW129747   3.694   2.769   1.022
 9616SOL    HW229748   3.774   2.908   1.053
 9617SOL     OW29749   2.242   3.031   3.878
 9617SOL    HW129750   2.245   3.125   3.845
 9617SOL    HW229751   2.306   2.975   3.825
 9618SOL     OW29752   2.965   1.090   0.841
 9618SOL    HW129753   2.918   1.165   0.888
 9618SOL    HW229754   2.915   1.066   0.758
 9619SOL     OW29755   1.876   0.761   5.673
 9619SOL    HW129756   1.941   0.716   5.612
 9619SOL    HW229757   1.795   0.787   5.621
 9620SOL     OW29758   5.169   0.338   5.007
 9620SOL    HW129759   5.071   0.335   4.988
 9620SOL    HW229760   5.184   0.356   5.104
 9621SOL     OW29761   1.962   2.693   2.318
 9621SOL    HW129762   1.990   2.766   2.380
 9621SOL    HW229763   1.918   2.733   2.237
 9622SOL     OW29764   5.803   1.373   1.148
 9622SOL    HW129765   5.855   1.327   1.219
 9622SOL    HW229766   5.739   1.437   1.190
 9623SOL     OW29767   3.299   2.974   6.343
 9623SOL    HW129768   3.215   2.952   6.393
 9623SOL    HW229769   3.301   2.923   6.257
 9624SOL     OW29770   5.631   3.469   2.950
 9624SOL    HW129771   5.689   3.395   2.915
 9624SOL    HW229772   5.687   3.534   3.000
 9625SOL     OW29773   5.802   6.226   0.490
 9625SOL    HW129774   5.863   6.156   0.454
 9625SOL    HW229775   5.851   6.283   0.555
 9626SOL     OW29776   3.922   5.273   0.567
 9626SOL    HW129777   3.921   5.341   0.641
 9626SOL    HW229778   3.841   5.285   0.510
 9627SOL     OW29779   1.124   6.150   6.287
 9627SOL    HW129780   1.204   6.203   6.261
 9627SOL    HW229781   1.073   6.124   6.204
 9628SOL     OW29782   4.541   6.234   1.016
 9628SOL    HW129783   4.618   6.170   1.025
 9628SOL    HW229784   4.462   6.185   0.980
 9629SOL     OW29785   2.662   0.258   1.482
 9629SOL    HW129786   2.608   0.340   1.501
 9629SOL    HW229787   2.601   0.178   1.482
 9630SOL     OW29788   6.720   0.894   6.005
 9630SOL    HW129789   6.686   0.966   5.945
 9630SOL    HW229790   6.680   0.807   5.979
 9631SOL     OW29791   6.403   7.016   6.417
 9631SOL    HW129792   6.414   0.095   6.406
 9631SOL    HW229793   6.493   6.972   6.412
 9632SOL     OW29794   1.845   6.257   2.066
 9632SOL    HW129795   1.850   6.357   2.070
 9632SOL    HW229796   1.926   6.221   2.019
 9633SOL     OW29797   5.965   5.818   6.899
 9633SOL    HW129798   5.948   5.899   6.955
 9633SOL    HW229799   5.884   5.760   6.898
 9634SOL     OW29800   1.433   6.156   4.614
 9634SOL    HW129801   1.379   6.212   4.552
 9634SOL    HW229802   1.519   6.202   4.635
 9635SOL     OW29803   2.819   5.473   4.543
 9635SOL    HW129804   2.809   5.391   4.487
 9635SOL    HW229805   2.753   5.472   4.617
 9636SOL     OW29806   4.111   1.236   5.427
 9636SOL    HW129807   4.118   1.316   5.487
 9636SOL    HW229808   4.128   1.264   5.332
 9637SOL     OW29809   1.579   1.822   6.560
 9637SOL    HW129810   1.649   1.772   6.611
 9637SOL    HW229811   1.607   1.917   6.549
 9638SOL     OW29812   6.720   3.315   5.289
 9638SOL    HW129813   6.711   3.378   5.366
 9638SOL    HW229814   6.778   3.357   5.219
 9639SOL     OW29815   4.901   1.459   2.656
 9639SOL    HW129816   4.828   1.390   2.656
 9639SOL    HW229817   4.936   1.470   2.749
 9640SOL     OW29818   2.323   2.556   3.018
 9640SOL    HW129819   2.367   2.591   3.100
 9640SOL    HW229820   2.229   2.528   3.040
 9641SOL     OW29821   5.732   7.009   0.562
 9641SOL    HW129822   5.691   6.973   0.478
 9641SOL    HW229823   5.746   0.087   0.552
 9642SOL     OW29824   3.125   0.395   4.756
 9642SOL    HW129825   3.160   0.417   4.665
 9642SOL    HW229826   3.199   0.357   4.812
 9643SOL     OW29827   5.060   4.838   3.766
 9643SOL    HW129828   5.086   4.869   3.675
 9643SOL    HW229829   5.106   4.896   3.835
 9644SOL     OW29830   1.299   2.988   6.400
 9644SOL    HW129831   1.240   2.912   6.427
 9644SOL    HW229832   1.391   2.954   6.381
 9645SOL     OW29833   2.857   5.218   5.338
 9645SOL    HW129834   2.931   5.280   5.313
 9645SOL    HW229835   2.882   5.167   5.421
 9646SOL     OW29836   4.023   4.753   2.629
 9646SOL    HW129837   4.022   4.814   2.550
 9646SOL    HW229838   3.936   4.759   2.678
 9647SOL     OW29839   6.700   3.490   0.888
 9647SOL    HW129840   6.776   3.553   0.869
 9647SOL    HW229841   6.630   3.500   0.818
 9648SOL     OW29842   4.665   2.810   1.010
 9648SOL    HW129843   4.651   2.808   1.109
 9648SOL    HW229844   4.762   2.821   0.990
 9649SOL     OW29845   1.989   5.864   0.112
 9649SOL    HW129846   1.928   5.831   0.184
 9649SOL    HW229847   2.069   5.909   0.154
 9650SOL     OW29848   6.729   5.709   1.973
 9650SOL    HW129849   6.706   5.652   1.894
 9650SOL    HW229850   6.792   5.660   2.033
 9651SOL     OW29851   0.798   1.043   6.503
 9651SOL    HW129852   0.775   1.133   6.465
 9651SOL    HW229853   0.896   1.026   6.490
 9652SOL     OW29854   0.211   4.779   3.178
 9652SOL    HW129855   0.260   4.723   3.111
 9652SOL    HW229856   0.179   4.720   3.253
 9653SOL     OW29857   5.507   5.108   4.508
 9653SOL    HW129858   5.428   5.094   4.449
 9653SOL    HW229859   5.584   5.142   4.453
 9654SOL     OW29860   2.177   2.755   1.946
 9654SOL    HW129861   2.209   2.663   1.926
 9654SOL    HW229862   2.227   2.821   1.890
 9655SOL     OW29863   6.796   1.548   6.494
 9655SOL    HW129864   6.829   1.642   6.498
 9655SOL    HW229865   6.748   1.533   6.408
 9656SOL     OW29866   3.229   0.404   2.787
 9656SOL    HW129867   3.198   0.400   2.882
 9656SOL    HW229868   3.168   0.463   2.734
 9657SOL     OW29869   6.514   1.118   4.665
 9657SOL    HW129870   6.570   1.099   4.746
 9657SOL    HW229871   6.463   1.036   4.639
 9658SOL     OW29872   6.483   2.595   1.656
 9658SOL    HW129873   6.447   2.588   1.563
 9658SOL    HW229874   6.409   2.619   1.719
 9659SOL     OW29875   0.494   4.545   0.121
 9659SOL    HW129876   0.470   4.479   0.192
 9659SOL    HW229877   0.450   4.633   0.141
 9660SOL     OW29878   0.668   5.116   0.481
 9660SOL    HW129879   0.693   5.125   0.578
 9660SOL    HW229880   0.621   5.199   0.451
 9661SOL     OW29881   4.170   6.553   0.622
 9661SOL    HW129882   4.256   6.505   0.602
 9661SOL    HW229883   4.190   6.648   0.647
 9662SOL     OW29884   6.277   1.383   4.836
 9662SOL    HW129885   6.331   1.375   4.753
 9662SOL    HW229886   6.221   1.301   4.848
 9663SOL     OW29887   2.321   5.083   2.903
 9663SOL    HW129888   2.379   5.085   2.984
 9663SOL    HW229889   2.350   5.154   2.839
 9664SOL     OW29890   3.840   6.504   2.146
 9664SOL    HW129891   3.776   6.537   2.077
 9664SOL    HW229892   3.796   6.432   2.200
 9665SOL     OW29893   5.512   4.419   4.832
 9665SOL    HW129894   5.480   4.513   4.843
 9665SOL    HW229895   5.438   4.363   4.795
 9666SOL     OW29896   5.521   4.303   2.943
 9666SOL    HW129897   5.457   4.227   2.949
 9666SOL    HW229898   5.504   4.367   3.019
 9667SOL     OW29899   4.085   3.491   4.183
 9667SOL    HW129900   4.013   3.426   4.158
 9667SOL    HW229901   4.112   3.544   4.102
 9668SOL     OW29902   0.606   0.843   5.444
 9668SOL    HW129903   0.511   0.868   5.429
 9668SOL    HW229904   0.612   0.772   5.515
 9669SOL     OW29905   1.187   6.106   0.914
 9669SOL    HW129906   1.221   6.187   0.962
 9669SOL    HW229907   1.088   6.099   0.926
 9670SOL     OW29908   4.860   5.029   6.826
 9670SOL    HW129909   4.835   5.120   6.859
 9670SOL    HW229910   4.912   5.037   6.741
 9671SOL     OW29911   6.990   5.676   5.516
 9671SOL    HW129912   7.007   5.686   5.418
 9671SOL    HW229913   6.893   5.656   5.531
 9672SOL     OW29914   0.617   6.415   4.901
 9672SOL    HW129915   0.556   6.452   4.830
 9672SOL    HW229916   0.566   6.351   4.959
 9673SOL     OW29917   3.362   4.045   6.782
 9673SOL    HW129918   3.357   4.136   6.740
 9673SOL    HW229919   3.449   4.002   6.756
 9674SOL     OW29920   3.462   6.155   2.367
 9674SOL    HW129921   3.524   6.147   2.288
 9674SOL    HW229922   3.515   6.147   2.451
 9675SOL     OW29923   6.358   2.328   1.844
 9675SOL    HW129924   6.398   2.410   1.885
 9675SOL    HW229925   6.430   2.262   1.825
 9676SOL     OW29926   0.831   3.542   4.433
 9676SOL    HW129927   0.790   3.556   4.343
 9676SOL    HW229928   0.781   3.470   4.482
 9677SOL     OW29929   1.870   3.322   6.009
 9677SOL    HW129930   1.951   3.380   5.999
 9677SOL    HW229931   1.835   3.299   5.918
 9678SOL     OW29932   3.729   3.707   3.108
 9678SOL    HW129933   3.748   3.630   3.048
 9678SOL    HW229934   3.800   3.713   3.178
 9679SOL     OW29935   1.266   2.881   1.659
 9679SOL    HW129936   1.330   2.839   1.595
 9679SOL    HW229937   1.317   2.932   1.728
 9680SOL     OW29938   6.032   5.752   3.212
 9680SOL    HW129939   6.029   5.742   3.311
 9680SOL    HW229940   6.004   5.666   3.169
 9681SOL     OW29941   2.051   1.012   2.631
 9681SOL    HW129942   2.140   0.969   2.649
 9681SOL    HW229943   1.979   0.943   2.637
 9682SOL     OW29944   5.372   4.593   2.864
 9682SOL    HW129945   5.401   4.610   2.770
 9682SOL    HW229946   5.337   4.677   2.905
 9683SOL     OW29947   4.514   6.397   6.948
 9683SOL    HW129948   4.427   6.435   6.978
 9683SOL    HW229949   4.574   6.472   6.918
 9684SOL     OW29950   1.079   3.896   4.871
 9684SOL    HW129951   1.149   3.846   4.820
 9684SOL    HW229952   1.124   3.954   4.939
 9685SOL     OW29953   1.015   2.863   0.657
 9685SOL    HW129954   1.052   2.883   0.747
 9685SOL    HW229955   0.969   2.944   0.621
 9686SOL     OW29956   6.345   0.768   1.641
 9686SOL    HW129957   6.268   0.768   1.577
 9686SOL    HW229958   6.312   0.756   1.734
 9687SOL     OW29959   2.682   0.064   3.757
 9687SOL    HW129960   2.709   6.999   3.801
 9687SOL    HW229961   2.762   0.125   3.751
 9688SOL     OW29962   0.142   1.195   2.889
 9688SOL    HW129963   0.121   1.288   2.921
 9688SOL    HW229964   0.222   1.161   2.938
 9689SOL     OW29965   2.526   6.260   6.452
 9689SOL    HW129966   2.579   6.344   6.447
 9689SOL    HW229967   2.446   6.267   6.393
 9690SOL     OW29968   6.499   5.119   1.199
 9690SOL    HW129969   6.520   5.044   1.262
 9690SOL    HW229970   6.559   5.196   1.219
 9691SOL     OW29971   1.848   5.341   2.290
 9691SOL    HW129972   1.904   5.358   2.371
 9691SOL    HW229973   1.781   5.269   2.311
 9692SOL     OW29974   2.797   5.282   1.449
 9692SOL    HW129975   2.813   5.320   1.358
 9692SOL    HW229976   2.698   5.271   1.464
 9693SOL     OW29977   6.100   6.342   1.743
 9693SOL    HW129978   6.080   6.408   1.670
 9693SOL    HW229979   6.150   6.387   1.817
 9694SOL     OW29980   1.145   2.367   6.531
 9694SOL    HW129981   1.176   2.413   6.615
 9694SOL    HW229982   1.105   2.279   6.554
 9695SOL     OW29983   6.761   4.539   1.737
 9695SOL    HW129984   6.692   4.469   1.756
 9695SOL    HW229985   6.733   4.626   1.777
 9696SOL     OW29986   3.822   3.051   1.462
 9696SOL    HW129987   3.725   3.073   1.472
 9696SOL    HW229988   3.845   2.971   1.518
 9697SOL     OW29989   0.452   5.381   6.771
 9697SOL    HW129990   0.400   5.330   6.840
 9697SOL    HW229991   0.546   5.345   6.767
 9698SOL     OW29992   5.824   1.889   5.114
 9698SOL    HW129993   5.740   1.930   5.079
 9698SOL    HW229994   5.901   1.951   5.096
 9699SOL     OW29995   1.790   3.591   6.911
 9699SOL    HW129996   1.789   3.654   6.990
 9699SOL    HW229997   1.763   3.500   6.942
 9700SOL     OW29998   3.842   4.091   5.005
 9700SOL    HW129999   3.861   4.068   4.909
 9700SOL    HW230000   3.762   4.151   5.009
 9701SOL     OW30001   4.543   5.323   4.721
 9701SOL    HW130002   4.462   5.367   4.682
 9701SOL    HW230003   4.532   5.314   4.820
 9702SOL     OW30004   4.586   1.228   0.792
 9702SOL    HW130005   4.627   1.315   0.818
 9702SOL    HW230006   4.619   1.202   0.701
 9703SOL     OW30007   2.754   5.681   4.312
 9703SOL    HW130008   2.842   5.720   4.285
 9703SOL    HW230009   2.769   5.609   4.379
 9704SOL     OW30010   3.817   0.138   3.455
 9704SOL    HW130011   3.811   0.237   3.467
 9704SOL    HW230012   3.912   0.108   3.469
 9705SOL     OW30013   3.263   4.409   0.192
 9705SOL    HW130014   3.351   4.420   0.239
 9705SOL    HW230015   3.192   4.392   0.261
 9706SOL     OW30016   5.814   2.804   2.659
 9706SOL    HW130017   5.737   2.868   2.661
 9706SOL    HW230018   5.788   2.722   2.608
 9707SOL     OW30019   2.715   4.898   2.763
 9707SOL    HW130020   2.721   4.961   2.686
 9707SOL    HW230021   2.620   4.871   2.777
 9708SOL     OW30022   2.137   1.444   3.188
 9708SOL    HW130023   2.181   1.450   3.098
 9708SOL    HW230024   2.080   1.363   3.192
 9709SOL     OW30025   1.934   6.363   2.956
 9709SOL    HW130026   1.859   6.426   2.936
 9709SOL    HW230027   1.938   6.291   2.886
 9710SOL     OW30028   0.267   0.938   3.053
 9710SOL    HW130029   0.318   1.023   3.055
 9710SOL    HW230030   0.175   0.953   3.091
 9711SOL     OW30031   1.418   3.784   5.088
 9711SOL    HW130032   1.320   3.795   5.072
 9711SOL    HW230033   1.469   3.846   5.028
 9712SOL     OW30034   5.145   1.892   4.348
 9712SOL    HW130035   5.192   1.805   4.337
 9712SOL    HW230036   5.203   1.967   4.316
 9713SOL     OW30037   6.800   4.946   2.721
 9713SOL    HW130038   6.864   5.022   2.730
 9713SOL    HW230039   6.765   4.943   2.627
 9714SOL     OW30040   2.123   2.623   1.372
 9714SOL    HW130041   2.168   2.572   1.446
 9714SOL    HW230042   2.157   2.717   1.371
 9715SOL     OW30043   5.004   5.777   4.881
 9715SOL    HW130044   4.924   5.754   4.824
 9715SOL    HW230045   5.079   5.807   4.822
 9716SOL     OW30046   4.171   1.658   6.299
 9716SOL    HW130047   4.232   1.580   6.315
 9716SOL    HW230048   4.093   1.654   6.362
 9717SOL     OW30049   6.086   5.625   3.966
 9717SOL    HW130050   6.009   5.609   4.027
 9717SOL    HW230051   6.124   5.537   3.937
 9718SOL     OW30052   4.270   3.063   1.538
 9718SOL    HW130053   4.270   3.156   1.503
 9718SOL    HW230054   4.275   3.064   1.637
 9719SOL     OW30055   0.528   2.086   0.229
 9719SOL    HW130056   0.461   2.056   0.161
 9719SOL    HW230057   0.585   2.009   0.256
 9720SOL     OW30058   0.097   0.406   1.864
 9720SOL    HW130059   0.094   0.386   1.962
 9720SOL    HW230060   0.035   0.343   1.816
 9721SOL     OW30061   6.779   3.773   2.119
 9721SOL    HW130062   6.722   3.847   2.084
 9721SOL    HW230063   6.810   3.796   2.212
 9722SOL     OW30064   0.877   0.662   4.070
 9722SOL    HW130065   0.835   0.690   3.984
 9722SOL    HW230066   0.904   0.566   4.063
 9723SOL     OW30067   0.279   1.063   3.662
 9723SOL    HW130068   0.223   0.980   3.661
 9723SOL    HW230069   0.353   1.055   3.596
 9724SOL     OW30070   3.669   2.446   1.102
 9724SOL    HW130071   3.644   2.367   1.157
 9724SOL    HW230072   3.762   2.436   1.068
 9725SOL     OW30073   4.641   3.175   5.357
 9725SOL    HW130074   4.542   3.162   5.368
 9725SOL    HW230075   4.684   3.087   5.336
 9726SOL     OW30076   4.676   6.458   4.721
 9726SOL    HW130077   4.761   6.406   4.729
 9726SOL    HW230078   4.599   6.395   4.711
 9727SOL     OW30079   1.404   3.158   5.932
 9727SOL    HW130080   1.327   3.146   5.995
 9727SOL    HW230081   1.396   3.246   5.885
 9728SOL     OW30082   2.753   5.657   6.774
 9728SOL    HW130083   2.663   5.631   6.809
 9728SOL    HW230084   2.749   5.750   6.736
 9729SOL     OW30085   2.439   4.857   2.766
 9729SOL    HW130086   2.377   4.910   2.824
 9729SOL    HW230087   2.405   4.859   2.671
 9730SOL     OW30088   6.448   3.104   2.365
 9730SOL    HW130089   6.349   3.100   2.361
 9730SOL    HW230090   6.487   3.017   2.337
 9731SOL     OW30091   3.704   4.971   0.434
 9731SOL    HW130092   3.661   5.007   0.518
 9731SOL    HW230093   3.679   5.029   0.357
 9732SOL     OW30094   6.378   6.260   2.775
 9732SOL    HW130095   6.350   6.336   2.832
 9732SOL    HW230096   6.308   6.189   2.776
 9733SOL     OW30097   4.940   4.591   5.420
 9733SOL    HW130098   5.004   4.604   5.345
 9733SOL    HW230099   4.982   4.531   5.489
 9734SOL     OW30100   5.630   2.396   4.298
 9734SOL    HW130101   5.586   2.391   4.209
 9734SOL    HW230102   5.601   2.480   4.345
 9735SOL     OW30103   1.808   4.509   1.382
 9735SOL    HW130104   1.840   4.568   1.455
 9735SOL    HW230105   1.709   4.517   1.373
 9736SOL     OW30106   4.244   0.874   6.819
 9736SOL    HW130107   4.172   0.817   6.859
 9736SOL    HW230108   4.250   0.961   6.869
 9737SOL     OW30109   4.184   2.070   5.148
 9737SOL    HW130110   4.257   2.137   5.162
 9737SOL    HW230111   4.166   2.061   5.050
 9738SOL     OW30112   1.615   0.870   3.155
 9738SOL    HW130113   1.608   0.821   3.068
 9738SOL    HW230114   1.708   0.904   3.167
 9739SOL     OW30115   5.776   4.815   1.643
 9739SOL    HW130116   5.873   4.818   1.669
 9739SOL    HW230117   5.721   4.859   1.714
 9740SOL     OW30118   6.245   4.992   3.105
 9740SOL    HW130119   6.340   4.966   3.087
 9740SOL    HW230120   6.242   5.056   3.182
 9741SOL     OW30121   4.425   2.270   2.289
 9741SOL    HW130122   4.392   2.221   2.370
 9741SOL    HW230123   4.431   2.368   2.310
 9742SOL     OW30124   5.571   1.133   3.759
 9742SOL    HW130125   5.535   1.202   3.696
 9742SOL    HW230126   5.506   1.058   3.768
 9743SOL     OW30127   1.738   3.267   5.775
 9743SOL    HW130128   1.794   3.211   5.715
 9743SOL    HW230129   1.642   3.263   5.746
 9744SOL     OW30130   2.029   1.171   2.421
 9744SOL    HW130131   1.939   1.207   2.444
 9744SOL    HW230132   2.057   1.103   2.489
 9745SOL     OW30133   0.184   2.645   5.145
 9745SOL    HW130134   0.183   2.690   5.056
 9745SOL    HW230135   0.220   2.552   5.135
 9746SOL     OW30136   5.862   0.841   4.683
 9746SOL    HW130137   5.791   0.907   4.658
 9746SOL    HW230138   5.864   0.767   4.616
 9747SOL     OW30139   0.563   0.126   6.200
 9747SOL    HW130140   0.552   0.069   6.118
 9747SOL    HW230141   0.517   0.213   6.187
 9748SOL     OW30142   1.003   6.229   3.910
 9748SOL    HW130143   1.098   6.232   3.941
 9748SOL    HW230144   0.951   6.165   3.967
 9749SOL     OW30145   0.058   4.129   4.355
 9749SOL    HW130146   0.050   4.063   4.279
 9749SOL    HW230147   0.131   4.099   4.417
 9750SOL     OW30148   4.534   5.014   3.746
 9750SOL    HW130149   4.590   4.932   3.760
 9750SOL    HW230150   4.577   5.073   3.678
 9751SOL     OW30151   1.565   2.181   0.528
 9751SOL    HW130152   1.544   2.273   0.563
 9751SOL    HW230153   1.546   2.178   0.430
 9752SOL     OW30154   4.286   0.940   6.086
 9752SOL    HW130155   4.266   0.876   6.012
 9752SOL    HW230156   4.312   1.029   6.047
 9753SOL     OW30157   0.104   6.067   5.212
 9753SOL    HW130158   0.122   6.066   5.310
 9753SOL    HW230159   0.008   6.046   5.195
 9754SOL     OW30160   1.194   1.491   6.745
 9754SOL    HW130161   1.289   1.479   6.774
 9754SOL    HW230162   1.191   1.548   6.663
 9755SOL     OW30163   3.564   4.531   5.525
 9755SOL    HW130164   3.597   4.594   5.454
 9755SOL    HW230165   3.464   4.530   5.525
 9756SOL     OW30166   6.169   2.313   6.119
 9756SOL    HW130167   6.218   2.257   6.052
 9756SOL    HW230168   6.234   2.350   6.185
 9757SOL     OW30169   5.892   2.308   3.683
 9757SOL    HW130170   5.888   2.400   3.723
 9757SOL    HW230171   5.949   2.250   3.741
 9758SOL     OW30172   2.531   0.442   6.850
 9758SOL    HW130173   2.499   0.528   6.810
 9758SOL    HW230174   2.532   0.450   6.949
 9759SOL     OW30175   2.925   6.363   1.113
 9759SOL    HW130176   3.017   6.329   1.096
 9759SOL    HW230177   2.910   6.373   1.211
 9760SOL     OW30178   6.082   4.507   5.673
 9760SOL    HW130179   6.035   4.433   5.721
 9760SOL    HW230180   6.178   4.481   5.659
 9761SOL     OW30181   5.678   5.526   1.666
 9761SOL    HW130182   5.580   5.503   1.666
 9761SOL    HW230183   5.690   5.617   1.705
 9762SOL     OW30184   2.331   1.623   4.654
 9762SOL    HW130185   2.396   1.693   4.683
 9762SOL    HW230186   2.377   1.534   4.650
 9763SOL     OW30187   2.450   1.881   0.874
 9763SOL    HW130188   2.393   1.835   0.806
 9763SOL    HW230189   2.488   1.965   0.835
 9764SOL     OW30190   0.952   1.821   2.476
 9764SOL    HW130191   1.043   1.821   2.517
 9764SOL    HW230192   0.890   1.767   2.532
 9765SOL     OW30193   1.030   1.843   5.504
 9765SOL    HW130194   1.097   1.878   5.570
 9765SOL    HW230195   0.945   1.894   5.513
 9766SOL     OW30196   3.026   0.379   2.302
 9766SOL    HW130197   2.946   0.335   2.341
 9766SOL    HW230198   3.083   0.310   2.257
 9767SOL     OW30199   5.332   0.415   4.796
 9767SOL    HW130200   5.287   0.380   4.878
 9767SOL    HW230201   5.275   0.486   4.754
 9768SOL     OW30202   4.349   2.058   2.516
 9768SOL    HW130203   4.251   2.039   2.509
 9768SOL    HW230204   4.390   2.000   2.586
 9769SOL     OW30205   0.845   1.763   1.078
 9769SOL    HW130206   0.905   1.683   1.087
 9769SOL    HW230207   0.802   1.782   1.166
 9770SOL     OW30208   5.890   4.801   5.777
 9770SOL    HW130209   5.945   4.884   5.788
 9770SOL    HW230210   5.950   4.721   5.773
 9771SOL     OW30211   4.334   5.165   6.072
 9771SOL    HW130212   4.277   5.145   5.992
 9771SOL    HW230213   4.283   5.224   6.135
 9772SOL     OW30214   6.801   0.814   1.744
 9772SOL    HW130215   6.796   0.784   1.649
 9772SOL    HW230216   6.849   0.745   1.798
 9773SOL     OW30217   6.346   5.604   3.506
 9773SOL    HW130218   6.334   5.663   3.586
 9773SOL    HW230219   6.260   5.600   3.455
 9774SOL     OW30220   6.426   4.872   3.386
 9774SOL    HW130221   6.357   4.882   3.457
 9774SOL    HW230222   6.445   4.775   3.370
 9775SOL     OW30223   2.154   2.617   4.935
 9775SOL    HW130224   2.058   2.647   4.935
 9775SOL    HW230225   2.158   2.523   4.969
 9776SOL     OW30226   0.489   6.234   5.118
 9776SOL    HW130227   0.415   6.298   5.135
 9776SOL    HW230228   0.453   6.151   5.077
 9777SOL     OW30229   5.540   4.299   6.043
 9777SOL    HW130230   5.481   4.357   6.099
 9777SOL    HW230231   5.632   4.338   6.041
 9778SOL     OW30232   4.553   6.992   2.196
 9778SOL    HW130233   4.489   6.986   2.119
 9778SOL    HW230234   4.554   0.066   2.230
 9779SOL     OW30235   2.580   2.194   5.470
 9779SOL    HW130236   2.561   2.218   5.374
 9779SOL    HW230237   2.658   2.247   5.503
 9780SOL     OW30238   3.260   4.537   6.955
 9780SOL    HW130239   3.265   4.500   0.028
 9780SOL    HW230240   3.341   4.510   6.904
 9781SOL     OW30241   1.457   4.998   4.572
 9781SOL    HW130242   1.525   4.938   4.614
 9781SOL    HW230243   1.424   4.957   4.487
 9782SOL     OW30244   6.438   0.492   1.629
 9782SOL    HW130245   6.411   0.588   1.641
 9782SOL    HW230246   6.529   0.478   1.668
 9783SOL     OW30247   5.050   1.327   1.964
 9783SOL    HW130248   5.009   1.244   1.927
 9783SOL    HW230249   5.149   1.318   1.964
 9784SOL     OW30250   4.793   0.485   3.703
 9784SOL    HW130251   4.800   0.451   3.609
 9784SOL    HW230252   4.698   0.508   3.723
 9785SOL     OW30253   0.875   3.095   1.721
 9785SOL    HW130254   0.897   2.998   1.713
 9785SOL    HW230255   0.951   3.150   1.687
 9786SOL     OW30256   3.191   6.017   4.851
 9786SOL    HW130257   3.151   5.947   4.911
 9786SOL    HW230258   3.256   6.072   4.903
 9787SOL     OW30259   4.779   4.491   2.227
 9787SOL    HW130260   4.852   4.551   2.192
 9787SOL    HW230261   4.777   4.407   2.172
 9788SOL     OW30262   6.596   1.459   5.756
 9788SOL    HW130263   6.541   1.466   5.673
 9788SOL    HW230264   6.566   1.379   5.809
 9789SOL     OW30265   2.263   5.731   4.684
 9789SOL    HW130266   2.164   5.739   4.695
 9789SOL    HW230267   2.283   5.684   4.597
 9790SOL     OW30268   6.029   2.363   4.345
 9790SOL    HW130269   5.998   2.268   4.348
 9790SOL    HW230270   6.096   2.378   4.417
 9791SOL     OW30271   0.373   2.136   1.149
 9791SOL    HW130272   0.309   2.058   1.147
 9791SOL    HW230273   0.429   2.135   1.067
 9792SOL     OW30274   4.199   5.474   1.268
 9792SOL    HW130275   4.230   5.385   1.234
 9792SOL    HW230276   4.215   5.544   1.198
 9793SOL     OW30277   5.105   6.199   1.837
 9793SOL    HW130278   5.194   6.162   1.864
 9793SOL    HW230279   5.063   6.139   1.769
 9794SOL     OW30280   4.422   2.679   6.601
 9794SOL    HW130281   4.453   2.690   6.695
 9794SOL    HW230282   4.459   2.594   6.564
 9795SOL     OW30283   1.684   3.303   4.039
 9795SOL    HW130284   1.755   3.310   3.968
 9795SOL    HW230285   1.651   3.209   4.044
 9796SOL     OW30286   2.793   4.972   6.761
 9796SOL    HW130287   2.699   4.978   6.793
 9796SOL    HW230288   2.811   4.879   6.729
 9797SOL     OW30289   4.346   3.019   5.624
 9797SOL    HW130290   4.378   3.060   5.709
 9797SOL    HW230291   4.289   3.084   5.573
 9798SOL     OW30292   2.257   1.789   1.360
 9798SOL    HW130293   2.311   1.799   1.276
 9798SOL    HW230294   2.252   1.878   1.407
 9799SOL     OW30295   3.039   3.984   2.102
 9799SOL    HW130296   2.979   4.065   2.108
 9799SOL    HW230297   3.003   3.921   2.033
 9800SOL     OW30298   4.377   4.975   6.620
 9800SOL    HW130299   4.329   4.890   6.637
 9800SOL    HW230300   4.476   4.961   6.630
 9801SOL     OW30301   4.257   5.102   0.034
 9801SOL    HW130302   4.211   5.184   0.067
 9801SOL    HW230303   4.244   5.094   6.955
 9802SOL     OW30304   6.957   3.607   0.880
 9802SOL    HW130305   6.938   3.641   0.788
 9802SOL    HW230306   6.921   3.672   0.947
 9803SOL     OW30307   6.058   0.841   6.824
 9803SOL    HW130308   5.988   0.886   6.768
 9803SOL    HW230309   6.016   0.766   6.875
 9804SOL     OW30310   6.084   5.591   4.388
 9804SOL    HW130311   6.165   5.550   4.348
 9804SOL    HW230312   6.029   5.635   4.317
 9805SOL     OW30313   1.999   5.208   6.853
 9805SOL    HW130314   2.060   5.276   6.894
 9805SOL    HW230315   2.022   5.197   6.757
 9806SOL     OW30316   0.187   1.719   2.815
 9806SOL    HW130317   0.246   1.783   2.865
 9806SOL    HW230318   0.243   1.644   2.779
 9807SOL     OW30319   4.135   2.529   0.766
 9807SOL    HW130320   4.181   2.616   0.783
 9807SOL    HW230321   4.066   2.541   0.695
 9808SOL     OW30322   0.843   1.335   4.798
 9808SOL    HW130323   0.891   1.416   4.765
 9808SOL    HW230324   0.870   1.317   4.893
 9809SOL     OW30325   0.732   0.991   4.922
 9809SOL    HW130326   0.651   1.035   4.883
 9809SOL    HW230327   0.715   0.966   5.017
 9810SOL     OW30328   3.941   1.223   3.568
 9810SOL    HW130329   3.929   1.248   3.664
 9810SOL    HW230330   3.853   1.227   3.521
 9811SOL     OW30331   0.644   6.690   2.777
 9811SOL    HW130332   0.559   6.662   2.823
 9811SOL    HW230333   0.631   6.780   2.735
 9812SOL     OW30334   4.992   2.294   5.796
 9812SOL    HW130335   4.911   2.234   5.798
 9812SOL    HW230336   5.011   2.322   5.702
 9813SOL     OW30337   6.547   4.827   0.474
 9813SOL    HW130338   6.464   4.803   0.524
 9813SOL    HW230339   6.567   4.924   0.488
 9814SOL     OW30340   0.279   0.282   5.577
 9814SOL    HW130341   0.204   0.218   5.597
 9814SOL    HW230342   0.352   0.269   5.644
 9815SOL     OW30343   6.182   3.247   2.706
 9815SOL    HW130344   6.149   3.156   2.683
 9815SOL    HW230345   6.119   3.290   2.771
 9816SOL     OW30346   0.355   6.710   6.278
 9816SOL    HW130347   0.431   6.765   6.244
 9816SOL    HW230348   0.333   6.739   6.372
 9817SOL     OW30349   3.128   6.668   0.024
 9817SOL    HW130350   3.069   6.739   0.061
 9817SOL    HW230351   3.168   6.699   6.958
 9818SOL     OW30352   0.700   6.561   3.464
 9818SOL    HW130353   0.661   6.531   3.376
 9818SOL    HW230354   0.659   6.648   3.490
 9819SOL     OW30355   0.068   3.609   4.846
 9819SOL    HW130356   0.126   3.659   4.909
 9819SOL    HW230357   0.107   3.518   4.829
 9820SOL     OW30358   3.818   1.903   5.844
 9820SOL    HW130359   3.810   1.994   5.886
 9820SOL    HW230360   3.727   1.869   5.821
 9821SOL     OW30361   4.244   2.570   1.471
 9821SOL    HW130362   4.158   2.621   1.471
 9821SOL    HW230363   4.305   2.608   1.541
 9822SOL     OW30364   3.466   6.276   5.741
 9822SOL    HW130365   3.407   6.335   5.686
 9822SOL    HW230366   3.425   6.265   5.832
 9823SOL     OW30367   1.973   0.521   2.784
 9823SOL    HW130368   1.999   0.593   2.848
 9823SOL    HW230369   1.975   0.433   2.831
 9824SOL     OW30370   0.826   6.622   5.298
 9824SOL    HW130371   0.740   6.628   5.348
 9824SOL    HW230372   0.808   6.625   5.200
 9825SOL     OW30373   5.371   6.234   5.587
 9825SOL    HW130374   5.345   6.308   5.525
 9825SOL    HW230375   5.316   6.239   5.670
 9826SOL     OW30376   1.983   5.752   4.721
 9826SOL    HW130377   1.975   5.697   4.804
 9826SOL    HW230378   1.920   5.719   4.651
 9827SOL     OW30379   1.787   5.133   1.885
 9827SOL    HW130380   1.804   5.195   1.808
 9827SOL    HW230381   1.688   5.124   1.900
 9828SOL     OW30382   4.189   2.242   4.537
 9828SOL    HW130383   4.217   2.299   4.614
 9828SOL    HW230384   4.153   2.155   4.570
 9829SOL     OW30385   4.481   5.434   5.599
 9829SOL    HW130386   4.454   5.356   5.654
 9829SOL    HW230387   4.493   5.514   5.659
 9830SOL     OW30388   6.057   2.281   2.950
 9830SOL    HW130389   6.136   2.229   2.982
 9830SOL    HW230390   5.984   2.277   3.019
 9831SOL     OW30391   0.380   3.806   3.048
 9831SOL    HW130392   0.313   3.827   2.976
 9831SOL    HW230393   0.440   3.885   3.061
 9832SOL     OW30394   4.665   4.858   4.569
 9832SOL    HW130395   4.741   4.898   4.622
 9832SOL    HW230396   4.614   4.795   4.627
 9833SOL     OW30397   3.948   3.939   3.601
 9833SOL    HW130398   3.953   3.972   3.695
 9833SOL    HW230399   3.894   4.002   3.546
 9834SOL     OW30400   2.943   6.220   6.127
 9834SOL    HW130401   2.864   6.282   6.126
 9834SOL    HW230402   2.911   6.127   6.142
 9835SOL     OW30403   3.954   3.955   3.895
 9835SOL    HW130404   3.854   3.956   3.883
 9835SOL    HW230405   3.975   3.936   3.991
 9836SOL     OW30406   0.439   4.111   6.000
 9836SOL    HW130407   0.499   4.034   5.978
 9836SOL    HW230408   0.494   4.192   6.019
 9837SOL     OW30409   5.384   2.246   3.335
 9837SOL    HW130410   5.293   2.282   3.314
 9837SOL    HW230411   5.383   2.146   3.330
 9838SOL     OW30412   1.742   6.825   1.262
 9838SOL    HW130413   1.758   6.765   1.341
 9838SOL    HW230414   1.827   6.837   1.212
 9839SOL     OW30415   4.992   0.188   3.847
 9839SOL    HW130416   5.022   0.140   3.764
 9839SOL    HW230417   4.892   0.191   3.849
 9840SOL     OW30418   6.091   1.442   6.949
 9840SOL    HW130419   6.071   1.484   0.018
 9840SOL    HW230420   6.159   1.497   6.901
 9841SOL     OW30421   0.311   6.475   3.121
 9841SOL    HW130422   0.254   6.406   3.076
 9841SOL    HW230423   0.408   6.451   3.109
 9842SOL     OW30424   3.387   1.357   6.404
 9842SOL    HW130425   3.339   1.269   6.416
 9842SOL    HW230426   3.320   1.431   6.406
 9843SOL     OW30427   0.851   0.480   1.253
 9843SOL    HW130428   0.845   0.466   1.154
 9843SOL    HW230429   0.913   0.412   1.292
 9844SOL     OW30430   4.689   0.152   3.853
 9844SOL    HW130431   4.726   0.084   3.916
 9844SOL    HW230432   4.595   0.174   3.880
 9845SOL     OW30433   2.056   3.220   2.580
 9845SOL    HW130434   2.003   3.168   2.646
 9845SOL    HW230435   2.153   3.197   2.590
 9846SOL     OW30436   6.158   2.441   1.354
 9846SOL    HW130437   6.239   2.399   1.314
 9846SOL    HW230438   6.092   2.371   1.379
 9847SOL     OW30439   4.360   3.864   0.065
 9847SOL    HW130440   4.329   3.817   7.003
 9847SOL    HW230441   4.381   3.959   0.044
 9848SOL     OW30442   3.261   4.061   5.807
 9848SOL    HW130443   3.186   4.125   5.822
 9848SOL    HW230444   3.231   3.988   5.745
 9849SOL     OW30445   0.438   2.383   4.320
 9849SOL    HW130446   0.438   2.297   4.372
 9849SOL    HW230447   0.532   2.416   4.310
 9850SOL     OW30448   0.906   0.353   4.362
 9850SOL    HW130449   0.964   0.318   4.435
 9850SOL    HW230450   0.941   0.442   4.332
 9851SOL     OW30451   3.765   4.949   4.756
 9851SOL    HW130452   3.744   5.043   4.781
 9851SOL    HW230453   3.825   4.909   4.825
 9852SOL     OW30454   2.179   0.446   6.671
 9852SOL    HW130455   2.221   0.489   6.751
 9852SOL    HW230456   2.080   0.456   6.676
 9853SOL     OW30457   6.440   4.629   3.632
 9853SOL    HW130458   6.356   4.597   3.588
 9853SOL    HW230459   6.508   4.555   3.631
 9854SOL     OW30460   0.866   4.089   5.739
 9854SOL    HW130461   0.896   4.004   5.781
 9854SOL    HW230462   0.772   4.078   5.706
 9855SOL     OW30463   0.953   4.954   1.036
 9855SOL    HW130464   0.916   4.995   1.120
 9855SOL    HW230465   1.020   4.884   1.060
 9856SOL     OW30466   5.726   4.168   3.150
 9856SOL    HW130467   5.643   4.125   3.186
 9856SOL    HW230468   5.730   4.155   3.051
 9857SOL     OW30469   4.226   0.287   5.247
 9857SOL    HW130470   4.257   0.228   5.322
 9857SOL    HW230471   4.271   0.377   5.254
 9858SOL     OW30472   6.339   6.550   2.611
 9858SOL    HW130473   6.276   6.531   2.687
 9858SOL    HW230474   6.402   6.473   2.601
 9859SOL     OW30475   7.012   4.986   3.209
 9859SOL    HW130476   0.080   4.941   3.196
 9859SOL    HW230477   7.007   5.068   3.152
 9860SOL     OW30478   1.054   3.274   4.545
 9860SOL    HW130479   1.073   3.353   4.487
 9860SOL    HW230480   1.138   3.220   4.558
 9861SOL     OW30481   2.912   2.239   3.141
 9861SOL    HW130482   2.876   2.222   3.050
 9861SOL    HW230483   2.981   2.311   3.138
 9862SOL     OW30484   1.077   4.154   0.325
 9862SOL    HW130485   1.067   4.245   0.282
 9862SOL    HW230486   0.995   4.132   0.376
 9863SOL     OW30487   3.771   6.233   0.846
 9863SOL    HW130488   3.829   6.290   0.904
 9863SOL    HW230489   3.801   6.138   0.852
 9864SOL     OW30490   2.532   5.497   5.225
 9864SOL    HW130491   2.483   5.581   5.246
 9864SOL    HW230492   2.630   5.509   5.245
 9865SOL     OW30493   0.715   5.748   5.098
 9865SOL    HW130494   0.782   5.707   5.160
 9865SOL    HW230495   0.727   5.847   5.096
 9866SOL     OW30496   6.420   4.927   5.474
 9866SOL    HW130497   6.355   4.998   5.503
 9866SOL    HW230498   6.391   4.889   5.386
 9867SOL     OW30499   3.986   1.660   2.201
 9867SOL    HW130500   4.058   1.705   2.254
 9867SOL    HW230501   4.005   1.672   2.103
 9868SOL     OW30502   2.094   4.079   3.872
 9868SOL    HW130503   2.003   4.052   3.842
 9868SOL    HW230504   2.130   4.011   3.936
 9869SOL     OW30505   6.221   2.848   0.790
 9869SOL    HW130506   6.137   2.881   0.834
 9869SOL    HW230507   6.300   2.895   0.830
 9870SOL     OW30508   2.677   1.887   2.254
 9870SOL    HW130509   2.577   1.890   2.242
 9870SOL    HW230510   2.703   1.800   2.295
 9871SOL     OW30511   5.992   4.948   4.122
 9871SOL    HW130512   5.952   4.998   4.045
 9871SOL    HW230513   6.091   4.956   4.119
 9872SOL     OW30514   0.564   4.983   6.188
 9872SOL    HW130515   0.473   4.949   6.165
 9872SOL    HW230516   0.628   4.960   6.115
 9873SOL     OW30517   1.569   1.562   5.719
 9873SOL    HW130518   1.661   1.522   5.712
 9873SOL    HW230519   1.550   1.616   5.637
 9874SOL     OW30520   0.244   2.874   4.978
 9874SOL    HW130521   0.336   2.909   4.958
 9874SOL    HW230522   0.176   2.929   4.930
 9875SOL     OW30523   6.556   5.946   1.127
 9875SOL    HW130524   6.579   5.886   1.204
 9875SOL    HW230525   6.632   6.009   1.110
 9876SOL     OW30526   0.973   6.647   3.691
 9876SOL    HW130527   1.034   6.666   3.768
 9876SOL    HW230528   1.023   6.596   3.621
 9877SOL     OW30529   0.692   4.992   5.029
 9877SOL    HW130530   0.733   5.067   4.978
 9877SOL    HW230531   0.621   5.028   5.090
 9878SOL     OW30532   2.869   2.894   6.617
 9878SOL    HW130533   2.948   2.906   6.556
 9878SOL    HW230534   2.885   2.945   6.702
 9879SOL     OW30535   6.706   4.992   6.637
 9879SOL    HW130536   6.708   5.090   6.615
 9879SOL    HW230537   6.712   4.939   6.553
 9880SOL     OW30538   2.694   1.400   0.771
 9880SOL    HW130539   2.631   1.381   0.846
 9880SOL    HW230540   2.647   1.386   0.684
 9881SOL     OW30541   6.403   1.256   3.534
 9881SOL    HW130542   6.373   1.174   3.583
 9881SOL    HW230543   6.392   1.336   3.593
 9882SOL     OW30544   3.303   3.148   5.263
 9882SOL    HW130545   3.357   3.221   5.304
 9882SOL    HW230546   3.212   3.182   5.240
 9883SOL     OW30547   2.468   0.446   1.852
 9883SOL    HW130548   2.566   0.455   1.835
 9883SOL    HW230549   2.444   0.498   1.934
 9884SOL     OW30550   3.284   2.477   5.879
 9884SOL    HW130551   3.223   2.435   5.946
 9884SOL    HW230552   3.265   2.439   5.788
 9885SOL     OW30553   5.436   2.978   5.298
 9885SOL    HW130554   5.345   3.018   5.308
 9885SOL    HW230555   5.494   3.041   5.246
 9886SOL     OW30556   3.746   6.006   1.614
 9886SOL    HW130557   3.686   5.947   1.560
 9886SOL    HW230558   3.721   6.102   1.600
 9887SOL     OW30559   3.156   0.675   6.586
 9887SOL    HW130560   3.081   0.678   6.519
 9887SOL    HW230561   3.171   0.766   6.623
 9888SOL     OW30562   6.429   6.155   3.773
 9888SOL    HW130563   6.520   6.192   3.751
 9888SOL    HW230564   6.361   6.195   3.712
 9889SOL     OW30565   0.125   5.938   3.045
 9889SOL    HW130566   0.206   5.995   3.062
 9889SOL    HW230567   0.126   5.860   3.109
 9890SOL     OW30568   0.964   3.433   1.609
 9890SOL    HW130569   0.873   3.418   1.569
 9890SOL    HW230570   1.009   3.508   1.561
 9891SOL     OW30571   6.001   5.850   1.321
 9891SOL    HW130572   6.040   5.936   1.354
 9891SOL    HW230573   5.902   5.852   1.330
 9892SOL     OW30574   1.910   5.268   4.003
 9892SOL    HW130575   1.942   5.318   4.084
 9892SOL    HW230576   1.928   5.323   3.921
 9893SOL     OW30577   4.865   5.323   3.976
 9893SOL    HW130578   4.881   5.225   3.985
 9893SOL    HW230579   4.909   5.356   3.893
 9894SOL     OW30580   4.459   3.116   5.859
 9894SOL    HW130581   4.487   3.054   5.932
 9894SOL    HW230582   4.528   3.187   5.847
 9895SOL     OW30583   5.545   2.116   6.683
 9895SOL    HW130584   5.447   2.096   6.691
 9895SOL    HW230585   5.570   2.126   6.587
 9896SOL     OW30586   4.374   3.329   0.412
 9896SOL    HW130587   4.348   3.236   0.387
 9896SOL    HW230588   4.467   3.329   0.449
 9897SOL     OW30589   6.962   1.914   4.086
 9897SOL    HW130590   6.875   1.915   4.134
 9897SOL    HW230591   7.013   1.831   4.110
 9898SOL     OW30592   1.145   5.564   5.520
 9898SOL    HW130593   1.141   5.662   5.538
 9898SOL    HW230594   1.060   5.535   5.475
 9899SOL     OW30595   4.893   5.417   1.982
 9899SOL    HW130596   4.831   5.352   2.027
 9899SOL    HW230597   4.880   5.413   1.883
 9900SOL     OW30598   0.876   3.346   3.128
 9900SOL    HW130599   0.948   3.288   3.090
 9900SOL    HW230600   0.892   3.359   3.226
 9901SOL     OW30601   3.014   1.902   5.090
 9901SOL    HW130602   3.080   1.901   5.015
 9901SOL    HW230603   2.935   1.845   5.067
 9902SOL     OW30604   4.754   3.841   6.836
 9902SOL    HW130605   4.761   3.799   6.746
 9902SOL    HW230606   4.670   3.896   6.840
 9903SOL     OW30607   3.660   1.193   1.222
 9903SOL    HW130608   3.698   1.276   1.263
 9903SOL    HW230609   3.707   1.173   1.136
 9904SOL     OW30610   6.696   0.610   2.120
 9904SOL    HW130611   6.682   0.629   2.217
 9904SOL    HW230612   6.652   0.681   2.065
 9905SOL     OW30613   1.488   6.230   5.887
 9905SOL    HW130614   1.571   6.198   5.842
 9905SOL    HW230615   1.498   6.327   5.910
 9906SOL     OW30616   3.257   3.511   5.885
 9906SOL    HW130617   3.171   3.463   5.870
 9906SOL    HW230618   3.334   3.452   5.861
 9907SOL     OW30619   1.738   6.473   2.259
 9907SOL    HW130620   1.754   6.377   2.282
 9907SOL    HW230621   1.824   6.524   2.263
 9908SOL     OW30622   1.291   3.580   4.888
 9908SOL    HW130623   1.230   3.551   4.962
 9908SOL    HW230624   1.302   3.506   4.822
 9909SOL     OW30625   3.736   6.720   2.626
 9909SOL    HW130626   3.726   6.694   2.530
 9909SOL    HW230627   3.676   6.798   2.646
 9910SOL     OW30628   0.483   4.309   2.063
 9910SOL    HW130629   0.529   4.255   2.133
 9910SOL    HW230630   0.550   4.341   1.997
 9911SOL     OW30631   3.125   5.035   3.423
 9911SOL    HW130632   3.221   5.024   3.396
 9911SOL    HW230633   3.103   4.971   3.496
 9912SOL     OW30634   4.420   0.139   0.996
 9912SOL    HW130635   4.489   0.092   1.051
 9912SOL    HW230636   4.458   0.159   0.905
 9913SOL     OW30637   4.707   1.814   2.490
 9913SOL    HW130638   4.664   1.730   2.521
 9913SOL    HW230639   4.701   1.883   2.562
 9914SOL     OW30640   1.851   5.700   5.817
 9914SOL    HW130641   1.822   5.782   5.769
 9914SOL    HW230642   1.773   5.660   5.866
 9915SOL     OW30643   5.546   3.621   4.608
 9915SOL    HW130644   5.484   3.543   4.599
 9915SOL    HW230645   5.571   3.634   4.704
 9916SOL     OW30646   2.507   3.158   1.107
 9916SOL    HW130647   2.457   3.202   1.182
 9916SOL    HW230648   2.511   3.221   1.029
 9917SOL     OW30649   2.353   3.289   5.324
 9917SOL    HW130650   2.426   3.228   5.294
 9917SOL    HW230651   2.330   3.270   5.420
 9918SOL     OW30652   1.743   1.386   5.027
 9918SOL    HW130653   1.825   1.361   4.976
 9918SOL    HW230654   1.740   1.335   5.113
 9919SOL     OW30655   6.931   5.172   2.757
 9919SOL    HW130656   6.996   5.171   2.833
 9919SOL    HW230657   6.969   5.226   2.682
 9920SOL     OW30658   4.107   6.553   1.756
 9920SOL    HW130659   4.105   6.552   1.856
 9920SOL    HW230660   4.200   6.572   1.725
 9921SOL     OW30661   4.704   0.059   3.015
 9921SOL    HW130662   4.605   0.072   3.019
 9921SOL    HW230663   4.749   0.134   3.063
 9922SOL     OW30664   4.548   3.270   1.385
 9922SOL    HW130665   4.598   3.331   1.447
 9922SOL    HW230666   4.450   3.280   1.401
 9923SOL     OW30667   6.490   1.242   6.273
 9923SOL    HW130668   6.417   1.307   6.255
 9923SOL    HW230669   6.472   1.193   6.358
 9924SOL     OW30670   5.461   0.729   3.238
 9924SOL    HW130671   5.389   0.663   3.256
 9924SOL    HW230672   5.484   0.778   3.322
 9925SOL     OW30673   2.725   2.318   4.556
 9925SOL    HW130674   2.687   2.360   4.638
 9925SOL    HW230675   2.673   2.236   4.532
 9926SOL     OW30676   1.376   1.220   0.351
 9926SOL    HW130677   1.434   1.181   0.280
 9926SOL    HW230678   1.389   1.319   0.354
 9927SOL     OW30679   0.657   2.605   2.425
 9927SOL    HW130680   0.664   2.590   2.326
 9927SOL    HW230681   0.637   2.701   2.443
 9928SOL     OW30682   6.782   3.043   2.449
 9928SOL    HW130683   6.777   2.995   2.536
 9928SOL    HW230684   6.736   2.989   2.378
 9929SOL     OW30685   2.201   4.289   5.786
 9929SOL    HW130686   2.213   4.235   5.869
 9929SOL    HW230687   2.290   4.305   5.743
 9930SOL     OW30688   0.236   5.905   0.197
 9930SOL    HW130689   0.242   5.929   0.293
 9930SOL    HW230690   0.275   5.978   0.141
 9931SOL     OW30691   2.559   5.375   6.708
 9931SOL    HW130692   2.592   5.414   6.795
 9931SOL    HW230693   2.482   5.314   6.726
 9932SOL     OW30694   1.843   2.296   0.120
 9932SOL    HW130695   1.864   2.213   0.170
 9932SOL    HW230696   1.902   2.370   0.150
 9933SOL     OW30697   0.943   1.735   3.393
 9933SOL    HW130698   1.024   1.750   3.336
 9933SOL    HW230699   0.960   1.663   3.459
 9934SOL     OW30700   4.693   1.689   6.744
 9934SOL    HW130701   4.726   1.763   6.803
 9934SOL    HW230702   4.767   1.624   6.728
 9935SOL     OW30703   2.764   2.159   1.076
 9935SOL    HW130704   2.707   2.086   1.113
 9935SOL    HW230705   2.752   2.242   1.131
 9936SOL     OW30706   6.387   6.427   6.134
 9936SOL    HW130707   6.355   6.426   6.229
 9936SOL    HW230708   6.325   6.371   6.078
 9937SOL     OW30709   0.833   0.321   3.410
 9937SOL    HW130710   0.858   0.364   3.497
 9937SOL    HW230711   0.907   0.261   3.381
 9938SOL     OW30712   6.856   1.828   2.938
 9938SOL    HW130713   6.923   1.765   2.978
 9938SOL    HW230714   6.764   1.803   2.970
 9939SOL     OW30715   3.444   4.364   1.374
 9939SOL    HW130716   3.357   4.388   1.330
 9939SOL    HW230717   3.459   4.266   1.368
 9940SOL     OW30718   6.951   1.038   3.435
 9940SOL    HW130719   6.907   0.961   3.480
 9940SOL    HW230720   6.982   1.104   3.504
 9941SOL     OW30721   5.376   4.988   0.281
 9941SOL    HW130722   5.366   4.990   0.181
 9941SOL    HW230723   5.291   4.958   0.323
 9942SOL     OW30724   5.128   5.021   2.855
 9942SOL    HW130725   5.045   4.974   2.824
 9942SOL    HW230726   5.202   5.004   2.789
 9943SOL     OW30727   1.733   4.123   5.710
 9943SOL    HW130728   1.829   4.124   5.738
 9943SOL    HW230729   1.694   4.033   5.729
 9944SOL     OW30730   0.800   5.069   6.002
 9944SOL    HW130731   0.736   5.144   5.986
 9944SOL    HW230732   0.884   5.104   6.041
 9945SOL     OW30733   6.888   3.627   6.135
 9945SOL    HW130734   6.846   3.573   6.062
 9945SOL    HW230735   6.914   3.567   6.210
 9946SOL     OW30736   5.274   2.120   1.791
 9946SOL    HW130737   5.175   2.107   1.789
 9946SOL    HW230738   5.299   2.167   1.875
 9947SOL     OW30739   0.899   1.880   3.934
 9947SOL    HW130740   0.923   1.783   3.947
 9947SOL    HW230741   0.888   1.898   3.836
 9948SOL     OW30742   5.669   0.167   4.757
 9948SOL    HW130743   5.625   0.108   4.826
 9948SOL    HW230744   5.598   0.217   4.707
 9949SOL     OW30745   6.377   5.225   3.258
 9949SOL    HW130746   6.397   5.311   3.306
 9949SOL    HW230747   6.389   5.148   3.321
 9950SOL     OW30748   5.271   4.080   5.175
 9950SOL    HW130749   5.324   4.158   5.144
 9950SOL    HW230750   5.281   4.071   5.275
 9951SOL     OW30751   0.408   2.057   3.296
 9951SOL    HW130752   0.364   1.990   3.355
 9951SOL    HW230753   0.415   2.145   3.344
 9952SOL     OW30754   0.869   5.012   1.923
 9952SOL    HW130755   0.831   5.097   1.886
 9952SOL    HW230756   0.795   4.947   1.940
 9953SOL     OW30757   5.901   2.884   4.024
 9953SOL    HW130758   5.955   2.967   4.015
 9953SOL    HW230759   5.807   2.907   4.050
 9954SOL     OW30760   3.744   1.513   6.990
 9954SOL    HW130761   3.759   1.454   6.910
 9954SOL    HW230762   3.786   1.603   6.973
 9955SOL     OW30763   5.423   4.474   0.919
 9955SOL    HW130764   5.472   4.454   1.003
 9955SOL    HW230765   5.395   4.388   0.876
 9956SOL     OW30766   2.091   3.117   3.245
 9956SOL    HW130767   2.031   3.112   3.325
 9956SOL    HW230768   2.166   3.051   3.255
 9957SOL     OW30769   5.403   0.335   0.252
 9957SOL    HW130770   5.360   0.424   0.232
 9957SOL    HW230771   5.350   0.288   0.322
 9958SOL     OW30772   5.458   6.152   0.225
 9958SOL    HW130773   5.391   6.078   0.226
 9958SOL    HW230774   5.450   6.205   0.310
 9959SOL     OW30775   5.074   5.048   0.639
 9959SOL    HW130776   5.090   5.145   0.655
 9959SOL    HW230777   5.153   4.995   0.671
 9960SOL     OW30778   0.394   0.200   0.323
 9960SOL    HW130779   0.413   0.120   0.265
 9960SOL    HW230780   0.330   0.261   0.276
 9961SOL     OW30781   3.018   5.280   1.194
 9961SOL    HW130782   3.060   5.197   1.158
 9961SOL    HW230783   3.087   5.335   1.240
 9962SOL     OW30784   2.867   0.304   1.664
 9962SOL    HW130785   2.856   0.230   1.731
 9962SOL    HW230786   2.802   0.291   1.590
 9963SOL     OW30787   0.740   0.605   6.027
 9963SOL    HW130788   0.750   0.575   6.122
 9963SOL    HW230789   0.752   0.704   6.022
 9964SOL     OW30790   4.659   4.349   5.934
 9964SOL    HW130791   4.617   4.435   5.904
 9964SOL    HW230792   4.587   4.283   5.958
 9965SOL     OW30793   2.696   5.387   3.756
 9965SOL    HW130794   2.718   5.450   3.830
 9965SOL    HW230795   2.751   5.409   3.675
 9966SOL     OW30796   3.559   4.883   2.533
 9966SOL    HW130797   3.517   4.860   2.445
 9966SOL    HW230798   3.487   4.905   2.600
 9967SOL     OW30799   6.650   6.844   3.219
 9967SOL    HW130800   6.606   6.882   3.301
 9967SOL    HW230801   6.580   6.817   3.153
 9968SOL     OW30802   3.753   6.243   0.114
 9968SOL    HW130803   3.837   6.284   0.080
 9968SOL    HW230804   3.770   6.147   0.138
 9969SOL     OW30805   0.904   5.962   3.420
 9969SOL    HW130806   0.976   6.025   3.391
 9969SOL    HW230807   0.865   5.992   3.507
 9970SOL     OW30808   6.916   3.673   1.627
 9970SOL    HW130809   6.923   3.671   1.726
 9970SOL    HW230810   7.007   3.679   1.587
 9971SOL     OW30811   1.042   5.272   3.781
 9971SOL    HW130812   0.964   5.211   3.766
 9971SOL    HW230813   1.012   5.351   3.834
 9972SOL     OW30814   2.892   4.074   6.824
 9972SOL    HW130815   2.983   4.034   6.812
 9972SOL    HW230816   2.837   4.055   6.743
 9973SOL     OW30817   2.451   2.327   3.251
 9973SOL    HW130818   2.435   2.243   3.199
 9973SOL    HW230819   2.494   2.305   3.338
 9974SOL     OW30820   1.137   2.746   2.773
 9974SOL    HW130821   1.093   2.824   2.727
 9974SOL    HW230822   1.140   2.668   2.710
 9975SOL     OW30823   2.427   4.872   0.039
 9975SOL    HW130824   2.401   4.776   0.050
 9975SOL    HW230825   2.525   4.878   0.020
 9976SOL     OW30826   3.601   4.470   6.165
 9976SOL    HW130827   3.554   4.432   6.245
 9976SOL    HW230828   3.604   4.402   6.092
 9977SOL     OW30829   4.711   6.924   5.278
 9977SOL    HW130830   4.771   6.851   5.247
 9977SOL    HW230831   4.734   6.948   5.372
 9978SOL     OW30832   0.943   3.606   6.761
 9978SOL    HW130833   1.000   3.600   6.679
 9978SOL    HW230834   0.972   3.684   6.816
 9979SOL     OW30835   3.349   3.262   4.943
 9979SOL    HW130836   3.425   3.326   4.953
 9979SOL    HW230837   3.263   3.312   4.953
 9980SOL     OW30838   2.328   1.602   0.837
 9980SOL    HW130839   2.406   1.591   0.899
 9980SOL    HW230840   2.250   1.549   0.872
 9981SOL     OW30841   6.245   2.029   0.862
 9981SOL    HW130842   6.154   1.988   0.854
 9981SOL    HW230843   6.284   2.042   0.770
 9982SOL     OW30844   2.029   2.111   4.383
 9982SOL    HW130845   2.017   2.206   4.410
 9982SOL    HW230846   2.016   2.102   4.285
 9983SOL     OW30847   0.838   3.130   2.104
 9983SOL    HW130848   0.889   3.060   2.156
 9983SOL    HW230849   0.902   3.185   2.051
 9984SOL     OW30850   0.154   5.283   1.206
 9984SOL    HW130851   0.172   5.190   1.174
 9984SOL    HW230852   0.207   5.301   1.289
 9985SOL     OW30853   5.021   4.924   0.001
 9985SOL    HW130854   5.006   4.987   0.076
 9985SOL    HW230855   4.956   4.943   6.948
 9986SOL     OW30856   5.406   5.082   6.779
 9986SOL    HW130857   5.447   5.173   6.768
 9986SOL    HW230858   5.367   5.052   6.692
 9987SOL     OW30859   5.332   2.922   1.474
 9987SOL    HW130860   5.299   3.009   1.439
 9987SOL    HW230861   5.310   2.914   1.571
 9988SOL     OW30862   5.731   6.063   3.992
 9988SOL    HW130863   5.689   6.039   3.904
 9988SOL    HW230864   5.664   6.112   4.048
 9989SOL     OW30865   6.858   5.219   2.429
 9989SOL    HW130866   6.944   5.227   2.480
 9989SOL    HW230867   6.798   5.295   2.453
 9990SOL     OW30868   0.241   6.694   4.076
 9990SOL    HW130869   0.183   6.773   4.095
 9990SOL    HW230870   0.269   6.695   3.980
 9991SOL     OW30871   1.688   4.955   3.186
 9991SOL    HW130872   1.667   4.949   3.283
 9991SOL    HW230873   1.717   4.865   3.153
 9992SOL     OW30874   3.090   4.221   0.924
 9992SOL    HW130875   3.116   4.305   0.877
 9992SOL    HW230876   3.005   4.235   0.974
 9993SOL     OW30877   3.342   6.361   4.326
 9993SOL    HW130878   3.407   6.289   4.301
 9993SOL    HW230879   3.382   6.420   4.395
 9994SOL     OW30880   5.582   5.518   5.039
 9994SOL    HW130881   5.564   5.582   5.113
 9994SOL    HW230882   5.495   5.481   5.005
 9995SOL     OW30883   2.976   0.498   5.151
 9995SOL    HW130884   2.933   0.425   5.098
 9995SOL    HW230885   2.941   0.587   5.119
 9996SOL     OW30886   3.013   3.502   0.812
 9996SOL    HW130887   2.917   3.531   0.815
 9996SOL    HW230888   3.019   3.404   0.834
 9997SOL     OW30889   6.041   2.636   3.588
 9997SOL    HW130890   6.027   2.730   3.619
 9997SOL    HW230891   5.996   2.573   3.652
 9998SOL     OW30892   4.740   4.474   2.504
 9998SOL    HW130893   4.753   4.463   2.406
 9998SOL    HW230894   4.665   4.538   2.520
 9999SOL     OW30895   0.588   0.100   3.752
 9999SOL    HW130896   0.566   0.197   3.739
 9999SOL    HW230897   0.511   0.054   3.797
10000SOL     OW30898   5.048   2.394   1.454
10000SOL    HW130899   5.138   2.424   1.485
10000SOL    HW230900   5.052   2.376   1.355
10001SOL     OW30901   4.335   6.190   1.845
10001SOL    HW130902   4.435   6.182   1.852
10001SOL    HW230903   4.296   6.201   1.937
10002SOL     OW30904   3.338   1.123   2.046
10002SOL    HW130905   3.273   1.135   1.972
10002SOL    HW230906   3.334   1.202   2.108
10003SOL     OW30907   1.551   0.755   3.857
10003SOL    HW130908   1.618   0.747   3.931
10003SOL    HW230909   1.495   0.837   3.871
10004SOL     OW30910   6.516   4.099   4.883
10004SOL    HW130911   6.428   4.053   4.867
10004SOL    HW230912   6.587   4.031   4.899
10005SOL     OW30913   2.220   5.119   3.286
10005SOL    HW130914   2.272   5.193   3.244
10005SOL    HW230915   2.281   5.064   3.343
10006SOL     OW30916   5.574   0.125   5.037
10006SOL    HW130917   5.647   0.106   5.103
10006SOL    HW230918   5.564   0.224   5.026
10007SOL     OW30919   1.655   5.185   4.622
10007SOL    HW130920   1.622   5.276   4.648
10007SOL    HW230921   1.579   5.120   4.624
10008SOL     OW30922   4.093   1.174   6.258
10008SOL    HW130923   4.126   1.154   6.166
10008SOL    HW230924   4.041   1.260   6.257
10009SOL     OW30925   1.168   3.031   2.406
10009SOL    HW130926   1.207   2.940   2.418
10009SOL    HW230927   1.223   3.084   2.341
10010SOL     OW30928   2.594   3.614   0.477
10010SOL    HW130929   2.562   3.648   0.389
10010SOL    HW230930   2.678   3.663   0.502
10011SOL     OW30931   2.046   3.760   6.924
10011SOL    HW130932   2.010   3.673   6.890
10011SOL    HW230933   2.016   3.773   7.018
10012SOL     OW30934   5.863   2.282   3.156
10012SOL    HW130935   5.855   2.296   3.255
10012SOL    HW230936   5.777   2.244   3.121
10013SOL     OW30937   0.345   5.730   5.186
10013SOL    HW130938   0.294   5.789   5.248
10013SOL    HW230939   0.410   5.674   5.238
10014SOL     OW30940   1.034   0.159   3.343
10014SOL    HW130941   1.069   0.066   3.340
10014SOL    HW230942   1.081   0.214   3.274
10015SOL     OW30943   4.307   4.507   5.715
10015SOL    HW130944   4.330   4.413   5.739
10015SOL    HW230945   4.373   4.569   5.758
10016SOL     OW30946   2.086   0.273   3.391
10016SOL    HW130947   2.086   0.207   3.467
10016SOL    HW230948   2.071   0.224   3.305
10017SOL     OW30949   2.407   1.941   2.393
10017SOL    HW130950   2.372   2.030   2.424
10017SOL    HW230951   2.483   1.913   2.453
10018SOL     OW30952   0.013   3.377   5.948
10018SOL    HW130953   0.073   3.338   5.878
10018SOL    HW230954   6.940   3.386   5.913
10019SOL     OW30955   0.346   1.953   2.466
10019SOL    HW130956   0.264   1.963   2.411
10019SOL    HW230957   0.333   1.998   2.554
10020SOL     OW30958   6.410   0.683   2.347
10020SOL    HW130959   6.378   0.769   2.307
10020SOL    HW230960   6.375   0.607   2.292
10021SOL     OW30961   1.024   3.722   2.361
10021SOL    HW130962   1.088   3.732   2.437
10021SOL    HW230963   0.947   3.786   2.373
10022SOL     OW30964   2.675   5.383   6.988
10022SOL    HW130965   2.596   5.350   0.020
10022SOL    HW230966   2.751   5.400   0.029
10023SOL     OW30967   1.949   0.074   6.036
10023SOL    HW130968   1.888   0.141   5.994
10023SOL    HW230969   1.920   0.057   6.131
10024SOL     OW30970   1.297   4.891   2.245
10024SOL    HW130971   1.219   4.851   2.196
10024SOL    HW230972   1.354   4.818   2.283
10025SOL     OW30973   0.997   4.512   1.943
10025SOL    HW130974   1.061   4.499   2.019
10025SOL    HW230975   0.956   4.603   1.950
10026SOL     OW30976   5.217   1.651   4.303
10026SOL    HW130977   5.317   1.658   4.309
10026SOL    HW230978   5.192   1.610   4.216
10027SOL     OW30979   2.675   1.952   5.424
10027SOL    HW130980   2.630   1.918   5.341
10027SOL    HW230981   2.647   2.047   5.440
10028SOL     OW30982   4.608   0.525   1.049
10028SOL    HW130983   4.584   0.569   0.963
10028SOL    HW230984   4.596   0.589   1.125
10029SOL     OW30985   0.260   3.695   5.035
10029SOL    HW130986   0.342   3.751   5.025
10029SOL    HW230987   0.234   3.692   5.131
10030SOL     OW30988   2.308   6.887   5.012
10030SOL    HW130989   2.332   6.984   5.018
10030SOL    HW230990   2.327   6.842   5.100
10031SOL     OW30991   2.575   4.757   3.959
10031SOL    HW130992   2.569   4.666   3.918
10031SOL    HW230993   2.561   4.750   4.058
10032SOL     OW30994   3.198   6.083   5.199
10032SOL    HW130995   3.232   6.141   5.125
10032SOL    HW230996   3.213   6.128   5.286
10033SOL     OW30997   3.589   0.952   3.221
10033SOL    HW130998   3.635   0.866   3.244
10033SOL    HW230999   3.533   0.939   3.139
10034SOL     OW31000   2.706   1.008   3.947
10034SOL    HW131001   2.748   1.096   3.923
10034SOL    HW231002   2.757   0.934   3.902
10035SOL     OW31003   5.514   2.836   2.434
10035SOL    HW131004   5.545   2.780   2.358
10035SOL    HW231005   5.474   2.921   2.398
10036SOL     OW31006   0.120   0.685   7.010
10036SOL    HW131007   0.059   0.743   6.956
10036SOL    HW231008   0.068   0.607   0.027
10037SOL     OW31009   6.313   0.284   0.158
10037SOL    HW131010   6.387   0.351   0.149
10037SOL    HW231011   6.322   0.237   0.246
10038SOL     OW31012   4.390   6.769   6.734
10038SOL    HW131013   4.371   6.768   6.832
10038SOL    HW231014   4.475   6.820   6.717
10039SOL     OW31015   6.180   5.368   3.075
10039SOL    HW131016   6.242   5.420   3.016
10039SOL    HW231017   6.234   5.312   3.138
10040SOL     OW31018   3.418   6.715   0.905
10040SOL    HW131019   3.339   6.772   0.884
10040SOL    HW231020   3.471   6.698   0.821
10041SOL     OW31021   6.773   5.175   4.899
10041SOL    HW131022   6.725   5.137   4.820
10041SOL    HW231023   6.774   5.274   4.893
10042SOL     OW31024   0.445   0.748   4.571
10042SOL    HW131025   0.470   0.677   4.505
10042SOL    HW231026   0.497   0.736   4.655
10043SOL     OW31027   0.739   0.897   3.487
10043SOL    HW131028   0.743   0.804   3.451
10043SOL    HW231029   0.796   0.903   3.569
10044SOL     OW31030   2.450   1.579   6.046
10044SOL    HW131031   2.372   1.557   6.105
10044SOL    HW231032   2.428   1.662   5.994
10045SOL     OW31033   4.030   6.545   4.891
10045SOL    HW131034   4.108   6.608   4.892
10045SOL    HW231035   3.991   6.542   4.800
10046SOL     OW31036   0.222   2.726   1.539
10046SOL    HW131037   0.135   2.676   1.543
10046SOL    HW231038   0.236   2.773   1.626
10047SOL     OW31039   6.950   1.849   4.844
10047SOL    HW131040   7.014   1.818   4.774
10047SOL    HW231041   6.976   1.940   4.875
10048SOL     OW31042   3.777   1.548   1.961
10048SOL    HW131043   3.679   1.553   1.984
10048SOL    HW231044   3.793   1.590   1.872
10049SOL     OW31045   2.002   0.172   5.449
10049SOL    HW131046   2.074   0.128   5.394
10049SOL    HW231047   1.938   0.102   5.481
10050SOL     OW31048   5.035   3.021   3.866
10050SOL    HW131049   4.955   2.961   3.859
10050SOL    HW231050   5.107   2.988   3.805
10051SOL     OW31051   6.087   3.009   4.958
10051SOL    HW131052   6.168   3.035   4.906
10051SOL    HW231053   6.006   3.019   4.900
10052SOL     OW31054   1.171   3.650   1.496
10052SOL    HW131055   1.247   3.704   1.531
10052SOL    HW231056   1.205   3.578   1.435
10053SOL     OW31057   3.578   5.471   3.354
10053SOL    HW131058   3.604   5.564   3.328
10053SOL    HW231059   3.654   5.428   3.402
10054SOL     OW31060   3.849   5.499   5.217
10054SOL    HW131061   3.855   5.524   5.120
10054SOL    HW231062   3.829   5.580   5.272
10055SOL     OW31063   6.315   2.550   5.457
10055SOL    HW131064   6.296   2.649   5.452
10055SOL    HW231065   6.302   2.509   5.367
10056SOL     OW31066   6.267   4.659   1.744
10056SOL    HW131067   6.235   4.565   1.733
10056SOL    HW231068   6.356   4.670   1.700
10057SOL     OW31069   3.642   2.045   4.381
10057SOL    HW131070   3.709   2.089   4.441
10057SOL    HW231071   3.550   2.079   4.404
10058SOL     OW31072   0.434   5.715   3.837
10058SOL    HW131073   0.406   5.796   3.889
10058SOL    HW231074   0.533   5.704   3.844
10059SOL     OW31075   5.775   0.910   1.250
10059SOL    HW131076   5.794   0.912   1.151
10059SOL    HW231077   5.679   0.889   1.265
10060SOL     OW31078   2.768   2.599   1.764
10060SOL    HW131079   2.853   2.631   1.722
10060SOL    HW231080   2.789   2.523   1.826
10061SOL     OW31081   6.261   1.561   4.355
10061SOL    HW131082   6.209   1.536   4.437
10061SOL    HW231083   6.302   1.480   4.315
10062SOL     OW31084   6.706   5.770   3.128
10062SOL    HW131085   6.769   5.829   3.077
10062SOL    HW231086   6.757   5.692   3.165
10063SOL     OW31087   1.031   3.239   3.519
10063SOL    HW131088   1.113   3.182   3.521
10063SOL    HW231089   1.048   3.320   3.462
10064SOL     OW31090   5.595   6.261   4.642
10064SOL    HW131091   5.541   6.346   4.646
10064SOL    HW231092   5.544   6.192   4.590
10065SOL     OW31093   1.708   6.469   2.817
10065SOL    HW131094   1.715   6.420   2.731
10065SOL    HW231095   1.622   6.447   2.862
10066SOL     OW31096   0.710   6.875   3.857
10066SOL    HW131097   0.731   6.779   3.840
10066SOL    HW231098   0.665   6.914   3.777
10067SOL     OW31099   4.696   4.728   4.347
10067SOL    HW131100   4.683   4.767   4.438
10067SOL    HW231101   4.610   4.686   4.317
10068SOL     OW31102   5.246   3.866   5.007
10068SOL    HW131103   5.149   3.867   4.984
10068SOL    HW231104   5.263   3.928   5.084
10069SOL     OW31105   2.897   1.613   3.412
10069SOL    HW131106   2.899   1.661   3.499
10069SOL    HW231107   2.808   1.569   3.400
10070SOL     OW31108   0.924   6.873   4.689
10070SOL    HW131109   0.953   6.869   4.594
10070SOL    HW231110   0.841   6.818   4.701
10071SOL     OW31111   4.890   5.824   4.333
10071SOL    HW131112   4.911   5.818   4.236
10071SOL    HW231113   4.841   5.741   4.362
10072SOL     OW31114   0.408   6.712   3.265
10072SOL    HW131115   0.352   6.647   3.213
10072SOL    HW231116   0.464   6.766   3.202
10073SOL     OW31117   0.228   4.655   5.624
10073SOL    HW131118   0.214   4.561   5.657
10073SOL    HW231119   0.325   4.672   5.610
10074SOL     OW31120   1.885   0.338   6.320
10074SOL    HW131121   1.962   0.280   6.296
10074SOL    HW231122   1.904   0.432   6.294
10075SOL     OW31123   1.102   2.590   3.895
10075SOL    HW131124   1.030   2.630   3.839
10075SOL    HW231125   1.190   2.630   3.870
10076SOL     OW31126   4.594   6.883   4.887
10076SOL    HW131127   4.512   6.889   4.831
10076SOL    HW231128   4.573   6.836   4.973
10077SOL     OW31129   4.271   2.006   5.985
10077SOL    HW131130   4.201   1.949   6.028
10077SOL    HW231131   4.232   2.096   5.964
10078SOL     OW31132   5.911   0.181   5.563
10078SOL    HW131133   5.959   0.096   5.541
10078SOL    HW231134   5.967   0.259   5.534
10079SOL     OW31135   1.292   3.435   1.376
10079SOL    HW131136   1.332   3.404   1.462
10079SOL    HW231137   1.263   3.357   1.322
10080SOL     OW31138   1.797   2.676   0.301
10080SOL    HW131139   1.783   2.643   0.208
10080SOL    HW231140   1.877   2.632   0.341
10081SOL     OW31141   0.860   0.518   6.616
10081SOL    HW131142   0.902   0.452   6.678
10081SOL    HW231143   0.868   0.486   6.522
10082SOL     OW31144   6.177   2.454   1.669
10082SOL    HW131145   6.211   2.453   1.575
10082SOL    HW231146   6.218   2.378   1.720
10083SOL     OW31147   4.507   0.495   3.747
10083SOL    HW131148   4.447   0.489   3.827
10083SOL    HW231149   4.504   0.410   3.696
10084SOL     OW31150   2.274   1.206   6.004
10084SOL    HW131151   2.247   1.117   5.965
10084SOL    HW231152   2.349   1.193   6.069
10085SOL     OW31153   0.586   5.846   2.791
10085SOL    HW131154   0.517   5.791   2.836
10085SOL    HW231155   0.675   5.800   2.796
10086SOL     OW31156   5.926   4.151   1.941
10086SOL    HW131157   5.956   4.241   1.974
10086SOL    HW231158   5.998   4.111   1.885
10087SOL     OW31159   1.156   0.128   4.243
10087SOL    HW131160   1.177   0.225   4.253
10087SOL    HW231161   1.119   0.111   4.152
10088SOL     OW31162   1.155   6.914   4.843
10088SOL    HW131163   1.064   6.904   4.803
10088SOL    HW231164   1.205   6.986   4.794
10089SOL     OW31165   1.829   2.270   2.013
10089SOL    HW131166   1.758   2.319   1.962
10089SOL    HW231167   1.833   2.175   1.982
10090SOL     OW31168   1.084   4.216   0.891
10090SOL    HW131169   1.140   4.294   0.862
10090SOL    HW231170   1.120   4.132   0.852
10091SOL     OW31171   0.837   3.070   4.627
10091SOL    HW131172   0.831   3.069   4.527
10091SOL    HW231173   0.909   3.133   4.655
10092SOL     OW31174   1.735   3.576   5.204
10092SOL    HW131175   1.809   3.538   5.148
10092SOL    HW231176   1.775   3.627   5.281
10093SOL     OW31177   6.157   5.467   5.752
10093SOL    HW131178   6.126   5.552   5.708
10093SOL    HW231179   6.078   5.415   5.782
10094SOL     OW31180   1.988   1.537   2.834
10094SOL    HW131181   2.053   1.607   2.861
10094SOL    HW231182   2.011   1.503   2.743
10095SOL     OW31183   6.972   1.098   6.203
10095SOL    HW131184   0.009   1.102   6.285
10095SOL    HW231185   6.895   1.160   6.213
10096SOL     OW31186   0.214   5.435   2.427
10096SOL    HW131187   0.161   5.498   2.370
10096SOL    HW231188   0.297   5.408   2.379
10097SOL     OW31189   1.786   0.844   1.194
10097SOL    HW131190   1.688   0.856   1.183
10097SOL    HW231191   1.833   0.927   1.164
10098SOL     OW31192   2.256   5.438   6.483
10098SOL    HW131193   2.229   5.377   6.408
10098SOL    HW231194   2.332   5.495   6.453
10099SOL     OW31195   6.832   4.161   5.243
10099SOL    HW131196   6.915   4.214   5.257
10099SOL    HW231197   6.771   4.210   5.181
10100SOL     OW31198   5.035   0.716   4.983
10100SOL    HW131199   5.043   0.780   5.060
10100SOL    HW231200   4.955   0.658   4.996
10101SOL     OW31201   6.600   4.591   2.408
10101SOL    HW131202   6.638   4.519   2.350
10101SOL    HW231203   6.620   4.571   2.503
10102SOL     OW31204   3.107   1.804   2.302
10102SOL    HW131205   3.066   1.892   2.327
10102SOL    HW231206   3.151   1.813   2.213
10103SOL     OW31207   2.433   1.499   5.572
10103SOL    HW131208   2.533   1.490   5.569
10103SOL    HW231209   2.398   1.457   5.656
10104SOL     OW31210   0.813   5.271   4.949
10104SOL    HW131211   0.852   5.223   4.870
10104SOL    HW231212   0.783   5.362   4.922
10105SOL     OW31213   1.999   0.734   6.823
10105SOL    HW131214   2.070   0.743   6.754
10105SOL    HW231215   1.955   0.823   6.837
10106SOL     OW31216   5.091   5.983   0.988
10106SOL    HW131217   5.066   6.073   0.951
10106SOL    HW231218   5.159   5.995   1.061
10107SOL     OW31219   5.947   1.310   6.025
10107SOL    HW131220   5.886   1.311   6.105
10107SOL    HW231221   6.041   1.326   6.055
10108SOL     OW31222   6.578   6.997   0.354
10108SOL    HW131223   6.513   6.947   0.296
10108SOL    HW231224   6.588   6.950   0.441
10109SOL     OW31225   4.855   5.653   3.907
10109SOL    HW131226   4.781   5.587   3.898
10109SOL    HW231227   4.942   5.608   3.884
10110SOL     OW31228   3.991   0.084   5.907
10110SOL    HW131229   4.069   0.118   5.958
10110SOL    HW231230   3.961   0.154   5.841
10111SOL     OW31231   6.636   3.208   3.077
10111SOL    HW131232   6.736   3.212   3.080
10111SOL    HW231233   6.608   3.149   3.001
10112SOL     OW31234   5.113   3.794   5.739
10112SOL    HW131235   5.135   3.814   5.834
10112SOL    HW231236   5.014   3.782   5.730
10113SOL     OW31237   3.924   6.942   6.705
10113SOL    HW131238   3.867   6.967   6.628
10113SOL    HW231239   3.873   6.956   6.790
10114SOL     OW31240   5.169   1.135   0.800
10114SOL    HW131241   5.163   1.223   0.754
10114SOL    HW231242   5.263   1.120   0.830
10115SOL     OW31243   1.892   2.367   3.878
10115SOL    HW131244   1.951   2.287   3.871
10115SOL    HW231245   1.821   2.363   3.808
10116SOL     OW31246   0.458   0.766   1.191
10116SOL    HW131247   0.373   0.732   1.151
10116SOL    HW231248   0.468   0.863   1.171
10117SOL     OW31249   6.043   0.436   5.485
10117SOL    HW131250   5.953   0.415   5.448
10117SOL    HW231251   6.036   0.517   5.544
10118SOL     OW31252   6.577   5.219   2.709
10118SOL    HW131253   6.635   5.156   2.658
10118SOL    HW231254   6.485   5.220   2.669
10119SOL     OW31255   2.662   0.707   5.708
10119SOL    HW131256   2.603   0.758   5.770
10119SOL    HW231257   2.748   0.757   5.693
10120SOL     OW31258   0.481   3.214   3.760
10120SOL    HW131259   0.559   3.274   3.742
10120SOL    HW231260   0.436   3.192   3.673
10121SOL     OW31261   5.692   4.564   5.199
10121SOL    HW131262   5.684   4.491   5.130
10121SOL    HW231263   5.623   4.634   5.181
10122SOL     OW31264   5.145   3.096   0.001
10122SOL    HW131265   5.181   3.134   6.936
10122SOL    HW231266   5.092   3.165   0.049
10123SOL     OW31267   6.986   6.258   0.875
10123SOL    HW131268   0.028   6.192   0.915
10123SOL    HW231269   6.928   6.298   0.946
10124SOL     OW31270   3.170   3.653   0.216
10124SOL    HW131271   3.252   3.622   0.263
10124SOL    HW231272   3.193   3.677   0.121
10125SOL     OW31273   1.470   0.496   2.562
10125SOL    HW131274   1.392   0.506   2.500
10125SOL    HW231275   1.447   0.539   2.650
10126SOL     OW31276   6.271   5.057   0.750
10126SOL    HW131277   6.306   5.029   0.660
10126SOL    HW231278   6.211   5.136   0.739
10127SOL     OW31279   3.410   5.535   5.490
10127SOL    HW131280   3.466   5.469   5.440
10127SOL    HW231281   3.325   5.491   5.519
10128SOL     OW31282   6.599   1.915   0.657
10128SOL    HW131283   6.652   1.922   0.572
10128SOL    HW231284   6.612   1.998   0.711
10129SOL     OW31285   5.257   2.409   3.709
10129SOL    HW131286   5.288   2.430   3.801
10129SOL    HW231287   5.331   2.428   3.644
10130SOL     OW31288   6.953   5.749   2.675
10130SOL    HW131289   6.904   5.674   2.719
10130SOL    HW231290   6.937   5.745   2.576
10131SOL     OW31291   0.719   1.663   2.304
10131SOL    HW131292   0.763   1.653   2.215
10131SOL    HW231293   0.729   1.758   2.334
10132SOL     OW31294   2.953   6.751   2.970
10132SOL    HW131295   2.887   6.801   2.914
10132SOL    HW231296   3.009   6.693   2.911
10133SOL     OW31297   4.656   6.154   3.638
10133SOL    HW131298   4.675   6.172   3.734
10133SOL    HW231299   4.644   6.056   3.624
10134SOL     OW31300   0.022   1.184   3.635
10134SOL    HW131301   7.015   1.160   3.728
10134SOL    HW231302   0.118   1.158   3.621
10135SOL     OW31303   4.323   5.060   2.870
10135SOL    HW131304   4.256   4.988   2.888
10135SOL    HW231305   4.293   5.145   2.913
10136SOL     OW31306   6.255   0.200   3.656
10136SOL    HW131307   6.193   0.185   3.734
10136SOL    HW231308   6.239   0.291   3.618
10137SOL     OW31309   6.413   5.763   4.668
10137SOL    HW131310   6.458   5.807   4.590
10137SOL    HW231311   6.481   5.718   4.725
10138SOL     OW31312   5.841   2.285   0.331
10138SOL    HW131313   5.809   2.244   0.416
10138SOL    HW231314   5.851   2.215   0.261
10139SOL     OW31315   3.239   2.929   3.406
10139SOL    HW131316   3.281   2.901   3.319
10139SOL    HW231317   3.304   2.915   3.480
10140SOL     OW31318   6.739   5.227   6.930
10140SOL    HW131319   6.810   5.286   6.892
10140SOL    HW231320   6.777   5.135   6.945
10141SOL     OW31321   2.248   1.281   4.714
10141SOL    HW131322   2.254   1.295   4.812
10141SOL    HW231323   2.245   1.183   4.694
10142SOL     OW31324   4.051   6.069   4.990
10142SOL    HW131325   4.109   6.151   4.983
10142SOL    HW231326   4.094   5.994   4.939
10143SOL     OW31327   4.562   0.061   1.217
10143SOL    HW131328   4.593   0.136   1.275
10143SOL    HW231329   4.641   0.012   1.179
10144SOL     OW31330   3.445   5.582   4.890
10144SOL    HW131331   3.403   5.668   4.916
10144SOL    HW231332   3.510   5.554   4.961
10145SOL     OW31333   3.047   5.656   6.016
10145SOL    HW131334   2.963   5.602   6.022
10145SOL    HW231335   3.078   5.659   5.921
10146SOL     OW31336   4.060   5.617   4.269
10146SOL    HW131337   3.976   5.589   4.314
10146SOL    HW231338   4.069   5.717   4.274
10147SOL     OW31339   4.759   4.080   3.907
10147SOL    HW131340   4.765   4.006   3.973
10147SOL    HW231341   4.698   4.053   3.832
10148SOL     OW31342   6.204   5.805   0.774
10148SOL    HW131343   6.227   5.824   0.679
10148SOL    HW231344   6.119   5.853   0.798
10149SOL     OW31345   4.458   1.767   1.408
10149SOL    HW131346   4.425   1.824   1.483
10149SOL    HW231347   4.380   1.724   1.362
10150SOL     OW31348   4.800   4.563   0.646
10150SOL    HW131349   4.829   4.499   0.575
10150SOL    HW231350   4.871   4.632   0.659
10151SOL     OW31351   1.143   0.177   6.605
10151SOL    HW131352   1.223   0.204   6.552
10151SOL    HW231353   1.060   0.205   6.557
10152SOL     OW31354   1.052   4.805   3.384
10152SOL    HW131355   1.048   4.714   3.427
10152SOL    HW231356   1.107   4.799   3.301
10153SOL     OW31357   4.675   6.302   3.417
10153SOL    HW131358   4.766   6.282   3.383
10153SOL    HW231359   4.653   6.240   3.493
10154SOL     OW31360   6.681   6.015   5.813
10154SOL    HW131361   6.610   5.963   5.766
10154SOL    HW231362   6.755   5.953   5.840
10155SOL     OW31363   4.041   0.582   5.766
10155SOL    HW131364   4.016   0.545   5.855
10155SOL    HW231365   3.962   0.581   5.705
10156SOL     OW31366   5.390   0.155   2.366
10156SOL    HW131367   5.292   0.145   2.349
10156SOL    HW231368   5.439   0.155   2.279
10157SOL     OW31369   6.169   1.256   6.365
10157SOL    HW131370   6.115   1.292   6.441
10157SOL    HW231371   6.185   1.329   6.298
10158SOL     OW31372   4.587   3.652   6.965
10158SOL    HW131373   4.540   3.721   7.020
10158SOL    HW231374   4.633   3.696   6.888
10159SOL     OW31375   2.283   2.931   6.645
10159SOL    HW131376   2.275   2.842   6.600
10159SOL    HW231377   2.379   2.951   6.662
10160SOL     OW31378   0.296   4.797   3.558
10160SOL    HW131379   0.263   4.880   3.513
10160SOL    HW231380   0.313   4.726   3.490
10161SOL     OW31381   3.353   4.894   6.644
10161SOL    HW131382   3.289   4.948   6.589
10161SOL    HW231383   3.306   4.814   6.681
10162SOL     OW31384   2.419   3.270   6.349
10162SOL    HW131385   2.338   3.214   6.365
10162SOL    HW231386   2.403   3.328   6.269
10163SOL     OW31387   6.370   3.893   6.103
10163SOL    HW131388   6.462   3.875   6.136
10163SOL    HW231389   6.304   3.869   6.175
10164SOL     OW31390   6.379   3.356   4.902
10164SOL    HW131391   6.423   3.325   4.986
10164SOL    HW231392   6.426   3.436   4.867
10165SOL     OW31393   0.775   2.412   4.491
10165SOL    HW131394   0.787   2.440   4.586
10165SOL    HW231395   0.764   2.492   4.433
10166SOL     OW31396   3.008   1.748   1.593
10166SOL    HW131397   2.990   1.704   1.681
10166SOL    HW231398   3.053   1.836   1.608
10167SOL     OW31399   5.579   1.041   6.588
10167SOL    HW131400   5.598   1.124   6.639
10167SOL    HW231401   5.605   1.054   6.492
10168SOL     OW31402   6.858   4.676   4.527
10168SOL    HW131403   6.935   4.676   4.591
10168SOL    HW231404   6.814   4.586   4.529
10169SOL     OW31405   6.474   4.973   2.945
10169SOL    HW131406   6.431   5.025   2.871
10169SOL    HW231407   6.563   4.939   2.914
10170SOL     OW31408   1.219   4.179   4.978
10170SOL    HW131409   1.152   4.231   4.926
10170SOL    HW231410   1.183   4.160   5.069
10171SOL     OW31411   6.791   4.045   5.980
10171SOL    HW131412   6.752   4.002   5.899
10171SOL    HW231413   6.820   3.975   6.045
10172SOL     OW31414   5.413   0.663   2.712
10172SOL    HW131415   5.352   0.737   2.741
10172SOL    HW231416   5.395   0.582   2.768
10173SOL     OW31417   1.881   1.697   0.973
10173SOL    HW131418   1.900   1.684   1.070
10173SOL    HW231419   1.940   1.770   0.937
10174SOL     OW31420   5.697   4.696   3.034
10174SOL    HW131421   5.614   4.644   3.054
10174SOL    HW231422   5.775   4.653   3.080
10175SOL     OW31423   6.258   2.418   4.561
10175SOL    HW131424   6.278   2.457   4.651
10175SOL    HW231425   6.299   2.475   4.490
10176SOL     OW31426   1.753   3.295   6.544
10176SOL    HW131427   1.718   3.372   6.598
10176SOL    HW231428   1.711   3.296   6.453
10177SOL     OW31429   3.375   0.115   6.987
10177SOL    HW131430   3.459   0.169   6.993
10177SOL    HW231431   3.306   0.152   0.028
10178SOL     OW31432   5.984   2.951   4.434
10178SOL    HW131433   6.041   2.870   4.449
10178SOL    HW231434   5.888   2.922   4.426
10179SOL     OW31435   0.711   2.085   6.586
10179SOL    HW131436   0.625   2.134   6.569
10179SOL    HW231437   0.690   1.992   6.616
10180SOL     OW31438   2.794   5.695   5.785
10180SOL    HW131439   2.797   5.628   5.859
10180SOL    HW231440   2.729   5.665   5.716
10181SOL     OW31441   5.509   3.558   1.429
10181SOL    HW131442   5.490   3.587   1.523
10181SOL    HW231443   5.599   3.516   1.424
10182SOL     OW31444   5.550   1.242   1.440
10182SOL    HW131445   5.498   1.162   1.410
10182SOL    HW231446   5.638   1.212   1.478
10183SOL     OW31447   1.114   1.913   6.769
10183SOL    HW131448   1.046   1.979   6.737
10183SOL    HW231449   1.071   1.822   6.777
10184SOL     OW31450   4.689   1.793   6.155
10184SOL    HW131451   4.604   1.841   6.134
10184SOL    HW231452   4.671   1.724   6.225
10185SOL     OW31453   4.834   6.748   0.892
10185SOL    HW131454   4.796   6.673   0.946
10185SOL    HW231455   4.885   6.810   0.951
10186SOL     OW31456   5.432   2.821   3.251
10186SOL    HW131457   5.391   2.778   3.171
10186SOL    HW231458   5.470   2.909   3.226
10187SOL     OW31459   0.739   2.230   1.729
10187SOL    HW131460   0.694   2.277   1.804
10187SOL    HW231461   0.755   2.134   1.754
10188SOL     OW31462   3.774   6.585   0.248
10188SOL    HW131463   3.851   6.545   0.298
10188SOL    HW231464   3.707   6.513   0.228
10189SOL     OW31465   2.381   6.401   5.136
10189SOL    HW131466   2.434   6.437   5.059
10189SOL    HW231467   2.303   6.349   5.101
10190SOL     OW31468   4.568   2.157   0.575
10190SOL    HW131469   4.518   2.178   0.659
10190SOL    HW231470   4.657   2.203   0.577
10191SOL     OW31471   5.027   4.636   6.522
10191SOL    HW131472   4.963   4.573   6.566
10191SOL    HW231473   5.101   4.659   6.586
10192SOL     OW31474   3.657   0.339   4.879
10192SOL    HW131475   3.733   0.398   4.906
10192SOL    HW231476   3.657   0.329   4.779
10193SOL     OW31477   4.336   4.324   1.087
10193SOL    HW131478   4.276   4.274   1.149
10193SOL    HW231479   4.287   4.343   1.002
10194SOL     OW31480   5.930   4.232   4.884
10194SOL    HW131481   5.957   4.233   4.788
10194SOL    HW231482   6.009   4.211   4.941
10195SOL     OW31483   6.017   4.516   1.577
10195SOL    HW131484   6.102   4.465   1.589
10195SOL    HW231485   6.006   4.542   1.481
10196SOL     OW31486   6.525   1.366   4.972
10196SOL    HW131487   6.437   1.332   4.939
10196SOL    HW231488   6.510   1.432   5.045
10197SOL     OW31489   6.650   0.675   4.859
10197SOL    HW131490   6.671   0.741   4.787
10197SOL    HW231491   6.635   0.585   4.818
10198SOL     OW31492   3.849   0.405   2.552
10198SOL    HW131493   3.944   0.376   2.561
10198SOL    HW231494   3.792   0.356   2.618
10199SOL     OW31495   1.132   3.006   5.492
10199SOL    HW131496   1.217   2.961   5.519
10199SOL    HW231497   1.054   2.949   5.519
10200SOL     OW31498   5.270   2.794   0.977
10200SOL    HW131499   5.243   2.803   1.073
10200SOL    HW231500   5.285   2.885   0.938
10201SOL     OW31501   1.355   4.315   1.179
10201SOL    HW131502   1.403   4.334   1.265
10201SOL    HW231503   1.262   4.284   1.199
10202SOL     OW31504   4.114   1.486   5.520
10202SOL    HW131505   4.044   1.516   5.455
10202SOL    HW231506   4.104   1.538   5.605
10203SOL     OW31507   5.540   2.547   5.214
10203SOL    HW131508   5.510   2.533   5.120
10203SOL    HW231509   5.525   2.464   5.267
10204SOL     OW31510   5.492   0.057   6.390
10204SOL    HW131511   5.441   0.046   6.305
10204SOL    HW231512   5.589   0.037   6.373
10205SOL     OW31513   1.209   0.809   6.759
10205SOL    HW131514   1.179   0.900   6.785
10205SOL    HW231515   1.277   0.816   6.685
10206SOL     OW31516   1.208   0.568   5.862
10206SOL    HW131517   1.198   0.642   5.928
10206SOL    HW231518   1.300   0.529   5.867
10207SOL     OW31519   1.543   1.910   5.734
10207SOL    HW131520   1.493   1.857   5.667
10207SOL    HW231521   1.506   2.003   5.738
10208SOL     OW31522   5.339   5.050   4.908
10208SOL    HW131523   5.322   5.000   4.993
10208SOL    HW231524   5.379   5.139   4.929
10209SOL     OW31525   6.747   0.309   6.079
10209SOL    HW131526   6.757   0.285   5.982
10209SOL    HW231527   6.651   0.325   6.100
10210SOL     OW31528   4.266   5.929   1.713
10210SOL    HW131529   4.279   5.964   1.806
10210SOL    HW231530   4.190   5.978   1.669
10211SOL     OW31531   3.838   6.480   5.637
10211SOL    HW131532   3.747   6.466   5.598
10211SOL    HW231533   3.838   6.451   5.733
10212SOL     OW31534   0.944   0.155   5.905
10212SOL    HW131535   1.015   0.097   5.946
10212SOL    HW231536   0.896   0.204   5.978
10213SOL     OW31537   5.558   2.072   0.391
10213SOL    HW131538   5.508   2.026   0.317
10213SOL    HW231539   5.568   2.169   0.369
10214SOL     OW31540   1.201   3.218   1.259
10214SOL    HW131541   1.177   3.161   1.338
10214SOL    HW231542   1.226   3.159   1.182
10215SOL     OW31543   3.632   3.528   2.553
10215SOL    HW131544   3.644   3.550   2.457
10215SOL    HW231545   3.720   3.500   2.592
10216SOL     OW31546   6.207   0.441   1.957
10216SOL    HW131547   6.221   0.351   1.917
10216SOL    HW231548   6.125   0.482   1.920
10217SOL     OW31549   2.942   0.903   3.790
10217SOL    HW131550   2.915   0.806   3.794
10217SOL    HW231551   2.904   0.944   3.708
10218SOL     OW31552   1.091   2.705   3.046
10218SOL    HW131553   1.109   2.735   2.952
10218SOL    HW231554   0.993   2.691   3.058
10219SOL     OW31555   0.680   1.354   2.181
10219SOL    HW131556   0.616   1.375   2.254
10219SOL    HW231557   0.646   1.391   2.094
10220SOL     OW31558   3.648   2.545   1.735
10220SOL    HW131559   3.610   2.614   1.797
10220SOL    HW231560   3.664   2.461   1.786
10221SOL     OW31561   1.382   6.327   2.906
10221SOL    HW131562   1.387   6.388   2.984
10221SOL    HW231563   1.367   6.381   2.822
10222SOL     OW31564   3.436   3.794   4.641
10222SOL    HW131565   3.478   3.854   4.574
10222SOL    HW231566   3.342   3.823   4.658
10223SOL     OW31567   0.810   5.395   1.209
10223SOL    HW131568   0.851   5.431   1.293
10223SOL    HW231569   0.717   5.430   1.200
10224SOL     OW31570   5.823   4.136   3.478
10224SOL    HW131571   5.800   4.227   3.512
10224SOL    HW231572   5.834   4.073   3.555
10225SOL     OW31573   2.368   3.519   5.797
10225SOL    HW131574   2.443   3.512   5.731
10225SOL    HW231575   2.353   3.430   5.840
10226SOL     OW31576   4.397   2.562   0.109
10226SOL    HW131577   4.311   2.574   0.159
10226SOL    HW231578   4.394   2.475   0.059
10227SOL     OW31579   6.041   4.058   0.944
10227SOL    HW131580   5.994   4.120   1.008
10227SOL    HW231581   5.986   4.049   0.861
10228SOL     OW31582   5.476   0.878   0.833
10228SOL    HW131583   5.462   0.975   0.854
10228SOL    HW231584   5.563   0.848   0.871
10229SOL     OW31585   0.553   3.383   4.794
10229SOL    HW131586   0.535   3.481   4.782
10229SOL    HW231587   0.619   3.371   4.869
10230SOL     OW31588   6.703   6.230   2.155
10230SOL    HW131589   6.728   6.170   2.232
10230SOL    HW231590   6.636   6.183   2.097
10231SOL     OW31591   1.466   6.197   3.189
10231SOL    HW131592   1.379   6.246   3.193
10231SOL    HW231593   1.503   6.203   3.096
10232SOL     OW31594   4.947   6.787   3.077
10232SOL    HW131595   4.998   6.856   3.128
10232SOL    HW231596   4.981   6.783   2.983
10233SOL     OW31597   4.380   4.155   6.634
10233SOL    HW131598   4.330   4.236   6.606
10233SOL    HW231599   4.450   4.133   6.566
10234SOL     OW31600   0.081   1.060   1.514
10234SOL    HW131601   0.125   0.987   1.462
10234SOL    HW231602   7.004   1.064   1.491
10235SOL     OW31603   1.221   1.332   3.354
10235SOL    HW131604   1.282   1.263   3.392
10235SOL    HW231605   1.154   1.289   3.294
10236SOL     OW31606   2.449   6.960   1.389
10236SOL    HW131607   2.543   6.930   1.398
10236SOL    HW231608   2.396   6.891   1.338
10237SOL     OW31609   0.656   3.715   6.540
10237SOL    HW131610   0.678   3.804   6.581
10237SOL    HW231611   0.640   3.648   6.612
10238SOL     OW31612   3.809   5.969   0.882
10238SOL    HW131613   3.739   5.940   0.947
10238SOL    HW231614   3.899   5.950   0.919
10239SOL     OW31615   1.663   2.347   4.542
10239SOL    HW131616   1.646   2.432   4.593
10239SOL    HW231617   1.636   2.269   4.598
10240SOL     OW31618   2.661   6.428   0.790
10240SOL    HW131619   2.599   6.393   0.719
10240SOL    HW231620   2.693   6.519   0.765
10241SOL     OW31621   3.771   2.597   1.483
10241SOL    HW131622   3.690   2.610   1.540
10241SOL    HW231623   3.822   2.517   1.516
10242SOL     OW31624   6.986   2.458   0.295
10242SOL    HW131625   6.909   2.434   0.354
10242SOL    HW231626   6.964   2.437   0.200
10243SOL     OW31627   2.377   5.291   1.151
10243SOL    HW131628   2.366   5.196   1.183
10243SOL    HW231629   2.415   5.346   1.225
10244SOL     OW31630   2.550   4.094   1.561
10244SOL    HW131631   2.595   4.005   1.561
10244SOL    HW231632   2.600   4.157   1.621
10245SOL     OW31633   3.840   4.585   0.629
10245SOL    HW131634   3.925   4.613   0.585
10245SOL    HW231635   3.764   4.638   0.592
10246SOL     OW31636   3.432   3.242   4.589
10246SOL    HW131637   3.382   3.219   4.673
10246SOL    HW231638   3.376   3.303   4.534
10247SOL     OW31639   1.088   3.630   4.461
10247SOL    HW131640   1.113   3.673   4.547
10247SOL    HW231641   0.999   3.586   4.469
10248SOL     OW31642   1.177   0.427   3.316
10248SOL    HW131643   1.110   0.491   3.277
10248SOL    HW231644   1.137   0.382   3.396
10249SOL     OW31645   2.363   4.664   6.403
10249SOL    HW131646   2.365   4.678   6.502
10249SOL    HW231647   2.401   4.574   6.382
10250SOL     OW31648   5.080   2.746   7.017
10250SOL    HW131649   5.033   2.834   0.008
10250SOL    HW231650   5.119   2.741   6.925
10251SOL     OW31651   2.165   0.365   4.459
10251SOL    HW131652   2.248   0.316   4.485
10251SOL    HW231653   2.177   0.463   4.479
10252SOL     OW31654   5.093   4.119   5.832
10252SOL    HW131655   5.073   4.094   5.927
10252SOL    HW231656   5.190   4.106   5.813
10253SOL     OW31657   4.324   6.432   6.699
10253SOL    HW131658   4.238   6.439   6.649
10253SOL    HW231659   4.313   6.471   6.791
10254SOL     OW31660   5.502   1.870   4.550
10254SOL    HW131661   5.444   1.920   4.486
10254SOL    HW231662   5.479   1.896   4.644
10255SOL     OW31663   3.641   5.464   1.962
10255SOL    HW131664   3.649   5.555   2.002
10255SOL    HW231665   3.558   5.419   1.995
10256SOL     OW31666   4.453   0.628   2.907
10256SOL    HW131667   4.353   0.625   2.912
10256SOL    HW231668   4.492   0.575   2.982
10257SOL     OW31669   3.114   5.234   2.939
10257SOL    HW131670   3.083   5.147   2.900
10257SOL    HW231671   3.087   5.309   2.879
10258SOL     OW31672   1.514   1.711   1.789
10258SOL    HW131673   1.520   1.611   1.780
10258SOL    HW231674   1.460   1.734   1.870
10259SOL     OW31675   0.749   3.596   4.181
10259SOL    HW131676   0.794   3.532   4.119
10259SOL    HW231677   0.651   3.597   4.163
10260SOL     OW31678   1.652   1.360   3.821
10260SOL    HW131679   1.721   1.431   3.834
10260SOL    HW231680   1.620   1.360   3.726
10261SOL     OW31681   6.537   3.841   0.817
10261SOL    HW131682   6.585   3.925   0.845
10261SOL    HW231683   6.551   3.770   0.886
10262SOL     OW31684   3.389   1.188   6.944
10262SOL    HW131685   3.441   1.234   7.016
10262SOL    HW231686   3.451   1.156   6.873
10263SOL     OW31687   5.627   0.814   1.957
10263SOL    HW131688   5.674   0.757   2.024
10263SOL    HW231689   5.529   0.813   1.974
10264SOL     OW31690   6.547   5.312   6.719
10264SOL    HW131691   6.594   5.267   6.795
10264SOL    HW231692   6.598   5.296   6.634
10265SOL     OW31693   2.296   1.855   0.268
10265SOL    HW131694   2.238   1.845   0.187
10265SOL    HW231695   2.298   1.950   0.297
10266SOL     OW31696   2.916   3.531   2.148
10266SOL    HW131697   2.902   3.522   2.247
10266SOL    HW231698   2.976   3.457   2.116
10267SOL     OW31699   5.943   1.079   0.708
10267SOL    HW131700   5.936   1.104   0.805
10267SOL    HW231701   5.853   1.052   0.674
10268SOL     OW31702   4.529   0.199   0.745
10268SOL    HW131703   4.624   0.215   0.771
10268SOL    HW231704   4.493   0.279   0.697
10269SOL     OW31705   2.220   2.364   6.399
10269SOL    HW131706   2.216   2.279   6.452
10269SOL    HW231707   2.129   2.387   6.365
10270SOL     OW31708   3.235   6.019   1.756
10270SOL    HW131709   3.317   5.963   1.745
10270SOL    HW231710   3.261   6.112   1.784
10271SOL     OW31711   1.532   2.215   0.224
10271SOL    HW131712   1.534   2.115   0.230
10271SOL    HW231713   1.618   2.249   0.187
10272SOL     OW31714   6.839   0.612   4.606
10272SOL    HW131715   6.781   0.548   4.656
10272SOL    HW231716   6.814   0.705   4.630
10273SOL     OW31717   2.248   4.806   3.523
10273SOL    HW131718   2.292   4.769   3.605
10273SOL    HW231719   2.315   4.858   3.470
10274SOL     OW31720   0.424   4.971   4.710
10274SOL    HW131721   0.503   4.910   4.715
10274SOL    HW231722   0.384   4.981   4.801
10275SOL     OW31723   0.267   0.417   2.930
10275SOL    HW131724   0.168   0.404   2.931
10275SOL    HW231725   0.289   0.514   2.938
10276SOL     OW31726   4.222   5.720   6.163
10276SOL    HW131727   4.319   5.741   6.152
10276SOL    HW231728   4.189   5.672   6.081
10277SOL     OW31729   1.078   6.449   4.341
10277SOL    HW131730   1.106   6.455   4.437
10277SOL    HW231731   1.040   6.537   4.312
10278SOL     OW31732   0.098   0.403   5.390
10278SOL    HW131733   0.163   0.373   5.460
10278SOL    HW231734   0.077   0.326   5.330
10279SOL     OW31735   1.924   5.716   4.206
10279SOL    HW131736   1.912   5.675   4.116
10279SOL    HW231737   1.948   5.644   4.272
10280SOL     OW31738   5.683   4.297   0.499
10280SOL    HW131739   5.615   4.229   0.525
10280SOL    HW231740   5.703   4.287   0.401
10281SOL     OW31741   6.523   2.188   3.665
10281SOL    HW131742   6.589   2.118   3.636
10281SOL    HW231743   6.437   2.175   3.616
10282SOL     OW31744   4.984   3.836   3.360
10282SOL    HW131745   4.949   3.928   3.342
10282SOL    HW231746   5.083   3.840   3.374
10283SOL     OW31747   0.184   4.144   0.918
10283SOL    HW131748   0.135   4.080   0.859
10283SOL    HW231749   0.171   4.118   1.013
10284SOL     OW31750   0.384   2.840   3.410
10284SOL    HW131751   0.295   2.873   3.379
10284SOL    HW231752   0.371   2.779   3.488
10285SOL     OW31753   4.716   6.065   4.254
10285SOL    HW131754   4.799   6.118   4.241
10285SOL    HW231755   4.737   5.982   4.306
10286SOL     OW31756   2.929   1.490   4.525
10286SOL    HW131757   2.830   1.487   4.509
10286SOL    HW231758   2.954   1.426   4.597
10287SOL     OW31759   2.298   5.586   2.800
10287SOL    HW131760   2.323   5.618   2.708
10287SOL    HW231761   2.288   5.487   2.799
10288SOL     OW31762   3.781   0.215   5.332
10288SOL    HW131763   3.722   0.271   5.273
10288SOL    HW231764   3.870   0.260   5.342
10289SOL     OW31765   2.355   5.980   6.851
10289SOL    HW131766   2.262   5.955   6.827
10289SOL    HW231767   2.361   5.996   6.950
10290SOL     OW31768   3.304   2.918   2.581
10290SOL    HW131769   3.334   2.987   2.647
10290SOL    HW231770   3.231   2.956   2.524
10291SOL     OW31771   3.104   1.312   2.212
10291SOL    HW131772   3.122   1.364   2.129
10291SOL    HW231773   3.191   1.293   2.258
10292SOL     OW31774   6.563   6.513   6.312
10292SOL    HW131775   6.508   6.505   6.229
10292SOL    HW231776   6.601   6.605   6.318
10293SOL     OW31777   0.723   3.886   3.777
10293SOL    HW131778   0.637   3.869   3.824
10293SOL    HW231779   0.730   3.825   3.697
10294SOL     OW31780   3.748   1.802   2.742
10294SOL    HW131781   3.705   1.877   2.692
10294SOL    HW231782   3.833   1.776   2.696
10295SOL     OW31783   0.994   2.245   0.110
10295SOL    HW131784   1.055   2.227   0.188
10295SOL    HW231785   1.026   2.326   0.062
10296SOL     OW31786   5.938   1.018   5.974
10296SOL    HW131787   6.017   0.968   5.939
10296SOL    HW231788   5.961   1.115   5.983
10297SOL     OW31789   2.944   1.887   6.464
10297SOL    HW131790   2.998   1.955   6.514
10297SOL    HW231791   2.851   1.922   6.451
10298SOL     OW31792   0.673   2.817   2.620
10298SOL    HW131793   0.646   2.904   2.580
10298SOL    HW231794   0.682   2.828   2.719
10299SOL     OW31795   4.353   6.413   2.161
10299SOL    HW131796   4.303   6.476   2.220
10299SOL    HW231797   4.289   6.364   2.102
10300SOL     OW31798   0.787   3.504   1.847
10300SOL    HW131799   0.704   3.503   1.791
10300SOL    HW231800   0.867   3.492   1.788
10301SOL     OW31801   4.508   0.913   6.540
10301SOL    HW131802   4.413   0.941   6.526
10301SOL    HW231803   4.565   0.952   6.468
10302SOL     OW31804   2.623   5.961   4.414
10302SOL    HW131805   2.642   5.864   4.399
10302SOL    HW231806   2.525   5.976   4.418
10303SOL     OW31807   0.828   6.437   4.705
10303SOL    HW131808   0.770   6.376   4.759
10303SOL    HW231809   0.793   6.530   4.710
10304SOL     OW31810   6.056   6.960   0.248
10304SOL    HW131811   6.105   6.928   0.167
10304SOL    HW231812   5.961   6.978   0.224
10305SOL     OW31813   2.153   4.105   6.014
10305SOL    HW131814   2.154   4.154   6.102
10305SOL    HW231815   2.154   4.007   6.031
10306SOL     OW31816   5.321   0.231   1.384
10306SOL    HW131817   5.322   0.192   1.292
10306SOL    HW231818   5.403   0.285   1.398
10307SOL     OW31819   2.937   0.615   4.780
10307SOL    HW131820   2.967   0.641   4.688
10307SOL    HW231821   3.005   0.554   4.821
10308SOL     OW31822   2.496   4.605   2.599
10308SOL    HW131823   2.430   4.531   2.610
10308SOL    HW231824   2.447   4.692   2.593
10309SOL     OW31825   6.397   1.137   5.570
10309SOL    HW131826   6.373   1.049   5.610
10309SOL    HW231827   6.497   1.146   5.565
10310SOL     OW31828   3.024   2.898   6.379
10310SOL    HW131829   3.024   2.800   6.359
10310SOL    HW231830   3.017   2.949   6.293
10311SOL     OW31831   5.580   6.402   6.762
10311SOL    HW131832   5.565   6.304   6.768
10311SOL    HW231833   5.663   6.420   6.709
10312SOL     OW31834   4.577   0.231   2.258
10312SOL    HW131835   4.562   0.262   2.352
10312SOL    HW231836   4.543   0.300   2.194
10313SOL     OW31837   4.734   6.597   2.708
10313SOL    HW131838   4.832   6.583   2.717
10313SOL    HW231839   4.685   6.514   2.734
10314SOL     OW31840   0.682   6.862   0.345
10314SOL    HW131841   0.686   6.764   0.329
10314SOL    HW231842   0.774   6.896   0.366
10315SOL     OW31843   4.960   6.218   3.407
10315SOL    HW131844   5.025   6.240   3.479
10315SOL    HW231845   4.964   6.120   3.387
10316SOL     OW31846   7.000   2.686   6.402
10316SOL    HW131847   0.064   2.641   6.431
10316SOL    HW231848   6.994   2.687   6.303
10317SOL     OW31849   3.336   5.966   6.006
10317SOL    HW131850   3.252   5.924   6.041
10317SOL    HW231851   3.326   6.065   6.007
10318SOL     OW31852   5.953   0.286   0.241
10318SOL    HW131853   5.886   0.214   0.260
10318SOL    HW231854   6.005   0.262   0.158
10319SOL     OW31855   0.322   4.707   4.208
10319SOL    HW131856   0.393   4.775   4.227
10319SOL    HW231857   0.280   4.727   4.119
10320SOL     OW31858   0.492   0.662   3.497
10320SOL    HW131859   0.461   0.742   3.446
10320SOL    HW231860   0.565   0.617   3.446
10321SOL     OW31861   5.787   2.212   1.765
10321SOL    HW131862   5.745   2.276   1.829
10321SOL    HW231863   5.722   2.188   1.694
10322SOL     OW31864   4.588   4.402   4.381
10322SOL    HW131865   4.589   4.302   4.387
10322SOL    HW231866   4.635   4.441   4.460
10323SOL     OW31867   0.344   4.372   5.100
10323SOL    HW131868   0.370   4.458   5.144
10323SOL    HW231869   0.360   4.296   5.163
10324SOL     OW31870   3.341   3.244   2.436
10324SOL    HW131871   3.420   3.192   2.404
10324SOL    HW231872   3.364   3.289   2.522
10325SOL     OW31873   0.210   5.843   2.213
10325SOL    HW131874   0.261   5.851   2.298
10325SOL    HW231875   0.164   5.754   2.210
10326SOL     OW31876   5.398   3.884   6.965
10326SOL    HW131877   5.325   3.864   6.899
10326SOL    HW231878   5.412   3.983   6.969
10327SOL     OW31879   2.874   4.036   1.430
10327SOL    HW131880   2.842   4.043   1.335
10327SOL    HW231881   2.813   3.976   1.481
10328SOL     OW31882   6.562   3.078   1.343
10328SOL    HW131883   6.659   3.100   1.334
10328SOL    HW231884   6.508   3.142   1.288
10329SOL     OW31885   3.317   1.599   3.152
10329SOL    HW131886   3.406   1.566   3.120
10329SOL    HW231887   3.299   1.690   3.114
10330SOL     OW31888   4.827   0.204   0.745
10330SOL    HW131889   4.842   0.131   0.812
10330SOL    HW231890   4.863   0.175   0.656
10331SOL     OW31891   6.661   5.612   0.141
10331SOL    HW131892   6.735   5.555   0.176
10331SOL    HW231893   6.607   5.559   0.074
10332SOL     OW31894   1.439   0.905   0.842
10332SOL    HW131895   1.348   0.896   0.802
10332SOL    HW231896   1.491   0.975   0.791
10333SOL     OW31897   0.960   5.886   4.488
10333SOL    HW131898   0.983   5.814   4.423
10333SOL    HW231899   0.877   5.861   4.538
10334SOL     OW31900   2.746   6.882   3.904
10334SOL    HW131901   2.767   6.880   4.002
10334SOL    HW231902   2.791   6.805   3.859
10335SOL     OW31903   0.542   3.878   5.899
10335SOL    HW131904   0.593   3.890   5.814
10335SOL    HW231905   0.451   3.842   5.877
10336SOL     OW31906   5.646   0.301   2.822
10336SOL    HW131907   5.655   0.209   2.861
10336SOL    HW231908   5.606   0.362   2.890
10337SOL     OW31909   6.366   5.483   0.244
10337SOL    HW131910   6.421   5.459   0.324
10337SOL    HW231911   6.420   5.542   0.183
10338SOL     OW31912   1.946   6.036   1.860
10338SOL    HW131913   1.998   6.007   1.940
10338SOL    HW231914   2.004   6.031   1.779
10339SOL     OW31915   6.947   2.814   5.736
10339SOL    HW131916   6.979   2.720   5.729
10339SOL    HW231917   0.005   2.876   5.726
10340SOL     OW31918   1.551   3.546   6.332
10340SOL    HW131919   1.563   3.447   6.318
10340SOL    HW231920   1.552   3.565   6.430
10341SOL     OW31921   2.329   2.776   2.512
10341SOL    HW131922   2.360   2.714   2.440
10341SOL    HW231923   2.267   2.844   2.473
10342SOL     OW31924   1.877   0.883   3.969
10342SOL    HW131925   1.904   0.787   3.956
10342SOL    HW231926   1.902   0.912   4.061
10343SOL     OW31927   2.015   5.710   0.892
10343SOL    HW131928   2.077   5.631   0.884
10343SOL    HW231929   1.930   5.691   0.845
10344SOL     OW31930   3.566   3.878   6.706
10344SOL    HW131931   3.565   3.800   6.769
10344SOL    HW231932   3.660   3.898   6.679
10345SOL     OW31933   1.412   3.006   5.427
10345SOL    HW131934   1.371   2.948   5.357
10345SOL    HW231935   1.369   3.096   5.426
10346SOL     OW31936   0.393   6.009   1.741
10346SOL    HW131937   0.482   5.975   1.711
10346SOL    HW231938   0.372   5.971   1.831
10347SOL     OW31939   4.593   1.207   4.126
10347SOL    HW131940   4.505   1.164   4.144
10347SOL    HW231941   4.630   1.173   4.039
10348SOL     OW31942   6.045   3.511   0.280
10348SOL    HW131943   6.033   3.417   0.248
10348SOL    HW231944   6.005   3.521   0.371
10349SOL     OW31945   0.452   6.991   6.407
10349SOL    HW131946   0.495   0.034   6.343
10349SOL    HW231947   0.498   6.902   6.402
10350SOL     OW31948   3.077   6.556   5.446
10350SOL    HW131949   3.023   6.639   5.454
10350SOL    HW231950   3.017   6.479   5.425
10351SOL     OW31951   4.259   4.988   5.784
10351SOL    HW131952   4.315   4.932   5.846
10351SOL    HW231953   4.228   4.931   5.708
10352SOL     OW31954   3.246   1.949   5.990
10352SOL    HW131955   3.223   1.861   5.948
10352SOL    HW231956   3.204   1.955   6.080
10353SOL     OW31957   6.317   2.856   4.559
10353SOL    HW131958   6.400   2.805   4.583
10353SOL    HW231959   6.239   2.817   4.609
10354SOL     OW31960   5.325   1.311   1.979
10354SOL    HW131961   5.358   1.352   2.065
10354SOL    HW231962   5.365   1.362   1.902
10355SOL     OW31963   2.704   6.009   2.407
10355SOL    HW131964   2.624   6.036   2.462
10355SOL    HW231965   2.676   5.998   2.312
10356SOL     OW31966   0.354   4.174   5.288
10356SOL    HW131967   0.310   4.105   5.230
10356SOL    HW231968   0.333   4.155   5.384
10357SOL     OW31969   2.133   2.127   6.498
10357SOL    HW131970   2.124   2.056   6.567
10357SOL    HW231971   2.077   2.104   6.419
10358SOL     OW31972   0.346   2.646   2.072
10358SOL    HW131973   0.261   2.598   2.093
10358SOL    HW231974   0.397   2.597   2.002
10359SOL     OW31975   0.289   1.382   1.771
10359SOL    HW131976   0.251   1.294   1.800
10359SOL    HW231977   0.230   1.456   1.803
10360SOL     OW31978   5.523   5.897   3.376
10360SOL    HW131979   5.579   5.868   3.299
10360SOL    HW231980   5.570   5.876   3.462
10361SOL     OW31981   2.869   5.571   2.407
10361SOL    HW131982   2.860   5.648   2.343
10361SOL    HW231983   2.947   5.588   2.468
10362SOL     OW31984   2.099   4.498   4.926
10362SOL    HW131985   2.145   4.417   4.890
10362SOL    HW231986   2.018   4.469   4.977
10363SOL     OW31987   5.069   0.562   3.564
10363SOL    HW131988   5.008   0.606   3.499
10363SOL    HW231989   5.031   0.568   3.656
10364SOL     OW31990   2.239   4.249   1.238
10364SOL    HW131991   2.324   4.212   1.274
10364SOL    HW231992   2.226   4.219   1.144
10365SOL     OW31993   5.141   5.530   7.005
10365SOL    HW131994   5.043   5.530   0.004
10365SOL    HW231995   5.157   5.532   6.907
10366SOL     OW31996   2.901   0.079   3.137
10366SOL    HW131997   2.857   0.168   3.150
10366SOL    HW231998   2.972   0.086   3.067
10367SOL     OW31999   5.812   2.334   3.418
10367SOL    HW132000   5.874   2.324   3.496
10367SOL    HW232001   5.753   2.414   3.432
10368SOL     OW32002   1.929   1.103   1.913
10368SOL    HW132003   1.935   1.196   1.878
10368SOL    HW232004   1.898   1.105   2.008
10369SOL     OW32005   3.894   2.471   7.005
10369SOL    HW132006   3.842   2.547   6.967
10369SOL    HW232007   3.838   2.388   7.004
10370SOL     OW32008   3.950   0.456   5.350
10370SOL    HW132009   3.911   0.454   5.258
10370SOL    HW232010   4.032   0.513   5.350
10371SOL     OW32011   4.902   5.777   5.408
10371SOL    HW132012   4.951   5.763   5.321
10371SOL    HW232013   4.835   5.850   5.397
10372SOL     OW32014   2.360   1.000   4.362
10372SOL    HW132015   2.281   1.060   4.354
10372SOL    HW232016   2.332   0.906   4.342
10373SOL     OW32017   0.974   6.498   3.992
10373SOL    HW132018   1.053   6.548   3.955
10373SOL    HW232019   0.984   6.400   3.973
10374SOL     OW32020   2.843   2.270   2.877
10374SOL    HW132021   2.902   2.233   2.805
10374SOL    HW232022   2.802   2.356   2.845
10375SOL     OW32023   5.839   2.205   0.997
10375SOL    HW132024   5.784   2.128   0.966
10375SOL    HW232025   5.909   2.173   1.060
10376SOL     OW32026   0.756   0.754   3.813
10376SOL    HW132027   0.799   0.843   3.825
10376SOL    HW232028   0.668   0.765   3.766
10377SOL     OW32029   0.581   0.428   3.966
10377SOL    HW132030   0.556   0.444   3.871
10377SOL    HW232031   0.649   0.354   3.971
10378SOL     OW32032   7.008   0.214   6.450
10378SOL    HW132033   6.997   0.212   6.351
10378SOL    HW232034   6.918   0.220   6.494
10379SOL     OW32035   5.417   1.188   4.495
10379SOL    HW132036   5.365   1.273   4.484
10379SOL    HW232037   5.363   1.123   4.550
10380SOL     OW32038   5.149   0.422   1.927
10380SOL    HW132039   5.078   0.487   1.952
10380SOL    HW232040   5.221   0.470   1.876
10381SOL     OW32041   4.554   4.572   5.838
10381SOL    HW132042   4.532   4.644   5.904
10381SOL    HW232043   4.609   4.610   5.764
10382SOL     OW32044   2.150   5.085   0.324
10382SOL    HW132045   2.197   5.135   0.396
10382SOL    HW232046   2.052   5.084   0.344
10383SOL     OW32047   0.749   2.702   0.876
10383SOL    HW132048   0.838   2.665   0.904
10383SOL    HW232049   0.762   2.786   0.825
10384SOL     OW32050   6.425   0.166   0.499
10384SOL    HW132051   6.498   0.108   0.462
10384SOL    HW232052   6.341   0.112   0.508
10385SOL     OW32053   6.373   1.597   6.439
10385SOL    HW132054   6.389   1.690   6.471
10385SOL    HW232055   6.321   1.546   6.508
10386SOL     OW32056   6.095   2.753   5.642
10386SOL    HW132057   6.135   2.822   5.581
10386SOL    HW232058   6.000   2.736   5.615
10387SOL     OW32059   1.225   2.596   3.394
10387SOL    HW132060   1.238   2.558   3.303
10387SOL    HW232061   1.251   2.528   3.463
10388SOL     OW32062   1.239   5.212   2.577
10388SOL    HW132063   1.179   5.291   2.563
10388SOL    HW232064   1.220   5.171   2.667
10389SOL     OW32065   0.971   4.677   2.849
10389SOL    HW132066   0.968   4.712   2.755
10389SOL    HW232067   0.882   4.637   2.872
10390SOL     OW32068   0.923   2.978   3.844
10390SOL    HW132069   1.013   2.976   3.801
10390SOL    HW232070   0.876   3.063   3.819
10391SOL     OW32071   2.684   6.262   6.119
10391SOL    HW132072   2.642   6.352   6.103
10391SOL    HW232073   2.617   6.191   6.098
10392SOL     OW32074   6.485   5.401   0.469
10392SOL    HW132075   6.582   5.388   0.447
10392SOL    HW232076   6.467   5.367   0.561
10393SOL     OW32077   1.436   1.127   4.189
10393SOL    HW132078   1.345   1.106   4.152
10393SOL    HW232079   1.435   1.115   4.289
10394SOL     OW32080   2.310   6.657   7.014
10394SOL    HW132081   2.378   6.718   0.035
10394SOL    HW232082   2.294   6.685   6.919
10395SOL     OW32083   0.211   1.214   4.547
10395SOL    HW132084   0.157   1.213   4.463
10395SOL    HW232085   0.298   1.165   4.532
10396SOL     OW32086   1.094   0.258   5.133
10396SOL    HW132087   1.162   0.273   5.204
10396SOL    HW232088   1.047   0.344   5.113
10397SOL     OW32089   4.163   1.400   3.334
10397SOL    HW132090   4.116   1.313   3.346
10397SOL    HW232091   4.216   1.398   3.249
10398SOL     OW32092   6.376   2.537   2.478
10398SOL    HW132093   6.460   2.504   2.521
10398SOL    HW232094   6.348   2.472   2.407
10399SOL     OW32095   5.603   2.262   5.382
10399SOL    HW132096   5.628   2.173   5.346
10399SOL    HW232097   5.677   2.296   5.440
10400SOL     OW32098   2.318   5.294   2.040
10400SOL    HW132099   2.239   5.290   2.102
10400SOL    HW232100   2.381   5.365   2.071
10401SOL     OW32101   0.430   6.351   1.918
10401SOL    HW132102   0.490   6.430   1.929
10401SOL    HW232103   0.357   6.373   1.853
10402SOL     OW32104   0.534   3.063   4.231
10402SOL    HW132105   0.538   3.007   4.148
10402SOL    HW232106   0.464   3.026   4.292
10403SOL     OW32107   5.387   0.982   1.959
10403SOL    HW132108   5.354   1.000   2.052
10403SOL    HW232109   5.435   1.062   1.924
10404SOL     OW32110   0.466   6.440   3.805
10404SOL    HW132111   0.473   6.435   3.904
10404SOL    HW232112   0.557   6.428   3.764
10405SOL     OW32113   1.773   6.213   5.800
10405SOL    HW132114   1.748   6.305   5.830
10405SOL    HW232115   1.869   6.212   5.772
10406SOL     OW32116   2.259   4.974   5.922
10406SOL    HW132117   2.339   5.033   5.912
10406SOL    HW232118   2.176   5.030   5.924
10407SOL     OW32119   0.908   1.661   0.373
10407SOL    HW132120   0.979   1.667   0.303
10407SOL    HW232121   0.820   1.646   0.330
10408SOL     OW32122   4.404   5.847   2.934
10408SOL    HW132123   4.369   5.940   2.941
10408SOL    HW232124   4.358   5.799   2.859
10409SOL     OW32125   6.141   4.710   2.613
10409SOL    HW132126   6.042   4.716   2.601
10409SOL    HW232127   6.165   4.727   2.709
10410SOL     OW32128   5.317   0.092   0.613
10410SOL    HW132129   5.361   0.182   0.622
10410SOL    HW232130   5.379   0.021   0.647
10411SOL     OW32131   2.237   4.703   2.853
10411SOL    HW132132   2.202   4.776   2.912
10411SOL    HW232133   2.319   4.735   2.805
10412SOL     OW32134   0.490   2.168   0.537
10412SOL    HW132135   0.401   2.147   0.496
10412SOL    HW232136   0.561   2.116   0.490
10413SOL     OW32137   0.313   1.764   6.885
10413SOL    HW132138   0.264   1.823   6.821
10413SOL    HW232139   0.307   1.669   6.854
10414SOL     OW32140   5.488   6.548   5.647
10414SOL    HW132141   5.408   6.531   5.590
10414SOL    HW232142   5.564   6.493   5.614
10415SOL     OW32143   0.409   5.674   3.153
10415SOL    HW132144   0.352   5.683   3.235
10415SOL    HW232145   0.472   5.752   3.148
10416SOL     OW32146   5.520   1.125   5.989
10416SOL    HW132147   5.425   1.151   5.973
10416SOL    HW232148   5.559   1.185   6.060
10417SOL     OW32149   3.610   4.942   4.069
10417SOL    HW132150   3.541   4.895   4.013
10417SOL    HW232151   3.589   4.930   4.166
10418SOL     OW32152   6.170   3.818   6.367
10418SOL    HW132153   6.072   3.809   6.348
10418SOL    HW232154   6.212   3.727   6.369
10419SOL     OW32155   2.538   1.097   4.921
10419SOL    HW132156   2.526   1.083   5.019
10419SOL    HW232157   2.455   1.136   4.882
10420SOL     OW32158   6.017   3.420   2.864
10420SOL    HW132159   5.927   3.377   2.865
10420SOL    HW232160   6.009   3.515   2.834
10421SOL     OW32161   0.542   4.531   4.247
10421SOL    HW132162   0.493   4.614   4.274
10421SOL    HW232163   0.477   4.454   4.243
10422SOL     OW32164   6.671   3.897   4.945
10422SOL    HW132165   6.611   3.819   4.962
10422SOL    HW232166   6.754   3.866   4.900
10423SOL     OW32167   3.036   4.928   4.325
10423SOL    HW132168   3.033   5.027   4.311
10423SOL    HW232169   3.049   4.910   4.423
10424SOL     OW32170   3.506   0.989   0.286
10424SOL    HW132171   3.429   1.045   0.316
10424SOL    HW232172   3.516   0.910   0.348
10425SOL     OW32173   1.208   2.137   0.975
10425SOL    HW132174   1.140   2.180   0.916
10425SOL    HW232175   1.240   2.052   0.933
10426SOL     OW32176   6.631   2.117   6.104
10426SOL    HW132177   6.646   2.172   6.022
10426SOL    HW232178   6.709   2.056   6.118
10427SOL     OW32179   5.308   6.661   4.445
10427SOL    HW132180   5.234   6.667   4.513
10427SOL    HW232181   5.269   6.633   4.357
10428SOL     OW32182   2.545   0.434   3.808
10428SOL    HW132183   2.642   0.417   3.826
10428SOL    HW232184   2.523   0.529   3.832
10429SOL     OW32185   1.559   2.952   1.540
10429SOL    HW132186   1.644   2.898   1.533
10429SOL    HW232187   1.534   2.987   1.450
10430SOL     OW32188   3.054   0.212   3.394
10430SOL    HW132189   2.986   0.238   3.326
10430SOL    HW232190   3.041   0.117   3.421
10431SOL     OW32191   3.921   0.305   3.019
10431SOL    HW132192   3.849   0.364   3.057
10431SOL    HW232193   3.918   0.216   3.064
10432SOL     OW32194   0.932   5.341   6.153
10432SOL    HW132195   0.981   5.254   6.144
10432SOL    HW232196   0.847   5.326   6.205
10433SOL     OW32197   2.468   0.280   2.749
10433SOL    HW132198   2.395   0.214   2.762
10433SOL    HW232199   2.526   0.283   2.830
10434SOL     OW32200   5.484   0.182   5.381
10434SOL    HW132201   5.385   0.195   5.383
10434SOL    HW232202   5.505   0.099   5.329
10435SOL     OW32203   2.092   1.702   0.144
10435SOL    HW132204   2.142   1.704   0.057
10435SOL    HW232205   2.013   1.763   0.138
10436SOL     OW32206   6.527   3.547   5.334
10436SOL    HW132207   6.560   3.536   5.428
10436SOL    HW232208   6.430   3.523   5.330
10437SOL     OW32209   5.670   6.525   5.004
10437SOL    HW132210   5.683   6.582   4.922
10437SOL    HW232211   5.734   6.554   5.075
10438SOL     OW32212   6.831   6.063   6.877
10438SOL    HW132213   6.831   6.145   6.934
10438SOL    HW232214   6.832   5.982   6.936
10439SOL     OW32215   6.413   6.186   4.977
10439SOL    HW132216   6.462   6.147   4.900
10439SOL    HW232217   6.398   6.116   5.046
10440SOL     OW32218   6.484   2.312   0.544
10440SOL    HW132219   6.401   2.258   0.558
10440SOL    HW232220   6.503   2.320   0.446
10441SOL     OW32221   4.718   1.851   0.298
10441SOL    HW132222   4.696   1.944   0.267
10441SOL    HW232223   4.711   1.847   0.398
10442SOL     OW32224   2.026   2.062   5.515
10442SOL    HW132225   1.941   2.019   5.484
10442SOL    HW232226   2.007   2.156   5.544
10443SOL     OW32227   0.454   1.756   1.898
10443SOL    HW132228   0.514   1.746   1.819
10443SOL    HW232229   0.464   1.848   1.936
10444SOL     OW32230   4.070   5.191   4.370
10444SOL    HW132231   4.053   5.205   4.467
10444SOL    HW232232   4.065   5.093   4.349
10445SOL     OW32233   0.453   3.129   3.140
10445SOL    HW132234   0.358   3.112   3.112
10445SOL    HW232235   0.461   3.223   3.174
10446SOL     OW32236   2.305   4.615   5.668
10446SOL    HW132237   2.241   4.624   5.592
10446SOL    HW232238   2.365   4.536   5.653
10447SOL     OW32239   0.494   2.259   2.708
10447SOL    HW132240   0.591   2.275   2.689
10447SOL    HW232241   0.455   2.338   2.755
10448SOL     OW32242   2.261   6.442   2.344
10448SOL    HW132243   2.167   6.452   2.378
10448SOL    HW232244   2.263   6.368   2.276
10449SOL     OW32245   3.949   4.914   4.966
10449SOL    HW132246   4.046   4.891   4.967
10449SOL    HW232247   3.938   5.013   4.965
10450SOL     OW32248   6.954   0.551   6.158
10450SOL    HW132249   6.979   0.594   6.245
10450SOL    HW232250   6.877   0.489   6.172
10451SOL     OW32251   3.478   1.206   3.237
10451SOL    HW132252   3.542   1.130   3.251
10451SOL    HW232253   3.447   1.239   3.326
10452SOL     OW32254   6.155   3.642   4.231
10452SOL    HW132255   6.182   3.615   4.323
10452SOL    HW232256   6.165   3.564   4.169
10453SOL     OW32257   4.048   6.198   3.500
10453SOL    HW132258   3.967   6.196   3.441
10453SOL    HW232259   4.023   6.235   3.590
10454SOL     OW32260   6.665   1.530   6.022
10454SOL    HW132261   6.712   1.617   6.008
10454SOL    HW232262   6.629   1.497   5.935
10455SOL     OW32263   6.819   5.490   3.640
10455SOL    HW132264   6.742   5.546   3.611
10455SOL    HW232265   6.833   5.500   3.738
10456SOL     OW32266   1.185   5.124   6.491
10456SOL    HW132267   1.088   5.145   6.478
10456SOL    HW232268   1.238   5.164   6.416
10457SOL     OW32269   3.994   2.273   0.151
10457SOL    HW132270   3.990   2.372   0.139
10457SOL    HW232271   4.055   2.251   0.226
10458SOL     OW32272   0.282   6.149   0.073
10458SOL    HW132273   0.258   6.128   6.999
10458SOL    HW232274   0.272   6.247   0.089
10459SOL     OW32275   7.001   5.138   0.772
10459SOL    HW132276   0.050   5.092   0.828
10459SOL    HW232277   6.974   5.078   0.697
10460SOL     OW32278   0.183   1.169   1.099
10460SOL    HW132279   0.251   1.100   1.073
10460SOL    HW232280   0.091   1.133   1.082
10461SOL     OW32281   6.736   5.294   6.511
10461SOL    HW132282   6.768   5.252   6.426
10461SOL    HW232283   6.781   5.382   6.524
10462SOL     OW32284   4.668   2.120   0.275
10462SOL    HW132285   4.605   2.157   0.206
10462SOL    HW232286   4.643   2.155   0.365
10463SOL     OW32287   5.036   2.457   6.610
10463SOL    HW132288   5.000   2.491   6.697
10463SOL    HW232289   5.014   2.521   6.537
10464SOL     OW32290   6.221   4.829   2.393
10464SOL    HW132291   6.192   4.772   2.470
10464SOL    HW232292   6.202   4.925   2.414
10465SOL     OW32293   5.677   4.623   1.805
10465SOL    HW132294   5.690   4.667   1.716
10465SOL    HW232295   5.705   4.527   1.800
10466SOL     OW32296   6.310   4.511   6.303
10466SOL    HW132297   6.303   4.555   6.214
10466SOL    HW232298   6.362   4.426   6.294
10467SOL     OW32299   0.970   3.622   0.379
10467SOL    HW132300   0.971   3.524   0.355
10467SOL    HW232301   0.911   3.671   0.315
10468SOL     OW32302   1.825   4.562   3.565
10468SOL    HW132303   1.900   4.624   3.589
10468SOL    HW232304   1.774   4.600   3.487
10469SOL     OW32305   0.512   1.592   3.854
10469SOL    HW132306   0.513   1.678   3.802
10469SOL    HW232307   0.524   1.516   3.791
10470SOL     OW32308   1.980   3.047   2.786
10470SOL    HW132309   2.021   2.965   2.826
10470SOL    HW232310   1.882   3.051   2.809
10471SOL     OW32311   2.901   6.502   6.664
10471SOL    HW132312   2.850   6.487   6.749
10471SOL    HW232313   2.976   6.436   6.658
10472SOL     OW32314   3.915   4.850   6.681
10472SOL    HW132315   3.819   4.874   6.669
10472SOL    HW232316   3.922   4.759   6.721
10473SOL     OW32317   5.707   4.772   0.616
10473SOL    HW132318   5.688   4.716   0.696
10473SOL    HW232319   5.664   4.862   0.627
10474SOL     OW32320   5.718   1.295   4.611
10474SOL    HW132321   5.678   1.205   4.630
10474SOL    HW232322   5.647   1.357   4.579
10475SOL     OW32323   1.824   5.608   1.242
10475SOL    HW132324   1.868   5.698   1.243
10475SOL    HW232325   1.890   5.538   1.271
10476SOL     OW32326   4.730   5.762   0.260
10476SOL    HW132327   4.637   5.731   0.243
10476SOL    HW232328   4.745   5.773   0.358
10477SOL     OW32329   6.626   5.308   4.012
10477SOL    HW132330   6.661   5.374   3.946
10477SOL    HW232331   6.642   5.343   4.105
10478SOL     OW32332   6.262   1.570   6.771
10478SOL    HW132333   6.226   1.622   6.693
10478SOL    HW232334   6.362   1.577   6.772
10479SOL     OW32335   0.858   2.590   1.757
10479SOL    HW132336   0.906   2.545   1.681
10479SOL    HW232337   0.785   2.530   1.790
10480SOL     OW32338   2.070   0.192   2.539
10480SOL    HW132339   2.072   0.214   2.441
10480SOL    HW232340   2.136   0.248   2.588
10481SOL     OW32341   6.823   1.089   1.973
10481SOL    HW132342   6.735   1.052   2.003
10481SOL    HW232343   6.891   1.016   1.973
10482SOL     OW32344   4.959   3.382   4.496
10482SOL    HW132345   4.966   3.289   4.531
10482SOL    HW232346   4.900   3.435   4.557
10483SOL     OW32347   5.961   6.611   0.152
10483SOL    HW132348   5.921   6.521   0.172
10483SOL    HW232349   6.029   6.602   0.079
10484SOL     OW32350   6.499   1.244   2.721
10484SOL    HW132351   6.491   1.146   2.709
10484SOL    HW232352   6.596   1.270   2.720
10485SOL     OW32353   5.822   3.620   5.719
10485SOL    HW132354   5.907   3.640   5.671
10485SOL    HW232355   5.744   3.649   5.662
10486SOL     OW32356   5.297   3.150   1.808
10486SOL    HW132357   5.252   3.179   1.893
10486SOL    HW232358   5.352   3.226   1.772
10487SOL     OW32359   5.807   6.402   1.538
10487SOL    HW132360   5.834   6.306   1.546
10487SOL    HW232361   5.823   6.433   1.444
10488SOL     OW32362   2.532   2.341   6.874
10488SOL    HW132363   2.501   2.306   6.962
10488SOL    HW232364   2.514   2.440   6.869
10489SOL     OW32365   0.897   5.825   6.216
10489SOL    HW132366   0.835   5.903   6.218
10489SOL    HW232367   0.848   5.745   6.182
10490SOL     OW32368   6.832   0.677   3.962
10490SOL    HW132369   6.820   0.587   4.004
10490SOL    HW232370   6.846   0.666   3.864
10491SOL     OW32371   1.437   4.122   5.533
10491SOL    HW132372   1.382   4.199   5.501
10491SOL    HW232373   1.514   4.156   5.587
10492SOL     OW32374   4.277   3.308   5.582
10492SOL    HW132375   4.208   3.355   5.528
10492SOL    HW232376   4.361   3.361   5.584
10493SOL     OW32377   2.923   0.747   1.529
10493SOL    HW132378   2.846   0.808   1.509
10493SOL    HW232379   2.919   0.667   1.470
10494SOL     OW32380   5.751   2.301   4.580
10494SOL    HW132381   5.777   2.208   4.555
10494SOL    HW232382   5.655   2.303   4.609
10495SOL     OW32383   1.241   6.655   6.922
10495SOL    HW132384   1.320   6.694   6.971
10495SOL    HW232385   1.157   6.700   6.953
10496SOL     OW32386   0.058   0.144   5.620
10496SOL    HW132387   0.007   0.197   5.688
10496SOL    HW232388   7.015   0.113   5.548
10497SOL     OW32389   1.636   1.243   1.436
10497SOL    HW132390   1.602   1.335   1.458
10497SOL    HW232391   1.711   1.219   1.498
10498SOL     OW32392   2.927   5.464   6.391
10498SOL    HW132393   2.952   5.560   6.373
10498SOL    HW232394   2.925   5.448   6.489
10499SOL     OW32395   3.494   5.302   2.970
10499SOL    HW132396   3.411   5.323   2.919
10499SOL    HW232397   3.557   5.380   2.965
10500SOL     OW32398   1.170   2.032   6.336
10500SOL    HW132399   1.113   1.966   6.287
10500SOL    HW232400   1.215   1.987   6.413
10501SOL     OW32401   1.485   3.468   2.855
10501SOL    HW132402   1.510   3.551   2.805
10501SOL    HW232403   1.562   3.439   2.911
10502SOL     OW32404   3.226   5.815   6.375
10502SOL    HW132405   3.240   5.820   6.474
10502SOL    HW232406   3.314   5.830   6.328
10503SOL     OW32407   2.808   3.370   6.193
10503SOL    HW132408   2.872   3.440   6.164
10503SOL    HW232409   2.807   3.365   6.293
10504SOL     OW32410   3.060   2.982   0.627
10504SOL    HW132411   3.006   3.053   0.671
10504SOL    HW232412   3.070   3.004   0.529
10505SOL     OW32413   6.776   6.354   1.571
10505SOL    HW132414   6.826   6.318   1.493
10505SOL    HW232415   6.743   6.278   1.628
10506SOL     OW32416   0.546   4.297   5.445
10506SOL    HW132417   0.456   4.264   5.417
10506SOL    HW232418   0.609   4.294   5.367
10507SOL     OW32419   1.476   0.491   5.888
10507SOL    HW132420   1.479   0.402   5.932
10507SOL    HW232421   1.566   0.511   5.847
10508SOL     OW32422   5.282   4.154   3.009
10508SOL    HW132423   5.304   4.138   3.106
10508SOL    HW232424   5.189   4.188   3.001
10509SOL     OW32425   1.722   0.268   6.084
10509SOL    HW132426   1.704   0.229   6.174
10509SOL    HW232427   1.787   0.344   6.092
10510SOL     OW32428   6.930   6.109   0.207
10510SOL    HW132429   6.959   6.117   0.302
10510SOL    HW232430   6.921   6.012   0.183
10511SOL     OW32431   4.804   3.049   0.391
10511SOL    HW132432   4.799   3.056   0.491
10511SOL    HW232433   4.896   3.074   0.360
10512SOL     OW32434   3.681   6.614   6.325
10512SOL    HW132435   3.753   6.683   6.337
10512SOL    HW232436   3.592   6.656   6.344
10513SOL     OW32437   0.082   2.182   0.223
10513SOL    HW132438   0.146   2.189   0.299
10513SOL    HW232439   0.106   2.249   0.153
10514SOL     OW32440   0.089   4.788   1.491
10514SOL    HW132441   0.002   4.791   1.541
10514SOL    HW232442   0.089   4.709   1.430
10515SOL     OW32443   6.792   2.307   4.029
10515SOL    HW132444   6.845   2.354   4.100
10515SOL    HW232445   6.738   2.234   4.071
10516SOL     OW32446   4.244   0.628   6.178
10516SOL    HW132447   4.205   0.647   6.088
10516SOL    HW232448   4.344   0.634   6.172
10517SOL     OW32449   6.987   1.939   2.730
10517SOL    HW132450   6.921   1.916   2.802
10517SOL    HW232451   0.056   1.897   2.752
10518SOL     OW32452   0.909   6.724   1.192
10518SOL    HW132453   0.855   6.688   1.268
10518SOL    HW232454   0.857   6.795   1.145
10519SOL     OW32455   2.827   3.796   5.232
10519SOL    HW132456   2.828   3.698   5.213
10519SOL    HW232457   2.742   3.819   5.279
10520SOL     OW32458   4.338   2.334   6.960
10520SOL    HW132459   4.243   2.305   6.972
10520SOL    HW232460   4.356   2.352   6.863
10521SOL     OW32461   6.654   5.910   1.382
10521SOL    HW132462   6.585   5.979   1.404
10521SOL    HW232463   6.726   5.910   1.451
10522SOL     OW32464   6.277   0.870   2.146
10522SOL    HW132465   6.179   0.859   2.165
10522SOL    HW232466   6.301   0.966   2.153
10523SOL     OW32467   0.145   5.821   6.780
10523SOL    HW132468   0.172   5.745   6.721
10523SOL    HW232469   0.219   5.888   6.782
10524SOL     OW32470   3.245   0.810   4.199
10524SOL    HW132471   3.175   0.874   4.167
10524SOL    HW232472   3.328   0.861   4.221
10525SOL     OW32473   2.570   6.070   4.706
10525SOL    HW132474   2.527   6.067   4.796
10525SOL    HW232475   2.667   6.045   4.715
10526SOL     OW32476   6.491   0.099   2.204
10526SOL    HW132477   6.547   0.062   2.279
10526SOL    HW232478   6.436   0.175   2.237
10527SOL     OW32479   1.148   2.405   4.780
10527SOL    HW132480   1.050   2.400   4.759
10527SOL    HW232481   1.200   2.358   4.708
10528SOL     OW32482   0.056   5.076   4.599
10528SOL    HW132483   0.036   4.982   4.627
10528SOL    HW232484   0.125   5.076   4.527
10529SOL     OW32485   6.933   6.847   3.890
10529SOL    HW132486   7.014   6.811   3.843
10529SOL    HW232487   6.960   6.926   3.946
10530SOL     OW32488   2.196   1.573   6.207
10530SOL    HW132489   2.234   1.639   6.272
10530SOL    HW232490   2.132   1.513   6.253
10531SOL     OW32491   1.852   2.793   5.368
10531SOL    HW132492   1.824   2.735   5.444
10531SOL    HW232493   1.796   2.876   5.366
10532SOL     OW32494   3.871   2.461   5.691
10532SOL    HW132495   3.898   2.498   5.780
10532SOL    HW232496   3.778   2.490   5.669
10533SOL     OW32497   2.608   1.138   5.856
10533SOL    HW132498   2.704   1.156   5.878
10533SOL    HW232499   2.550   1.199   5.911
10534SOL     OW32500   6.569   5.459   1.089
10534SOL    HW132501   6.620   5.534   1.048
10534SOL    HW232502   6.633   5.393   1.129
10535SOL     OW32503   0.485   0.966   2.148
10535SOL    HW132504   0.421   0.935   2.079
10535SOL    HW232505   0.512   1.061   2.128
10536SOL     OW32506   4.443   0.123   3.088
10536SOL    HW132507   4.357   0.082   3.119
10536SOL    HW232508   4.437   0.223   3.093
10537SOL     OW32509   0.997   4.754   1.529
10537SOL    HW132510   1.069   4.823   1.523
10537SOL    HW232511   0.972   4.740   1.624
10538SOL     OW32512   4.509   3.832   0.534
10538SOL    HW132513   4.488   3.737   0.558
10538SOL    HW232514   4.573   3.833   0.457
10539SOL     OW32515   0.391   3.482   6.140
10539SOL    HW132516   0.409   3.580   6.148
10539SOL    HW232517   0.375   3.443   6.231
10540SOL     OW32518   2.387   0.276   6.663
10540SOL    HW132519   2.299   0.324   6.666
10540SOL    HW232520   2.453   0.325   6.719
10541SOL     OW32521   3.493   2.977   0.194
10541SOL    HW132522   3.421   2.995   0.127
10541SOL    HW232523   3.582   2.998   0.154
10542SOL     OW32524   0.404   2.610   0.171
10542SOL    HW132525   0.431   2.517   0.149
10542SOL    HW232526   0.394   2.663   0.087
10543SOL     OW32527   1.564   0.812   5.778
10543SOL    HW132528   1.546   0.888   5.842
10543SOL    HW232529   1.483   0.754   5.772
10544SOL     OW32530   1.130   2.391   1.759
10544SOL    HW132531   1.069   2.375   1.682
10544SOL    HW232532   1.101   2.336   1.837
10545SOL     OW32533   6.361   0.293   2.322
10545SOL    HW132534   6.419   0.329   2.395
10545SOL    HW232535   6.290   0.360   2.300
10546SOL     OW32536   3.030   0.586   3.881
10546SOL    HW132537   3.053   0.613   3.787
10546SOL    HW232538   3.109   0.601   3.940
10547SOL     OW32539   4.307   1.479   1.077
10547SOL    HW132540   4.293   1.568   1.033
10547SOL    HW232541   4.336   1.493   1.172
10548SOL     OW32542   5.378   4.147   5.478
10548SOL    HW132543   5.435   4.171   5.556
10548SOL    HW232544   5.343   4.054   5.489
10549SOL     OW32545   1.337   1.051   1.732
10549SOL    HW132546   1.434   1.030   1.723
10549SOL    HW232547   1.320   1.145   1.704
10550SOL     OW32548   4.804   6.957   4.066
10550SOL    HW132549   4.858   0.008   4.111
10550SOL    HW232550   4.769   6.893   4.135
10551SOL     OW32551   1.247   2.457   5.962
10551SOL    HW132552   1.272   2.477   6.056
10551SOL    HW232553   1.291   2.523   5.901
10552SOL     OW32554   3.475   2.330   5.350
10552SOL    HW132555   3.481   2.288   5.260
10552SOL    HW232556   3.381   2.358   5.369
10553SOL     OW32557   1.826   5.074   0.008
10553SOL    HW132558   1.872   5.147   6.976
10553SOL    HW232559   1.895   5.017   0.052
10554SOL     OW32560   6.948   4.665   6.760
10554SOL    HW132561   6.862   4.650   6.809
10554SOL    HW232562   0.001   4.684   6.825
10555SOL     OW32563   3.040   1.785   1.316
10555SOL    HW132564   3.135   1.811   1.329
10555SOL    HW232565   2.995   1.776   1.405
10556SOL     OW32566   2.178   3.057   4.690
10556SOL    HW132567   2.193   3.150   4.725
10556SOL    HW232568   2.195   2.991   4.763
10557SOL     OW32569   7.007   2.634   3.780
10557SOL    HW132570   6.938   2.591   3.722
10557SOL    HW232571   6.961   2.679   3.857
10558SOL     OW32572   5.004   6.179   5.479
10558SOL    HW132573   5.083   6.168   5.539
10558SOL    HW232574   5.004   6.271   5.441
10559SOL     OW32575   4.388   2.266   0.427
10559SOL    HW132576   4.439   2.338   0.381
10559SOL    HW232577   4.446   2.223   0.497
10560SOL     OW32578   1.052   2.930   4.098
10560SOL    HW132579   1.050   2.950   4.000
10560SOL    HW232580   1.137   2.882   4.120
10561SOL     OW32581   2.290   4.077   0.020
10561SOL    HW132582   2.212   4.121   6.997
10561SOL    HW232583   2.297   3.983   7.008
10562SOL     OW32584   3.754   1.131   0.212
10562SOL    HW132585   3.780   1.142   0.308
10562SOL    HW232586   3.656   1.108   0.207
10563SOL     OW32587   1.472   1.758   5.256
10563SOL    HW132588   1.501   1.822   5.184
10563SOL    HW232589   1.553   1.712   5.293
10564SOL     OW32590   6.025   2.125   1.705
10564SOL    HW132591   6.061   2.135   1.798
10564SOL    HW232592   5.933   2.163   1.701
10565SOL     OW32593   5.517   1.918   4.874
10565SOL    HW132594   5.578   1.847   4.838
10565SOL    HW232595   5.557   1.957   4.957
10566SOL     OW32596   3.648   4.079   6.391
10566SOL    HW132597   3.702   4.068   6.307
10566SOL    HW232598   3.551   4.070   6.370
10567SOL     OW32599   1.822   4.063   3.779
10567SOL    HW132600   1.790   4.042   3.687
10567SOL    HW232601   1.786   4.151   3.808
10568SOL     OW32602   4.850   1.261   3.728
10568SOL    HW132603   4.819   1.258   3.633
10568SOL    HW232604   4.949   1.250   3.731
10569SOL     OW32605   5.677   3.144   4.283
10569SOL    HW132606   5.731   3.219   4.322
10569SOL    HW232607   5.582   3.153   4.313
10570SOL     OW32608   1.508   5.108   2.307
10570SOL    HW132609   1.588   5.061   2.344
10570SOL    HW232610   1.533   5.152   2.220
10571SOL     OW32611   6.566   6.965   3.458
10571SOL    HW132612   6.644   6.940   3.515
10571SOL    HW232613   6.542   0.040   3.474
10572SOL     OW32614   6.215   3.815   1.970
10572SOL    HW132615   6.160   3.777   2.045
10572SOL    HW232616   6.248   3.906   1.996
10573SOL     OW32617   5.986   5.544   5.156
10573SOL    HW132618   5.999   5.606   5.078
10573SOL    HW232619   5.975   5.451   5.122
10574SOL     OW32620   0.548   1.719   3.086
10574SOL    HW132621   0.456   1.759   3.085
10574SOL    HW232622   0.590   1.735   3.175
10575SOL     OW32623   1.404   0.046   5.376
10575SOL    HW132624   1.482   0.084   5.426
10575SOL    HW232625   1.438   7.008   5.302
10576SOL     OW32626   1.622   5.299   3.717
10576SOL    HW132627   1.646   5.255   3.630
10576SOL    HW232628   1.598   5.229   3.783
10577SOL     OW32629   1.643   2.664   5.991
10577SOL    HW132630   1.734   2.628   5.972
10577SOL    HW232631   1.641   2.762   5.975
10578SOL     OW32632   6.373   0.889   5.655
10578SOL    HW132633   6.402   0.815   5.595
10578SOL    HW232634   6.448   0.915   5.716
10579SOL     OW32635   4.312   1.817   0.713
10579SOL    HW132636   4.361   1.780   0.634
10579SOL    HW232637   4.321   1.916   0.715
10580SOL     OW32638   6.475   6.109   6.937
10580SOL    HW132639   6.553   6.153   6.981
10580SOL    HW232640   6.507   6.057   6.858
10581SOL     OW32641   5.349   0.947   3.782
10581SOL    HW132642   5.350   0.886   3.702
10581SOL    HW232643   5.255   0.963   3.810
10582SOL     OW32644   3.631   4.924   6.622
10582SOL    HW132645   3.651   4.935   6.524
10582SOL    HW232646   3.534   4.903   6.634
10583SOL     OW32647   4.298   1.587   0.338
10583SOL    HW132648   4.301   1.677   0.293
10583SOL    HW232649   4.272   1.518   0.271
10584SOL     OW32650   5.815   0.337   1.786
10584SOL    HW132651   5.720   0.368   1.792
10584SOL    HW232652   5.853   0.364   1.697
10585SOL     OW32653   1.315   3.352   6.697
10585SOL    HW132654   1.383   3.425   6.693
10585SOL    HW232655   1.354   3.268   6.658
10586SOL     OW32656   3.263   0.263   6.590
10586SOL    HW132657   3.331   0.284   6.519
10586SOL    HW232658   3.285   0.176   6.633
10587SOL     OW32659   5.907   4.262   1.069
10587SOL    HW132660   5.988   4.318   1.051
10587SOL    HW232661   5.826   4.309   1.035
10588SOL     OW32662   0.097   5.172   2.963
10588SOL    HW132663   0.094   5.271   2.977
10588SOL    HW232664   0.192   5.143   2.950
10589SOL     OW32665   6.062   1.831   3.896
10589SOL    HW132666   6.130   1.836   3.969
10589SOL    HW232667   5.974   1.866   3.929
10590SOL     OW32668   1.096   0.518   3.845
10590SOL    HW132669   1.093   0.465   3.930
10590SOL    HW232670   1.188   0.553   3.830
10591SOL     OW32671   1.379   2.851   0.663
10591SOL    HW132672   1.320   2.801   0.599
10591SOL    HW232673   1.422   2.786   0.725
10592SOL     OW32674   6.533   1.622   6.758
10592SOL    HW132675   6.580   1.583   6.837
10592SOL    HW232676   6.585   1.698   6.721
10593SOL     OW32677   1.975   4.541   1.159
10593SOL    HW132678   1.911   4.525   1.235
10593SOL    HW232679   1.967   4.635   1.128
10594SOL     OW32680   0.183   2.015   4.334
10594SOL    HW132681   0.174   2.037   4.237
10594SOL    HW232682   0.216   2.095   4.383
10595SOL     OW32683   3.628   6.123   6.442
10595SOL    HW132684   3.728   6.124   6.433
10595SOL    HW232685   3.596   6.028   6.441
10596SOL     OW32686   4.020   0.687   2.151
10596SOL    HW132687   4.026   0.785   2.133
10596SOL    HW232688   4.085   0.662   2.223
10597SOL     OW32689   1.953   0.503   5.203
10597SOL    HW132690   1.941   0.505   5.302
10597SOL    HW232691   1.913   0.585   5.162
10598SOL     OW32692   1.812   2.360   6.838
10598SOL    HW132693   1.775   2.300   6.910
10598SOL    HW232694   1.904   2.329   6.814
10599SOL     OW32695   5.611   1.418   0.014
10599SOL    HW132696   5.614   1.430   0.113
10599SOL    HW232697   5.657   1.333   7.010
10600SOL     OW32698   2.190   3.115   6.278
10600SOL    HW132699   2.110   3.175   6.271
10600SOL    HW232700   2.249   3.129   6.199
10601SOL     OW32701   3.421   6.163   6.255
10601SOL    HW132702   3.516   6.184   6.279
10601SOL    HW232703   3.386   6.236   6.196
10602SOL     OW32704   4.798   1.086   2.270
10602SOL    HW132705   4.824   1.180   2.247
10602SOL    HW232706   4.787   1.077   2.369
10603SOL     OW32707   1.651   5.544   4.466
10603SOL    HW132708   1.661   5.638   4.499
10603SOL    HW232709   1.605   5.489   4.535
10604SOL     OW32710   6.862   4.451   4.897
10604SOL    HW132711   6.911   4.538   4.902
10604SOL    HW232712   6.913   4.381   4.947
10605SOL     OW32713   1.634   4.981   6.707
10605SOL    HW132714   1.697   4.921   6.757
10605SOL    HW232715   1.686   5.047   6.652
10606SOL     OW32716   1.026   0.349   1.870
10606SOL    HW132717   1.066   0.317   1.956
10606SOL    HW232718   0.927   0.356   1.879
10607SOL     OW32719   5.608   4.895   6.775
10607SOL    HW132720   5.609   4.865   6.680
10607SOL    HW232721   5.529   4.955   6.790
10608SOL     OW32722   6.445   1.450   3.726
10608SOL    HW132723   6.386   1.457   3.807
10608SOL    HW232724   6.470   1.541   3.695
10609SOL     OW32725   3.916   6.588   1.188
10609SOL    HW132726   3.903   6.642   1.105
10609SOL    HW232727   4.013   6.592   1.215
10610SOL     OW32728   1.629   2.943   5.919
10610SOL    HW132729   1.537   2.978   5.908
10610SOL    HW232730   1.680   2.953   5.834
10611SOL     OW32731   5.577   2.816   5.742
10611SOL    HW132732   5.570   2.907   5.783
10611SOL    HW232733   5.496   2.798   5.687
10612SOL     OW32734   2.029   0.164   0.266
10612SOL    HW132735   2.045   0.066   0.272
10612SOL    HW232736   1.934   0.182   0.241
10613SOL     OW32737   0.167   6.173   5.711
10613SOL    HW132738   0.237   6.239   5.683
10613SOL    HW232739   0.212   6.091   5.749
10614SOL     OW32740   6.808   1.042   4.217
10614SOL    HW132741   6.885   1.013   4.275
10614SOL    HW232742   6.826   1.133   4.180
10615SOL     OW32743   5.266   5.599   5.191
10615SOL    HW132744   5.354   5.634   5.223
10615SOL    HW232745   5.263   5.500   5.203
10616SOL     OW32746   2.857   5.486   0.245
10616SOL    HW132747   2.823   5.473   0.338
10616SOL    HW232748   2.900   5.402   0.212
10617SOL     OW32749   1.317   2.132   6.964
10617SOL    HW132750   1.263   2.057   7.000
10617SOL    HW232751   1.290   2.217   7.009
10618SOL     OW32752   6.071   3.559   0.567
10618SOL    HW132753   6.111   3.497   0.635
10618SOL    HW232754   6.042   3.643   0.611
10619SOL     OW32755   1.201   4.146   3.649
10619SOL    HW132756   1.195   4.090   3.732
10619SOL    HW232757   1.116   4.138   3.597
10620SOL     OW32758   1.430   5.895   4.709
10620SOL    HW132759   1.365   5.914   4.783
10620SOL    HW232760   1.440   5.976   4.652
10621SOL     OW32761   2.361   5.799   1.111
10621SOL    HW132762   2.456   5.769   1.118
10621SOL    HW232763   2.358   5.898   1.099
10622SOL     OW32764   3.640   0.601   1.115
10622SOL    HW132765   3.677   0.692   1.097
10622SOL    HW232766   3.550   0.610   1.158
10623SOL     OW32767   6.449   1.706   3.680
10623SOL    HW132768   6.427   1.747   3.768
10623SOL    HW232769   6.406   1.758   3.606
10624SOL     OW32770   2.082   0.654   4.156
10624SOL    HW132771   2.030   0.575   4.188
10624SOL    HW232772   2.069   0.665   4.057
10625SOL     OW32773   0.234   3.414   0.013
10625SOL    HW132774   0.210   3.326   6.993
10625SOL    HW232775   0.310   3.455   6.982
10626SOL     OW32776   0.516   2.346   1.255
10626SOL    HW132777   0.570   2.311   1.332
10626SOL    HW232778   0.475   2.270   1.205
10627SOL     OW32779   6.064   6.237   3.664
10627SOL    HW132780   6.042   6.213   3.758
10627SOL    HW232781   6.067   6.154   3.608
10628SOL     OW32782   5.908   6.061   5.805
10628SOL    HW132783   5.808   6.055   5.808
10628SOL    HW232784   5.938   6.133   5.867
10629SOL     OW32785   2.795   5.499   5.973
10629SOL    HW132786   2.858   5.422   5.965
10629SOL    HW232787   2.721   5.475   6.036
10630SOL     OW32788   6.947   1.478   3.290
10630SOL    HW132789   6.979   1.456   3.382
10630SOL    HW232790   6.990   1.563   3.259
10631SOL     OW32791   0.723   6.605   3.944
10631SOL    HW132792   0.805   6.560   3.979
10631SOL    HW232793   0.642   6.560   3.982
10632SOL     OW32794   0.375   2.373   5.350
10632SOL    HW132795   0.390   2.283   5.393
10632SOL    HW232796   0.330   2.433   5.416
10633SOL     OW32797   1.090   5.184   1.371
10633SOL    HW132798   1.025   5.115   1.337
10633SOL    HW232799   1.081   5.267   1.316
10634SOL     OW32800   3.008   6.621   1.624
10634SOL    HW132801   3.091   6.573   1.595
10634SOL    HW232802   2.931   6.592   1.567
10635SOL     OW32803   2.791   1.406   1.332
10635SOL    HW132804   2.797   1.346   1.412
10635SOL    HW232805   2.882   1.420   1.293
10636SOL     OW32806   0.525   2.559   1.617
10636SOL    HW132807   0.459   2.627   1.587
10636SOL    HW232808   0.569   2.517   1.538
10637SOL     OW32809   3.579   4.328   5.290
10637SOL    HW132810   3.672   4.360   5.308
10637SOL    HW232811   3.560   4.247   5.346
10638SOL     OW32812   0.135   6.634   5.615
10638SOL    HW132813   0.117   6.647   5.712
10638SOL    HW232814   0.055   6.593   5.571
10639SOL     OW32815   2.631   0.498   4.516
10639SOL    HW132816   2.674   0.525   4.430
10639SOL    HW232817   2.623   0.578   4.576
10640SOL     OW32818   4.176   0.366   0.034
10640SOL    HW132819   4.117   0.291   0.065
10640SOL    HW232820   4.180   0.366   6.954
10641SOL     OW32821   5.518   1.642   6.930
10641SOL    HW132822   5.472   1.624   6.843
10641SOL    HW232823   5.539   1.555   6.975
10642SOL     OW32824   0.033   3.208   1.491
10642SOL    HW132825   0.125   3.246   1.498
10642SOL    HW232826   6.987   3.283   1.484
10643SOL     OW32827   3.029   2.910   5.923
10643SOL    HW132828   2.961   2.956   5.866
10643SOL    HW232829   3.106   2.882   5.867
10644SOL     OW32830   4.471   1.427   4.630
10644SOL    HW132831   4.563   1.464   4.618
10644SOL    HW232832   4.423   1.427   4.543
10645SOL     OW32833   2.863   1.090   5.115
10645SOL    HW132834   2.852   1.135   5.026
10645SOL    HW232835   2.801   1.012   5.121
10646SOL     OW32836   0.728   3.881   6.776
10646SOL    HW132837   0.802   3.935   6.736
10646SOL    HW232838   0.765   3.792   6.805
10647SOL     OW32839   0.133   5.008   1.141
10647SOL    HW132840   0.072   4.943   1.187
10647SOL    HW232841   0.185   4.960   1.071
10648SOL     OW32842   4.636   3.190   6.662
10648SOL    HW132843   4.672   3.281   6.643
10648SOL    HW232844   4.554   3.198   6.719
10649SOL     OW32845   0.509   5.123   5.915
10649SOL    HW132846   0.420   5.124   5.960
10649SOL    HW232847   0.532   5.029   5.888
10650SOL     OW32848   3.267   6.450   3.604
10650SOL    HW132849   3.207   6.375   3.628
10650SOL    HW232850   3.295   6.499   3.687
10651SOL     OW32851   4.212   6.574   6.280
10651SOL    HW132852   4.276   6.609   6.349
10651SOL    HW232853   4.226   6.622   6.194
10652SOL     OW32854   3.350   1.062   6.438
10652SOL    HW132855   3.339   1.087   6.342
10652SOL    HW232856   3.361   0.963   6.446
10653SOL     OW32857   5.235   3.373   4.140
10653SOL    HW132858   5.165   3.338   4.078
10653SOL    HW232859   5.197   3.378   4.233
10654SOL     OW32860   4.001   0.358   0.368
10654SOL    HW132861   3.991   0.321   0.460
10654SOL    HW232862   3.981   0.456   0.370
10655SOL     OW32863   2.971   5.779   1.694
10655SOL    HW132864   2.938   5.753   1.785
10655SOL    HW232865   3.068   5.755   1.685
10656SOL     OW32866   6.827   2.788   6.583
10656SOL    HW132867   6.883   2.759   6.506
10656SOL    HW232868   6.863   2.748   6.667
10657SOL     OW32869   6.086   0.778   1.444
10657SOL    HW132870   6.148   0.721   1.389
10657SOL    HW232871   6.052   0.853   1.387
10658SOL     OW32872   6.999   5.560   5.227
10658SOL    HW132873   6.999   5.464   5.253
10658SOL    HW232874   0.016   5.569   5.134
10659SOL     OW32875   5.700   1.023   0.607
10659SOL    HW132876   5.639   0.972   0.667
10659SOL    HW232877   5.728   0.964   0.531
10660SOL     OW32878   4.807   4.775   5.808
10660SOL    HW132879   4.774   4.869   5.812
10660SOL    HW232880   4.879   4.768   5.739
10661SOL     OW32881   0.277   0.147   2.720
10661SOL    HW132882   0.353   0.160   2.784
10661SOL    HW232883   0.314   0.118   2.631
10662SOL     OW32884   5.885   1.556   0.607
10662SOL    HW132885   5.940   1.605   0.540
10662SOL    HW232886   5.940   1.481   0.646
10663SOL     OW32887   0.095   0.463   0.558
10663SOL    HW132888   0.106   0.530   0.632
10663SOL    HW232889   0.136   0.376   0.586
10664SOL     OW32890   2.048   4.956   0.084
10664SOL    HW132891   2.114   4.963   0.010
10664SOL    HW232892   2.072   5.021   0.156
10665SOL     OW32893   6.686   1.094   0.596
10665SOL    HW132894   6.597   1.124   0.561
10665SOL    HW232895   6.752   1.168   0.588
10666SOL     OW32896   1.450   6.815   0.040
10666SOL    HW132897   1.519   6.800   0.110
10666SOL    HW232898   1.428   6.913   0.036
10667SOL     OW32899   3.710   1.758   5.042
10667SOL    HW132900   3.708   1.664   5.006
10667SOL    HW232901   3.737   1.756   5.138
10668SOL     OW32902   1.917   0.915   5.910
10668SOL    HW132903   1.876   1.006   5.912
10668SOL    HW232904   1.897   0.872   5.822
10669SOL     OW32905   1.005   6.553   6.501
10669SOL    HW132906   0.955   6.612   6.563
10669SOL    HW232907   0.977   6.458   6.514
10670SOL     OW32908   6.506   4.671   5.692
10670SOL    HW132909   6.477   4.760   5.657
10670SOL    HW232910   6.597   4.650   5.656
10671SOL     OW32911   1.842   1.386   3.439
10671SOL    HW132912   1.856   1.389   3.340
10671SOL    HW232913   1.909   1.325   3.480
10672SOL     OW32914   6.821   3.191   0.398
10672SOL    HW132915   6.875   3.275   0.394
10672SOL    HW232916   6.725   3.212   0.383
10673SOL     OW32917   2.865   3.475   5.218
10673SOL    HW132918   2.782   3.420   5.226
10673SOL    HW232919   2.940   3.427   5.263
10674SOL     OW32920   3.610   2.107   2.270
10674SOL    HW132921   3.521   2.064   2.283
10674SOL    HW232922   3.614   2.147   2.178
10675SOL     OW32923   0.631   0.494   6.286
10675SOL    HW132924   0.585   0.583   6.288
10675SOL    HW232925   0.567   0.424   6.252
10676SOL     OW32926   6.867   0.555   6.653
10676SOL    HW132927   6.933   0.524   6.721
10676SOL    HW232928   6.779   0.513   6.670
10677SOL     OW32929   6.853   0.650   0.363
10677SOL    HW132930   6.852   0.746   0.390
10677SOL    HW232931   6.947   0.623   0.340
10678SOL     OW32932   2.617   6.536   3.117
10678SOL    HW132933   2.622   6.592   3.035
10678SOL    HW232934   2.619   6.594   3.198
10679SOL     OW32935   5.690   5.134   4.319
10679SOL    HW132936   5.786   5.159   4.309
10679SOL    HW232937   5.647   5.131   4.229
10680SOL     OW32938   1.652   2.318   3.744
10680SOL    HW132939   1.574   2.354   3.794
10680SOL    HW232940   1.625   2.236   3.694
10681SOL     OW32941   0.272   1.041   5.632
10681SOL    HW132942   0.313   0.976   5.696
10681SOL    HW232943   0.312   1.028   5.542
10682SOL     OW32944   6.644   1.658   3.064
10682SOL    HW132945   6.559   1.697   3.100
10682SOL    HW232946   6.621   1.584   3.000
10683SOL     OW32947   1.998   1.469   4.631
10683SOL    HW132948   2.058   1.454   4.552
10683SOL    HW232949   2.027   1.552   4.680
10684SOL     OW32950   5.236   5.826   0.611
10684SOL    HW132951   5.269   5.919   0.594
10684SOL    HW232952   5.283   5.762   0.550
10685SOL     OW32953   0.121   2.545   2.162
10685SOL    HW132954   0.036   2.494   2.178
10685SOL    HW232955   0.125   2.622   2.224
10686SOL     OW32956   3.605   4.717   0.531
10686SOL    HW132957   3.624   4.796   0.473
10686SOL    HW232958   3.509   4.719   0.559
10687SOL     OW32959   0.759   5.309   2.002
10687SOL    HW132960   0.850   5.323   2.041
10687SOL    HW232961   0.697   5.274   2.072
10688SOL     OW32962   6.636   5.443   2.169
10688SOL    HW132963   6.696   5.401   2.101
10688SOL    HW232964   6.568   5.376   2.199
10689SOL     OW32965   0.306   0.953   1.954
10689SOL    HW132966   0.300   1.046   1.918
10689SOL    HW232967   0.238   0.940   2.026
10690SOL     OW32968   4.584   5.524   1.675
10690SOL    HW132969   4.678   5.535   1.708
10690SOL    HW232970   4.539   5.452   1.727
10691SOL     OW32971   6.783   1.406   1.270
10691SOL    HW132972   6.723   1.482   1.296
10691SOL    HW232973   6.838   1.378   1.349
10692SOL     OW32974   4.651   6.218   3.910
10692SOL    HW132975   4.564   6.203   3.957
10692SOL    HW232976   4.713   6.269   3.969
10693SOL     OW32977   6.131   2.171   1.963
10693SOL    HW132978   6.124   2.089   2.020
10693SOL    HW232979   6.225   2.204   1.964
10694SOL     OW32980   3.714   6.310   0.598
10694SOL    HW132981   3.738   6.286   0.692
10694SOL    HW232982   3.664   6.234   0.556
10695SOL     OW32983   5.926   3.306   4.498
10695SOL    HW132984   6.003   3.354   4.455
10695SOL    HW232985   5.956   3.215   4.528
10696SOL     OW32986   6.416   6.579   1.209
10696SOL    HW132987   6.435   6.613   1.301
10696SOL    HW232988   6.437   6.650   1.142
10697SOL     OW32989   2.554   6.337   3.493
10697SOL    HW132990   2.532   6.247   3.530
10697SOL    HW232991   2.648   6.361   3.518
10698SOL     OW32992   2.915   0.584   3.382
10698SOL    HW132993   2.919   0.487   3.360
10698SOL    HW232994   2.967   0.636   3.314
10699SOL     OW32995   1.875   2.110   2.504
10699SOL    HW132996   1.853   2.045   2.577
10699SOL    HW232997   1.801   2.177   2.496
10700SOL     OW32998   6.469   0.945   1.448
10700SOL    HW132999   6.395   0.995   1.404
10700SOL    HW233000   6.432   0.878   1.512
10701SOL     OW33001   3.336   6.328   0.649
10701SOL    HW133002   3.397   6.397   0.611
10701SOL    HW233003   3.291   6.278   0.574
10702SOL     OW33004   6.148   3.026   1.369
10702SOL    HW133005   6.173   3.066   1.281
10702SOL    HW233006   6.049   3.036   1.384
10703SOL     OW33007   4.023   3.179   3.792
10703SOL    HW133008   4.085   3.249   3.828
10703SOL    HW233009   3.984   3.211   3.706
10704SOL     OW33010   5.353   6.620   1.955
10704SOL    HW133011   5.372   6.524   1.931
10704SOL    HW233012   5.439   6.667   1.975
10705SOL     OW33013   0.485   2.217   6.530
10705SOL    HW133014   0.503   2.290   6.464
10705SOL    HW233015   0.389   2.189   6.524
10706SOL     OW33016   3.736   0.967   2.283
10706SOL    HW133017   3.806   0.986   2.351
10706SOL    HW233018   3.682   1.049   2.266
10707SOL     OW33019   6.333   0.135   5.696
10707SOL    HW133020   6.351   0.086   5.781
10707SOL    HW233021   6.397   0.105   5.625
10708SOL     OW33022   3.986   0.896   1.444
10708SOL    HW133023   3.987   0.900   1.543
10708SOL    HW233024   3.891   0.898   1.412
10709SOL     OW33025   0.532   6.431   6.016
10709SOL    HW133026   0.461   6.383   6.067
10709SOL    HW233027   0.599   6.469   6.080
10710SOL     OW33028   6.281   5.896   3.188
10710SOL    HW133029   6.189   5.859   3.192
10710SOL    HW233030   6.345   5.823   3.161
10711SOL     OW33031   1.848   5.751   5.254
10711SOL    HW133032   1.864   5.850   5.263
10711SOL    HW233033   1.864   5.707   5.342
10712SOL     OW33034   4.296   0.998   5.326
10712SOL    HW133035   4.352   1.038   5.399
10712SOL    HW233036   4.228   1.065   5.295
10713SOL     OW33037   1.339   6.178   1.393
10713SOL    HW133038   1.272   6.110   1.422
10713SOL    HW233039   1.420   6.131   1.356
10714SOL     OW33040   7.011   5.272   5.287
10714SOL    HW133041   6.979   5.211   5.215
10714SOL    HW233042   6.941   5.277   5.359
10715SOL     OW33043   6.096   1.722   3.641
10715SOL    HW133044   6.143   1.789   3.583
10715SOL    HW233045   6.098   1.753   3.736
10716SOL     OW33046   6.362   0.497   2.967
10716SOL    HW133047   6.413   0.556   3.030
10716SOL    HW233048   6.410   0.494   2.879
10717SOL     OW33049   6.621   6.434   1.857
10717SOL    HW133050   6.536   6.426   1.804
10717SOL    HW233051   6.675   6.350   1.846
10718SOL     OW33052   0.896   4.188   6.243
10718SOL    HW133053   0.807   4.212   6.283
10718SOL    HW233054   0.913   4.246   6.164
10719SOL     OW33055   4.288   1.179   2.563
10719SOL    HW133056   4.224   1.238   2.515
10719SOL    HW233057   4.279   1.085   2.528
10720SOL     OW33058   0.594   3.240   0.166
10720SOL    HW133059   0.502   3.213   0.139
10720SOL    HW233060   0.595   3.266   0.262
10721SOL     OW33061   4.706   2.640   3.907
10721SOL    HW133062   4.765   2.560   3.917
10721SOL    HW233063   4.610   2.611   3.908
10722SOL     OW33064   0.114   4.307   0.668
10722SOL    HW133065   0.070   4.354   0.744
10722SOL    HW233066   0.130   4.371   0.593
10723SOL     OW33067   6.310   4.353   0.166
10723SOL    HW133068   6.298   4.445   0.202
10723SOL    HW233069   6.403   4.322   0.184
10724SOL     OW33070   3.862   6.775   5.217
10724SOL    HW133071   3.944   6.721   5.230
10724SOL    HW233072   3.797   6.757   5.291
10725SOL     OW33073   6.764   6.858   4.853
10725SOL    HW133074   6.703   6.908   4.791
10725SOL    HW233075   6.734   6.871   4.948
10726SOL     OW33076   5.174   1.130   5.202
10726SOL    HW133077   5.213   1.217   5.234
10726SOL    HW233078   5.241   1.083   5.145
10727SOL     OW33079   1.979   6.183   6.774
10727SOL    HW133080   2.049   6.244   6.812
10727SOL    HW233081   2.016   6.091   6.764
10728SOL     OW33082   5.867   5.985   3.243
10728SOL    HW133083   5.855   5.967   3.341
10728SOL    HW233084   5.930   5.919   3.204
10729SOL     OW33085   5.495   3.492   4.213
10729SOL    HW133086   5.522   3.483   4.309
10729SOL    HW233087   5.409   3.443   4.198
10730SOL     OW33088   1.884   5.496   2.956
10730SOL    HW133089   1.935   5.514   3.040
10730SOL    HW233090   1.796   5.456   2.978
10731SOL     OW33091   4.684   6.630   6.873
10731SOL    HW133092   4.683   6.709   6.934
10731SOL    HW233093   4.768   6.631   6.819
10732SOL     OW33094   6.125   6.127   2.868
10732SOL    HW133095   6.123   6.111   2.967
10732SOL    HW233096   6.032   6.141   2.834
10733SOL     OW33097   0.343   1.042   6.300
10733SOL    HW133098   0.253   1.027   6.342
10733SOL    HW233099   0.334   1.038   6.201
10734SOL     OW33100   1.698   0.407   4.433
10734SOL    HW133101   1.686   0.422   4.335
10734SOL    HW233102   1.630   0.341   4.466
10735SOL     OW33103   6.841   6.703   2.205
10735SOL    HW133104   6.927   6.694   2.255
10735SOL    HW233105   6.768   6.656   2.254
10736SOL     OW33106   5.485   6.481   3.573
10736SOL    HW133107   5.561   6.466   3.510
10736SOL    HW233108   5.489   6.574   3.609
10737SOL     OW33109   6.326   1.110   2.236
10737SOL    HW133110   6.367   1.155   2.315
10737SOL    HW233111   6.230   1.136   2.228
10738SOL     OW33112   3.540   0.302   1.091
10738SOL    HW133113   3.449   0.283   1.128
10738SOL    HW233114   3.589   0.364   1.152
10739SOL     OW33115   5.504   2.732   4.101
10739SOL    HW133116   5.460   2.717   4.189
10739SOL    HW233117   5.554   2.819   4.104
10740SOL     OW33118   2.854   0.199   5.977
10740SOL    HW133119   2.948   0.219   6.005
10740SOL    HW233120   2.795   0.192   6.057
10741SOL     OW33121   2.069   2.139   3.784
10741SOL    HW133122   2.005   2.066   3.762
10741SOL    HW233123   2.136   2.107   3.851
10742SOL     OW33124   6.174   6.585   2.850
10742SOL    HW133125   6.173   6.683   2.829
10742SOL    HW233126   6.237   6.568   2.926
10743SOL     OW33127   2.987   2.059   5.499
10743SOL    HW133128   3.059   2.117   5.461
10743SOL    HW233129   2.937   2.016   5.424
10744SOL     OW33130   1.877   1.232   0.551
10744SOL    HW133131   1.824   1.147   0.555
10744SOL    HW233132   1.959   1.223   0.608
10745SOL     OW33133   1.475   4.539   2.162
10745SOL    HW133134   1.501   4.452   2.121
10745SOL    HW233135   1.551   4.604   2.154
10746SOL     OW33136   1.613   6.521   6.405
10746SOL    HW133137   1.661   6.560   6.483
10746SOL    HW233138   1.573   6.595   6.350
10747SOL     OW33139   6.421   1.355   4.585
10747SOL    HW133140   6.453   1.261   4.591
10747SOL    HW233141   6.499   1.418   4.592
10748SOL     OW33142   3.173   6.425   1.361
10748SOL    HW133143   3.175   6.466   1.270
10748SOL    HW233144   3.139   6.331   1.355
10749SOL     OW33145   5.809   4.387   1.723
10749SOL    HW133146   5.825   4.290   1.741
10749SOL    HW233147   5.874   4.421   1.655
10750SOL     OW33148   3.993   2.242   4.302
10750SOL    HW133149   4.051   2.283   4.373
10750SOL    HW233150   4.035   2.258   4.213
10751SOL     OW33151   0.462   6.207   4.237
10751SOL    HW133152   0.488   6.234   4.329
10751SOL    HW233153   0.363   6.197   4.232
10752SOL     OW33154   6.491   6.485   0.357
10752SOL    HW133155   6.516   6.393   0.389
10752SOL    HW233156   6.446   6.534   0.431
10753SOL     OW33157   5.383   0.023   4.111
10753SOL    HW133158   5.286   0.025   4.084
10753SOL    HW233159   5.405   6.953   4.150
10754SOL     OW33160   0.556   4.125   2.489
10754SOL    HW133161   0.577   4.125   2.391
10754SOL    HW233162   0.619   4.186   2.537
10755SOL     OW33163   0.195   2.412   0.992
10755SOL    HW133164   0.142   2.495   1.010
10755SOL    HW233165   0.140   2.350   0.935
10756SOL     OW33166   1.215   0.674   0.498
10756SOL    HW133167   1.236   0.637   0.408
10756SOL    HW233168   1.119   0.660   0.519
10757SOL     OW33169   0.403   3.824   1.562
10757SOL    HW133170   0.364   3.736   1.589
10757SOL    HW233171   0.487   3.841   1.615
10758SOL     OW33172   0.677   0.299   0.337
10758SOL    HW133173   0.648   0.343   0.252
10758SOL    HW233174   0.596   0.278   0.393
10759SOL     OW33175   2.946   2.607   5.864
10759SOL    HW133176   2.970   2.524   5.813
10759SOL    HW233177   3.012   2.679   5.842
10760SOL     OW33178   1.243   4.831   6.590
10760SOL    HW133179   1.231   4.916   6.539
10760SOL    HW233180   1.159   4.776   6.584
10761SOL     OW33181   1.214   1.662   5.823
10761SOL    HW133182   1.164   1.590   5.870
10761SOL    HW233183   1.195   1.657   5.725
10762SOL     OW33184   2.966   5.717   6.368
10762SOL    HW133185   2.906   5.779   6.418
10762SOL    HW233186   3.060   5.750   6.374
10763SOL     OW33187   5.124   0.420   3.810
10763SOL    HW133188   5.087   0.327   3.801
10763SOL    HW233189   5.210   0.426   3.759
10764SOL     OW33190   4.438   6.721   4.734
10764SOL    HW133191   4.370   6.666   4.686
10764SOL    HW233192   4.528   6.705   4.694
10765SOL     OW33193   0.320   2.269   2.208
10765SOL    HW133194   0.239   2.215   2.185
10765SOL    HW233195   0.300   2.327   2.287
10766SOL     OW33196   2.334   4.875   0.299
10766SOL    HW133197   2.392   4.872   0.217
10766SOL    HW233198   2.265   4.946   0.289
10767SOL     OW33199   1.261   5.191   0.042
10767SOL    HW133200   1.264   5.247   6.980
10767SOL    HW233201   1.236   5.097   0.019
10768SOL     OW33202   5.273   6.344   6.682
10768SOL    HW133203   5.363   6.381   6.660
10768SOL    HW233204   5.262   6.341   6.782
10769SOL     OW33205   2.919   3.299   4.205
10769SOL    HW133206   2.946   3.203   4.201
10769SOL    HW233207   2.944   3.344   4.118
10770SOL     OW33208   5.612   0.172   3.162
10770SOL    HW133209   5.527   0.158   3.112
10770SOL    HW233210   5.685   0.117   3.121
10771SOL     OW33211   4.567   5.999   5.721
10771SOL    HW133212   4.558   6.033   5.627
10771SOL    HW233213   4.478   6.004   5.766
10772SOL     OW33214   5.998   5.295   2.360
10772SOL    HW133215   6.040   5.337   2.280
10772SOL    HW233216   5.898   5.305   2.355
10773SOL     OW33217   0.028   3.330   0.927
10773SOL    HW133218   6.999   3.413   0.901
10773SOL    HW233219   6.983   3.258   0.950
10774SOL     OW33220   0.923   3.737   0.638
10774SOL    HW133221   0.836   3.726   0.686
10774SOL    HW233222   0.921   3.686   0.552
10775SOL     OW33223   1.595   4.293   0.413
10775SOL    HW133224   1.496   4.295   0.424
10775SOL    HW233225   1.639   4.285   0.502
10776SOL     OW33226   0.695   2.512   4.216
10776SOL    HW133227   0.781   2.524   4.166
10776SOL    HW233228   0.647   2.599   4.221
10777SOL     OW33229   2.674   0.933   1.452
10777SOL    HW133230   2.637   0.966   1.539
10777SOL    HW233231   2.688   1.009   1.390
10778SOL     OW33232   5.364   0.333   2.591
10778SOL    HW133233   5.365   0.253   2.531
10778SOL    HW233234   5.416   0.407   2.549
10779SOL     OW33235   5.510   3.543   5.384
10779SOL    HW133236   5.413   3.538   5.407
10779SOL    HW233237   5.536   3.461   5.332
10780SOL     OW33238   1.954   5.531   4.514
10780SOL    HW133239   1.862   5.544   4.477
10780SOL    HW233240   1.972   5.433   4.525
10781SOL     OW33241   5.780   2.212   4.923
10781SOL    HW133242   5.879   2.222   4.930
10781SOL    HW233243   5.753   2.207   4.827
10782SOL     OW33244   1.178   1.342   5.517
10782SOL    HW133245   1.185   1.250   5.477
10782SOL    HW233246   1.227   1.345   5.604
10783SOL     OW33247   0.864   2.387   3.754
10783SOL    HW133248   0.842   2.480   3.783
10783SOL    HW233249   0.841   2.323   3.826
10784SOL     OW33250   3.908   5.772   2.964
10784SOL    HW133251   3.938   5.776   3.060
10784SOL    HW233252   3.809   5.769   2.960
10785SOL     OW33253   0.945   5.235   1.590
10785SOL    HW133254   0.992   5.247   1.677
10785SOL    HW233255   1.011   5.237   1.515
10786SOL     OW33256   4.502   1.738   2.753
10786SOL    HW133257   4.546   1.668   2.698
10786SOL    HW233258   4.544   1.826   2.735
10787SOL     OW33259   4.453   0.945   3.503
10787SOL    HW133260   4.451   0.883   3.425
10787SOL    HW233261   4.359   0.965   3.533
10788SOL     OW33262   1.937   3.972   0.053
10788SOL    HW133263   1.851   4.020   0.070
10788SOL    HW233264   1.951   3.963   6.975
10789SOL     OW33265   6.733   1.554   1.686
10789SOL    HW133266   6.731   1.560   1.786
10789SOL    HW233267   6.668   1.486   1.655
10790SOL     OW33268   0.755   1.651   6.002
10790SOL    HW133269   0.813   1.572   5.981
10790SOL    HW233270   0.662   1.620   6.022
10791SOL     OW33271   1.562   2.097   3.382
10791SOL    HW133272   1.515   2.181   3.354
10791SOL    HW233273   1.496   2.036   3.426
10792SOL     OW33274   3.882   1.627   2.506
10792SOL    HW133275   3.893   1.529   2.524
10792SOL    HW233276   3.845   1.640   2.414
10793SOL     OW33277   4.064   1.904   4.565
10793SOL    HW133278   4.145   1.872   4.614
10793SOL    HW233279   3.999   1.828   4.555
10794SOL     OW33280   5.388   2.135   1.111
10794SOL    HW133281   5.387   2.035   1.117
10794SOL    HW233282   5.351   2.163   1.022
10795SOL     OW33283   6.698   3.251   3.413
10795SOL    HW133284   6.793   3.219   3.418
10795SOL    HW233285   6.639   3.176   3.384
10796SOL     OW33286   0.490   6.919   6.034
10796SOL    HW133287   0.406   6.911   6.087
10796SOL    HW233288   0.471   6.902   5.938
10797SOL     OW33289   4.382   4.665   6.953
10797SOL    HW133290   4.331   4.595   6.903
10797SOL    HW233291   4.443   4.621   7.019
10798SOL     OW33292   1.470   6.700   6.229
10798SOL    HW133293   1.508   6.792   6.217
10798SOL    HW233294   1.382   6.707   6.276
10799SOL     OW33295   2.783   1.093   2.672
10799SOL    HW133296   2.716   1.145   2.724
10799SOL    HW233297   2.873   1.101   2.715
10800SOL     OW33298   2.384   6.980   5.639
10800SOL    HW133299   2.479   6.960   5.660
10800SOL    HW233300   2.324   6.919   5.691
10801SOL     OW33301   2.834   5.954   6.070
10801SOL    HW133302   2.760   5.894   6.101
10801SOL    HW233303   2.922   5.917   6.099
10802SOL     OW33304   0.781   5.268   4.013
10802SOL    HW133305   0.789   5.228   4.104
10802SOL    HW233306   0.685   5.293   3.996
10803SOL     OW33307   0.008   4.013   4.671
10803SOL    HW133308   0.082   4.053   4.725
10803SOL    HW233309   6.962   4.085   4.647
10804SOL     OW33310   4.951   4.535   1.055
10804SOL    HW133311   4.970   4.632   1.068
10804SOL    HW233312   5.029   4.481   1.086
10805SOL     OW33313   3.673   6.063   0.452
10805SOL    HW133314   3.672   5.983   0.512
10805SOL    HW233315   3.678   6.035   0.357
10806SOL     OW33316   6.298   4.059   6.425
10806SOL    HW133317   6.222   4.005   6.391
10806SOL    HW233318   6.364   3.999   6.471
10807SOL     OW33319   4.692   0.568   4.203
10807SOL    HW133320   4.735   0.535   4.119
10807SOL    HW233321   4.747   0.641   4.243
10808SOL     OW33322   0.314   2.085   0.084
10808SOL    HW133323   0.226   2.132   0.082
10808SOL    HW233324   0.375   2.126   0.016
10809SOL     OW33325   3.297   0.906   3.224
10809SOL    HW133326   3.314   0.820   3.272
10809SOL    HW233327   3.337   0.901   3.132
10810SOL     OW33328   0.993   1.625   6.896
10810SOL    HW133329   1.013   1.626   6.994
10810SOL    HW233330   1.044   1.551   6.853
10811SOL     OW33331   4.838   4.434   6.183
10811SOL    HW133332   4.844   4.533   6.199
10811SOL    HW233333   4.763   4.416   6.119
10812SOL     OW33334   6.912   2.593   2.458
10812SOL    HW133335   6.958   2.508   2.433
10812SOL    HW233336   6.861   2.628   2.380
10813SOL     OW33337   3.359   5.650   2.373
10813SOL    HW133338   3.300   5.704   2.312
10813SOL    HW233339   3.338   5.553   2.363
10814SOL     OW33340   2.070   6.119   5.335
10814SOL    HW133341   2.064   6.121   5.235
10814SOL    HW233342   2.012   6.191   5.373
10815SOL     OW33343   4.570   2.648   3.416
10815SOL    HW133344   4.524   2.737   3.413
10815SOL    HW233345   4.511   2.579   3.375
10816SOL     OW33346   2.153   2.488   2.162
10816SOL    HW133347   2.101   2.553   2.106
10816SOL    HW233348   2.092   2.446   2.229
10817SOL     OW33349   4.285   6.933   1.888
10817SOL    HW133350   4.384   6.920   1.887
10817SOL    HW233351   4.250   6.926   1.794
10818SOL     OW33352   4.558   2.895   6.393
10818SOL    HW133353   4.552   2.994   6.380
10818SOL    HW233354   4.538   2.849   6.306
10819SOL     OW33355   0.801   3.934   5.490
10819SOL    HW133356   0.797   3.865   5.562
10819SOL    HW233357   0.748   4.014   5.516
10820SOL     OW33358   0.073   0.538   4.706
10820SOL    HW133359   0.135   0.513   4.631
10820SOL    HW233360   7.009   0.577   4.668
10821SOL     OW33361   6.599   0.200   1.399
10821SOL    HW133362   6.694   0.173   1.410
10821SOL    HW233363   6.542   0.150   1.464
10822SOL     OW33364   0.443   4.520   0.422
10822SOL    HW133365   0.478   4.613   0.411
10822SOL    HW233366   0.516   4.455   0.399
10823SOL     OW33367   1.076   2.021   1.783
10823SOL    HW133368   1.111   2.035   1.875
10823SOL    HW233369   1.137   1.960   1.732
10824SOL     OW33370   5.576   0.616   3.026
10824SOL    HW133371   5.516   0.665   3.089
10824SOL    HW233372   5.611   0.534   3.070
10825SOL     OW33373   3.583   1.659   1.306
10825SOL    HW133374   3.626   1.588   1.250
10825SOL    HW233375   3.590   1.747   1.259
10826SOL     OW33376   6.915   2.658   1.475
10826SOL    HW133377   6.873   2.746   1.450
10826SOL    HW233378   6.844   2.591   1.492
10827SOL     OW33379   1.499   2.601   4.248
10827SOL    HW133380   1.480   2.546   4.330
10827SOL    HW233381   1.578   2.660   4.266
10828SOL     OW33382   1.123   6.155   0.277
10828SOL    HW133383   1.044   6.150   0.338
10828SOL    HW233384   1.117   6.237   0.221
10829SOL     OW33385   2.454   3.693   1.689
10829SOL    HW133386   2.424   3.621   1.752
10829SOL    HW233387   2.388   3.767   1.690
10830SOL     OW33388   5.113   1.786   3.929
10830SOL    HW133389   5.122   1.686   3.921
10830SOL    HW233390   5.018   1.812   3.913
10831SOL     OW33391   4.936   2.795   2.966
10831SOL    HW133392   4.989   2.840   2.894
10831SOL    HW233393   4.887   2.864   3.020
10832SOL     OW33394   6.590   2.401   2.615
10832SOL    HW133395   6.654   2.476   2.632
10832SOL    HW233396   6.640   2.314   2.617
10833SOL     OW33397   2.827   0.323   4.481
10833SOL    HW133398   2.821   0.247   4.545
10833SOL    HW233399   2.755   0.389   4.499
10834SOL     OW33400   6.882   1.353   5.445
10834SOL    HW133401   6.849   1.388   5.358
10834SOL    HW233402   6.918   1.428   5.501
10835SOL     OW33403   6.975   2.367   2.322
10835SOL    HW133404   6.936   2.289   2.272
10835SOL    HW233405   0.030   2.335   2.380
10836SOL     OW33406   1.919   3.045   0.911
10836SOL    HW133407   1.912   2.973   0.981
10836SOL    HW233408   1.996   3.105   0.932
10837SOL     OW33409   1.192   5.568   1.518
10837SOL    HW133410   1.260   5.496   1.530
10837SOL    HW233411   1.239   5.655   1.500
10838SOL     OW33412   6.642   0.190   0.766
10838SOL    HW133413   6.607   0.161   0.855
10838SOL    HW233414   6.595   0.139   0.694
10839SOL     OW33415   1.753   1.501   0.048
10839SOL    HW133416   1.686   1.557   0.002
10839SOL    HW233417   1.738   1.505   0.147
10840SOL     OW33418   3.773   5.190   2.785
10840SOL    HW133419   3.694   5.156   2.836
10840SOL    HW233420   3.824   5.255   2.842
10841SOL     OW33421   4.706   3.310   5.881
10841SOL    HW133422   4.766   3.282   5.956
10841SOL    HW233423   4.746   3.390   5.835
10842SOL     OW33424   6.770   2.832   1.295
10842SOL    HW133425   6.801   2.786   1.211
10842SOL    HW233426   6.776   2.931   1.281
10843SOL     OW33427   0.794   1.127   1.903
10843SOL    HW133428   0.877   1.179   1.925
10843SOL    HW233429   0.814   1.029   1.904
10844SOL     OW33430   3.298   6.894   3.465
10844SOL    HW133431   3.217   6.895   3.524
10844SOL    HW233432   3.378   6.926   3.518
10845SOL     OW33433   1.763   3.134   0.674
10845SOL    HW133434   1.840   3.159   0.616
10845SOL    HW233435   1.797   3.092   0.758
10846SOL     OW33436   3.646   1.866   2.142
10846SOL    HW133437   3.711   1.909   2.080
10846SOL    HW233438   3.629   1.926   2.220
10847SOL     OW33439   3.628   2.688   6.476
10847SOL    HW133440   3.695   2.670   6.404
10847SOL    HW233441   3.676   2.704   6.562
10848SOL     OW33442   0.945   0.852   0.519
10848SOL    HW133443   0.934   0.937   0.571
10848SOL    HW233444   0.855   0.817   0.494
10849SOL     OW33445   2.463   5.107   4.428
10849SOL    HW133446   2.424   5.077   4.341
10849SOL    HW233447   2.414   5.187   4.461
10850SOL     OW33448   5.997   0.624   1.915
10850SOL    HW133449   5.979   0.681   1.835
10850SOL    HW233450   5.911   0.609   1.964
10851SOL     OW33451   4.098   1.865   6.119
10851SOL    HW133452   3.999   1.875   6.117
10851SOL    HW233453   4.123   1.793   6.183
10852SOL     OW33454   0.119   6.718   6.140
10852SOL    HW133455   0.206   6.708   6.188
10852SOL    HW233456   0.056   6.646   6.170
10853SOL     OW33457   2.106   0.760   5.007
10853SOL    HW133458   2.059   0.842   4.973
10853SOL    HW233459   2.128   0.700   4.930
10854SOL     OW33460   0.483   6.374   0.989
10854SOL    HW133461   0.406   6.426   1.025
10854SOL    HW233462   0.527   6.323   1.063
10855SOL     OW33463   1.349   5.433   1.943
10855SOL    HW133464   1.402   5.470   1.867
10855SOL    HW233465   1.335   5.504   2.012
10856SOL     OW33466   6.295   0.375   6.475
10856SOL    HW133467   6.261   0.324   6.554
10856SOL    HW233468   6.258   0.467   6.475
10857SOL     OW33469   6.289   0.508   5.080
10857SOL    HW133470   6.302   0.580   5.149
10857SOL    HW233471   6.204   0.525   5.031
10858SOL     OW33472   1.892   1.890   0.117
10858SOL    HW133473   1.912   1.951   0.194
10858SOL    HW233474   1.796   1.896   0.093
10859SOL     OW33475   1.226   6.211   2.381
10859SOL    HW133476   1.315   6.249   2.357
10859SOL    HW233477   1.153   6.262   2.335
10860SOL     OW33478   5.811   3.614   1.127
10860SOL    HW133479   5.758   3.687   1.084
10860SOL    HW233480   5.851   3.556   1.057
10861SOL     OW33481   2.951   3.183   1.543
10861SOL    HW133482   2.969   3.265   1.597
10861SOL    HW233483   2.920   3.110   1.603
10862SOL     OW33484   3.470   3.344   5.391
10862SOL    HW133485   3.565   3.311   5.394
10862SOL    HW233486   3.462   3.416   5.323
10863SOL     OW33487   2.102   0.725   3.425
10863SOL    HW133488   2.016   0.718   3.475
10863SOL    HW233489   2.086   0.710   3.328
10864SOL     OW33490   3.152   4.211   1.713
10864SOL    HW133491   3.172   4.201   1.616
10864SOL    HW233492   3.142   4.308   1.735
10865SOL     OW33493   4.055   1.574   2.940
10865SOL    HW133494   4.144   1.528   2.945
10865SOL    HW233495   4.052   1.631   2.857
10866SOL     OW33496   0.059   3.563   3.345
10866SOL    HW133497   0.041   3.562   3.444
10866SOL    HW233498   6.997   3.534   3.296
10867SOL     OW33499   4.727   2.597   0.603
10867SOL    HW133500   4.729   2.580   0.702
10867SOL    HW233501   4.678   2.683   0.585
10868SOL     OW33502   1.487   6.929   4.893
10868SOL    HW133503   1.403   6.975   4.863
10868SOL    HW233504   1.563   6.993   4.888
10869NA      NA33505   0.087   1.188   6.021
10870NA      NA33506   4.510   4.429   5.185
10871NA      NA33507   1.292   5.060   2.402
10872NA      NA33508   5.859   3.988   3.287
10873NA      NA33509   3.840   2.292   5.484
10874NA      NA33510   2.139   4.628   0.414
10875NA      NA33511   1.270   5.242   6.698
10876NA      NA33512   3.841   4.516   1.075
10877NA      NA33513   4.712   5.003   0.304
10878NA      NA33514   3.197   1.061   6.877
10879NA      NA33515   5.492   6.931   1.598
10880NA      NA33516   2.455   6.345   5.682
10881NA      NA33517   3.979   5.192   1.695
10882NA      NA33518   3.978   3.286   6.732
   7.02019   7.02019   7.02019
