Generated by trjconv : CNT in water t= 422.00000
33518
    1C        C    1   2.843   2.772   4.747
    1C        C    2   2.898   2.720   4.866
    1C        C    3   2.843   2.773   4.984
    1C        C    4   2.853   2.780   4.259
    1C        C    5   2.903   2.729   4.381
    1C        C    6   2.849   2.772   4.504
    1C        C    7   3.018   2.646   4.627
    1C        C    8   2.902   2.727   4.626
    1C        C    9   3.079   2.606   4.748
    1C        C   10   3.011   2.635   4.867
    1C        C   11   3.185   2.499   4.978
    1C        C   12   3.061   2.563   4.976
    1C        C   13   2.856   2.777   3.773
    1C        C   14   2.905   2.725   3.895
    1C        C   15   2.848   2.773   4.015
    1C        C   16   3.020   2.650   4.140
    1C        C   17   2.903   2.728   4.137
    1C        C   18   3.085   2.620   4.262
    1C        C   19   3.022   2.653   4.384
    1C        C   20   3.211   2.559   4.503
    1C        C   21   3.080   2.610   4.506
    1C        C   22   3.278   2.529   4.624
    1C        C   23   3.209   2.547   4.745
    1C        C   24   3.415   2.486   4.866
    1C        C   25   3.274   2.511   4.866
    1C        C   26   3.490   2.476   4.984
    1C        C   27   2.855   2.774   3.281
    1C        C   28   2.906   2.729   3.405
    1C        C   29   2.856   2.777   3.529
    1C        C   30   3.021   2.645   3.650
    1C        C   31   2.903   2.724   3.651
    1C        C   32   3.081   2.611   3.773
    1C        C   33   3.021   2.644   3.896
    1C        C   34   3.212   2.557   4.016
    1C        C   35   3.081   2.611   4.019
    1C        C   36   3.279   2.531   4.137
    1C        C   37   3.214   2.562   4.259
    1C        C   38   3.420   2.512   4.382
    1C        C   39   3.281   2.541   4.382
    1C        C   40   3.489   2.501   4.505
    1C        C   41   3.417   2.503   4.626
    1C        C   42   3.633   2.479   4.744
    1C        C   43   3.491   2.485   4.745
    1C        C   44   3.704   2.484   4.866
    1C        C   45   3.629   2.478   4.984
    1C        C   46   2.841   2.759   2.792
    1C        C   47   2.896   2.719   2.916
    1C        C   48   2.843   2.762   3.039
    1C        C   49   3.024   2.647   3.162
    1C        C   50   2.904   2.721   3.160
    1C        C   51   3.084   2.612   3.285
    1C        C   52   3.017   2.642   3.406
    1C        C   53   3.211   2.553   3.528
    1C        C   54   3.081   2.609   3.527
    1C        C   55   3.277   2.526   3.650
    1C        C   56   3.210   2.553   3.771
    1C        C   57   3.418   2.505   3.892
    1C        C   58   3.280   2.536   3.893
    1C        C   59   3.488   2.501   4.015
    1C        C   60   3.418   2.506   4.137
    1C        C   61   3.629   2.494   4.259
    1C        C   62   3.488   2.498   4.259
    1C        C   63   3.700   2.507   4.380
    1C        C   64   3.630   2.504   4.503
    1C        C   65   3.839   2.538   4.620
    1C        C   66   3.704   2.497   4.623
    1C        C   67   3.904   2.558   4.744
    1C        C   68   3.841   2.521   4.864
    1C        C   69   4.052   2.593   4.980
    1C        C   70   3.926   2.532   4.974
    1C        C   71   2.825   2.736   2.307
    1C        C   72   2.886   2.694   2.427
    1C        C   73   2.836   2.744   2.549
    1C        C   74   3.011   2.628   2.676
    1C        C   75   2.892   2.704   2.673
    1C        C   76   3.077   2.597   2.797
    1C        C   77   3.013   2.639   2.916
    1C        C   78   3.206   2.546   3.038
    1C        C   79   3.079   2.609   3.037
    1C        C   80   3.273   2.526   3.160
    1C        C   81   3.212   2.552   3.284
    1C        C   82   3.418   2.502   3.403
    1C        C   83   3.280   2.534   3.406
    1C        C   84   3.486   2.491   3.527
    1C        C   85   3.416   2.499   3.649
    1C        C   86   3.629   2.497   3.771
    1C        C   87   3.488   2.498   3.770
    1C        C   88   3.699   2.502   3.894
    1C        C   89   3.629   2.498   4.017
    1C        C   90   3.836   2.545   4.135
    1C        C   91   3.701   2.502   4.138
    1C        C   92   3.903   2.570   4.257
    1C        C   93   3.836   2.545   4.379
    1C        C   94   4.030   2.634   4.500
    1C        C   95   3.907   2.565   4.500
    1C        C   96   4.088   2.674   4.622
    1C        C   97   4.030   2.625   4.742
    1C        C   98   4.189   2.770   4.864
    1C        C   99   4.098   2.660   4.861
    1C        C  100   4.219   2.845   4.978
    1C        C  101   2.824   2.728   2.068
    1C        C  102   2.993   2.595   2.192
    1C        C  103   2.879   2.680   2.188
    1C        C  104   3.064   2.571   2.314
    1C        C  105   3.005   2.617   2.433
    1C        C  106   3.202   2.535   2.551
    1C        C  107   3.071   2.587   2.554
    1C        C  108   3.272   2.517   2.673
    1C        C  109   3.206   2.541   2.796
    1C        C  110   3.414   2.493   2.917
    1C        C  111   3.275   2.521   2.917
    1C        C  112   3.485   2.490   3.038
    1C        C  113   3.413   2.503   3.159
    1C        C  114   3.627   2.492   3.281
    1C        C  115   3.485   2.489   3.280
    1C        C  116   3.697   2.503   3.403
    1C        C  117   3.627   2.496   3.526
    1C        C  118   3.836   2.537   3.647
    1C        C  119   3.699   2.504   3.648
    1C        C  120   3.901   2.564   3.770
    1C        C  121   3.835   2.540   3.893
    1C        C  122   4.026   2.639   4.012
    1C        C  123   3.903   2.568   4.013
    1C        C  124   4.083   2.676   4.135
    1C        C  125   4.028   2.636   4.259
    1C        C  126   4.199   2.766   4.379
    1C        C  127   4.092   2.674   4.379
    1C        C  128   4.245   2.822   4.500
    1C        C  129   4.189   2.772   4.620
    1C        C  130   4.322   2.939   4.739
    1C        C  131   4.238   2.824   4.742
    1C        C  132   4.353   3.008   4.859
    1C        C  133   4.290   2.965   4.976
    1C        C  134   3.173   2.466   2.084
    1C        C  135   3.041   2.512   2.086
    1C        C  136   3.260   2.472   2.194
    1C        C  137   3.194   2.513   2.312
    1C        C  138   3.408   2.479   2.430
    1C        C  139   3.268   2.500   2.431
    1C        C  140   3.482   2.477   2.550
    1C        C  141   3.410   2.489   2.671
    1C        C  142   3.622   2.489   2.792
    1C        C  143   3.481   2.485   2.793
    1C        C  144   3.695   2.500   2.913
    1C        C  145   3.626   2.489   3.036
    1C        C  146   3.835   2.524   3.158
    1C        C  147   3.696   2.496   3.158
    1C        C  148   3.901   2.557   3.279
    1C        C  149   3.833   2.539   3.402
    1C        C  150   4.025   2.628   3.523
    1C        C  151   3.900   2.562   3.524
    1C        C  152   4.082   2.669   3.646
    1C        C  153   4.024   2.634   3.769
    1C        C  154   4.193   2.768   3.889
    1C        C  155   4.083   2.679   3.889
    1C        C  156   4.244   2.815   4.012
    1C        C  157   4.196   2.761   4.133
    1C        C  158   4.336   2.922   4.256
    1C        C  159   4.248   2.811   4.254
    1C        C  160   4.378   2.984   4.375
    1C        C  161   4.330   2.934   4.498
    1C        C  162   4.442   3.117   4.617
    1C        C  163   4.370   2.996   4.619
    1C        C  164   4.471   3.185   4.737
    1C        C  165   4.432   3.125   4.859
    1C        C  166   4.519   3.321   4.976
    1C        C  167   4.484   3.187   4.973
    1C        C  168   3.476   2.427   2.076
    1C        C  169   3.400   2.451   2.191
    1C        C  170   3.619   2.460   2.310
    1C        C  171   3.477   2.453   2.309
    1C        C  172   3.697   2.478   2.426
    1C        C  173   3.624   2.478   2.547
    1C        C  174   3.827   2.534   2.669
    1C        C  175   3.693   2.492   2.670
    1C        C  176   3.895   2.558   2.790
    1C        C  177   3.833   2.532   2.914
    1C        C  178   4.026   2.617   3.033
    1C        C  179   3.902   2.549   3.036
    1C        C  180   4.085   2.660   3.154
    1C        C  181   4.026   2.622   3.277
    1C        C  182   4.189   2.756   3.398
    1C        C  183   4.085   2.661   3.399
    1C        C  184   4.238   2.809   3.520
    1C        C  185   4.190   2.760   3.644
    1C        C  186   4.334   2.919   3.766
    1C        C  187   4.246   2.809   3.764
    1C        C  188   4.372   2.981   3.888
    1C        C  189   4.333   2.925   4.012
    1C        C  190   4.439   3.108   4.132
    1C        C  191   4.376   2.981   4.134
    1C        C  192   4.469   3.176   4.252
    1C        C  193   4.441   3.111   4.375
    1C        C  194   4.510   3.317   4.493
    1C        C  195   4.466   3.182   4.494
    1C        C  196   4.519   3.390   4.613
    1C        C  197   4.509   3.322   4.736
    1C        C  198   4.549   3.536   4.854
    1C        C  199   4.527   3.395   4.857
    1C        C  200   4.584   3.620   4.965
    1C        C  201   3.616   2.416   2.073
    1C        C  202   3.825   2.509   2.182
    1C        C  203   3.692   2.457   2.188
    1C        C  204   3.897   2.538   2.301
    1C        C  205   3.834   2.512   2.425
    1C        C  206   4.021   2.615   2.545
    1C        C  207   3.896   2.548   2.546
    1C        C  208   4.084   2.653   2.665
    1C        C  209   4.020   2.624   2.788
    1C        C  210   4.192   2.746   2.907
    1C        C  211   4.081   2.659   2.910
    1C        C  212   4.242   2.797   3.029
    1C        C  213   4.196   2.748   3.153
    1C        C  214   4.331   2.911   3.273
    1C        C  215   4.242   2.801   3.275
    1C        C  216   4.367   2.972   3.395
    1C        C  217   4.327   2.918   3.520
    1C        C  218   4.431   3.103   3.642
    1C        C  219   4.368   2.977   3.642
    1C        C  220   4.461   3.169   3.763
    1C        C  221   4.434   3.108   3.888
    1C        C  222   4.498   3.310   4.006
    1C        C  223   4.462   3.174   4.009
    1C        C  224   4.513   3.382   4.127
    1C        C  225   4.509   3.311   4.249
    1C        C  226   4.527   3.526   4.365
    1C        C  227   4.519   3.385   4.369
    1C        C  228   4.522   3.598   4.487
    1C        C  229   4.528   3.531   4.611
    1C        C  230   4.505   3.745   4.726
    1C        C  231   4.535   3.606   4.731
    1C        C  232   4.501   3.821   4.844
    1C        C  233   4.544   3.754   4.960
    1C        C  234   4.019   2.604   2.062
    1C        C  235   3.895   2.540   2.065
    1C        C  236   4.083   2.647   2.179
    1C        C  237   4.020   2.610   2.300
    1C        C  238   4.195   2.732   2.419
    1C        C  239   4.080   2.649   2.421
    1C        C  240   4.246   2.786   2.539
    1C        C  241   4.192   2.744   2.663
    1C        C  242   4.326   2.910   2.785
    1C        C  243   4.243   2.795   2.784
    1C        C  244   4.369   2.965   2.907
    1C        C  245   4.329   2.909   3.030
    1C        C  246   4.433   3.095   3.148
    1C        C  247   4.372   2.968   3.151
    1C        C  248   4.455   3.163   3.271
    1C        C  249   4.429   3.099   3.394
    1C        C  250   4.490   3.301   3.516
    1C        C  251   4.454   3.164   3.517
    1C        C  252   4.505   3.372   3.637
    1C        C  253   4.491   3.307   3.761
    1C        C  254   4.526   3.518   3.878
    1C        C  255   4.510   3.378   3.882
    1C        C  256   4.521   3.591   3.998
    1C        C  257   4.518   3.523   4.122
    1C        C  258   4.496   3.735   4.240
    1C        C  259   4.520   3.596   4.243
    1C        C  260   4.474   3.803   4.362
    1C        C  261   4.493   3.736   4.485
    1C        C  262   4.424   3.941   4.604
    1C        C  263   4.479   3.811   4.604
    1C        C  264   4.396   4.007   4.726
    1C        C  265   4.440   3.948   4.846
    1C        C  266   4.319   4.132   4.959
    1C        C  267   4.397   4.016   4.961
    1C        C  268   4.261   2.780   2.063
    1C        C  269   4.192   2.737   2.178
    1C        C  270   4.340   2.893   2.299
    1C        C  271   4.247   2.785   2.299
    1C        C  272   4.375   2.955   2.421
    1C        C  273   4.337   2.894   2.542
    1C        C  274   4.435   3.087   2.662
    1C        C  275   4.367   2.963   2.661
    1C        C  276   4.459   3.157   2.782
    1C        C  277   4.435   3.090   2.904
    1C        C  278   4.503   3.294   3.025
    1C        C  279   4.462   3.158   3.025
    1C        C  280   4.508   3.365   3.146
    1C        C  281   4.490   3.300   3.270
    1C        C  282   4.513   3.510   3.392
    1C        C  283   4.500   3.370   3.393
    1C        C  284   4.515   3.583   3.513
    1C        C  285   4.514   3.513   3.635
    1C        C  286   4.496   3.727   3.753
    1C        C  287   4.519   3.588   3.755
    1C        C  288   4.478   3.797   3.874
    1C        C  289   4.496   3.731   3.997
    1C        C  290   4.430   3.936   4.117
    1C        C  291   4.478   3.803   4.117
    1C        C  292   4.399   4.000   4.238
    1C        C  293   4.425   3.936   4.361
    1C        C  294   4.329   4.128   4.479
    1C        C  295   4.400   4.006   4.481
    1C        C  296   4.285   4.189   4.599
    1C        C  297   4.324   4.129   4.721
    1C        C  298   4.204   4.315   4.840
    1C        C  299   4.284   4.197   4.840
    1C        C  300   4.172   4.403   4.948
    1C        C  301   4.348   2.888   2.061
    1C        C  302   4.472   3.067   2.178
    1C        C  303   4.394   2.946   2.179
    1C        C  304   4.476   3.144   2.298
    1C        C  305   4.440   3.081   2.419
    1C        C  306   4.501   3.286   2.541
    1C        C  307   4.466   3.150   2.539
    1C        C  308   4.509   3.362   2.660
    1C        C  309   4.499   3.293   2.782
    1C        C  310   4.531   3.504   2.902
    1C        C  311   4.522   3.363   2.903
    1C        C  312   4.530   3.576   3.023
    1C        C  313   4.522   3.506   3.145
    1C        C  314   4.488   3.715   3.267
    1C        C  315   4.513   3.576   3.267
    1C        C  316   4.475   3.788   3.387
    1C        C  317   4.496   3.723   3.511
    1C        C  318   4.429   3.927   3.628
    1C        C  319   4.483   3.797   3.631
    1C        C  320   4.394   3.990   3.749
    1C        C  321   4.425   3.928   3.872
    1C        C  322   4.321   4.116   3.994
    1C        C  323   4.397   3.996   3.993
    1C        C  324   4.280   4.178   4.114
    1C        C  325   4.324   4.120   4.235
    1C        C  326   4.187   4.284   4.353
    1C        C  327   4.285   4.182   4.356
    1C        C  328   4.136   4.335   4.474
    1C        C  329   4.193   4.295   4.597
    1C        C  330   4.027   4.435   4.713
    1C        C  331   4.144   4.353   4.716
    1C        C  332   3.974   4.496   4.828
    1C        C  333   4.054   4.478   4.942
    1C        C  334   4.553   3.266   2.064
    1C        C  335   4.537   3.127   2.066
    1C        C  336   4.538   3.349   2.176
    1C        C  337   4.509   3.282   2.297
    1C        C  338   4.525   3.495   2.414
    1C        C  339   4.518   3.354   2.418
    1C        C  340   4.521   3.570   2.533
    1C        C  341   4.519   3.503   2.657
    1C        C  342   4.501   3.714   2.777
    1C        C  343   4.522   3.574   2.779
    1C        C  344   4.478   3.781   2.899
    1C        C  345   4.499   3.714   3.021
    1C        C  346   4.418   3.911   3.141
    1C        C  347   4.469   3.780   3.143
    1C        C  348   4.391   3.980   3.261
    1C        C  349   4.428   3.922   3.384
    1C        C  350   4.320   4.107   3.504
    1C        C  351   4.399   3.990   3.505
    1C        C  352   4.279   4.169   3.624
    1C        C  353   4.324   4.113   3.746
    1C        C  354   4.181   4.268   3.866
    1C        C  355   4.279   4.166   3.869
    1C        C  356   4.124   4.315   3.986
    1C        C  357   4.175   4.272   4.111
    1C        C  358   4.013   4.408   4.232
    1C        C  359   4.129   4.327   4.232
    1C        C  360   3.952   4.447   4.353
    1C        C  361   4.018   4.414   4.474
    1C        C  362   3.828   4.517   4.594
    1C        C  363   3.958   4.461   4.592
    1C        C  364   3.762   4.547   4.715
    1C        C  365   3.841   4.543   4.832
    1C        C  366   3.632   4.591   4.949
    1C        C  367   3.771   4.580   4.947
    1C        C  368   4.524   3.566   2.056
    1C        C  369   4.534   3.490   2.174
    1C        C  370   4.499   3.706   2.289
    1C        C  371   4.521   3.567   2.292
    1C        C  372   4.486   3.779   2.410
    1C        C  373   4.503   3.710   2.532
    1C        C  374   4.428   3.909   2.651
    1C        C  375   4.485   3.780   2.653
    1C        C  376   4.394   3.973   2.773
    1C        C  377   4.429   3.913   2.896
    1C        C  378   4.325   4.098   3.013
    1C        C  379   4.399   3.978   3.018
    1C        C  380   4.279   4.157   3.133
    1C        C  381   4.318   4.101   3.257
    1C        C  382   4.176   4.258   3.376
    1C        C  383   4.273   4.155   3.380
    1C        C  384   4.123   4.307   3.497
    1C        C  385   4.177   4.267   3.621
    1C        C  386   4.003   4.384   3.742
    1C        C  387   4.125   4.312   3.744
    1C        C  388   3.944   4.424   3.864
    1C        C  389   4.009   4.397   3.987
    1C        C  390   3.818   4.489   4.108
    1C        C  391   3.950   4.437   4.109
    1C        C  392   3.751   4.513   4.230
    1C        C  393   3.820   4.497   4.352
    1C        C  394   3.617   4.557   4.473
    1C        C  395   3.756   4.532   4.473
    1C        C  396   3.547   4.565   4.595
    1C        C  397   3.622   4.566   4.715
    1C        C  398   3.411   4.557   4.841
    1C        C  399   3.550   4.576   4.837
    1C        C  400   3.343   4.523   4.959
    1C        C  401   4.511   3.704   2.055
    1C        C  402   4.458   3.918   2.170
    1C        C  403   4.495   3.782   2.170
    1C        C  404   4.417   3.984   2.288
    1C        C  405   4.443   3.913   2.408
    1C        C  406   4.330   4.095   2.527
    1C        C  407   4.410   3.978   2.529
    1C        C  408   4.279   4.149   2.647
    1C        C  409   4.318   4.092   2.771
    1C        C  410   4.179   4.253   2.889
    1C        C  411   4.278   4.152   2.892
    1C        C  412   4.121   4.298   3.010
    1C        C  413   4.175   4.252   3.132
    1C        C  414   3.999   4.374   3.253
    1C        C  415   4.117   4.296   3.253
    1C        C  416   3.939   4.411   3.375
    1C        C  417   4.001   4.378   3.498
    1C        C  418   3.812   4.476   3.620
    1C        C  419   3.939   4.414   3.620
    1C        C  420   3.746   4.500   3.742
    1C        C  421   3.815   4.480   3.864
    1C        C  422   3.610   4.533   3.984
    1C        C  423   3.749   4.506   3.986
    1C        C  424   3.542   4.546   4.107
    1C        C  425   3.612   4.537   4.230
    1C        C  426   3.402   4.551   4.356
    1C        C  427   3.544   4.554   4.353
    1C        C  428   3.332   4.550   4.479
    1C        C  429   3.406   4.557   4.599
    1C        C  430   3.197   4.520   4.724
    1C        C  431   3.336   4.548   4.722
    1C        C  432   3.127   4.499   4.845
    1C        C  433   3.206   4.499   4.961
    1C        C  434   4.382   4.123   2.052
    1C        C  435   4.449   4.000   2.056
    1C        C  436   4.302   4.164   2.164
    1C        C  437   4.333   4.098   2.286
    1C        C  438   4.183   4.251   2.403
    1C        C  439   4.285   4.153   2.407
    1C        C  440   4.127   4.296   2.525
    1C        C  441   4.181   4.251   2.647
    1C        C  442   4.004   4.373   2.767
    1C        C  443   4.125   4.299   2.767
    1C        C  444   3.943   4.414   2.887
    1C        C  445   4.003   4.376   3.010
    1C        C  446   3.809   4.466   3.129
    1C        C  447   3.940   4.412   3.131
    1C        C  448   3.745   4.490   3.253
    1C        C  449   3.811   4.471   3.376
    1C        C  450   3.606   4.527   3.493
    1C        C  451   3.744   4.496   3.498
    1C        C  452   3.538   4.539   3.617
    1C        C  453   3.609   4.535   3.740
    1C        C  454   3.399   4.546   3.866
    1C        C  455   3.540   4.544   3.863
    1C        C  456   3.329   4.539   3.988
    1C        C  457   3.401   4.541   4.110
    1C        C  458   3.195   4.510   4.236
    1C        C  459   3.333   4.539   4.234
    1C        C  460   3.130   4.487   4.359
    1C        C  461   3.196   4.513   4.481
    1C        C  462   2.997   4.442   4.603
    1C        C  463   3.127   4.498   4.603
    1C        C  464   2.937   4.400   4.723
    1C        C  465   2.995   4.443   4.846
    1C        C  466   2.804   4.337   4.960
    1C        C  467   2.912   4.427   4.961
    1C        C  468   4.122   4.280   2.041
    1C        C  469   4.187   4.249   2.160
    1C        C  470   4.011   4.375   2.282
    1C        C  471   4.129   4.297   2.281
    1C        C  472   3.943   4.406   2.402
    1C        C  473   4.006   4.369   2.523
    1C        C  474   3.813   4.461   2.643
    1C        C  475   3.942   4.405   2.644
    1C        C  476   3.744   4.485   2.764
    1C        C  477   3.815   4.473   2.886
    1C        C  478   3.605   4.520   3.009
    1C        C  479   3.744   4.493   3.007
    1C        C  480   3.533   4.527   3.130
    1C        C  481   3.606   4.515   3.251
    1C        C  482   3.393   4.535   3.376
    1C        C  483   3.535   4.531   3.371
    1C        C  484   3.326   4.535   3.500
    1C        C  485   3.397   4.543   3.621
    1C        C  486   3.191   4.504   3.746
    1C        C  487   3.328   4.538   3.744
    1C        C  488   3.124   4.487   3.869
    1C        C  489   3.190   4.511   3.991
    1C        C  490   3.002   4.418   4.113
    1C        C  491   3.127   4.485   4.115
    1C        C  492   2.945   4.386   4.238
    1C        C  493   3.001   4.430   4.360
    1C        C  494   2.830   4.307   4.485
    1C        C  495   2.938   4.399   4.482
    1C        C  496   2.782   4.254   4.606
    1C        C  497   2.825   4.313   4.728
    1C        C  498   2.669   4.164   4.846
    1C        C  499   2.754   4.277   4.844
    1C        C  500   2.602   4.118   4.960
    1C        C  501   4.004   4.354   2.044
    1C        C  502   3.818   4.467   2.156
    1C        C  503   3.944   4.404   2.161
    1C        C  504   3.745   4.478   2.277
    1C        C  505   3.812   4.458   2.400
    1C        C  506   3.606   4.511   2.523
    1C        C  507   3.745   4.486   2.521
    1C        C  508   3.533   4.518   2.643
    1C        C  509   3.606   4.514   2.764
    1C        C  510   3.394   4.528   2.884
    1C        C  511   3.535   4.524   2.886
    1C        C  512   3.323   4.530   3.006
    1C        C  513   3.392   4.536   3.129
    1C        C  514   3.186   4.495   3.255
    1C        C  515   3.324   4.527   3.253
    1C        C  516   3.121   4.473   3.379
    1C        C  517   3.188   4.503   3.500
    1C        C  518   3.000   4.411   3.626
    1C        C  519   3.123   4.480   3.624
    1C        C  520   2.944   4.372   3.749
    1C        C  521   3.004   4.412   3.870
    1C        C  522   2.833   4.287   3.997
    1C        C  523   2.944   4.373   3.992
    1C        C  524   2.788   4.240   4.123
    1C        C  525   2.839   4.292   4.244
    1C        C  526   2.700   4.133   4.366
    1C        C  527   2.784   4.247   4.365
    1C        C  528   2.658   4.077   4.488
    1C        C  529   2.691   4.146   4.607
    1C        C  530   2.588   3.960   4.732
    1C        C  531   2.649   4.088   4.729
    1C        C  532   2.544   3.902   4.854
    1C        C  533   2.534   3.996   4.962
    1C        C  534   3.620   4.561   2.043
    1C        C  535   3.750   4.510   2.041
    1C        C  536   3.537   4.538   2.157
    1C        C  537   3.607   4.511   2.278
    1C        C  538   3.395   4.515   2.401
    1C        C  539   3.536   4.519   2.400
    1C        C  540   3.319   4.515   2.520
    1C        C  541   3.392   4.517   2.640
    1C        C  542   3.184   4.490   2.764
    1C        C  543   3.322   4.517   2.763
    1C        C  544   3.121   4.468   2.888
    1C        C  545   3.186   4.495   3.011
    1C        C  546   2.994   4.409   3.136
    1C        C  547   3.119   4.475   3.133
    1C        C  548   2.939   4.367   3.260
    1C        C  549   2.997   4.407   3.382
    1C        C  550   2.829   4.281   3.507
    1C        C  551   2.936   4.373   3.505
    1C        C  552   2.779   4.232   3.630
    1C        C  553   2.834   4.283   3.750
    1C        C  554   2.712   4.114   3.875
    1C        C  555   2.790   4.232   3.874
    1C        C  556   2.670   4.062   4.000
    1C        C  557   2.705   4.126   4.121
    1C        C  558   2.605   3.943   4.246
    1C        C  559   2.664   4.071   4.244
    1C        C  560   2.575   3.879   4.368
    1C        C  561   2.601   3.948   4.489
    1C        C  562   2.537   3.750   4.616
    1C        C  563   2.570   3.887   4.612
    1C        C  564   2.516   3.683   4.738
    1C        C  565   2.526   3.760   4.857
    1C        C  566   2.530   3.549   4.977
    1C        C  567   2.533   3.688   4.976
    1C        C  568   3.334   4.469   2.042
    1C        C  569   3.396   4.520   2.157
    1C        C  570   3.188   4.473   2.280
    1C        C  571   3.323   4.516   2.280
    1C        C  572   3.115   4.454   2.399
    1C        C  573   3.180   4.485   2.520
    1C        C  574   2.988   4.404   2.647
    1C        C  575   3.113   4.469   2.643
    1C        C  576   2.933   4.362   2.770
    1C        C  577   2.998   4.398   2.891
    1C        C  578   2.831   4.272   3.017
    1C        C  579   2.939   4.362   3.014
    1C        C  580   2.781   4.225   3.141
    1C        C  581   2.832   4.275   3.262
    1C        C  582   2.700   4.112   3.385
    1C        C  583   2.782   4.228   3.386
    1C        C  584   2.666   4.055   3.509
    1C        C  585   2.694   4.119   3.632
    1C        C  586   2.599   3.932   3.757
    1C        C  587   2.665   4.057   3.755
    1C        C  588   2.573   3.872   3.882
    1C        C  589   2.604   3.937   4.004
    1C        C  590   2.536   3.738   4.126
    1C        C  591   2.576   3.873   4.126
    1C        C  592   2.523   3.674   4.252
    1C        C  593   2.533   3.744   4.374
    1C        C  594   2.520   3.534   4.499
    1C        C  595   2.519   3.676   4.497
    1C        C  596   2.522   3.466   4.622
    1C        C  597   2.515   3.540   4.742
    1C        C  598   2.534   3.327   4.864
    1C        C  599   2.524   3.468   4.863
    1C        C  600   2.531   3.250   4.980
    1C        C  601   3.199   4.442   2.044
    1C        C  602   2.985   4.391   2.158
    1C        C  603   3.119   4.441   2.159
    1C        C  604   2.922   4.359   2.282
    1C        C  605   2.987   4.393   2.402
    1C        C  606   2.818   4.274   2.528
    1C        C  607   2.927   4.364   2.526
    1C        C  608   2.773   4.219   2.651
    1C        C  609   2.823   4.272   2.771
    1C        C  610   2.695   4.108   2.895
    1C        C  611   2.782   4.220   2.895
    1C        C  612   2.656   4.052   3.019
    1C        C  613   2.695   4.113   3.140
    1C        C  614   2.598   3.926   3.266
    1C        C  615   2.659   4.053   3.263
    1C        C  616   2.575   3.861   3.389
    1C        C  617   2.604   3.928   3.510
    1C        C  618   2.536   3.731   3.638
    1C        C  619   2.574   3.867   3.634
    1C        C  620   2.521   3.663   3.761
    1C        C  621   2.537   3.736   3.881
    1C        C  622   2.517   3.526   4.009
    1C        C  623   2.527   3.667   4.004
    1C        C  624   2.518   3.459   4.134
    1C        C  625   2.517   3.533   4.254
    1C        C  626   2.543   3.323   4.377
    1C        C  627   2.524   3.463   4.377
    1C        C  628   2.560   3.258   4.501
    1C        C  629   2.539   3.326   4.623
    1C        C  630   2.594   3.119   4.744
    1C        C  631   2.548   3.254   4.744
    1C        C  632   2.616   3.048   4.865
    1C        C  633   2.563   3.113   4.982
    1C        C  634   2.776   4.307   2.056
    1C        C  635   2.887   4.394   2.054
    1C        C  636   2.747   4.230   2.169
    1C        C  637   2.808   4.275   2.288
    1C        C  638   2.680   4.106   2.411
    1C        C  639   2.760   4.223   2.410
    1C        C  640   2.643   4.046   2.533
    1C        C  641   2.690   4.105   2.652
    1C        C  642   2.580   3.925   2.778
    1C        C  643   2.652   4.047   2.775
    1C        C  644   2.558   3.860   2.901
    1C        C  645   2.593   3.926   3.021
    1C        C  646   2.530   3.725   3.149
    1C        C  647   2.567   3.861   3.144
    1C        C  648   2.512   3.657   3.271
    1C        C  649   2.529   3.728   3.393
    1C        C  650   2.510   3.520   3.518
    1C        C  651   2.517   3.661   3.517
    1C        C  652   2.511   3.452   3.642
    1C        C  653   2.510   3.522   3.765
    1C        C  654   2.539   3.315   3.889
    1C        C  655   2.513   3.453   3.888
    1C        C  656   2.546   3.246   4.013
    1C        C  657   2.530   3.319   4.133
    1C        C  658   2.602   3.120   4.259
    1C        C  659   2.551   3.251   4.255
    1C        C  660   2.636   3.057   4.381
    1C        C  661   2.604   3.123   4.501
    1C        C  662   2.715   2.943   4.624
    1C        C  663   2.632   3.057   4.623
    1C        C  664   2.753   2.882   4.746
    1C        C  665   2.694   2.928   4.867
    1C        C  666   2.741   2.867   4.984
    1C        C  667   2.687   4.022   2.055
    1C        C  668   2.687   4.102   2.170
    1C        C  669   2.582   3.914   2.291
    1C        C  670   2.648   4.040   2.290
    1C        C  671   2.558   3.849   2.414
    1C        C  672   2.583   3.918   2.535
    1C        C  673   2.511   3.720   2.661
    1C        C  674   2.551   3.855   2.658
    1C        C  675   2.504   3.651   2.784
    1C        C  676   2.524   3.723   2.904
    1C        C  677   2.499   3.514   3.030
    1C        C  678   2.513   3.654   3.027
    1C        C  679   2.502   3.442   3.152
    1C        C  680   2.502   3.516   3.272
    1C        C  681   2.529   3.308   3.400
    1C        C  682   2.510   3.448   3.396
    1C        C  683   2.547   3.242   3.523
    1C        C  684   2.528   3.312   3.645
    1C        C  685   2.601   3.113   3.770
    1C        C  686   2.549   3.244   3.767
    1C        C  687   2.635   3.053   3.893
    1C        C  688   2.600   3.115   4.015
    1C        C  689   2.707   2.934   4.139
    1C        C  690   2.631   3.053   4.137
    1C        C  691   2.758   2.884   4.261
    1C        C  692   2.715   2.940   4.384
    1C        C  693   2.758   2.881   4.505
    1C        C  694   2.631   3.893   2.061
    1C        C  695   2.526   3.702   2.175
    1C        C  696   2.577   3.833   2.175
    1C        C  697   2.506   3.638   2.300
    1C        C  698   2.524   3.712   2.418
    1C        C  699   2.496   3.505   2.545
    1C        C  700   2.502   3.646   2.541
    1C        C  701   2.502   3.435   2.668
    1C        C  702   2.501   3.510   2.788
    1C        C  703   2.524   3.299   2.910
    1C        C  704   2.505   3.439   2.910
    1C        C  705   2.544   3.233   3.033
    1C        C  706   2.531   3.304   3.155
    1C        C  707   2.599   3.107   3.281
    1C        C  708   2.547   3.238   3.278
    1C        C  709   2.634   3.045   3.403
    1C        C  710   2.599   3.111   3.524
    1C        C  711   2.714   2.935   3.651
    1C        C  712   2.631   3.050   3.647
    1C        C  713   2.759   2.880   3.773
    1C        C  714   2.715   2.936   3.895
    1C        C  715   2.754   2.878   4.018
    1C        C  716   2.447   3.499   2.064
    1C        C  717   2.483   3.635   2.060
    1C        C  718   2.470   3.423   2.183
    1C        C  719   2.481   3.498   2.304
    1C        C  720   2.518   3.289   2.425
    1C        C  721   2.493   3.429   2.426
    1C        C  722   2.539   3.221   2.546
    1C        C  723   2.526   3.296   2.665
    1C        C  724   2.591   3.097   2.792
    1C        C  725   2.538   3.228   2.788
    1C        C  726   2.621   3.034   2.915
    1C        C  727   2.589   3.099   3.036
    1C        C  728   2.703   2.922   3.160
    1C        C  729   2.623   3.039   3.159
    1C        C  730   2.755   2.874   3.282
    1C        C  731   2.712   2.928   3.405
    1C        C  732   2.758   2.879   3.530
    1C        C  733   2.498   3.199   2.071
    1C        C  734   2.496   3.283   2.183
    1C        C  735   2.587   3.086   2.306
    1C        C  736   2.530   3.217   2.304
    1C        C  737   2.619   3.021   2.427
    1C        C  738   2.585   3.087   2.547
    1C        C  739   2.700   2.913   2.668
    1C        C  740   2.621   3.030   2.672
    1C        C  741   2.742   2.860   2.792
    1C        C  742   2.704   2.919   2.915
    1C        C  743   2.747   2.865   3.038
    1C        C  744   2.554   3.072   2.072
    1C        C  745   2.686   2.895   2.183
    1C        C  746   2.613   3.016   2.186
    1C        C  747   2.726   2.839   2.306
    1C        C  748   2.687   2.898   2.428
    1C        C  749   2.741   2.848   2.549
    1C        C  750   2.738   2.838   2.067
    1C        C  751   3.663   2.299   1.996
    1C        O  752   3.706   2.205   2.067
    1C        O  753   3.721   2.310   1.869
    1C        C  754   4.638   3.057   1.984
    1C        O  755   4.622   3.033   1.861
    1C        O  756   4.775   3.046   2.015
    1C        C  757   4.452   4.229   1.976
    1C        O  758   4.511   4.319   2.043
    1C        O  759   4.433   4.252   1.839
    1C        C  760   3.602   4.674   1.949
    1C        O  761   3.680   4.772   1.936
    1C        O  762   3.502   4.682   1.852
    1C        C  763   2.869   4.517   1.974
    1C        O  764   2.896   4.523   1.851
    1C        O  765   2.785   4.622   2.015
    1C        C  766   2.321   3.474   1.990
    1C        O  767   2.313   3.419   1.877
    1C        O  768   2.191   3.486   2.040
    1C        C  769   4.711   3.595   5.037
    1C        O  770   4.714   3.635   5.157
    1C        O  771   4.834   3.609   4.973
    1C        C  772   4.284   4.468   5.019
    1C        O  773   4.351   4.395   5.096
    1C        O  774   4.364   4.564   4.956
    1C        C  775   4.144   2.497   5.045
    1C        O  776   4.196   2.389   5.005
    1C        O  777   4.158   2.501   5.184
    1C        C  778   2.882   4.545   5.045
    1C        O  779   2.819   4.639   4.989
    1C        O  780   2.897   4.555   5.183
    1C        C  781   2.473   3.043   5.076
    1C        O  782   2.381   2.965   5.039
    1C        O  783   2.512   3.027   5.208
    1C        C  784   2.403   4.005   5.032
    1C        O  785   2.321   4.084   4.977
    1C        O  786   2.376   3.969   5.164
    1C        C  787   2.946   2.427   2.011
    1C        O  788   2.948   2.440   1.886
    1C        O  789   2.917   2.302   2.065
    1C        C  790   3.186   2.367   5.046
    1C        O  791   3.178   2.260   4.982
    1C        O  792   3.209   2.355   5.184
    1C        H  793   4.290   3.029   5.062
    1C        H  794   4.156   2.832   5.064
    1C        H  795   4.519   3.126   5.053
    1C        H  796   4.488   3.372   5.065
    1C        H  797   4.570   3.816   5.043
    1C        H  798   4.420   3.975   5.058
    1C        H  799   4.277   4.168   5.050
    1C        H  800   4.018   4.520   5.034
    1C        H  801   3.826   4.646   5.010
    1C        H  802   3.586   4.650   5.026
    1C        H  803   3.397   4.491   5.046
    1C        H  804   3.162   4.531   5.053
    1C        H  805   3.899   2.482   5.065
    1C        H  806   3.677   2.485   5.079
    1C        H  807   3.009   2.568   5.070
    1C        H  808   3.443   2.503   5.076
    1C        H  809   2.916   2.788   5.062
    1C        H  810   2.706   2.897   5.081
    1C        H  811   2.497   3.293   5.072
    1C        H  812   2.542   3.504   5.074
    1C        H  813   2.563   3.745   5.061
    1C        H  814   2.605   4.171   5.053
    1C        H  815   2.773   4.299   5.056
    1C        H  816   2.692   2.857   1.972
    1C        H  817   2.846   2.677   1.977
    1C        H  818   3.219   2.461   1.988
    1C        H  819   3.432   2.439   1.980
    1C        H  820   3.883   2.476   1.981
    1C        H  821   4.076   2.584   1.974
    1C        H  822   4.261   2.714   1.978
    1C        H  823   4.378   2.927   1.966
    1C        H  824   4.595   3.307   1.974
    1C        H  825   4.484   3.511   1.973
    1C        H  826   4.537   3.753   1.964
    1C        H  827   3.812   4.542   1.960
    1C        H  828   3.945   4.345   1.955
    1C        H  829   4.163   4.256   1.945
    1C        H  830   4.480   3.955   1.965
    1C        H  831   2.658   3.831   1.977
    1C        H  832   2.763   4.038   1.982
    1C        H  833   2.715   4.293   1.969
    1C        H  834   3.394   4.418   1.969
    1C        H  835   3.156   4.401   1.955
    1C        H  836   2.491   3.005   2.017
    1C        H  837   2.446   3.226   1.981
    1C        H  838   2.483   3.684   1.965
    2V3OU   H29  839   2.804   3.558   5.052
    2V3OU   C27  840   2.784   3.506   5.149
    2V3OU   H27  841   2.724   3.572   5.217
    2V3OU   H28  842   2.732   3.408   5.132
    2V3OU   O11  843   2.911   3.486   5.211
    2V3OU   C15  844   2.919   3.395   5.315
    2V3OU   C13  845   3.051   3.373   5.358
    2V3OU   C14  846   3.076   3.261   5.438
    2V3OU   C16  847   2.973   3.184   5.490
    2V3OU    H6  848   2.997   3.102   5.560
    2V3OU   C12  849   3.216   3.229   5.474
    2V3OU    O2  850   3.241   3.125   5.539
    2V3OU   C10  851   3.325   3.315   5.426
    2V3OU    C8  852   3.458   3.275   5.439
    2V3OU   O10  853   3.488   3.151   5.485
    2V3OU   H26  854   3.407   3.117   5.527
    2V3OU    C6  855   3.567   3.353   5.392
    2V3OU    C5  856   3.537   3.466   5.317
    2V3OU    C4  857   3.704   3.295   5.380
    2V3OU    H4  858   3.723   3.227   5.469
    2V3OU    H5  859   3.711   3.231   5.288
    2V3OU    C2  860   3.819   3.396   5.380
    2V3OU    O6  861   3.810   3.472   5.501
    2V3OU   H21  862   3.765   3.553   5.473
    2V3OU    C3  863   3.783   3.492   5.267
    2V3OU    H2  864   3.861   3.571   5.249
    2V3OU    H3  865   3.779   3.433   5.172
    2V3OU   C25  866   3.956   3.331   5.363
    2V3OU    O7  867   3.995   3.298   5.251
    2V3OU   C26  868   4.030   3.291   5.490
    2V3OU   H22  869   4.076   3.384   5.533
    2V3OU   H23  870   4.121   3.231   5.462
    2V3OU    O8  871   3.972   3.203   5.583
    2V3OU   H24  872   3.930   3.262   5.648
    2V3OU    C1  873   3.648   3.559   5.278
    2V3OU    H1  874   3.627   3.618   5.184
    2V3OU    O3  875   3.659   3.653   5.386
    2V3OU   C19  876   3.620   3.791   5.385
    2V3OU    H9  877   3.520   3.799   5.333
    2V3OU    O4  878   3.712   3.853   5.298
    2V3OU   C20  879   3.844   3.875   5.350
    2V3OU   H10  880   3.882   3.770   5.366
    2V3OU   C24  881   3.614   3.858   5.522
    2V3OU   H16  882   3.542   3.803   5.587
    2V3OU   H17  883   3.569   3.958   5.498
    2V3OU   C23  884   3.753   3.878   5.584
    2V3OU   H15  885   3.796   3.774   5.604
    2V3OU    N1  886   3.738   3.953   5.707
    2V3OU   H19  887   3.807   3.919   5.771
    2V3OU   H20  888   3.650   3.927   5.747
    2V3OU   C21  889   3.849   3.950   5.484
    2V3OU   H11  890   3.953   3.931   5.522
    2V3OU    O5  891   3.822   4.089   5.484
    2V3OU   H18  892   3.780   4.102   5.571
    2V3OU   C22  893   3.916   3.948   5.238
    2V3OU   H12  894   3.870   4.049   5.219
    2V3OU   H13  895   3.911   3.888   5.144
    2V3OU   H14  896   4.023   3.962   5.268
    2V3OU   C11  897   3.156   3.471   5.328
    2V3OU    O1  898   3.134   3.584   5.278
    2V3OU    C9  899   3.297   3.435   5.356
    2V3OU    C7  900   3.401   3.509   5.302
    2V3OU    O9  901   3.387   3.615   5.214
    2V3OU   H25  902   3.291   3.633   5.218
    2V3OU   C17  903   2.816   3.319   5.375
    2V3OU    H7  904   2.715   3.343   5.342
    2V3OU   C18  905   2.840   3.214   5.463
    2V3OU    H8  906   2.757   3.151   5.497
    3SOL     OW  907   3.912   3.867   4.543
    3SOL    HW1  908   3.924   3.935   4.615
    3SOL    HW2  909   3.912   3.775   4.583
    4SOL     OW  910   6.457   7.021   0.626
    4SOL    HW1  911   6.409   6.933   0.628
    4SOL    HW2  912   6.491   0.014   0.534
    5SOL     OW  913   4.380   1.110   1.154
    5SOL    HW1  914   4.395   1.124   1.251
    5SOL    HW2  915   4.459   1.064   1.114
    6SOL     OW  916   5.524   0.222   1.985
    6SOL    HW1  917   5.549   0.319   1.975
    6SOL    HW2  918   5.439   0.204   1.935
    7SOL     OW  919   2.376   4.386   3.731
    7SOL    HW1  920   2.447   4.369   3.663
    7SOL    HW2  921   2.418   4.425   3.813
    8SOL     OW  922   2.089   3.025   5.724
    8SOL    HW1  923   1.996   2.999   5.697
    8SOL    HW2  924   2.093   3.038   5.823
    9SOL     OW  925   6.102   1.202   6.544
    9SOL    HW1  926   6.037   1.267   6.505
    9SOL    HW2  927   6.107   1.216   6.643
   10SOL     OW  928   4.676   4.826   3.368
   10SOL    HW1  929   4.686   4.898   3.437
   10SOL    HW2  930   4.590   4.840   3.318
   11SOL     OW  931   1.919   0.988   0.653
   11SOL    HW1  932   1.894   0.927   0.728
   11SOL    HW2  933   2.007   1.031   0.673
   12SOL     OW  934   3.113   5.245   3.477
   12SOL    HW1  935   3.200   5.197   3.460
   12SOL    HW2  936   3.051   5.230   3.401
   13SOL     OW  937   4.617   5.828   1.995
   13SOL    HW1  938   4.709   5.812   2.030
   13SOL    HW2  939   4.596   5.763   1.922
   14SOL     OW  940   4.374   5.172   4.920
   14SOL    HW1  941   4.400   5.140   4.830
   14SOL    HW2  942   4.435   5.133   4.989
   15SOL     OW  943   6.922   5.665   6.129
   15SOL    HW1  944   6.884   5.752   6.100
   15SOL    HW2  945   6.855   5.592   6.115
   16SOL     OW  946   0.341   3.702   5.410
   16SOL    HW1  947   0.406   3.689   5.335
   16SOL    HW2  948   0.388   3.689   5.497
   17SOL     OW  949   6.144   1.223   5.626
   17SOL    HW1  950   6.196   1.290   5.678
   17SOL    HW2  951   6.101   1.158   5.688
   18SOL     OW  952   3.386   0.812   5.591
   18SOL    HW1  953   3.441   0.761   5.657
   18SOL    HW2  954   3.301   0.842   5.635
   19SOL     OW  955   1.180   1.506   3.008
   19SOL    HW1  956   1.241   1.558   3.068
   19SOL    HW2  957   1.191   1.537   2.914
   20SOL     OW  958   5.685   1.853   5.369
   20SOL    HW1  959   5.728   1.763   5.381
   20SOL    HW2  960   5.593   1.851   5.407
   21SOL     OW  961   2.755   5.550   2.340
   21SOL    HW1  962   2.726   5.622   2.276
   21SOL    HW2  963   2.686   5.477   2.341
   22SOL     OW  964   2.319   6.394   5.580
   22SOL    HW1  965   2.262   6.476   5.573
   22SOL    HW2  966   2.274   6.327   5.638
   23SOL     OW  967   5.239   4.060   1.892
   23SOL    HW1  968   5.211   4.014   1.977
   23SOL    HW2  969   5.318   4.118   1.909
   24SOL     OW  970   4.454   0.627   1.698
   24SOL    HW1  971   4.355   0.613   1.702
   24SOL    HW2  972   4.480   0.655   1.606
   25SOL     OW  973   2.471   0.378   4.196
   25SOL    HW1  974   2.510   0.328   4.273
   25SOL    HW2  975   2.536   0.377   4.120
   26SOL     OW  976   0.719   3.142   6.992
   26SOL    HW1  977   0.756   3.235   6.997
   26SOL    HW2  978   0.743   3.101   6.904
   27SOL     OW  979   6.384   1.346   1.049
   27SOL    HW1  980   6.478   1.363   1.018
   27SOL    HW2  981   6.386   1.287   1.130
   28SOL     OW  982   2.747   0.758   4.759
   28SOL    HW1  983   2.756   0.706   4.674
   28SOL    HW2  984   2.838   0.770   4.800
   29SOL     OW  985   6.991   0.569   0.422
   29SOL    HW1  986   6.909   0.542   0.370
   29SOL    HW2  987   0.021   0.488   0.441
   30SOL     OW  988   4.161   0.561   5.294
   30SOL    HW1  989   4.226   0.496   5.255
   30SOL    HW2  990   4.083   0.511   5.331
   31SOL     OW  991   0.768   2.974   5.028
   31SOL    HW1  992   0.815   3.042   5.085
   31SOL    HW2  993   0.737   3.017   4.943
   32SOL     OW  994   1.880   7.018   1.246
   32SOL    HW1  995   1.912   0.064   1.308
   32SOL    HW2  996   1.876   0.030   1.153
   33SOL     OW  997   0.406   5.106   6.147
   33SOL    HW1  998   0.471   5.182   6.157
   33SOL    HW2  999   0.450   5.033   6.095
   34SOL     OW 1000   2.158   4.935   5.319
   34SOL    HW1 1001   2.091   5.005   5.293
   34SOL    HW2 1002   2.111   4.856   5.357
   35SOL     OW 1003   3.577   2.920   0.348
   35SOL    HW1 1004   3.528   2.925   0.260
   35SOL    HW2 1005   3.512   2.938   0.422
   36SOL     OW 1006   4.729   0.767   4.291
   36SOL    HW1 1007   4.706   0.672   4.314
   36SOL    HW2 1008   4.786   0.806   4.364
   37SOL     OW 1009   2.071   1.161   3.522
   37SOL    HW1 1010   2.069   1.065   3.552
   37SOL    HW2 1011   2.153   1.177   3.467
   38SOL     OW 1012   0.550   4.741   2.434
   38SOL    HW1 1013   0.554   4.712   2.338
   38SOL    HW2 1014   0.635   4.788   2.458
   39SOL     OW 1015   6.620   5.082   6.250
   39SOL    HW1 1016   6.595   5.139   6.328
   39SOL    HW2 1017   6.600   5.131   6.165
   40SOL     OW 1018   3.947   0.770   6.323
   40SOL    HW1 1019   3.867   0.746   6.378
   40SOL    HW2 1020   3.951   0.869   6.309
   41SOL     OW 1021   6.320   4.054   1.604
   41SOL    HW1 1022   6.292   4.036   1.510
   41SOL    HW2 1023   6.385   4.131   1.605
   42SOL     OW 1024   2.167   5.662   5.857
   42SOL    HW1 1025   2.101   5.652   5.782
   42SOL    HW2 1026   2.239   5.725   5.828
   43SOL     OW 1027   4.843   6.575   4.343
   43SOL    HW1 1028   4.939   6.605   4.341
   43SOL    HW2 1029   4.839   6.481   4.375
   44SOL     OW 1030   6.022   2.131   5.982
   44SOL    HW1 1031   6.060   2.147   5.892
   44SOL    HW2 1032   5.937   2.078   5.973
   45SOL     OW 1033   3.603   4.979   0.116
   45SOL    HW1 1034   3.616   4.891   0.162
   45SOL    HW2 1035   3.678   5.041   0.142
   46SOL     OW 1036   0.623   3.097   4.427
   46SOL    HW1 1037   0.554   3.038   4.385
   46SOL    HW2 1038   0.610   3.191   4.393
   47SOL     OW 1039   5.864   2.792   1.689
   47SOL    HW1 1040   5.804   2.713   1.677
   47SOL    HW2 1041   5.956   2.769   1.658
   48SOL     OW 1042   6.549   3.852   0.333
   48SOL    HW1 1043   6.559   3.764   0.379
   48SOL    HW2 1044   6.474   3.847   0.267
   49SOL     OW 1045   3.904   2.965   6.986
   49SOL    HW1 1046   3.879   2.925   6.897
   49SOL    HW2 1047   3.839   2.934   0.030
   50SOL     OW 1048   6.222   3.538   6.524
   50SOL    HW1 1049   6.240   3.444   6.495
   50SOL    HW2 1050   6.243   3.600   6.448
   51SOL     OW 1051   2.417   5.982   2.959
   51SOL    HW1 1052   2.512   5.979   2.928
   51SOL    HW2 1053   2.412   5.950   3.054
   52SOL     OW 1054   5.712   2.331   1.762
   52SOL    HW1 1055   5.695   2.415   1.813
   52SOL    HW2 1056   5.632   2.271   1.770
   53SOL     OW 1057   3.752   0.705   2.643
   53SOL    HW1 1058   3.840   0.735   2.606
   53SOL    HW2 1059   3.713   0.779   2.698
   54SOL     OW 1060   5.277   6.931   0.103
   54SOL    HW1 1061   5.209   6.862   0.126
   54SOL    HW2 1062   5.329   6.902   0.022
   55SOL     OW 1063   1.439   3.304   6.156
   55SOL    HW1 1064   1.380   3.254   6.092
   55SOL    HW2 1065   1.436   3.401   6.135
   56SOL     OW 1066   1.278   2.235   6.700
   56SOL    HW1 1067   1.235   2.218   6.789
   56SOL    HW2 1068   1.292   2.148   6.652
   57SOL     OW 1069   4.522   0.907   6.999
   57SOL    HW1 1070   4.466   0.988   7.017
   57SOL    HW2 1071   4.531   0.853   0.057
   58SOL     OW 1072   0.872   0.750   6.363
   58SOL    HW1 1073   0.891   0.681   6.433
   58SOL    HW2 1074   0.903   0.717   6.274
   59SOL     OW 1075   5.185   3.470   6.092
   59SOL    HW1 1076   5.217   3.518   6.173
   59SOL    HW2 1077   5.085   3.467   6.092
   60SOL     OW 1078   5.415   0.468   2.759
   60SOL    HW1 1079   5.429   0.534   2.685
   60SOL    HW2 1080   5.328   0.486   2.804
   61SOL     OW 1081   7.000   0.181   5.027
   61SOL    HW1 1082   6.991   0.235   5.111
   61SOL    HW2 1083   6.957   0.091   5.039
   62SOL     OW 1084   7.018   1.968   2.265
   62SOL    HW1 1085   6.929   1.976   2.221
   62SOL    HW2 1086   0.027   2.059   2.289
   63SOL     OW 1087   4.273   6.401   4.890
   63SOL    HW1 1088   4.334   6.322   4.890
   63SOL    HW2 1089   4.216   6.400   4.808
   64SOL     OW 1090   0.846   4.760   0.152
   64SOL    HW1 1091   0.891   4.703   0.084
   64SOL    HW2 1092   0.805   4.702   0.222
   65SOL     OW 1093   0.699   0.517   5.487
   65SOL    HW1 1094   0.671   0.613   5.493
   65SOL    HW2 1095   0.653   0.464   5.558
   66SOL     OW 1096   4.208   0.543   2.360
   66SOL    HW1 1097   4.281   0.612   2.361
   66SOL    HW2 1098   4.227   0.476   2.288
   67SOL     OW 1099   0.772   2.358   1.108
   67SOL    HW1 1100   0.680   2.326   1.085
   67SOL    HW2 1101   0.836   2.281   1.100
   68SOL     OW 1102   6.541   2.630   5.767
   68SOL    HW1 1103   6.622   2.584   5.732
   68SOL    HW2 1104   6.569   2.708   5.824
   69SOL     OW 1105   0.909   4.879   6.083
   69SOL    HW1 1106   0.894   4.880   6.182
   69SOL    HW2 1107   0.987   4.938   6.061
   70SOL     OW 1108   5.200   3.227   4.551
   70SOL    HW1 1109   5.130   3.283   4.505
   70SOL    HW2 1110   5.186   3.131   4.529
   71SOL     OW 1111   4.370   1.502   4.215
   71SOL    HW1 1112   4.405   1.583   4.263
   71SOL    HW2 1113   4.429   1.424   4.236
   72SOL     OW 1114   0.285   0.744   3.533
   72SOL    HW1 1115   0.376   0.756   3.573
   72SOL    HW2 1116   0.292   0.691   3.449
   73SOL     OW 1117   2.499   0.728   0.947
   73SOL    HW1 1118   2.518   0.818   0.986
   73SOL    HW2 1119   2.400   0.715   0.941
   74SOL     OW 1120   1.858   2.064   0.037
   74SOL    HW1 1121   1.921   2.025   0.104
   74SOL    HW2 1122   1.765   2.065   0.074
   75SOL     OW 1123   4.044   2.321   0.484
   75SOL    HW1 1124   4.071   2.413   0.457
   75SOL    HW2 1125   4.099   2.291   0.562
   76SOL     OW 1126   3.275   4.731   5.452
   76SOL    HW1 1127   3.225   4.645   5.440
   76SOL    HW2 1128   3.221   4.806   5.415
   77SOL     OW 1129   2.081   4.286   4.066
   77SOL    HW1 1130   2.011   4.313   4.001
   77SOL    HW2 1131   2.059   4.196   4.104
   78SOL     OW 1132   4.419   1.831   0.871
   78SOL    HW1 1133   4.446   1.898   0.940
   78SOL    HW2 1134   4.487   1.757   0.868
   79SOL     OW 1135   2.010   5.247   2.477
   79SOL    HW1 1136   1.960   5.194   2.545
   79SOL    HW2 1137   2.097   5.202   2.456
   80SOL     OW 1138   4.599   1.800   4.878
   80SOL    HW1 1139   4.682   1.748   4.899
   80SOL    HW2 1140   4.604   1.835   4.785
   81SOL     OW 1141   2.976   5.870   1.439
   81SOL    HW1 1142   2.955   5.924   1.521
   81SOL    HW2 1143   2.909   5.890   1.367
   82SOL     OW 1144   1.327   6.152   1.421
   82SOL    HW1 1145   1.320   6.135   1.520
   82SOL    HW2 1146   1.238   6.138   1.378
   83SOL     OW 1147   5.306   1.381   4.765
   83SOL    HW1 1148   5.242   1.376   4.841
   83SOL    HW2 1149   5.333   1.477   4.750
   84SOL     OW 1150   5.820   2.567   2.981
   84SOL    HW1 1151   5.833   2.533   2.888
   84SOL    HW2 1152   5.841   2.494   3.046
   85SOL     OW 1153   2.195   0.406   4.203
   85SOL    HW1 1154   2.294   0.413   4.213
   85SOL    HW2 1155   2.151   0.477   4.258
   86SOL     OW 1156   5.421   0.762   6.742
   86SOL    HW1 1157   5.349   0.704   6.781
   86SOL    HW2 1158   5.507   0.710   6.740
   87SOL     OW 1159   3.071   4.359   6.720
   87SOL    HW1 1160   3.150   4.308   6.754
   87SOL    HW2 1161   2.989   4.303   6.732
   88SOL     OW 1162   2.855   3.810   6.973
   88SOL    HW1 1163   2.831   3.769   0.036
   88SOL    HW2 1164   2.942   3.859   6.983
   89SOL     OW 1165   3.044   3.848   2.988
   89SOL    HW1 1166   2.993   3.827   3.072
   89SOL    HW2 1167   3.049   3.765   2.932
   90SOL     OW 1168   4.735   4.137   2.971
   90SOL    HW1 1169   4.817   4.079   2.964
   90SOL    HW2 1170   4.674   4.117   2.895
   91SOL     OW 1171   5.377   5.155   6.146
   91SOL    HW1 1172   5.457   5.204   6.181
   91SOL    HW2 1173   5.304   5.221   6.128
   92SOL     OW 1174   5.398   4.086   6.599
   92SOL    HW1 1175   5.310   4.110   6.641
   92SOL    HW2 1176   5.466   4.074   6.671
   93SOL     OW 1177   2.847   3.373   2.174
   93SOL    HW1 1178   2.924   3.310   2.189
   93SOL    HW2 1179   2.761   3.326   2.194
   94SOL     OW 1180   3.261   1.575   6.058
   94SOL    HW1 1181   3.305   1.574   5.969
   94SOL    HW2 1182   3.239   1.481   6.086
   95SOL     OW 1183   0.339   0.651   4.379
   95SOL    HW1 1184   0.287   0.697   4.452
   95SOL    HW2 1185   0.301   0.560   4.364
   96SOL     OW 1186   4.531   5.103   0.461
   96SOL    HW1 1187   4.625   5.081   0.485
   96SOL    HW2 1188   4.469   5.064   0.529
   97SOL     OW 1189   1.926   5.100   5.266
   97SOL    HW1 1190   1.928   5.142   5.356
   97SOL    HW2 1191   1.833   5.068   5.246
   98SOL     OW 1192   0.772   2.959   3.080
   98SOL    HW1 1193   0.714   2.916   3.149
   98SOL    HW2 1194   0.852   2.901   3.063
   99SOL     OW 1195   4.023   3.145   4.380
   99SOL    HW1 1196   3.948   3.084   4.354
   99SOL    HW2 1197   4.073   3.174   4.299
  100SOL     OW 1198   0.102   6.985   3.666
  100SOL    HW1 1199   0.142   6.965   3.755
  100SOL    HW2 1200   0.115   0.056   3.643
  101SOL     OW 1201   6.944   3.345   2.810
  101SOL    HW1 1202   6.882   3.302   2.745
  101SOL    HW2 1203   0.008   3.358   2.768
  102SOL     OW 1204   2.634   6.824   0.905
  102SOL    HW1 1205   2.697   6.747   0.916
  102SOL    HW2 1206   2.679   6.896   0.852
  103SOL     OW 1207   2.228   0.536   1.650
  103SOL    HW1 1208   2.168   0.616   1.652
  103SOL    HW2 1209   2.323   0.567   1.645
  104SOL     OW 1210   0.989   4.803   1.382
  104SOL    HW1 1211   1.050   4.879   1.405
  104SOL    HW2 1212   0.954   4.762   1.467
  105SOL     OW 1213   5.011   1.590   5.978
  105SOL    HW1 1214   4.955   1.565   6.057
  105SOL    HW2 1215   5.006   1.689   5.964
  106SOL     OW 1216   5.853   5.294   2.159
  106SOL    HW1 1217   5.845   5.232   2.237
  106SOL    HW2 1218   5.932   5.269   2.104
  107SOL     OW 1219   6.002   0.414   0.904
  107SOL    HW1 1220   6.049   0.497   0.932
  107SOL    HW2 1221   5.925   0.437   0.845
  108SOL     OW 1222   2.010   0.910   6.103
  108SOL    HW1 1223   2.050   0.883   6.015
  108SOL    HW2 1224   1.911   0.917   6.094
  109SOL     OW 1225   2.315   0.982   3.830
  109SOL    HW1 1226   2.373   1.044   3.778
  109SOL    HW2 1227   2.307   0.895   3.782
  110SOL     OW 1228   2.941   4.281   5.733
  110SOL    HW1 1229   2.948   4.249   5.828
  110SOL    HW2 1230   3.000   4.225   5.675
  111SOL     OW 1231   6.789   1.883   1.790
  111SOL    HW1 1232   6.712   1.836   1.747
  111SOL    HW2 1233   6.838   1.819   1.849
  112SOL     OW 1234   4.699   0.365   6.904
  112SOL    HW1 1235   4.777   0.324   6.952
  112SOL    HW2 1236   4.671   0.448   6.951
  113SOL     OW 1237   6.412   5.866   1.881
  113SOL    HW1 1238   6.502   5.891   1.847
  113SOL    HW2 1239   6.354   5.836   1.805
  114SOL     OW 1240   0.479   3.886   3.273
  114SOL    HW1 1241   0.499   3.794   3.238
  114SOL    HW2 1242   0.449   3.944   3.198
  115SOL     OW 1243   6.079   1.101   3.168
  115SOL    HW1 1244   6.072   1.015   3.119
  115SOL    HW2 1245   6.175   1.121   3.188
  116SOL     OW 1246   1.212   4.818   0.539
  116SOL    HW1 1247   1.305   4.818   0.575
  116SOL    HW2 1248   1.210   4.771   0.451
  117SOL     OW 1249   2.402   1.247   0.189
  117SOL    HW1 1250   2.363   1.306   0.117
  117SOL    HW2 1251   2.487   1.287   0.222
  118SOL     OW 1252   1.516   1.233   4.550
  118SOL    HW1 1253   1.429   1.283   4.546
  118SOL    HW2 1254   1.515   1.172   4.628
  119SOL     OW 1255   6.962   5.969   6.361
  119SOL    HW1 1256   6.889   5.925   6.309
  119SOL    HW2 1257   6.928   6.054   6.401
  120SOL     OW 1258   4.661   2.354   4.552
  120SOL    HW1 1259   4.606   2.409   4.489
  120SOL    HW2 1260   4.644   2.384   4.646
  121SOL     OW 1261   1.261   3.909   6.565
  121SOL    HW1 1262   1.204   3.893   6.646
  121SOL    HW2 1263   1.344   3.957   6.592
  122SOL     OW 1264   0.852   4.059   6.938
  122SOL    HW1 1265   0.806   4.037   6.852
  122SOL    HW2 1266   0.885   3.974   6.980
  123SOL     OW 1267   1.247   1.159   1.579
  123SOL    HW1 1268   1.346   1.158   1.596
  123SOL    HW2 1269   1.205   1.233   1.630
  124SOL     OW 1270   2.034   2.672   0.776
  124SOL    HW1 1271   2.049   2.575   0.800
  124SOL    HW2 1272   2.118   2.723   0.793
  125SOL     OW 1273   3.736   3.441   0.305
  125SOL    HW1 1274   3.672   3.481   0.371
  125SOL    HW2 1275   3.725   3.342   0.304
  126SOL     OW 1276   3.630   3.290   4.494
  126SOL    HW1 1277   3.564   3.351   4.539
  126SOL    HW2 1278   3.637   3.315   4.398
  127SOL     OW 1279   0.327   6.313   6.066
  127SOL    HW1 1280   0.384   6.251   6.012
  127SOL    HW2 1281   0.281   6.262   6.138
  128SOL     OW 1282   4.927   3.747   0.834
  128SOL    HW1 1283   4.917   3.654   0.870
  128SOL    HW2 1284   4.934   3.744   0.735
  129SOL     OW 1285   2.123   5.909   1.188
  129SOL    HW1 1286   2.138   5.818   1.150
  129SOL    HW2 1287   2.031   5.940   1.165
  130SOL     OW 1288   5.671   2.350   4.786
  130SOL    HW1 1289   5.704   2.401   4.866
  130SOL    HW2 1290   5.571   2.351   4.786
  131SOL     OW 1291   6.918   2.685   3.581
  131SOL    HW1 1292   6.907   2.612   3.649
  131SOL    HW2 1293   6.930   2.644   3.491
  132SOL     OW 1294   3.585   3.891   2.046
  132SOL    HW1 1295   3.589   3.827   1.970
  132SOL    HW2 1296   3.596   3.985   2.012
  133SOL     OW 1297   5.472   6.772   5.761
  133SOL    HW1 1298   5.407   6.795   5.688
  133SOL    HW2 1299   5.553   6.730   5.721
  134SOL     OW 1300   5.612   0.722   1.840
  134SOL    HW1 1301   5.629   0.729   1.938
  134SOL    HW2 1302   5.689   0.760   1.790
  135SOL     OW 1303   4.913   3.841   4.370
  135SOL    HW1 1304   4.855   3.839   4.288
  135SOL    HW2 1305   4.878   3.909   4.434
  136SOL     OW 1306   3.358   7.021   5.594
  136SOL    HW1 1307   3.372   0.078   5.650
  136SOL    HW2 1308   3.400   0.011   5.504
  137SOL     OW 1309   3.056   2.319   5.391
  137SOL    HW1 1310   3.081   2.231   5.429
  137SOL    HW2 1311   3.103   2.333   5.304
  138SOL     OW 1312   0.614   6.034   5.705
  138SOL    HW1 1313   0.670   5.977   5.765
  138SOL    HW2 1314   0.552   5.975   5.653
  139SOL     OW 1315   2.178   6.085   0.014
  139SOL    HW1 1316   2.105   6.108   6.975
  139SOL    HW2 1317   2.182   6.154   0.086
  140SOL     OW 1318   2.243   0.311   2.623
  140SOL    HW1 1319   2.295   0.295   2.539
  140SOL    HW2 1320   2.262   0.402   2.658
  141SOL     OW 1321   0.051   4.399   0.315
  141SOL    HW1 1322   0.060   4.312   0.267
  141SOL    HW2 1323   0.062   4.474   0.250
  142SOL     OW 1324   1.589   4.293   2.356
  142SOL    HW1 1325   1.507   4.237   2.350
  142SOL    HW2 1326   1.665   4.247   2.311
  143SOL     OW 1327   4.490   6.671   1.610
  143SOL    HW1 1328   4.557   6.637   1.676
  143SOL    HW2 1329   4.535   6.685   1.521
  144SOL     OW 1330   3.544   5.040   3.591
  144SOL    HW1 1331   3.529   5.006   3.684
  144SOL    HW2 1332   3.617   4.987   3.547
  145SOL     OW 1333   6.948   4.671   2.999
  145SOL    HW1 1334   6.901   4.647   2.914
  145SOL    HW2 1335   7.021   4.737   2.979
  146SOL     OW 1336   5.622   1.727   6.303
  146SOL    HW1 1337   5.703   1.669   6.302
  146SOL    HW2 1338   5.564   1.702   6.380
  147SOL     OW 1339   5.065   1.102   5.318
  147SOL    HW1 1340   5.128   1.131   5.246
  147SOL    HW2 1341   4.985   1.162   5.319
  148SOL     OW 1342   1.103   5.317   0.615
  148SOL    HW1 1343   1.142   5.399   0.575
  148SOL    HW2 1344   1.029   5.342   0.678
  149SOL     OW 1345   1.852   2.664   5.804
  149SOL    HW1 1346   1.930   2.643   5.863
  149SOL    HW2 1347   1.882   2.664   5.708
  150SOL     OW 1348   4.322   1.840   4.698
  150SOL    HW1 1349   4.360   1.759   4.743
  150SOL    HW2 1350   4.223   1.828   4.687
  151SOL     OW 1351   4.424   2.451   0.570
  151SOL    HW1 1352   4.516   2.479   0.596
  151SOL    HW2 1353   4.359   2.522   0.599
  152SOL     OW 1354   0.871   1.116   6.926
  152SOL    HW1 1355   0.931   1.172   6.870
  152SOL    HW2 1356   0.920   1.087   7.008
  153SOL     OW 1357   3.175   1.246   3.993
  153SOL    HW1 1358   3.086   1.257   3.948
  153SOL    HW2 1359   3.180   1.156   4.036
  154SOL     OW 1360   5.801   1.815   1.568
  154SOL    HW1 1361   5.795   1.716   1.576
  154SOL    HW2 1362   5.710   1.853   1.549
  155SOL     OW 1363   1.544   7.007   1.940
  155SOL    HW1 1364   1.602   6.971   2.014
  155SOL    HW2 1365   1.575   0.074   1.915
  156SOL     OW 1366   5.469   2.400   0.445
  156SOL    HW1 1367   5.405   2.338   0.398
  156SOL    HW2 1368   5.418   2.462   0.504
  157SOL     OW 1369   4.567   5.033   0.160
  157SOL    HW1 1370   4.534   5.056   0.251
  157SOL    HW2 1371   4.516   4.955   0.125
  158SOL     OW 1372   0.265   3.042   2.963
  158SOL    HW1 1373   0.194   3.112   2.971
  158SOL    HW2 1374   0.279   2.998   3.051
  159SOL     OW 1375   5.407   5.670   0.582
  159SOL    HW1 1376   5.422   5.664   0.680
  159SOL    HW2 1377   5.394   5.578   0.545
  160SOL     OW 1378   6.251   6.906   0.979
  160SOL    HW1 1379   6.348   6.894   0.958
  160SOL    HW2 1380   6.201   6.930   0.896
  161SOL     OW 1381   0.204   6.614   0.432
  161SOL    HW1 1382   0.151   6.565   0.500
  161SOL    HW2 1383   0.190   6.572   0.342
  162SOL     OW 1384   4.016   0.010   0.548
  162SOL    HW1 1385   4.109   0.048   0.553
  162SOL    HW2 1386   4.002   6.993   0.459
  163SOL     OW 1387   6.930   3.841   3.619
  163SOL    HW1 1388   6.887   3.809   3.704
  163SOL    HW2 1389   7.007   3.782   3.598
  164SOL     OW 1390   1.931   1.975   3.413
  164SOL    HW1 1391   1.858   1.918   3.452
  164SOL    HW2 1392   1.905   2.004   3.321
  165SOL     OW 1393   0.712   5.761   3.437
  165SOL    HW1 1394   0.653   5.738   3.514
  165SOL    HW2 1395   0.779   5.688   3.424
  166SOL     OW 1396   6.809   3.504   3.021
  166SOL    HW1 1397   6.883   3.463   3.076
  166SOL    HW2 1398   6.838   3.509   2.925
  167SOL     OW 1399   4.717   2.216   6.713
  167SOL    HW1 1400   4.620   2.221   6.691
  167SOL    HW2 1401   4.770   2.198   6.630
  168SOL     OW 1402   4.863   3.794   2.153
  168SOL    HW1 1403   4.786   3.800   2.090
  168SOL    HW2 1404   4.865   3.877   2.209
  169SOL     OW 1405   6.341   2.567   1.058
  169SOL    HW1 1406   6.367   2.496   0.992
  169SOL    HW2 1407   6.415   2.582   1.123
  170SOL     OW 1408   0.604   5.144   2.957
  170SOL    HW1 1409   0.699   5.175   2.966
  170SOL    HW2 1410   0.603   5.049   2.925
  171SOL     OW 1411   2.839   3.630   0.605
  171SOL    HW1 1412   2.852   3.682   0.521
  171SOL    HW2 1413   2.895   3.547   0.602
  172SOL     OW 1414   6.322   1.938   0.514
  172SOL    HW1 1415   6.365   1.854   0.548
  172SOL    HW2 1416   6.292   1.994   0.591
  173SOL     OW 1417   6.597   2.115   5.621
  173SOL    HW1 1418   6.659   2.038   5.608
  173SOL    HW2 1419   6.622   2.188   5.557
  174SOL     OW 1420   6.181   5.192   5.565
  174SOL    HW1 1421   6.250   5.126   5.595
  174SOL    HW2 1422   6.110   5.200   5.635
  175SOL     OW 1423   0.870   0.052   0.919
  175SOL    HW1 1424   0.904   0.132   0.968
  175SOL    HW2 1425   0.771   0.048   0.927
  176SOL     OW 1426   5.322   4.643   2.582
  176SOL    HW1 1427   5.408   4.688   2.603
  176SOL    HW2 1428   5.246   4.698   2.618
  177SOL     OW 1429   5.961   2.248   4.317
  177SOL    HW1 1430   6.036   2.182   4.320
  177SOL    HW2 1431   5.964   2.305   4.399
  178SOL     OW 1432   1.788   6.462   5.324
  178SOL    HW1 1433   1.883   6.445   5.301
  178SOL    HW2 1434   1.732   6.460   5.241
  179SOL     OW 1435   3.866   4.951   1.128
  179SOL    HW1 1436   3.921   4.869   1.114
  179SOL    HW2 1437   3.872   5.010   1.048
  180SOL     OW 1438   4.434   1.889   0.609
  180SOL    HW1 1439   4.432   1.864   0.706
  180SOL    HW2 1440   4.528   1.885   0.575
  181SOL     OW 1441   3.285   2.212   5.584
  181SOL    HW1 1442   3.325   2.240   5.497
  181SOL    HW2 1443   3.226   2.132   5.569
  182SOL     OW 1444   4.731   2.325   6.259
  182SOL    HW1 1445   4.691   2.400   6.208
  182SOL    HW2 1446   4.750   2.248   6.198
  183SOL     OW 1447   3.314   1.762   3.524
  183SOL    HW1 1448   3.297   1.815   3.608
  183SOL    HW2 1449   3.228   1.722   3.492
  184SOL     OW 1450   6.554   6.304   3.340
  184SOL    HW1 1451   6.491   6.282   3.265
  184SOL    HW2 1452   6.515   6.273   3.426
  185SOL     OW 1453   0.267   0.997   4.257
  185SOL    HW1 1454   0.265   1.043   4.168
  185SOL    HW2 1455   0.362   0.978   4.282
  186SOL     OW 1456   4.589   5.823   3.506
  186SOL    HW1 1457   4.499   5.853   3.475
  186SOL    HW2 1458   4.614   5.740   3.458
  187SOL     OW 1459   4.257   6.227   1.780
  187SOL    HW1 1460   4.306   6.266   1.702
  187SOL    HW2 1461   4.250   6.128   1.769
  188SOL     OW 1462   2.045   2.738   3.091
  188SOL    HW1 1463   2.122   2.801   3.095
  188SOL    HW2 1464   1.977   2.771   3.025
  189SOL     OW 1465   6.322   4.910   6.324
  189SOL    HW1 1466   6.324   4.923   6.423
  189SOL    HW2 1467   6.287   4.992   6.281
  190SOL     OW 1468   6.248   0.327   0.417
  190SOL    HW1 1469   6.297   0.293   0.497
  190SOL    HW2 1470   6.216   0.249   0.362
  191SOL     OW 1471   6.333   0.885   5.833
  191SOL    HW1 1472   6.290   0.922   5.915
  191SOL    HW2 1473   6.335   0.955   5.762
  192SOL     OW 1474   0.611   5.477   0.611
  192SOL    HW1 1475   0.704   5.509   0.595
  192SOL    HW2 1476   0.608   5.377   0.603
  193SOL     OW 1477   2.775   5.518   6.136
  193SOL    HW1 1478   2.757   5.446   6.203
  193SOL    HW2 1479   2.873   5.539   6.135
  194SOL     OW 1480   3.895   6.919   2.193
  194SOL    HW1 1481   3.843   6.962   2.120
  194SOL    HW2 1482   3.926   6.989   2.257
  195SOL     OW 1483   3.160   1.202   1.583
  195SOL    HW1 1484   3.145   1.121   1.639
  195SOL    HW2 1485   3.258   1.221   1.578
  196SOL     OW 1486   1.857   1.126   0.137
  196SOL    HW1 1487   1.826   1.156   0.047
  196SOL    HW2 1488   1.796   1.054   0.171
  197SOL     OW 1489   2.276   5.892   0.395
  197SOL    HW1 1490   2.266   5.857   0.302
  197SOL    HW2 1491   2.188   5.926   0.428
  198SOL     OW 1492   4.281   6.429   0.156
  198SOL    HW1 1493   4.224   6.435   0.238
  198SOL    HW2 1494   4.225   6.403   0.078
  199SOL     OW 1495   6.098   6.553   3.110
  199SOL    HW1 1496   6.012   6.501   3.106
  199SOL    HW2 1497   6.091   6.623   3.181
  200SOL     OW 1498   0.527   4.097   2.919
  200SOL    HW1 1499   0.570   4.164   2.980
  200SOL    HW2 1500   0.578   4.011   2.922
  201SOL     OW 1501   3.190   0.996   6.987
  201SOL    HW1 1502   3.130   0.955   0.032
  201SOL    HW2 1503   3.134   1.036   6.915
  202SOL     OW 1504   3.892   0.288   3.474
  202SOL    HW1 1505   3.983   0.263   3.507
  202SOL    HW2 1506   3.837   0.206   3.463
  203SOL     OW 1507   5.340   3.808   6.197
  203SOL    HW1 1508   5.275   3.884   6.208
  203SOL    HW2 1509   5.433   3.843   6.203
  204SOL     OW 1510   2.439   6.785   0.565
  204SOL    HW1 1511   2.346   6.788   0.602
  204SOL    HW2 1512   2.478   6.694   0.578
  205SOL     OW 1513   6.119   1.929   0.830
  205SOL    HW1 1514   6.159   1.913   0.921
  205SOL    HW2 1515   6.075   1.845   0.799
  206SOL     OW 1516   0.098   4.985   1.919
  206SOL    HW1 1517   0.167   4.921   1.953
  206SOL    HW2 1518   0.132   5.079   1.929
  207SOL     OW 1519   4.706   0.760   5.646
  207SOL    HW1 1520   4.700   0.828   5.573
  207SOL    HW2 1521   4.619   0.711   5.653
  208SOL     OW 1522   5.048   5.961   6.326
  208SOL    HW1 1523   5.068   6.038   6.265
  208SOL    HW2 1524   4.965   5.980   6.379
  209SOL     OW 1525   6.620   5.375   5.586
  209SOL    HW1 1526   6.636   5.285   5.626
  209SOL    HW2 1527   6.611   5.366   5.487
  210SOL     OW 1528   3.984   2.525   1.130
  210SOL    HW1 1529   3.925   2.472   1.069
  210SOL    HW2 1530   4.078   2.492   1.122
  211SOL     OW 1531   0.893   1.381   0.825
  211SOL    HW1 1532   0.897   1.449   0.898
  211SOL    HW2 1533   0.920   1.423   0.738
  212SOL     OW 1534   0.771   5.051   3.868
  212SOL    HW1 1535   0.779   5.023   3.964
  212SOL    HW2 1536   0.793   4.972   3.809
  213SOL     OW 1537   5.065   2.372   6.559
  213SOL    HW1 1538   5.162   2.350   6.571
  213SOL    HW2 1539   5.048   2.397   6.464
  214SOL     OW 1540   1.007   6.653   2.049
  214SOL    HW1 1541   1.052   6.564   2.040
  214SOL    HW2 1542   0.935   6.646   2.119
  215SOL     OW 1543   3.528   3.223   2.425
  215SOL    HW1 1544   3.587   3.289   2.470
  215SOL    HW2 1545   3.434   3.234   2.458
  216SOL     OW 1546   0.970   0.554   5.561
  216SOL    HW1 1547   1.036   0.561   5.487
  216SOL    HW2 1548   0.883   0.519   5.525
  217SOL     OW 1549   1.061   3.311   3.861
  217SOL    HW1 1550   1.084   3.289   3.956
  217SOL    HW2 1551   0.987   3.251   3.830
  218SOL     OW 1552   1.303   3.441   5.044
  218SOL    HW1 1553   1.257   3.444   4.956
  218SOL    HW2 1554   1.253   3.497   5.110
  219SOL     OW 1555   4.480   4.767   0.458
  219SOL    HW1 1556   4.417   4.746   0.533
  219SOL    HW2 1557   4.574   4.768   0.492
  220SOL     OW 1558   2.703   5.311   0.101
  220SOL    HW1 1559   2.636   5.377   0.135
  220SOL    HW2 1560   2.738   5.342   0.013
  221SOL     OW 1561   5.254   2.232   4.078
  221SOL    HW1 1562   5.289   2.163   4.141
  221SOL    HW2 1563   5.233   2.190   3.990
  222SOL     OW 1564   0.373   5.628   5.662
  222SOL    HW1 1565   0.346   5.659   5.753
  222SOL    HW2 1566   0.291   5.599   5.611
  223SOL     OW 1567   0.028   3.834   1.923
  223SOL    HW1 1568   0.012   3.929   1.950
  223SOL    HW2 1569   0.099   3.831   1.853
  224SOL     OW 1570   2.674   2.152   1.999
  224SOL    HW1 1571   2.763   2.188   2.028
  224SOL    HW2 1572   2.662   2.168   1.901
  225SOL     OW 1573   5.728   0.646   7.009
  225SOL    HW1 1574   5.633   0.634   0.013
  225SOL    HW2 1575   5.744   0.742   6.986
  226SOL     OW 1576   0.471   5.830   0.741
  226SOL    HW1 1577   0.546   5.804   0.801
  226SOL    HW2 1578   0.429   5.748   0.703
  227SOL     OW 1579   1.395   3.409   3.753
  227SOL    HW1 1580   1.489   3.432   3.778
  227SOL    HW2 1581   1.357   3.343   3.818
  228SOL     OW 1582   4.696   6.729   3.701
  228SOL    HW1 1583   4.761   6.757   3.771
  228SOL    HW2 1584   4.745   6.681   3.628
  229SOL     OW 1585   6.154   6.312   2.284
  229SOL    HW1 1586   6.070   6.257   2.285
  229SOL    HW2 1587   6.213   6.284   2.360
  230SOL     OW 1588   2.212   4.325   5.059
  230SOL    HW1 1589   2.265   4.395   5.011
  230SOL    HW2 1590   2.263   4.238   5.058
  231SOL     OW 1591   0.609   2.986   6.140
  231SOL    HW1 1592   0.613   2.886   6.147
  231SOL    HW2 1593   0.624   3.027   6.230
  232SOL     OW 1594   1.456   3.750   6.864
  232SOL    HW1 1595   1.459   3.706   6.954
  232SOL    HW2 1596   1.467   3.681   6.792
  233SOL     OW 1597   2.359   1.552   5.470
  233SOL    HW1 1598   2.421   1.495   5.416
  233SOL    HW2 1599   2.368   1.648   5.442
  234SOL     OW 1600   2.754   5.299   6.828
  234SOL    HW1 1601   2.726   5.250   6.746
  234SOL    HW2 1602   2.794   5.387   6.802
  235SOL     OW 1603   3.332   3.424   4.308
  235SOL    HW1 1604   3.401   3.478   4.357
  235SOL    HW2 1605   3.247   3.476   4.303
  236SOL     OW 1606   6.892   2.611   5.336
  236SOL    HW1 1607   6.937   2.575   5.254
  236SOL    HW2 1608   6.961   2.643   5.401
  237SOL     OW 1609   0.364   0.193   1.391
  237SOL    HW1 1610   0.336   0.211   1.296
  237SOL    HW2 1611   0.461   0.169   1.393
  238SOL     OW 1612   5.503   2.995   2.630
  238SOL    HW1 1613   5.562   3.016   2.551
  238SOL    HW2 1614   5.495   3.076   2.688
  239SOL     OW 1615   6.806   5.808   6.784
  239SOL    HW1 1616   6.869   5.777   6.855
  239SOL    HW2 1617   6.846   5.885   6.735
  240SOL     OW 1618   0.484   4.024   6.024
  240SOL    HW1 1619   0.448   4.081   6.097
  240SOL    HW2 1620   0.477   4.072   5.937
  241SOL     OW 1621   0.273   0.593   2.726
  241SOL    HW1 1622   0.276   0.633   2.817
  241SOL    HW2 1623   0.235   0.659   2.661
  242SOL     OW 1624   1.648   3.860   4.459
  242SOL    HW1 1625   1.651   3.879   4.558
  242SOL    HW2 1626   1.598   3.775   4.444
  243SOL     OW 1627   5.766   6.854   5.189
  243SOL    HW1 1628   5.715   6.838   5.104
  243SOL    HW2 1629   5.864   6.851   5.170
  244SOL     OW 1630   5.748   2.035   5.046
  244SOL    HW1 1631   5.767   2.028   4.948
  244SOL    HW2 1632   5.830   2.008   5.098
  245SOL     OW 1633   5.909   2.538   4.193
  245SOL    HW1 1634   5.851   2.458   4.206
  245SOL    HW2 1635   5.853   2.621   4.192
  246SOL     OW 1636   5.126   3.709   3.271
  246SOL    HW1 1637   5.193   3.764   3.221
  246SOL    HW2 1638   5.039   3.711   3.222
  247SOL     OW 1639   2.000   1.592   3.387
  247SOL    HW1 1640   1.903   1.573   3.375
  247SOL    HW2 1641   2.014   1.641   3.474
  248SOL     OW 1642   6.108   1.537   3.457
  248SOL    HW1 1643   6.082   1.464   3.395
  248SOL    HW2 1644   6.030   1.599   3.470
  249SOL     OW 1645   3.656   6.955   4.246
  249SOL    HW1 1646   3.617   6.943   4.154
  249SOL    HW2 1647   3.676   0.026   4.261
  250SOL     OW 1648   5.269   3.674   5.959
  250SOL    HW1 1649   5.258   3.579   5.988
  250SOL    HW2 1650   5.308   3.728   6.034
  251SOL     OW 1651   4.299   2.527   6.675
  251SOL    HW1 1652   4.363   2.486   6.740
  251SOL    HW2 1653   4.218   2.559   6.724
  252SOL     OW 1654   0.302   0.339   5.993
  252SOL    HW1 1655   0.236   0.301   5.927
  252SOL    HW2 1656   0.371   0.270   6.014
  253SOL     OW 1657   3.033   3.229   0.238
  253SOL    HW1 1658   2.964   3.177   0.188
  253SOL    HW2 1659   3.061   3.177   0.319
  254SOL     OW 1660   5.886   2.645   5.229
  254SOL    HW1 1661   5.813   2.674   5.168
  254SOL    HW2 1662   5.855   2.568   5.284
  255SOL     OW 1663   2.731   1.715   3.064
  255SOL    HW1 1664   2.724   1.803   3.018
  255SOL    HW2 1665   2.653   1.704   3.126
  256SOL     OW 1666   5.313   5.220   0.343
  256SOL    HW1 1667   5.326   5.315   0.313
  256SOL    HW2 1668   5.230   5.183   0.301
  257SOL     OW 1669   2.922   5.752   5.979
  257SOL    HW1 1670   2.931   5.846   5.946
  257SOL    HW2 1671   2.947   5.749   6.076
  258SOL     OW 1672   5.642   4.373   4.338
  258SOL    HW1 1673   5.609   4.279   4.331
  258SOL    HW2 1674   5.683   4.400   4.251
  259SOL     OW 1675   1.436   1.991   2.669
  259SOL    HW1 1676   1.532   1.979   2.696
  259SOL    HW2 1677   1.415   1.927   2.595
  260SOL     OW 1678   5.786   0.363   5.994
  260SOL    HW1 1679   5.747   0.434   5.935
  260SOL    HW2 1680   5.739   0.277   5.977
  261SOL     OW 1681   0.893   4.128   2.260
  261SOL    HW1 1682   0.827   4.184   2.209
  261SOL    HW2 1683   0.846   4.051   2.303
  262SOL     OW 1684   0.709   4.299   2.094
  262SOL    HW1 1685   0.711   4.251   2.006
  262SOL    HW2 1686   0.614   4.325   2.115
  263SOL     OW 1687   0.886   1.849   4.161
  263SOL    HW1 1688   0.866   1.884   4.069
  263SOL    HW2 1689   0.800   1.831   4.209
  264SOL     OW 1690   2.173   4.452   6.601
  264SOL    HW1 1691   2.098   4.404   6.647
  264SOL    HW2 1692   2.242   4.386   6.571
  265SOL     OW 1693   5.409   4.529   4.530
  265SOL    HW1 1694   5.393   4.452   4.469
  265SOL    HW2 1695   5.497   4.518   4.575
  266SOL     OW 1696   3.793   1.790   0.779
  266SOL    HW1 1697   3.873   1.740   0.744
  266SOL    HW2 1698   3.817   1.834   0.866
  267SOL     OW 1699   1.693   2.026   5.967
  267SOL    HW1 1700   1.630   2.093   6.006
  267SOL    HW2 1701   1.742   1.979   6.041
  268SOL     OW 1702   4.047   4.973   4.662
  268SOL    HW1 1703   4.037   5.034   4.584
  268SOL    HW2 1704   4.092   4.888   4.633
  269SOL     OW 1705   0.888   2.221   5.892
  269SOL    HW1 1706   0.811   2.182   5.842
  269SOL    HW2 1707   0.885   2.189   5.987
  270SOL     OW 1708   5.283   1.233   2.869
  270SOL    HW1 1709   5.291   1.206   2.773
  270SOL    HW2 1710   5.371   1.267   2.902
  271SOL     OW 1711   1.377   0.616   6.591
  271SOL    HW1 1712   1.301   0.576   6.643
  271SOL    HW2 1713   1.343   0.649   6.503
  272SOL     OW 1714   3.334   6.290   3.328
  272SOL    HW1 1715   3.408   6.351   3.356
  272SOL    HW2 1716   3.334   6.281   3.229
  273SOL     OW 1717   2.550   6.253   5.161
  273SOL    HW1 1718   2.567   6.215   5.070
  273SOL    HW2 1719   2.603   6.202   5.229
  274SOL     OW 1720   6.399   2.468   2.318
  274SOL    HW1 1721   6.472   2.532   2.342
  274SOL    HW2 1722   6.313   2.500   2.358
  275SOL     OW 1723   6.722   5.815   4.946
  275SOL    HW1 1724   6.776   5.854   4.872
  275SOL    HW2 1725   6.655   5.751   4.908
  276SOL     OW 1726   6.436   6.261   3.598
  276SOL    HW1 1727   6.480   6.295   3.681
  276SOL    HW2 1728   6.337   6.256   3.613
  277SOL     OW 1729   4.290   1.567   5.247
  277SOL    HW1 1730   4.310   1.519   5.332
  277SOL    HW2 1731   4.373   1.612   5.214
  278SOL     OW 1732   5.722   3.741   2.814
  278SOL    HW1 1733   5.770   3.826   2.791
  278SOL    HW2 1734   5.652   3.722   2.745
  279SOL     OW 1735   0.049   2.793   3.777
  279SOL    HW1 1736   7.000   2.778   3.712
  279SOL    HW2 1737   0.125   2.731   3.757
  280SOL     OW 1738   3.560   0.524   4.140
  280SOL    HW1 1739   3.521   0.443   4.182
  280SOL    HW2 1740   3.658   0.527   4.157
  281SOL     OW 1741   4.850   6.151   3.812
  281SOL    HW1 1742   4.803   6.078   3.863
  281SOL    HW2 1743   4.948   6.147   3.832
  282SOL     OW 1744   4.185   1.916   0.075
  282SOL    HW1 1745   4.100   1.890   0.120
  282SOL    HW2 1746   4.164   1.958   7.011
  283SOL     OW 1747   6.446   1.676   5.087
  283SOL    HW1 1748   6.432   1.590   5.136
  283SOL    HW2 1749   6.398   1.672   4.999
  284SOL     OW 1750   5.919   5.554   3.958
  284SOL    HW1 1751   5.968   5.469   3.942
  284SOL    HW2 1752   5.926   5.613   3.878
  285SOL     OW 1753   4.260   0.680   6.570
  285SOL    HW1 1754   4.281   0.660   6.474
  285SOL    HW2 1755   4.332   0.643   6.629
  286SOL     OW 1756   3.520   4.912   5.136
  286SOL    HW1 1757   3.430   4.914   5.092
  286SOL    HW2 1758   3.516   4.961   5.223
  287SOL     OW 1759   2.656   6.337   5.794
  287SOL    HW1 1760   2.612   6.313   5.880
  287SOL    HW2 1761   2.613   6.419   5.756
  288SOL     OW 1762   3.352   0.901   0.535
  288SOL    HW1 1763   3.280   0.840   0.569
  288SOL    HW2 1764   3.357   0.981   0.593
  289SOL     OW 1765   0.144   6.392   4.169
  289SOL    HW1 1766   0.201   6.392   4.251
  289SOL    HW2 1767   0.050   6.415   4.193
  290SOL     OW 1768   3.320   0.969   4.556
  290SOL    HW1 1769   3.366   1.010   4.634
  290SOL    HW2 1770   3.253   1.034   4.520
  291SOL     OW 1771   4.253   0.616   4.915
  291SOL    HW1 1772   4.227   0.535   4.862
  291SOL    HW2 1773   4.348   0.608   4.944
  292SOL     OW 1774   4.165   0.659   3.691
  292SOL    HW1 1775   4.154   0.704   3.602
  292SOL    HW2 1776   4.226   0.580   3.681
  293SOL     OW 1777   5.813   6.965   2.737
  293SOL    HW1 1778   5.752   6.889   2.757
  293SOL    HW2 1779   5.823   7.023   2.817
  294SOL     OW 1780   6.210   1.033   6.039
  294SOL    HW1 1781   6.154   1.032   6.122
  294SOL    HW2 1782   6.269   1.114   6.040
  295SOL     OW 1783   0.944   1.770   5.152
  295SOL    HW1 1784   0.866   1.832   5.153
  295SOL    HW2 1785   1.025   1.819   5.184
  296SOL     OW 1786   0.183   1.805   1.372
  296SOL    HW1 1787   0.208   1.863   1.450
  296SOL    HW2 1788   0.142   1.720   1.406
  297SOL     OW 1789   5.781   3.850   3.711
  297SOL    HW1 1790   5.793   3.753   3.731
  297SOL    HW2 1791   5.820   3.871   3.621
  298SOL     OW 1792   3.528   1.154   6.910
  298SOL    HW1 1793   3.468   1.202   6.975
  298SOL    HW2 1794   3.607   1.117   6.958
  299SOL     OW 1795   2.382   1.633   6.372
  299SOL    HW1 1796   2.316   1.616   6.445
  299SOL    HW2 1797   2.474   1.616   6.405
  300SOL     OW 1798   3.886   0.714   2.986
  300SOL    HW1 1799   3.796   0.721   2.943
  300SOL    HW2 1800   3.957   0.740   2.921
  301SOL     OW 1801   6.428   5.763   1.012
  301SOL    HW1 1802   6.388   5.699   1.078
  301SOL    HW2 1803   6.375   5.761   0.928
  302SOL     OW 1804   5.890   6.059   0.890
  302SOL    HW1 1805   5.870   5.968   0.852
  302SOL    HW2 1806   5.809   6.094   0.938
  303SOL     OW 1807   5.575   5.665   2.337
  303SOL    HW1 1808   5.533   5.626   2.255
  303SOL    HW2 1809   5.609   5.591   2.395
  304SOL     OW 1810   1.320   6.963   5.145
  304SOL    HW1 1811   1.417   6.940   5.137
  304SOL    HW2 1812   1.308   0.009   5.214
  305SOL     OW 1813   1.576   2.663   2.236
  305SOL    HW1 1814   1.650   2.728   2.256
  305SOL    HW2 1815   1.540   2.681   2.145
  306SOL     OW 1816   6.612   0.553   2.540
  306SOL    HW1 1817   6.554   0.541   2.459
  306SOL    HW2 1818   6.702   0.586   2.511
  307SOL     OW 1819   3.549   3.277   2.798
  307SOL    HW1 1820   3.528   3.198   2.741
  307SOL    HW2 1821   3.475   3.345   2.789
  308SOL     OW 1822   5.669   1.566   4.142
  308SOL    HW1 1823   5.611   1.488   4.168
  308SOL    HW2 1824   5.616   1.631   4.089
  309SOL     OW 1825   0.872   6.210   6.437
  309SOL    HW1 1826   0.853   6.296   6.390
  309SOL    HW2 1827   0.885   6.228   6.534
  310SOL     OW 1828   5.522   6.386   5.051
  310SOL    HW1 1829   5.586   6.312   5.028
  310SOL    HW2 1830   5.462   6.356   5.125
  311SOL     OW 1831   1.836   5.475   2.893
  311SOL    HW1 1832   1.879   5.517   2.813
  311SOL    HW2 1833   1.744   5.444   2.870
  312SOL     OW 1834   4.801   1.935   2.898
  312SOL    HW1 1835   4.796   1.925   2.997
  312SOL    HW2 1836   4.793   1.844   2.856
  313SOL     OW 1837   3.958   3.042   3.680
  313SOL    HW1 1838   4.006   3.129   3.687
  313SOL    HW2 1839   3.935   3.024   3.584
  314SOL     OW 1840   2.508   6.564   5.763
  314SOL    HW1 1841   2.578   6.608   5.819
  314SOL    HW2 1842   2.418   6.602   5.784
  315SOL     OW 1843   6.747   1.230   3.601
  315SOL    HW1 1844   6.685   1.177   3.659
  315SOL    HW2 1845   6.711   1.235   3.509
  316SOL     OW 1846   3.773   1.459   5.209
  316SOL    HW1 1847   3.813   1.393   5.145
  316SOL    HW2 1848   3.674   1.463   5.194
  317SOL     OW 1849   1.087   1.181   1.336
  317SOL    HW1 1850   1.116   1.124   1.259
  317SOL    HW2 1851   1.136   1.153   1.419
  318SOL     OW 1852   0.091   0.517   5.405
  318SOL    HW1 1853   0.187   0.536   5.385
  318SOL    HW2 1854   0.034   0.596   5.380
  319SOL     OW 1855   1.664   2.216   2.166
  319SOL    HW1 1856   1.639   2.125   2.199
  319SOL    HW2 1857   1.622   2.286   2.224
  320SOL     OW 1858   6.142   2.786   6.711
  320SOL    HW1 1859   6.058   2.784   6.766
  320SOL    HW2 1860   6.121   2.764   6.616
  321SOL     OW 1861   4.305   3.031   1.184
  321SOL    HW1 1862   4.225   3.069   1.139
  321SOL    HW2 1863   4.386   3.047   1.128
  322SOL     OW 1864   4.121   3.622   6.310
  322SOL    HW1 1865   4.137   3.524   6.294
  322SOL    HW2 1866   4.049   3.634   6.378
  323SOL     OW 1867   0.215   3.399   3.454
  323SOL    HW1 1868   0.251   3.405   3.547
  323SOL    HW2 1869   0.122   3.363   3.456
  324SOL     OW 1870   0.735   6.693   3.436
  324SOL    HW1 1871   0.717   6.770   3.498
  324SOL    HW2 1872   0.826   6.657   3.454
  325SOL     OW 1873   0.490   3.772   2.789
  325SOL    HW1 1874   0.418   3.733   2.847
  325SOL    HW2 1875   0.554   3.824   2.846
  326SOL     OW 1876   1.513   6.368   6.390
  326SOL    HW1 1877   1.468   6.356   6.302
  326SOL    HW2 1878   1.610   6.390   6.376
  327SOL     OW 1879   4.286   5.275   3.626
  327SOL    HW1 1880   4.335   5.219   3.560
  327SOL    HW2 1881   4.219   5.332   3.578
  328SOL     OW 1882   2.422   4.378   2.367
  328SOL    HW1 1883   2.481   4.375   2.286
  328SOL    HW2 1884   2.457   4.445   2.432
  329SOL     OW 1885   3.405   4.033   1.641
  329SOL    HW1 1886   3.444   3.998   1.556
  329SOL    HW2 1887   3.455   3.995   1.719
  330SOL     OW 1888   3.794   4.969   0.427
  330SOL    HW1 1889   3.780   4.886   0.372
  330SOL    HW2 1890   3.883   4.963   0.473
  331SOL     OW 1891   5.071   5.989   6.881
  331SOL    HW1 1892   5.041   6.042   6.960
  331SOL    HW2 1893   5.109   6.050   6.812
  332SOL     OW 1894   5.337   2.105   2.894
  332SOL    HW1 1895   5.291   2.181   2.849
  332SOL    HW2 1896   5.269   2.037   2.923
  333SOL     OW 1897   3.547   0.910   6.120
  333SOL    HW1 1898   3.486   0.988   6.129
  333SOL    HW2 1899   3.560   0.868   6.210
  334SOL     OW 1900   3.614   4.103   3.912
  334SOL    HW1 1901   3.585   4.154   3.992
  334SOL    HW2 1902   3.710   4.076   3.922
  335SOL     OW 1903   3.585   0.242   6.300
  335SOL    HW1 1904   3.635   0.223   6.216
  335SOL    HW2 1905   3.504   0.184   6.305
  336SOL     OW 1906   2.973   1.765   3.144
  336SOL    HW1 1907   2.887   1.731   3.106
  336SOL    HW2 1908   2.985   1.861   3.118
  337SOL     OW 1909   2.104   1.596   6.056
  337SOL    HW1 1910   2.186   1.569   6.107
  337SOL    HW2 1911   2.097   1.540   5.974
  338SOL     OW 1912   4.648   2.240   1.859
  338SOL    HW1 1913   4.690   2.191   1.936
  338SOL    HW2 1914   4.588   2.312   1.893
  339SOL     OW 1915   3.910   5.068   4.877
  339SOL    HW1 1916   3.942   5.009   4.803
  339SOL    HW2 1917   3.924   5.164   4.852
  340SOL     OW 1918   4.584   2.195   4.134
  340SOL    HW1 1919   4.552   2.159   4.222
  340SOL    HW2 1920   4.684   2.199   4.134
  341SOL     OW 1921   5.878   6.607   3.456
  341SOL    HW1 1922   5.901   6.653   3.370
  341SOL    HW2 1923   5.782   6.580   3.454
  342SOL     OW 1924   4.718   2.236   1.578
  342SOL    HW1 1925   4.667   2.260   1.660
  342SOL    HW2 1926   4.750   2.142   1.585
  343SOL     OW 1927   1.167   5.297   3.324
  343SOL    HW1 1928   1.246   5.243   3.352
  343SOL    HW2 1929   1.084   5.243   3.335
  344SOL     OW 1930   1.848   1.196   1.357
  344SOL    HW1 1931   1.779   1.181   1.286
  344SOL    HW2 1932   1.889   1.108   1.383
  345SOL     OW 1933   6.168   3.126   4.414
  345SOL    HW1 1934   6.098   3.143   4.484
  345SOL    HW2 1935   6.125   3.099   4.329
  346SOL     OW 1936   1.509   0.122   2.749
  346SOL    HW1 1937   1.532   0.172   2.665
  346SOL    HW2 1938   1.496   0.187   2.824
  347SOL     OW 1939   2.706   5.148   0.433
  347SOL    HW1 1940   2.777   5.158   0.363
  347SOL    HW2 1941   2.749   5.142   0.523
  348SOL     OW 1942   5.153   5.651   2.306
  348SOL    HW1 1943   5.189   5.710   2.379
  348SOL    HW2 1944   5.204   5.667   2.222
  349SOL     OW 1945   0.240   3.888   1.199
  349SOL    HW1 1946   0.180   3.944   1.142
  349SOL    HW2 1947   0.193   3.864   1.284
  350SOL     OW 1948   3.446   2.997   0.119
  350SOL    HW1 1949   3.415   3.020   0.027
  350SOL    HW2 1950   3.419   3.069   0.183
  351SOL     OW 1951   3.674   4.511   0.945
  351SOL    HW1 1952   3.731   4.543   0.869
  351SOL    HW2 1953   3.591   4.468   0.909
  352SOL     OW 1954   4.176   6.444   3.384
  352SOL    HW1 1955   4.078   6.443   3.364
  352SOL    HW2 1956   4.217   6.357   3.355
  353SOL     OW 1957   2.708   6.660   6.439
  353SOL    HW1 1958   2.683   6.685   6.532
  353SOL    HW2 1959   2.643   6.700   6.375
  354SOL     OW 1960   6.422   2.755   0.514
  354SOL    HW1 1961   6.332   2.740   0.473
  354SOL    HW2 1962   6.414   2.750   0.613
  355SOL     OW 1963   1.981   2.472   2.446
  355SOL    HW1 1964   1.927   2.494   2.365
  355SOL    HW2 1965   2.012   2.557   2.489
  356SOL     OW 1966   1.383   0.221   5.907
  356SOL    HW1 1967   1.445   0.198   5.983
  356SOL    HW2 1968   1.390   0.151   5.836
  357SOL     OW 1969   5.809   0.103   4.843
  357SOL    HW1 1970   5.904   0.115   4.870
  357SOL    HW2 1971   5.803   0.083   4.746
  358SOL     OW 1972   5.070   5.885   0.636
  358SOL    HW1 1973   5.076   5.981   0.664
  358SOL    HW2 1974   4.974   5.855   0.642
  359SOL     OW 1975   3.308   2.086   2.156
  359SOL    HW1 1976   3.388   2.057   2.103
  359SOL    HW2 1977   3.240   2.124   2.094
  360SOL     OW 1978   1.148   4.783   4.001
  360SOL    HW1 1979   1.201   4.717   4.055
  360SOL    HW2 1980   1.193   4.799   3.914
  361SOL     OW 1981   6.703   5.954   3.348
  361SOL    HW1 1982   6.690   6.031   3.411
  361SOL    HW2 1983   6.783   5.901   3.376
  362SOL     OW 1984   3.845   4.288   0.894
  362SOL    HW1 1985   3.942   4.295   0.871
  362SOL    HW2 1986   3.801   4.376   0.878
  363SOL     OW 1987   6.287   5.039   2.441
  363SOL    HW1 1988   6.343   4.998   2.514
  363SOL    HW2 1989   6.243   4.967   2.388
  364SOL     OW 1990   0.841   5.374   6.983
  364SOL    HW1 1991   0.794   5.332   0.035
  364SOL    HW2 1992   0.903   5.307   6.941
  365SOL     OW 1993   3.685   1.372   2.151
  365SOL    HW1 1994   3.630   1.443   2.195
  365SOL    HW2 1995   3.683   1.385   2.052
  366SOL     OW 1996   5.972   2.920   0.454
  366SOL    HW1 1997   6.018   3.009   0.462
  366SOL    HW2 1998   6.038   2.847   0.465
  367SOL     OW 1999   4.422   1.866   5.731
  367SOL    HW1 2000   4.369   1.945   5.763
  367SOL    HW2 2001   4.366   1.811   5.669
  368SOL     OW 2002   6.457   2.113   6.310
  368SOL    HW1 2003   6.490   2.172   6.236
  368SOL    HW2 2004   6.386   2.161   6.361
  369SOL     OW 2005   5.636   3.705   3.123
  369SOL    HW1 2006   5.634   3.656   3.035
  369SOL    HW2 2007   5.669   3.643   3.194
  370SOL     OW 2008   1.875   2.282   4.087
  370SOL    HW1 2009   1.833   2.201   4.045
  370SOL    HW2 2010   1.956   2.254   4.139
  371SOL     OW 2011   2.000   4.007   6.876
  371SOL    HW1 2012   1.916   3.961   6.905
  371SOL    HW2 2013   2.060   3.940   6.831
  372SOL     OW 2014   2.713   6.703   5.887
  372SOL    HW1 2015   2.722   6.802   5.888
  372SOL    HW2 2016   2.786   6.663   5.832
  373SOL     OW 2017   6.067   6.623   4.527
  373SOL    HW1 2018   5.992   6.616   4.462
  373SOL    HW2 2019   6.144   6.569   4.495
  374SOL     OW 2020   2.771   1.625   2.590
  374SOL    HW1 2021   2.752   1.601   2.685
  374SOL    HW2 2022   2.738   1.552   2.530
  375SOL     OW 2023   0.754   4.924   4.943
  375SOL    HW1 2024   0.787   4.923   5.037
  375SOL    HW2 2025   0.826   4.959   4.883
  376SOL     OW 2026   2.839   0.980   4.386
  376SOL    HW1 2027   2.918   0.958   4.443
  376SOL    HW2 2028   2.786   0.897   4.369
  377SOL     OW 2029   1.571   2.169   6.741
  377SOL    HW1 2030   1.649   2.216   6.700
  377SOL    HW2 2031   1.509   2.139   6.670
  378SOL     OW 2032   2.830   1.503   0.791
  378SOL    HW1 2033   2.911   1.545   0.832
  378SOL    HW2 2034   2.753   1.567   0.795
  379SOL     OW 2035   5.621   2.579   6.263
  379SOL    HW1 2036   5.548   2.536   6.315
  379SOL    HW2 2037   5.707   2.574   6.314
  380SOL     OW 2038   3.474   1.571   1.447
  380SOL    HW1 2039   3.388   1.616   1.471
  380SOL    HW2 2040   3.454   1.488   1.394
  381SOL     OW 2041   1.602   4.438   3.570
  381SOL    HW1 2042   1.551   4.479   3.494
  381SOL    HW2 2043   1.646   4.354   3.539
  382SOL     OW 2044   6.582   0.861   0.245
  382SOL    HW1 2045   6.502   0.882   0.188
  382SOL    HW2 2046   6.556   0.868   0.342
  383SOL     OW 2047   3.916   3.047   1.180
  383SOL    HW1 2048   3.868   2.982   1.122
  383SOL    HW2 2049   3.881   3.040   1.274
  384SOL     OW 2050   6.588   3.697   4.442
  384SOL    HW1 2051   6.683   3.695   4.474
  384SOL    HW2 2052   6.570   3.616   4.387
  385SOL     OW 2053   4.200   4.969   6.464
  385SOL    HW1 2054   4.194   5.067   6.482
  385SOL    HW2 2055   4.125   4.922   6.512
  386SOL     OW 2056   4.383   0.285   4.994
  386SOL    HW1 2057   4.410   0.381   5.002
  386SOL    HW2 2058   4.293   0.279   4.952
  387SOL     OW 2059   2.474   5.252   3.381
  387SOL    HW1 2060   2.411   5.228   3.454
  387SOL    HW2 2061   2.527   5.171   3.355
  388SOL     OW 2062   2.029   2.327   6.293
  388SOL    HW1 2063   2.012   2.258   6.363
  388SOL    HW2 2064   2.123   2.358   6.299
  389SOL     OW 2065   3.065   3.969   3.298
  389SOL    HW1 2066   3.017   3.893   3.255
  389SOL    HW2 2067   3.141   3.998   3.240
  390SOL     OW 2068   2.619   1.445   4.008
  390SOL    HW1 2069   2.697   1.416   3.952
  390SOL    HW2 2070   2.652   1.482   4.095
  391SOL     OW 2071   1.615   2.550   0.217
  391SOL    HW1 2072   1.567   2.563   0.304
  391SOL    HW2 2073   1.701   2.502   0.233
  392SOL     OW 2074   2.247   5.159   1.456
  392SOL    HW1 2075   2.172   5.118   1.508
  392SOL    HW2 2076   2.214   5.183   1.365
  393SOL     OW 2077   5.985   4.603   5.381
  393SOL    HW1 2078   6.033   4.566   5.302
  393SOL    HW2 2079   5.934   4.529   5.426
  394SOL     OW 2080   0.276   6.609   0.020
  394SOL    HW1 2081   0.206   6.584   6.978
  394SOL    HW2 2082   0.255   6.564   0.107
  395SOL     OW 2083   4.886   3.546   2.299
  395SOL    HW1 2084   4.841   3.462   2.268
  395SOL    HW2 2085   4.843   3.625   2.255
  396SOL     OW 2086   3.516   3.786   3.120
  396SOL    HW1 2087   3.449   3.860   3.111
  396SOL    HW2 2088   3.572   3.782   3.037
  397SOL     OW 2089   4.603   2.380   5.434
  397SOL    HW1 2090   4.538   2.453   5.456
  397SOL    HW2 2091   4.580   2.299   5.488
  398SOL     OW 2092   0.799   5.693   2.444
  398SOL    HW1 2093   0.710   5.739   2.445
  398SOL    HW2 2094   0.859   5.733   2.513
  399SOL     OW 2095   4.567   5.540   1.588
  399SOL    HW1 2096   4.539   5.596   1.510
  399SOL    HW2 2097   4.646   5.582   1.632
  400SOL     OW 2098   0.177   6.899   5.305
  400SOL    HW1 2099   0.146   6.877   5.212
  400SOL    HW2 2100   0.164   6.997   5.321
  401SOL     OW 2101   4.781   1.330   6.287
  401SOL    HW1 2102   4.714   1.285   6.346
  401SOL    HW2 2103   4.736   1.364   6.204
  402SOL     OW 2104   6.204   6.413   2.578
  402SOL    HW1 2105   6.249   6.337   2.624
  402SOL    HW2 2106   6.105   6.405   2.590
  403SOL     OW 2107   4.585   2.560   5.862
  403SOL    HW1 2108   4.668   2.521   5.821
  403SOL    HW2 2109   4.574   2.524   5.955
  404SOL     OW 2110   1.255   6.669   3.557
  404SOL    HW1 2111   1.283   6.716   3.473
  404SOL    HW2 2112   1.302   6.709   3.635
  405SOL     OW 2113   1.717   2.482   1.139
  405SOL    HW1 2114   1.717   2.532   1.052
  405SOL    HW2 2115   1.680   2.391   1.125
  406SOL     OW 2116   0.753   2.880   3.878
  406SOL    HW1 2117   0.725   2.841   3.965
  406SOL    HW2 2118   0.809   2.813   3.829
  407SOL     OW 2119   2.842   6.916   5.000
  407SOL    HW1 2120   2.907   6.975   5.048
  407SOL    HW2 2121   2.888   6.829   4.978
  408SOL     OW 2122   1.573   0.173   3.309
  408SOL    HW1 2123   1.648   0.234   3.285
  408SOL    HW2 2124   1.527   0.143   3.226
  409SOL     OW 2125   5.923   3.218   2.762
  409SOL    HW1 2126   5.936   3.133   2.710
  409SOL    HW2 2127   5.878   3.196   2.849
  410SOL     OW 2128   2.346   0.190   0.541
  410SOL    HW1 2129   2.398   0.264   0.498
  410SOL    HW2 2130   2.407   0.132   0.594
  411SOL     OW 2131   5.695   5.785   6.764
  411SOL    HW1 2132   5.718   5.828   6.677
  411SOL    HW2 2133   5.761   5.813   6.834
  412SOL     OW 2134   3.573   6.439   3.137
  412SOL    HW1 2135   3.496   6.390   3.096
  412SOL    HW2 2136   3.655   6.427   3.080
  413SOL     OW 2137   3.602   5.344   0.529
  413SOL    HW1 2138   3.549   5.260   0.514
  413SOL    HW2 2139   3.550   5.406   0.587
  414SOL     OW 2140   4.436   5.103   1.891
  414SOL    HW1 2141   4.505   5.175   1.888
  414SOL    HW2 2142   4.365   5.127   1.958
  415SOL     OW 2143   1.156   5.765   0.437
  415SOL    HW1 2144   1.126   5.768   0.341
  415SOL    HW2 2145   1.176   5.858   0.468
  416SOL     OW 2146   4.288   5.553   4.920
  416SOL    HW1 2147   4.306   5.457   4.902
  416SOL    HW2 2148   4.304   5.607   4.837
  417SOL     OW 2149   3.205   6.495   1.510
  417SOL    HW1 2150   3.246   6.579   1.548
  417SOL    HW2 2151   3.118   6.477   1.556
  418SOL     OW 2152   4.963   6.251   0.463
  418SOL    HW1 2153   4.897   6.203   0.521
  418SOL    HW2 2154   5.017   6.184   0.412
  419SOL     OW 2155   0.736   0.615   1.118
  419SOL    HW1 2156   0.674   0.624   1.040
  419SOL    HW2 2157   0.716   0.686   1.185
  420SOL     OW 2158   6.116   3.784   1.309
  420SOL    HW1 2159   6.201   3.735   1.328
  420SOL    HW2 2160   6.137   3.879   1.284
  421SOL     OW 2161   1.186   4.687   6.261
  421SOL    HW1 2162   1.252   4.662   6.332
  421SOL    HW2 2163   1.103   4.723   6.304
  422SOL     OW 2164   5.824   4.941   0.698
  422SOL    HW1 2165   5.887   4.874   0.658
  422SOL    HW2 2166   5.837   4.943   0.797
  423SOL     OW 2167   6.212   3.448   0.558
  423SOL    HW1 2168   6.210   3.478   0.462
  423SOL    HW2 2169   6.212   3.529   0.618
  424SOL     OW 2170   3.201   3.564   0.323
  424SOL    HW1 2171   3.198   3.499   0.247
  424SOL    HW2 2172   3.295   3.569   0.359
  425SOL     OW 2173   5.366   1.565   1.849
  425SOL    HW1 2174   5.456   1.522   1.849
  425SOL    HW2 2175   5.337   1.581   1.943
  426SOL     OW 2176   5.476   2.387   5.171
  426SOL    HW1 2177   5.504   2.296   5.138
  426SOL    HW2 2178   5.392   2.378   5.225
  427SOL     OW 2179   5.193   4.483   2.036
  427SOL    HW1 2180   5.222   4.483   2.132
  427SOL    HW2 2181   5.107   4.534   2.027
  428SOL     OW 2182   4.249   0.330   5.516
  428SOL    HW1 2183   4.288   0.326   5.425
  428SOL    HW2 2184   4.159   0.373   5.512
  429SOL     OW 2185   2.419   5.055   0.809
  429SOL    HW1 2186   2.361   5.136   0.813
  429SOL    HW2 2187   2.454   5.035   0.900
  430SOL     OW 2188   2.060   6.388   4.516
  430SOL    HW1 2189   2.102   6.298   4.503
  430SOL    HW2 2190   1.974   6.392   4.464
  431SOL     OW 2191   3.289   1.532   6.965
  431SOL    HW1 2192   3.327   1.441   6.952
  431SOL    HW2 2193   3.353   1.600   6.930
  432SOL     OW 2194   6.970   2.339   0.363
  432SOL    HW1 2195   6.913   2.348   0.445
  432SOL    HW2 2196   6.931   2.268   0.304
  433SOL     OW 2197   2.520   0.180   4.500
  433SOL    HW1 2198   2.443   0.182   4.563
  433SOL    HW2 2199   2.517   0.096   4.446
  434SOL     OW 2200   5.410   5.026   1.408
  434SOL    HW1 2201   5.369   4.947   1.361
  434SOL    HW2 2202   5.509   5.011   1.415
  435SOL     OW 2203   3.782   2.977   5.442
  435SOL    HW1 2204   3.788   3.010   5.536
  435SOL    HW2 2205   3.874   2.961   5.407
  436SOL     OW 2206   1.873   0.105   0.554
  436SOL    HW1 2207   1.823   0.019   0.568
  436SOL    HW2 2208   1.968   0.085   0.531
  437SOL     OW 2209   0.253   0.369   6.498
  437SOL    HW1 2210   0.156   0.387   6.514
  437SOL    HW2 2211   0.276   0.396   6.404
  438SOL     OW 2212   2.046   2.935   1.899
  438SOL    HW1 2213   2.132   2.894   1.927
  438SOL    HW2 2214   2.018   3.004   1.965
  439SOL     OW 2215   6.014   4.407   3.516
  439SOL    HW1 2216   6.036   4.505   3.514
  439SOL    HW2 2217   5.914   4.396   3.520
  440SOL     OW 2218   1.206   1.998   4.552
  440SOL    HW1 2219   1.185   1.971   4.646
  440SOL    HW2 2220   1.294   2.045   4.549
  441SOL     OW 2221   0.543   1.859   2.880
  441SOL    HW1 2222   0.488   1.777   2.861
  441SOL    HW2 2223   0.637   1.833   2.898
  442SOL     OW 2224   1.126   4.336   0.278
  442SOL    HW1 2225   1.054   4.291   0.330
  442SOL    HW2 2226   1.162   4.414   0.329
  443SOL     OW 2227   1.285   4.273   4.735
  443SOL    HW1 2228   1.333   4.317   4.659
  443SOL    HW2 2229   1.311   4.176   4.739
  444SOL     OW 2230   4.809   2.784   5.986
  444SOL    HW1 2231   4.824   2.883   5.998
  444SOL    HW2 2232   4.740   2.770   5.916
  445SOL     OW 2233   1.770   5.415   3.168
  445SOL    HW1 2234   1.851   5.357   3.165
  445SOL    HW2 2235   1.755   5.456   3.078
  446SOL     OW 2236   4.125   5.061   3.372
  446SOL    HW1 2237   4.164   5.144   3.411
  446SOL    HW2 2238   4.163   5.045   3.281
  447SOL     OW 2239   0.462   4.313   6.677
  447SOL    HW1 2240   0.425   4.404   6.695
  447SOL    HW2 2241   0.561   4.319   6.671
  448SOL     OW 2242   3.527   0.432   4.892
  448SOL    HW1 2243   3.461   0.448   4.819
  448SOL    HW2 2244   3.609   0.390   4.853
  449SOL     OW 2245   4.884   0.848   5.302
  449SOL    HW1 2246   4.827   0.832   5.383
  449SOL    HW2 2247   4.964   0.903   5.327
  450SOL     OW 2248   0.505   5.672   3.190
  450SOL    HW1 2249   0.556   5.755   3.212
  450SOL    HW2 2250   0.418   5.672   3.239
  451SOL     OW 2251   0.892   2.082   2.397
  451SOL    HW1 2252   0.931   1.991   2.384
  451SOL    HW2 2253   0.916   2.140   2.319
  452SOL     OW 2254   6.767   6.213   0.309
  452SOL    HW1 2255   6.791   6.309   0.297
  452SOL    HW2 2256   6.667   6.203   0.310
  453SOL     OW 2257   3.003   0.330   6.538
  453SOL    HW1 2258   3.076   0.279   6.583
  453SOL    HW2 2259   3.030   0.353   6.444
  454SOL     OW 2260   6.778   6.022   5.901
  454SOL    HW1 2261   6.747   6.116   5.890
  454SOL    HW2 2262   6.873   6.015   5.871
  455SOL     OW 2263   6.822   0.450   4.104
  455SOL    HW1 2264   6.822   0.351   4.094
  455SOL    HW2 2265   6.909   0.487   4.070
  456SOL     OW 2266   4.532   6.015   5.169
  456SOL    HW1 2267   4.513   5.922   5.200
  456SOL    HW2 2268   4.502   6.080   5.239
  457SOL     OW 2269   2.173   3.514   3.409
  457SOL    HW1 2270   2.160   3.613   3.400
  457SOL    HW2 2271   2.171   3.472   3.318
  458SOL     OW 2272   5.085   5.589   5.195
  458SOL    HW1 2273   5.155   5.520   5.217
  458SOL    HW2 2274   4.998   5.543   5.177
  459SOL     OW 2275   1.532   0.122   3.925
  459SOL    HW1 2276   1.540   0.026   3.951
  459SOL    HW2 2277   1.590   0.140   3.845
  460SOL     OW 2278   0.228   1.127   2.390
  460SOL    HW1 2279   0.200   1.221   2.411
  460SOL    HW2 2280   0.158   1.063   2.423
  461SOL     OW 2281   5.337   6.867   4.489
  461SOL    HW1 2282   5.367   6.857   4.394
  461SOL    HW2 2283   5.363   6.786   4.541
  462SOL     OW 2284   4.144   2.328   5.723
  462SOL    HW1 2285   4.168   2.424   5.737
  462SOL    HW2 2286   4.155   2.304   5.627
  463SOL     OW 2287   5.896   6.043   2.927
  463SOL    HW1 2288   5.943   6.101   2.993
  463SOL    HW2 2289   5.944   6.046   2.840
  464SOL     OW 2290   3.026   2.032   6.413
  464SOL    HW1 2291   3.045   2.114   6.467
  464SOL    HW2 2292   3.084   2.031   6.332
  465SOL     OW 2293   1.488   1.922   4.164
  465SOL    HW1 2294   1.515   1.984   4.237
  465SOL    HW2 2295   1.529   1.953   4.078
  466SOL     OW 2296   6.924   5.823   3.420
  466SOL    HW1 2297   6.974   5.797   3.336
  466SOL    HW2 2298   6.981   5.803   3.499
  467SOL     OW 2299   0.961   0.278   6.283
  467SOL    HW1 2300   1.043   0.256   6.230
  467SOL    HW2 2301   0.976   0.253   6.379
  468SOL     OW 2302   3.396   5.980   0.566
  468SOL    HW1 2303   3.398   6.062   0.508
  468SOL    HW2 2304   3.402   5.899   0.508
  469SOL     OW 2305   2.980   4.645   0.552
  469SOL    HW1 2306   3.007   4.722   0.494
  469SOL    HW2 2307   2.907   4.674   0.615
  470SOL     OW 2308   3.123   0.663   2.488
  470SOL    HW1 2309   3.037   0.613   2.478
  470SOL    HW2 2310   3.198   0.598   2.502
  471SOL     OW 2311   1.569   2.074   4.377
  471SOL    HW1 2312   1.521   2.076   4.465
  471SOL    HW2 2313   1.587   2.168   4.347
  472SOL     OW 2314   4.615   3.617   6.728
  472SOL    HW1 2315   4.585   3.640   6.821
  472SOL    HW2 2316   4.596   3.695   6.668
  473SOL     OW 2317   0.153   2.581   1.626
  473SOL    HW1 2318   0.219   2.656   1.631
  473SOL    HW2 2319   0.174   2.525   1.546
  474SOL     OW 2320   4.552   5.198   3.936
  474SOL    HW1 2321   4.641   5.193   3.890
  474SOL    HW2 2322   4.497   5.271   3.895
  475SOL     OW 2323   6.110   0.875   6.891
  475SOL    HW1 2324   6.189   0.933   6.872
  475SOL    HW2 2325   6.121   0.833   6.982
  476SOL     OW 2326   0.180   3.673   2.424
  476SOL    HW1 2327   0.235   3.755   2.405
  476SOL    HW2 2328   0.109   3.696   2.491
  477SOL     OW 2329   2.340   4.636   5.174
  477SOL    HW1 2330   2.329   4.605   5.079
  477SOL    HW2 2331   2.394   4.721   5.176
  478SOL     OW 2332   3.190   6.261   2.234
  478SOL    HW1 2333   3.161   6.212   2.317
  478SOL    HW2 2334   3.109   6.299   2.188
  479SOL     OW 2335   4.430   2.402   6.853
  479SOL    HW1 2336   4.393   2.438   6.938
  479SOL    HW2 2337   4.428   2.302   6.855
  480SOL     OW 2338   2.202   0.482   7.005
  480SOL    HW1 2339   2.135   0.410   0.001
  480SOL    HW2 2340   2.177   0.527   6.919
  481SOL     OW 2341   1.855   6.877   0.685
  481SOL    HW1 2342   1.786   6.928   0.735
  481SOL    HW2 2343   1.891   6.803   0.742
  482SOL     OW 2344   4.493   4.440   2.619
  482SOL    HW1 2345   4.435   4.488   2.553
  482SOL    HW2 2346   4.444   4.430   2.705
  483SOL     OW 2347   5.890   2.336   1.297
  483SOL    HW1 2348   5.930   2.395   1.368
  483SOL    HW2 2349   5.879   2.244   1.334
  484SOL     OW 2350   1.097   2.848   4.807
  484SOL    HW1 2351   1.102   2.944   4.833
  484SOL    HW2 2352   1.164   2.830   4.734
  485SOL     OW 2353   4.120   5.670   2.111
  485SOL    HW1 2354   4.175   5.747   2.145
  485SOL    HW2 2355   4.178   5.589   2.105
  486SOL     OW 2356   0.333   2.001   0.931
  486SOL    HW1 2357   0.329   1.937   1.008
  486SOL    HW2 2358   0.408   1.975   0.870
  487SOL     OW 2359   0.722   1.899   0.072
  487SOL    HW1 2360   0.808   1.884   0.120
  487SOL    HW2 2361   0.712   1.831   7.024
  488SOL     OW 2362   0.422   1.267   1.696
  488SOL    HW1 2363   0.323   1.277   1.687
  488SOL    HW2 2364   0.459   1.220   1.616
  489SOL     OW 2365   3.640   5.915   6.886
  489SOL    HW1 2366   3.730   5.904   6.844
  489SOL    HW2 2367   3.570   5.920   6.814
  490SOL     OW 2368   6.578   6.182   3.869
  490SOL    HW1 2369   6.665   6.134   3.882
  490SOL    HW2 2370   6.503   6.120   3.890
  491SOL     OW 2371   0.118   2.503   2.918
  491SOL    HW1 2372   0.044   2.504   2.850
  491SOL    HW2 2373   0.101   2.431   2.985
  492SOL     OW 2374   3.006   0.046   5.128
  492SOL    HW1 2375   3.064   0.004   5.197
  492SOL    HW2 2376   2.965   0.129   5.166
  493SOL     OW 2377   5.759   6.044   6.027
  493SOL    HW1 2378   5.667   6.049   5.988
  493SOL    HW2 2379   5.764   6.101   6.109
  494SOL     OW 2380   0.389   6.860   6.929
  494SOL    HW1 2381   0.341   6.808   6.999
  494SOL    HW2 2382   0.360   6.956   6.933
  495SOL     OW 2383   5.324   5.916   3.280
  495SOL    HW1 2384   5.309   5.963   3.193
  495SOL    HW2 2385   5.360   5.824   3.262
  496SOL     OW 2386   5.279   3.588   2.920
  496SOL    HW1 2387   5.300   3.519   2.850
  496SOL    HW2 2388   5.229   3.664   2.878
  497SOL     OW 2389   3.316   1.600   5.786
  497SOL    HW1 2390   3.374   1.675   5.756
  497SOL    HW2 2391   3.329   1.521   5.726
  498SOL     OW 2392   1.731   4.052   1.782
  498SOL    HW1 2393   1.821   4.048   1.824
  498SOL    HW2 2394   1.665   4.090   1.847
  499SOL     OW 2395   2.918   0.594   4.233
  499SOL    HW1 2396   2.870   0.635   4.311
  499SOL    HW2 2397   3.015   0.618   4.237
  500SOL     OW 2398   1.125   3.991   2.925
  500SOL    HW1 2399   1.102   4.036   2.838
  500SOL    HW2 2400   1.171   3.904   2.906
  501SOL     OW 2401   3.409   0.352   0.200
  501SOL    HW1 2402   3.319   0.387   0.226
  501SOL    HW2 2403   3.444   0.404   0.122
  502SOL     OW 2404   6.316   4.488   6.620
  502SOL    HW1 2405   6.259   4.407   6.608
  502SOL    HW2 2406   6.408   4.470   6.584
  503SOL     OW 2407   5.632   5.588   6.019
  503SOL    HW1 2408   5.702   5.660   6.021
  503SOL    HW2 2409   5.568   5.603   6.093
  504SOL     OW 2410   2.922   6.125   3.724
  504SOL    HW1 2411   2.833   6.079   3.734
  504SOL    HW2 2412   2.938   6.143   3.627
  505SOL     OW 2413   3.662   0.464   6.004
  505SOL    HW1 2414   3.659   0.510   6.092
  505SOL    HW2 2415   3.583   0.403   5.995
  506SOL     OW 2416   1.843   5.278   4.587
  506SOL    HW1 2417   1.902   5.357   4.600
  506SOL    HW2 2418   1.748   5.308   4.578
  507SOL     OW 2419   3.830   0.575   4.186
  507SOL    HW1 2420   3.869   0.531   4.267
  507SOL    HW2 2421   3.900   0.578   4.114
  508SOL     OW 2422   6.494   4.156   3.207
  508SOL    HW1 2423   6.512   4.139   3.111
  508SOL    HW2 2424   6.510   4.252   3.228
  509SOL     OW 2425   2.873   1.231   1.506
  509SOL    HW1 2426   2.846   1.310   1.451
  509SOL    HW2 2427   2.967   1.243   1.538
  510SOL     OW 2428   6.578   5.127   5.977
  510SOL    HW1 2429   6.631   5.141   5.893
  510SOL    HW2 2430   6.518   5.047   5.965
  511SOL     OW 2431   0.465   6.490   6.899
  511SOL    HW1 2432   0.417   6.558   6.954
  511SOL    HW2 2433   0.469   6.404   6.949
  512SOL     OW 2434   0.209   3.354   0.382
  512SOL    HW1 2435   0.251   3.289   0.445
  512SOL    HW2 2436   0.270   3.371   0.305
  513SOL     OW 2437   5.862   6.411   3.074
  513SOL    HW1 2438   5.808   6.335   3.111
  513SOL    HW2 2439   5.801   6.485   3.047
  514SOL     OW 2440   6.487   2.474   4.022
  514SOL    HW1 2441   6.420   2.429   3.963
  514SOL    HW2 2442   6.467   2.572   4.026
  515SOL     OW 2443   1.997   0.255   6.223
  515SOL    HW1 2444   2.056   0.298   6.291
  515SOL    HW2 2445   2.045   0.252   6.135
  516SOL     OW 2446   2.745   4.659   1.656
  516SOL    HW1 2447   2.790   4.592   1.714
  516SOL    HW2 2448   2.711   4.735   1.712
  517SOL     OW 2449   5.029   6.200   2.122
  517SOL    HW1 2450   5.031   6.114   2.171
  517SOL    HW2 2451   4.935   6.226   2.102
  518SOL     OW 2452   3.101   2.154   1.953
  518SOL    HW1 2453   3.049   2.216   2.012
  518SOL    HW2 2454   3.089   2.182   1.858
  519SOL     OW 2455   6.939   0.814   4.575
  519SOL    HW1 2456   6.843   0.825   4.547
  519SOL    HW2 2457   6.954   0.721   4.607
  520SOL     OW 2458   5.982   4.816   6.717
  520SOL    HW1 2459   6.038   4.773   6.646
  520SOL    HW2 2460   5.900   4.855   6.675
  521SOL     OW 2461   6.168   2.656   6.452
  521SOL    HW1 2462   6.128   2.568   6.477
  521SOL    HW2 2463   6.242   2.641   6.387
  522SOL     OW 2464   4.044   2.932   5.319
  522SOL    HW1 2465   4.040   2.832   5.319
  522SOL    HW2 2466   4.140   2.960   5.329
  523SOL     OW 2467   0.471   4.958   3.415
  523SOL    HW1 2468   0.528   4.945   3.334
  523SOL    HW2 2469   0.436   4.869   3.445
  524SOL     OW 2470   2.259   1.098   6.512
  524SOL    HW1 2471   2.319   1.177   6.529
  524SOL    HW2 2472   2.182   1.127   6.454
  525SOL     OW 2473   2.699   3.446   6.308
  525SOL    HW1 2474   2.638   3.385   6.256
  525SOL    HW2 2475   2.784   3.398   6.330
  526SOL     OW 2476   2.613   7.018   5.069
  526SOL    HW1 2477   2.699   6.986   5.028
  526SOL    HW2 2478   2.619   0.092   5.084
  527SOL     OW 2479   5.905   3.083   6.318
  527SOL    HW1 2480   5.911   2.991   6.356
  527SOL    HW2 2481   5.873   3.079   6.224
  528SOL     OW 2482   1.109   1.933   3.870
  528SOL    HW1 2483   1.010   1.935   3.886
  528SOL    HW2 2484   1.127   1.889   3.782
  529SOL     OW 2485   0.459   5.800   4.469
  529SOL    HW1 2486   0.440   5.708   4.436
  529SOL    HW2 2487   0.534   5.797   4.534
  530SOL     OW 2488   2.739   2.965   5.337
  530SOL    HW1 2489   2.703   2.962   5.430
  530SOL    HW2 2490   2.663   2.969   5.272
  531SOL     OW 2491   0.067   0.870   1.478
  531SOL    HW1 2492   0.126   0.867   1.559
  531SOL    HW2 2493   0.065   0.964   1.443
  532SOL     OW 2494   0.324   2.934   6.157
  532SOL    HW1 2495   0.368   2.844   6.163
  532SOL    HW2 2496   0.394   3.004   6.143
  533SOL     OW 2497   5.053   5.664   4.222
  533SOL    HW1 2498   4.964   5.629   4.195
  533SOL    HW2 2499   5.046   5.762   4.240
  534SOL     OW 2500   5.202   5.029   3.687
  534SOL    HW1 2501   5.110   5.025   3.648
  534SOL    HW2 2502   5.235   5.123   3.682
  535SOL     OW 2503   1.046   4.248   4.523
  535SOL    HW1 2504   1.002   4.325   4.568
  535SOL    HW2 2505   1.135   4.231   4.565
  536SOL     OW 2506   6.940   4.820   2.331
  536SOL    HW1 2507   6.932   4.917   2.354
  536SOL    HW2 2508   6.870   4.796   2.265
  537SOL     OW 2509   2.283   6.428   3.866
  537SOL    HW1 2510   2.188   6.447   3.887
  537SOL    HW2 2511   2.290   6.386   3.775
  538SOL     OW 2512   1.950   5.944   3.827
  538SOL    HW1 2513   1.907   5.973   3.913
  538SOL    HW2 2514   1.913   5.999   3.752
  539SOL     OW 2515   0.515   6.068   0.219
  539SOL    HW1 2516   0.510   5.977   0.178
  539SOL    HW2 2517   0.431   6.118   0.197
  540SOL     OW 2518   0.531   1.543   1.689
  540SOL    HW1 2519   0.614   1.506   1.647
  540SOL    HW2 2520   0.457   1.476   1.680
  541SOL     OW 2521   2.751   6.380   4.353
  541SOL    HW1 2522   2.825   6.343   4.297
  541SOL    HW2 2523   2.730   6.316   4.427
  542SOL     OW 2524   6.785   6.928   6.974
  542SOL    HW1 2525   6.878   6.895   6.959
  542SOL    HW2 2526   6.770   7.011   6.921
  543SOL     OW 2527   0.183   4.917   5.372
  543SOL    HW1 2528   0.150   5.006   5.341
  543SOL    HW2 2529   0.144   4.896   5.461
  544SOL     OW 2530   1.705   4.481   1.001
  544SOL    HW1 2531   1.804   4.469   0.999
  544SOL    HW2 2532   1.664   4.407   1.055
  545SOL     OW 2533   3.813   1.692   3.214
  545SOL    HW1 2534   3.812   1.644   3.302
  545SOL    HW2 2535   3.769   1.781   3.225
  546SOL     OW 2536   1.672   3.282   1.465
  546SOL    HW1 2537   1.769   3.305   1.465
  546SOL    HW2 2538   1.623   3.344   1.525
  547SOL     OW 2539   2.426   1.349   6.856
  547SOL    HW1 2540   2.412   1.412   6.932
  547SOL    HW2 2541   2.517   1.362   6.818
  548SOL     OW 2542   3.857   3.297   2.933
  548SOL    HW1 2543   3.943   3.346   2.946
  548SOL    HW2 2544   3.785   3.362   2.910
  549SOL     OW 2545   4.426   3.838   1.618
  549SOL    HW1 2546   4.367   3.792   1.684
  549SOL    HW2 2547   4.370   3.893   1.556
  550SOL     OW 2548   6.998   3.395   3.171
  550SOL    HW1 2549   6.979   3.358   3.263
  550SOL    HW2 2550   0.047   3.462   3.177
  551SOL     OW 2551   0.194   1.510   0.745
  551SOL    HW1 2552   0.226   1.572   0.817
  551SOL    HW2 2553   0.270   1.487   0.685
  552SOL     OW 2554   4.026   5.386   0.945
  552SOL    HW1 2555   4.023   5.391   1.045
  552SOL    HW2 2556   4.003   5.475   0.906
  553SOL     OW 2557   1.735   6.315   3.017
  553SOL    HW1 2558   1.753   6.408   3.047
  553SOL    HW2 2559   1.801   6.290   2.946
  554SOL     OW 2560   5.158   0.275   6.524
  554SOL    HW1 2561   5.100   0.321   6.592
  554SOL    HW2 2562   5.103   0.207   6.475
  555SOL     OW 2563   2.164   5.311   4.162
  555SOL    HW1 2564   2.113   5.249   4.221
  555SOL    HW2 2565   2.108   5.337   4.083
  556SOL     OW 2566   6.189   2.053   4.638
  556SOL    HW1 2567   6.151   1.994   4.709
  556SOL    HW2 2568   6.196   2.147   4.674
  557SOL     OW 2569   0.092   5.773   6.586
  557SOL    HW1 2570   0.078   5.710   6.662
  557SOL    HW2 2571   0.066   5.728   6.500
  558SOL     OW 2572   4.245   3.618   5.144
  558SOL    HW1 2573   4.288   3.548   5.087
  558SOL    HW2 2574   4.160   3.648   5.101
  559SOL     OW 2575   6.305   6.181   6.555
  559SOL    HW1 2576   6.385   6.231   6.590
  559SOL    HW2 2577   6.228   6.193   6.617
  560SOL     OW 2578   3.839   6.400   0.922
  560SOL    HW1 2579   3.799   6.381   1.012
  560SOL    HW2 2580   3.900   6.479   0.929
  561SOL     OW 2581   6.027   0.202   6.419
  561SOL    HW1 2582   6.102   0.267   6.410
  561SOL    HW2 2583   6.020   0.147   6.335
  562SOL     OW 2584   4.545   0.863   6.469
  562SOL    HW1 2585   4.536   0.913   6.555
  562SOL    HW2 2586   4.592   0.919   6.402
  563SOL     OW 2587   3.045   6.911   3.434
  563SOL    HW1 2588   3.093   6.858   3.364
  563SOL    HW2 2589   3.027   6.852   3.513
  564SOL     OW 2590   2.219   2.361   5.982
  564SOL    HW1 2591   2.231   2.327   5.888
  564SOL    HW2 2592   2.132   2.409   5.989
  565SOL     OW 2593   4.544   3.162   5.374
  565SOL    HW1 2594   4.503   3.096   5.312
  565SOL    HW2 2595   4.596   3.113   5.444
  566SOL     OW 2596   4.457   4.550   3.624
  566SOL    HW1 2597   4.386   4.599   3.574
  566SOL    HW2 2598   4.543   4.554   3.572
  567SOL     OW 2599   3.134   3.313   3.860
  567SOL    HW1 2600   3.111   3.249   3.786
  567SOL    HW2 2601   3.220   3.358   3.840
  568SOL     OW 2602   3.540   2.359   1.214
  568SOL    HW1 2603   3.607   2.290   1.241
  568SOL    HW2 2604   3.587   2.443   1.188
  569SOL     OW 2605   1.508   3.111   0.602
  569SOL    HW1 2606   1.578   3.084   0.536
  569SOL    HW2 2607   1.441   3.037   0.612
  570SOL     OW 2608   1.443   6.485   6.933
  570SOL    HW1 2609   1.436   6.463   6.836
  570SOL    HW2 2610   1.443   6.401   6.987
  571SOL     OW 2611   3.081   6.146   2.479
  571SOL    HW1 2612   3.013   6.074   2.480
  571SOL    HW2 2613   3.070   6.205   2.559
  572SOL     OW 2614   2.467   4.478   5.888
  572SOL    HW1 2615   2.511   4.487   5.799
  572SOL    HW2 2616   2.425   4.565   5.913
  573SOL     OW 2617   3.512   1.474   5.137
  573SOL    HW1 2618   3.419   1.502   5.112
  573SOL    HW2 2619   3.508   1.404   5.208
  574SOL     OW 2620   2.049   2.482   4.314
  574SOL    HW1 2621   2.051   2.382   4.315
  574SOL    HW2 2622   2.140   2.517   4.334
  575SOL     OW 2623   6.073   4.054   0.301
  575SOL    HW1 2624   6.144   3.990   0.270
  575SOL    HW2 2625   6.051   4.034   0.396
  576SOL     OW 2626   1.320   1.978   1.906
  576SOL    HW1 2627   1.277   1.894   1.937
  576SOL    HW2 2628   1.290   2.000   1.813
  577SOL     OW 2629   2.358   1.188   3.390
  577SOL    HW1 2630   2.407   1.174   3.476
  577SOL    HW2 2631   2.347   1.100   3.343
  578SOL     OW 2632   6.773   3.337   3.633
  578SOL    HW1 2633   6.748   3.412   3.695
  578SOL    HW2 2634   6.741   3.250   3.671
  579SOL     OW 2635   3.859   2.046   1.228
  579SOL    HW1 2636   3.849   1.984   1.305
  579SOL    HW2 2637   3.805   2.129   1.245
  580SOL     OW 2638   0.674   5.000   6.010
  580SOL    HW1 2639   0.756   4.968   6.058
  580SOL    HW2 2640   0.599   4.937   6.028
  581SOL     OW 2641   3.960   3.098   3.140
  581SOL    HW1 2642   3.956   3.025   3.072
  581SOL    HW2 2643   3.868   3.133   3.156
  582SOL     OW 2644   5.720   4.069   2.159
  582SOL    HW1 2645   5.705   4.000   2.088
  582SOL    HW2 2646   5.635   4.083   2.210
  583SOL     OW 2647   2.676   4.655   7.006
  583SOL    HW1 2648   2.578   4.638   6.991
  583SOL    HW2 2649   2.699   4.746   6.974
  584SOL     OW 2650   0.048   4.884   5.603
  584SOL    HW1 2651   6.994   4.841   5.558
  584SOL    HW2 2652   0.085   4.822   5.672
  585SOL     OW 2653   6.575   2.833   5.948
  585SOL    HW1 2654   6.501   2.894   5.919
  585SOL    HW2 2655   6.658   2.853   5.897
  586SOL     OW 2656   3.179   6.514   0.269
  586SOL    HW1 2657   3.205   6.429   0.315
  586SOL    HW2 2658   3.105   6.558   0.320
  587SOL     OW 2659   2.224   1.840   4.996
  587SOL    HW1 2660   2.170   1.888   4.927
  587SOL    HW2 2661   2.213   1.885   5.085
  588SOL     OW 2662   3.551   6.865   1.194
  588SOL    HW1 2663   3.464   6.896   1.156
  588SOL    HW2 2664   3.625   6.894   1.133
  589SOL     OW 2665   3.979   5.052   1.709
  589SOL    HW1 2666   3.954   4.995   1.630
  589SOL    HW2 2667   4.078   5.069   1.708
  590SOL     OW 2668   0.310   2.479   2.430
  590SOL    HW1 2669   0.364   2.562   2.439
  590SOL    HW2 2670   0.317   2.445   2.336
  591SOL     OW 2671   4.150   0.174   3.561
  591SOL    HW1 2672   4.204   0.116   3.500
  591SOL    HW2 2673   4.123   0.122   3.642
  592SOL     OW 2674   4.812   1.114   0.450
  592SOL    HW1 2675   4.724   1.108   0.497
  592SOL    HW2 2676   4.832   1.210   0.430
  593SOL     OW 2677   4.319   2.427   3.805
  593SOL    HW1 2678   4.234   2.453   3.760
  593SOL    HW2 2679   4.312   2.333   3.838
  594SOL     OW 2680   4.328   2.880   6.407
  594SOL    HW1 2681   4.355   2.813   6.338
  594SOL    HW2 2682   4.374   2.859   6.494
  595SOL     OW 2683   4.276   6.870   4.557
  595SOL    HW1 2684   4.218   6.952   4.556
  595SOL    HW2 2685   4.352   6.883   4.493
  596SOL     OW 2686   1.114   3.644   2.180
  596SOL    HW1 2687   1.126   3.734   2.138
  596SOL    HW2 2688   1.026   3.606   2.150
  597SOL     OW 2689   4.114   6.733   6.821
  597SOL    HW1 2690   4.166   6.729   6.735
  597SOL    HW2 2691   4.016   6.731   6.800
  598SOL     OW 2692   4.124   4.680   0.445
  598SOL    HW1 2693   4.147   4.598   0.394
  598SOL    HW2 2694   4.180   4.684   0.528
  599SOL     OW 2695   0.462   0.174   2.420
  599SOL    HW1 2696   0.370   0.156   2.386
  599SOL    HW2 2697   0.525   0.181   2.342
  600SOL     OW 2698   0.921   6.565   1.010
  600SOL    HW1 2699   0.870   6.586   0.927
  600SOL    HW2 2700   0.941   6.650   1.059
  601SOL     OW 2701   3.202   5.953   3.624
  601SOL    HW1 2702   3.164   5.862   3.610
  601SOL    HW2 2703   3.132   6.022   3.604
  602SOL     OW 2704   1.023   0.428   0.276
  602SOL    HW1 2705   0.972   0.440   0.191
  602SOL    HW2 2706   1.121   0.425   0.255
  603SOL     OW 2707   4.054   1.948   3.547
  603SOL    HW1 2708   4.144   1.933   3.586
  603SOL    HW2 2709   3.987   1.962   3.620
  604SOL     OW 2710   1.231   2.976   6.951
  604SOL    HW1 2711   1.236   2.882   6.916
  604SOL    HW2 2712   1.323   3.015   6.955
  605SOL     OW 2713   6.991   6.097   3.544
  605SOL    HW1 2714   6.947   6.007   3.545
  605SOL    HW2 2715   6.941   6.158   3.482
  606SOL     OW 2716   4.631   0.828   4.843
  606SOL    HW1 2717   4.571   0.896   4.884
  606SOL    HW2 2718   4.719   0.828   4.891
  607SOL     OW 2719   5.670   1.229   3.898
  607SOL    HW1 2720   5.712   1.182   3.820
  607SOL    HW2 2721   5.595   1.286   3.866
  608SOL     OW 2722   2.950   0.091   1.053
  608SOL    HW1 2723   2.973   0.005   1.008
  608SOL    HW2 2724   2.886   0.142   0.996
  609SOL     OW 2725   3.309   2.950   4.745
  609SOL    HW1 2726   3.400   2.911   4.740
  609SOL    HW2 2727   3.268   2.952   4.654
  610SOL     OW 2728   5.504   2.273   3.524
  610SOL    HW1 2729   5.438   2.303   3.455
  610SOL    HW2 2730   5.487   2.322   3.609
  611SOL     OW 2731   0.521   0.678   6.838
  611SOL    HW1 2732   0.577   0.760   6.831
  611SOL    HW2 2733   0.492   0.650   6.747
  612SOL     OW 2734   3.824   5.590   6.153
  612SOL    HW1 2735   3.805   5.651   6.076
  612SOL    HW2 2736   3.880   5.513   6.123
  613SOL     OW 2737   4.189   1.302   5.684
  613SOL    HW1 2738   4.278   1.344   5.666
  613SOL    HW2 2739   4.152   1.264   5.599
  614SOL     OW 2740   5.997   5.158   0.641
  614SOL    HW1 2741   5.957   5.067   0.648
  614SOL    HW2 2742   5.967   5.202   0.556
  615SOL     OW 2743   0.742   0.325   6.771
  615SOL    HW1 2744   0.779   0.240   6.733
  615SOL    HW2 2745   0.644   0.329   6.752
  616SOL     OW 2746   5.848   1.915   4.254
  616SOL    HW1 2747   5.765   1.906   4.199
  616SOL    HW2 2748   5.912   1.841   4.231
  617SOL     OW 2749   0.400   4.448   5.792
  617SOL    HW1 2750   0.307   4.467   5.825
  617SOL    HW2 2751   0.418   4.503   5.710
  618SOL     OW 2752   6.262   3.292   1.630
  618SOL    HW1 2753   6.228   3.282   1.536
  618SOL    HW2 2754   6.288   3.387   1.646
  619SOL     OW 2755   2.911   0.526   0.147
  619SOL    HW1 2756   2.948   0.596   0.085
  619SOL    HW2 2757   2.823   0.494   0.113
  620SOL     OW 2758   5.482   3.825   2.218
  620SOL    HW1 2759   5.452   3.763   2.145
  620SOL    HW2 2760   5.580   3.843   2.208
  621SOL     OW 2761   3.042   6.764   6.039
  621SOL    HW1 2762   3.016   6.740   5.946
  621SOL    HW2 2763   2.989   6.708   6.104
  622SOL     OW 2764   1.148   2.636   5.361
  622SOL    HW1 2765   1.049   2.622   5.351
  622SOL    HW2 2766   1.179   2.593   5.446
  623SOL     OW 2767   6.301   6.473   4.505
  623SOL    HW1 2768   6.346   6.537   4.443
  623SOL    HW2 2769   6.369   6.410   4.543
  624SOL     OW 2770   6.278   1.615   6.657
  624SOL    HW1 2771   6.189   1.570   6.650
  624SOL    HW2 2772   6.334   1.565   6.723
  625SOL     OW 2773   2.279   0.823   0.363
  625SOL    HW1 2774   2.290   0.774   0.277
  625SOL    HW2 2775   2.183   0.817   0.393
  626SOL     OW 2776   1.432   5.674   3.881
  626SOL    HW1 2777   1.509   5.682   3.818
  626SOL    HW2 2778   1.374   5.755   3.874
  627SOL     OW 2779   6.427   6.294   0.106
  627SOL    HW1 2780   6.358   6.366   0.098
  627SOL    HW2 2781   6.459   6.289   0.201
  628SOL     OW 2782   5.431   4.005   5.532
  628SOL    HW1 2783   5.427   3.975   5.627
  628SOL    HW2 2784   5.454   4.102   5.528
  629SOL     OW 2785   0.249   0.810   0.054
  629SOL    HW1 2786   0.242   0.769   6.988
  629SOL    HW2 2787   0.195   0.756   0.119
  630SOL     OW 2788   6.441   0.912   0.854
  630SOL    HW1 2789   6.393   0.871   0.776
  630SOL    HW2 2790   6.402   1.002   0.874
  631SOL     OW 2791   2.556   2.489   5.059
  631SOL    HW1 2792   2.558   2.554   5.135
  631SOL    HW2 2793   2.468   2.496   5.012
  632SOL     OW 2794   4.942   3.094   0.832
  632SOL    HW1 2795   4.897   3.156   0.768
  632SOL    HW2 2796   5.011   3.040   0.784
  633SOL     OW 2797   1.888   5.134   1.132
  633SOL    HW1 2798   1.921   5.046   1.166
  633SOL    HW2 2799   1.925   5.150   1.040
  634SOL     OW 2800   3.365   3.684   3.774
  634SOL    HW1 2801   3.292   3.668   3.707
  634SOL    HW2 2802   3.360   3.778   3.806
  635SOL     OW 2803   5.151   1.086   6.966
  635SOL    HW1 2804   5.129   1.085   0.038
  635SOL    HW2 2805   5.236   1.035   6.950
  636SOL     OW 2806   3.067   0.135   6.040
  636SOL    HW1 2807   3.091   0.213   5.983
  636SOL    HW2 2808   3.125   0.057   6.015
  637SOL     OW 2809   6.368   1.691   2.428
  637SOL    HW1 2810   6.412   1.757   2.489
  637SOL    HW2 2811   6.401   1.599   2.450
  638SOL     OW 2812   5.992   3.486   4.104
  638SOL    HW1 2813   6.059   3.559   4.103
  638SOL    HW2 2814   6.039   3.398   4.100
  639SOL     OW 2815   5.557   5.256   3.037
  639SOL    HW1 2816   5.507   5.337   3.068
  639SOL    HW2 2817   5.636   5.241   3.096
  640SOL     OW 2818   6.872   3.017   2.860
  640SOL    HW1 2819   6.930   2.935   2.856
  640SOL    HW2 2820   6.878   3.066   2.774
  641SOL     OW 2821   1.783   4.655   5.479
  641SOL    HW1 2822   1.757   4.576   5.425
  641SOL    HW2 2823   1.813   4.625   5.570
  642SOL     OW 2824   1.002   3.819   4.371
  642SOL    HW1 2825   1.033   3.912   4.350
  642SOL    HW2 2826   0.975   3.774   4.287
  643SOL     OW 2827   5.901   6.756   6.837
  643SOL    HW1 2828   5.830   6.816   6.802
  643SOL    HW2 2829   5.973   6.811   6.880
  644SOL     OW 2830   0.605   0.422   4.543
  644SOL    HW1 2831   0.638   0.440   4.450
  644SOL    HW2 2832   0.557   0.502   4.578
  645SOL     OW 2833   3.847   4.851   3.026
  645SOL    HW1 2834   3.804   4.873   2.939
  645SOL    HW2 2835   3.798   4.897   3.100
  646SOL     OW 2836   3.512   0.924   5.190
  646SOL    HW1 2837   3.576   0.919   5.266
  646SOL    HW2 2838   3.525   0.845   5.130
  647SOL     OW 2839   5.024   1.990   4.453
  647SOL    HW1 2840   4.930   1.963   4.430
  647SOL    HW2 2841   5.033   2.089   4.444
  648SOL     OW 2842   6.345   2.007   2.747
  648SOL    HW1 2843   6.347   1.907   2.754
  648SOL    HW2 2844   6.255   2.040   2.773
  649SOL     OW 2845   2.532   4.908   0.439
  649SOL    HW1 2846   2.551   4.880   0.344
  649SOL    HW2 2847   2.598   4.977   0.467
  650SOL     OW 2848   6.663   5.767   0.764
  650SOL    HW1 2849   6.568   5.786   0.740
  650SOL    HW2 2850   6.687   5.674   0.734
  651SOL     OW 2851   1.649   0.406   5.653
  651SOL    HW1 2852   1.568   0.463   5.662
  651SOL    HW2 2853   1.673   0.367   5.742
  652SOL     OW 2854   4.233   0.699   2.026
  652SOL    HW1 2855   4.269   0.792   2.025
  652SOL    HW2 2856   4.135   0.702   2.042
  653SOL     OW 2857   6.562   6.298   0.729
  653SOL    HW1 2858   6.585   6.266   0.821
  653SOL    HW2 2859   6.604   6.388   0.714
  654SOL     OW 2860   6.725   6.386   5.561
  654SOL    HW1 2861   6.637   6.343   5.539
  654SOL    HW2 2862   6.800   6.325   5.535
  655SOL     OW 2863   6.857   5.039   1.968
  655SOL    HW1 2864   6.939   4.989   1.940
  655SOL    HW2 2865   6.883   5.109   2.035
  656SOL     OW 2866   3.587   6.066   0.793
  656SOL    HW1 2867   3.565   6.163   0.799
  656SOL    HW2 2868   3.510   6.017   0.752
  657SOL     OW 2869   3.604   3.272   2.026
  657SOL    HW1 2870   3.555   3.330   2.091
  657SOL    HW2 2871   3.623   3.184   2.069
  658SOL     OW 2872   2.163   3.957   4.559
  658SOL    HW1 2873   2.161   3.877   4.620
  658SOL    HW2 2874   2.074   3.967   4.515
  659SOL     OW 2875   3.680   6.275   5.536
  659SOL    HW1 2876   3.703   6.202   5.601
  659SOL    HW2 2877   3.596   6.321   5.565
  660SOL     OW 2878   4.943   4.592   2.670
  660SOL    HW1 2879   4.947   4.517   2.735
  660SOL    HW2 2880   4.847   4.612   2.648
  661SOL     OW 2881   5.002   4.193   3.870
  661SOL    HW1 2882   5.018   4.197   3.969
  661SOL    HW2 2883   4.952   4.274   3.841
  662SOL     OW 2884   4.469   2.214   6.573
  662SOL    HW1 2885   4.413   2.163   6.508
  662SOL    HW2 2886   4.481   2.308   6.541
  663SOL     OW 2887   0.020   4.554   0.098
  663SOL    HW1 2888   0.107   4.550   0.049
  663SOL    HW2 2889   6.972   4.574   0.034
  664SOL     OW 2890   1.825   5.674   6.197
  664SOL    HW1 2891   1.796   5.750   6.139
  664SOL    HW2 2892   1.878   5.609   6.142
  665SOL     OW 2893   3.696   5.401   1.656
  665SOL    HW1 2894   3.716   5.321   1.600
  665SOL    HW2 2895   3.610   5.442   1.625
  666SOL     OW 2896   3.673   2.027   0.331
  666SOL    HW1 2897   3.604   2.082   0.376
  666SOL    HW2 2898   3.716   1.966   0.397
  667SOL     OW 2899   0.151   2.929   3.979
  667SOL    HW1 2900   0.136   2.874   4.061
  667SOL    HW2 2901   0.098   2.890   3.903
  668SOL     OW 2902   4.574   6.459   0.149
  668SOL    HW1 2903   4.478   6.438   0.135
  668SOL    HW2 2904   4.600   6.536   0.091
  669SOL     OW 2905   1.086   6.834   3.173
  669SOL    HW1 2906   0.989   6.808   3.182
  669SOL    HW2 2907   1.112   6.892   3.250
  670SOL     OW 2908   3.259   3.339   2.505
  670SOL    HW1 2909   3.277   3.381   2.416
  670SOL    HW2 2910   3.199   3.399   2.558
  671SOL     OW 2911   1.709   5.886   6.057
  671SOL    HW1 2912   1.674   5.970   6.099
  671SOL    HW2 2913   1.657   5.867   5.974
  672SOL     OW 2914   0.645   2.810   4.360
  672SOL    HW1 2915   0.574   2.879   4.345
  672SOL    HW2 2916   0.601   2.722   4.379
  673SOL     OW 2917   4.580   0.656   6.905
  673SOL    HW1 2918   4.574   0.755   6.895
  673SOL    HW2 2919   4.587   0.633   7.002
  674SOL     OW 2920   0.458   2.827   4.009
  674SOL    HW1 2921   0.488   2.754   4.069
  674SOL    HW2 2922   0.364   2.809   3.978
  675SOL     OW 2923   0.519   2.338   4.571
  675SOL    HW1 2924   0.528   2.242   4.544
  675SOL    HW2 2925   0.551   2.348   4.665
  676SOL     OW 2926   3.013   4.833   4.544
  676SOL    HW1 2927   2.942   4.881   4.493
  676SOL    HW2 2928   2.978   4.808   4.634
  677SOL     OW 2929   6.269   0.446   0.112
  677SOL    HW1 2930   6.310   0.407   0.194
  677SOL    HW2 2931   6.320   0.526   0.083
  678SOL     OW 2932   2.399   1.205   5.634
  678SOL    HW1 2933   2.460   1.136   5.594
  678SOL    HW2 2934   2.449   1.257   5.703
  679SOL     OW 2935   3.641   1.375   3.543
  679SOL    HW1 2936   3.716   1.436   3.519
  679SOL    HW2 2937   3.567   1.428   3.585
  680SOL     OW 2938   6.072   4.173   5.971
  680SOL    HW1 2939   6.172   4.167   5.980
  680SOL    HW2 2940   6.047   4.161   5.875
  681SOL     OW 2941   6.703   6.377   1.010
  681SOL    HW1 2942   6.666   6.284   1.004
  681SOL    HW2 2943   6.801   6.373   1.028
  682SOL     OW 2944   2.045   6.738   0.205
  682SOL    HW1 2945   2.086   6.711   0.118
  682SOL    HW2 2946   2.022   6.836   0.202
  683SOL     OW 2947   4.052   1.328   5.918
  683SOL    HW1 2948   4.050   1.427   5.905
  683SOL    HW2 2949   4.101   1.285   5.842
  684SOL     OW 2950   0.342   0.102   6.326
  684SOL    HW1 2951   0.255   0.143   6.352
  684SOL    HW2 2952   0.387   0.159   6.257
  685SOL     OW 2953   4.810   0.201   6.283
  685SOL    HW1 2954   4.874   0.247   6.221
  685SOL    HW2 2955   4.750   0.269   6.325
  686SOL     OW 2956   5.343   3.091   3.422
  686SOL    HW1 2957   5.276   3.161   3.398
  686SOL    HW2 2958   5.347   3.022   3.351
  687SOL     OW 2959   6.754   3.512   6.473
  687SOL    HW1 2960   6.666   3.475   6.501
  687SOL    HW2 2961   6.781   3.470   6.386
  688SOL     OW 2962   1.924   3.565   6.964
  688SOL    HW1 2963   1.998   3.542   0.003
  688SOL    HW2 2964   1.836   3.541   7.006
  689SOL     OW 2965   0.786   4.339   6.267
  689SOL    HW1 2966   0.787   4.323   6.169
  689SOL    HW2 2967   0.857   4.404   6.292
  690SOL     OW 2968   0.861   2.130   3.717
  690SOL    HW1 2969   0.877   2.062   3.788
  690SOL    HW2 2970   0.948   2.164   3.682
  691SOL     OW 2971   1.486   2.574   6.045
  691SOL    HW1 2972   1.414   2.621   6.096
  691SOL    HW2 2973   1.573   2.620   6.061
  692SOL     OW 2974   2.609   0.098   3.525
  692SOL    HW1 2975   2.559   0.036   3.585
  692SOL    HW2 2976   2.699   0.059   3.505
  693SOL     OW 2977   6.698   1.758   2.457
  693SOL    HW1 2978   6.733   1.723   2.370
  693SOL    HW2 2979   6.671   1.854   2.446
  694SOL     OW 2980   3.453   5.647   1.331
  694SOL    HW1 2981   3.393   5.726   1.346
  694SOL    HW2 2982   3.498   5.656   1.242
  695SOL     OW 2983   5.116   5.447   4.896
  695SOL    HW1 2984   5.074   5.388   4.965
  695SOL    HW2 2985   5.166   5.521   4.941
  696SOL     OW 2986   3.286   5.313   2.417
  696SOL    HW1 2987   3.201   5.288   2.372
  696SOL    HW2 2988   3.319   5.237   2.473
  697SOL     OW 2989   0.869   3.243   5.042
  697SOL    HW1 2990   0.827   3.334   5.039
  697SOL    HW2 2991   0.968   3.253   5.053
  698SOL     OW 2992   4.899   0.275   3.832
  698SOL    HW1 2993   4.914   0.316   3.742
  698SOL    HW2 2994   4.804   0.289   3.859
  699SOL     OW 2995   1.731   4.753   0.932
  699SOL    HW1 2996   1.716   4.655   0.945
  699SOL    HW2 2997   1.801   4.767   0.862
  700SOL     OW 2998   2.757   2.394   3.852
  700SOL    HW1 2999   2.763   2.376   3.950
  700SOL    HW2 3000   2.681   2.457   3.835
  701SOL     OW 3001   1.589   4.495   0.253
  701SOL    HW1 3002   1.603   4.396   0.257
  701SOL    HW2 3003   1.673   4.539   0.219
  702SOL     OW 3004   5.372   6.673   5.132
  702SOL    HW1 3005   5.359   6.604   5.203
  702SOL    HW2 3006   5.284   6.715   5.109
  703SOL     OW 3007   4.616   3.366   6.589
  703SOL    HW1 3008   4.677   3.363   6.668
  703SOL    HW2 3009   4.570   3.454   6.585
  704SOL     OW 3010   0.876   1.105   6.113
  704SOL    HW1 3011   0.907   1.026   6.060
  704SOL    HW2 3012   0.927   1.186   6.085
  705SOL     OW 3013   4.973   0.743   3.695
  705SOL    HW1 3014   5.060   0.693   3.687
  705SOL    HW2 3015   4.943   0.742   3.790
  706SOL     OW 3016   3.664   2.017   3.983
  706SOL    HW1 3017   3.631   2.029   4.077
  706SOL    HW2 3018   3.759   2.049   3.977
  707SOL     OW 3019   4.939   0.252   1.891
  707SOL    HW1 3020   4.869   0.316   1.922
  707SOL    HW2 3021   4.942   0.253   1.791
  708SOL     OW 3022   4.822   0.262   1.172
  708SOL    HW1 3023   4.722   0.265   1.167
  708SOL    HW2 3024   4.858   0.222   1.088
  709SOL     OW 3025   1.344   4.808   1.228
  709SOL    HW1 3026   1.312   4.739   1.293
  709SOL    HW2 3027   1.285   4.888   1.234
  710SOL     OW 3028   3.449   4.059   2.419
  710SOL    HW1 3029   3.385   4.099   2.485
  710SOL    HW2 3030   3.543   4.074   2.450
  711SOL     OW 3031   6.701   2.762   5.137
  711SOL    HW1 3032   6.630   2.691   5.140
  711SOL    HW2 3033   6.782   2.730   5.186
  712SOL     OW 3034   1.204   3.442   0.960
  712SOL    HW1 3035   1.245   3.528   0.932
  712SOL    HW2 3036   1.120   3.427   0.907
  713SOL     OW 3037   3.749   3.661   2.143
  713SOL    HW1 3038   3.847   3.640   2.144
  713SOL    HW2 3039   3.719   3.670   2.048
  714SOL     OW 3040   5.650   4.549   5.280
  714SOL    HW1 3041   5.589   4.488   5.229
  714SOL    HW2 3042   5.692   4.499   5.355
  715SOL     OW 3043   4.348   5.906   6.977
  715SOL    HW1 3044   4.348   5.863   6.887
  715SOL    HW2 3045   4.274   5.868   0.007
  716SOL     OW 3046   0.418   5.226   1.490
  716SOL    HW1 3047   0.483   5.193   1.558
  716SOL    HW2 3048   0.467   5.270   1.415
  717SOL     OW 3049   5.824   4.828   0.025
  717SOL    HW1 3050   5.764   4.826   0.105
  717SOL    HW2 3051   5.919   4.823   0.055
  718SOL     OW 3052   4.003   2.385   5.962
  718SOL    HW1 3053   3.941   2.389   5.884
  718SOL    HW2 3054   4.094   2.357   5.931
  719SOL     OW 3055   6.948   2.929   1.618
  719SOL    HW1 3056   6.930   3.026   1.633
  719SOL    HW2 3057   6.900   2.875   1.686
  720SOL     OW 3058   2.583   1.599   4.969
  720SOL    HW1 3059   2.605   1.695   4.949
  720SOL    HW2 3060   2.484   1.585   4.962
  721SOL     OW 3061   1.271   0.792   5.276
  721SOL    HW1 3062   1.206   0.716   5.267
  721SOL    HW2 3063   1.231   0.874   5.234
  722SOL     OW 3064   4.472   6.654   5.030
  722SOL    HW1 3065   4.492   6.750   5.047
  722SOL    HW2 3066   4.556   6.600   5.042
  723SOL     OW 3067   2.389   2.545   2.260
  723SOL    HW1 3068   2.359   2.529   2.167
  723SOL    HW2 3069   2.475   2.497   2.277
  724SOL     OW 3070   0.734   1.731   5.452
  724SOL    HW1 3071   0.721   1.666   5.377
  724SOL    HW2 3072   0.671   1.808   5.441
  725SOL     OW 3073   2.928   5.230   1.835
  725SOL    HW1 3074   2.909   5.230   1.737
  725SOL    HW2 3075   3.025   5.244   1.851
  726SOL     OW 3076   3.006   4.727   6.286
  726SOL    HW1 3077   2.998   4.629   6.304
  726SOL    HW2 3078   2.946   4.777   6.348
  727SOL     OW 3079   3.668   5.975   4.301
  727SOL    HW1 3080   3.572   6.003   4.306
  727SOL    HW2 3081   3.724   6.038   4.355
  728SOL     OW 3082   6.968   4.005   5.212
  728SOL    HW1 3083   6.942   4.068   5.285
  728SOL    HW2 3084   0.026   3.955   5.239
  729SOL     OW 3085   1.649   0.700   0.318
  729SOL    HW1 3086   1.553   0.727   0.328
  729SOL    HW2 3087   1.689   0.747   0.239
  730SOL     OW 3088   6.042   0.878   2.986
  730SOL    HW1 3089   5.955   0.924   2.967
  730SOL    HW2 3090   6.034   0.781   2.962
  731SOL     OW 3091   5.777   2.929   5.158
  731SOL    HW1 3092   5.713   2.858   5.126
  731SOL    HW2 3093   5.748   3.018   5.124
  732SOL     OW 3094   0.307   2.793   1.671
  732SOL    HW1 3095   0.385   2.844   1.635
  732SOL    HW2 3096   0.262   2.846   1.743
  733SOL     OW 3097   4.893   3.935   3.893
  733SOL    HW1 3098   4.925   4.030   3.892
  733SOL    HW2 3099   4.911   3.894   3.803
  734SOL     OW 3100   0.370   4.826   1.894
  734SOL    HW1 3101   0.429   4.746   1.885
  734SOL    HW2 3102   0.342   4.856   1.803
  735SOL     OW 3103   2.159   3.450   0.750
  735SOL    HW1 3104   2.221   3.377   0.721
  735SOL    HW2 3105   2.190   3.488   0.837
  736SOL     OW 3106   6.315   6.650   2.654
  736SOL    HW1 3107   6.281   6.559   2.628
  736SOL    HW2 3108   6.267   6.720   2.602
  737SOL     OW 3109   4.788   3.652   1.503
  737SOL    HW1 3110   4.826   3.688   1.588
  737SOL    HW2 3111   4.858   3.650   1.433
  738SOL     OW 3112   0.903   4.686   3.978
  738SOL    HW1 3113   0.860   4.668   4.067
  738SOL    HW2 3114   0.996   4.719   3.992
  739SOL     OW 3115   4.459   6.808   6.037
  739SOL    HW1 3116   4.442   6.894   5.989
  739SOL    HW2 3117   4.554   6.780   6.023
  740SOL     OW 3118   5.581   0.267   0.964
  740SOL    HW1 3119   5.503   0.209   0.988
  740SOL    HW2 3120   5.613   0.315   1.046
  741SOL     OW 3121   1.567   6.250   3.496
  741SOL    HW1 3122   1.498   6.313   3.460
  741SOL    HW2 3123   1.647   6.251   3.436
  742SOL     OW 3124   2.142   6.737   3.305
  742SOL    HW1 3125   2.239   6.742   3.330
  742SOL    HW2 3126   2.103   6.829   3.301
  743SOL     OW 3127   1.535   3.963   4.228
  743SOL    HW1 3128   1.555   3.941   4.323
  743SOL    HW2 3129   1.512   3.878   4.179
  744SOL     OW 3130   0.307   6.324   6.738
  744SOL    HW1 3131   0.341   6.345   6.646
  744SOL    HW2 3132   0.339   6.395   6.802
  745SOL     OW 3133   0.913   5.452   4.386
  745SOL    HW1 3134   0.970   5.371   4.368
  745SOL    HW2 3135   0.858   5.435   4.467
  746SOL     OW 3136   0.236   6.505   5.335
  746SOL    HW1 3137   0.203   6.486   5.242
  746SOL    HW2 3138   0.182   6.579   5.375
  747SOL     OW 3139   4.388   4.976   3.956
  747SOL    HW1 3140   4.429   5.061   3.923
  747SOL    HW2 3141   4.460   4.910   3.977
  748SOL     OW 3142   4.559   4.888   1.505
  748SOL    HW1 3143   4.554   4.964   1.569
  748SOL    HW2 3144   4.466   4.857   1.483
  749SOL     OW 3145   0.355   2.746   4.958
  749SOL    HW1 3146   0.264   2.730   4.996
  749SOL    HW2 3147   0.412   2.791   5.027
  750SOL     OW 3148   2.864   3.322   0.431
  750SOL    HW1 3149   2.958   3.348   0.406
  750SOL    HW2 3150   2.847   3.347   0.526
  751SOL     OW 3151   4.164   2.237   0.101
  751SOL    HW1 3152   4.093   2.227   0.171
  751SOL    HW2 3153   4.251   2.256   0.146
  752SOL     OW 3154   4.379   2.549   1.681
  752SOL    HW1 3155   4.414   2.641   1.664
  752SOL    HW2 3156   4.393   2.493   1.599
  753SOL     OW 3157   1.756   3.089   4.756
  753SOL    HW1 3158   1.765   3.015   4.690
  753SOL    HW2 3159   1.662   3.093   4.790
  754SOL     OW 3160   5.574   3.649   6.533
  754SOL    HW1 3161   5.615   3.733   6.569
  754SOL    HW2 3162   5.614   3.570   6.580
  755SOL     OW 3163   1.124   5.494   0.017
  755SOL    HW1 3164   1.044   5.551   0.000
  755SOL    HW2 3165   1.097   5.413   0.070
  756SOL     OW 3166   5.199   0.869   1.932
  756SOL    HW1 3167   5.273   0.916   1.980
  756SOL    HW2 3168   5.238   0.806   1.864
  757SOL     OW 3169   0.835   6.178   3.300
  757SOL    HW1 3170   0.912   6.171   3.363
  757SOL    HW2 3171   0.845   6.260   3.244
  758SOL     OW 3172   3.611   1.708   1.639
  758SOL    HW1 3173   3.556   1.653   1.575
  758SOL    HW2 3174   3.626   1.656   1.723
  759SOL     OW 3175   0.017   0.978   0.263
  759SOL    HW1 3176   6.950   1.006   0.239
  759SOL    HW2 3177   0.068   1.057   0.298
  760SOL     OW 3178   5.153   1.357   6.152
  760SOL    HW1 3179   5.105   1.444   6.161
  760SOL    HW2 3180   5.138   1.302   6.234
  761SOL     OW 3181   5.922   3.714   0.138
  761SOL    HW1 3182   5.838   3.673   0.101
  761SOL    HW2 3183   5.914   3.813   0.134
  762SOL     OW 3184   1.933   6.014   3.355
  762SOL    HW1 3185   1.886   6.075   3.418
  762SOL    HW2 3186   2.031   6.034   3.357
  763SOL     OW 3187   4.033   5.626   6.950
  763SOL    HW1 3188   3.989   5.619   6.860
  763SOL    HW2 3189   4.104   5.556   6.957
  764SOL     OW 3190   3.151   1.044   3.591
  764SOL    HW1 3191   3.133   0.977   3.519
  764SOL    HW2 3192   3.240   1.024   3.633
  765SOL     OW 3193   1.033   6.392   1.343
  765SOL    HW1 3194   1.076   6.308   1.310
  765SOL    HW2 3195   0.963   6.421   1.278
  766SOL     OW 3196   6.836   1.144   6.631
  766SOL    HW1 3197   6.759   1.207   6.619
  766SOL    HW2 3198   6.893   1.146   6.549
  767SOL     OW 3199   1.127   6.408   1.967
  767SOL    HW1 3200   1.186   6.327   1.972
  767SOL    HW2 3201   1.041   6.383   1.923
  768SOL     OW 3202   2.074   0.628   2.607
  768SOL    HW1 3203   2.170   0.600   2.610
  768SOL    HW2 3204   2.032   0.609   2.696
  769SOL     OW 3205   3.016   0.209   4.541
  769SOL    HW1 3206   3.091   0.174   4.597
  769SOL    HW2 3207   3.052   0.269   4.471
  770SOL     OW 3208   2.652   5.461   3.411
  770SOL    HW1 3209   2.600   5.377   3.401
  770SOL    HW2 3210   2.666   5.503   3.321
  771SOL     OW 3211   1.897   5.549   2.639
  771SOL    HW1 3212   1.953   5.588   2.565
  771SOL    HW2 3213   1.860   5.461   2.609
  772SOL     OW 3214   6.791   4.760   0.582
  772SOL    HW1 3215   6.827   4.853   0.573
  772SOL    HW2 3216   6.868   4.696   0.581
  773SOL     OW 3217   6.961   3.030   3.481
  773SOL    HW1 3218   0.013   2.993   3.534
  773SOL    HW2 3219   6.878   2.981   3.504
  774SOL     OW 3220   1.964   2.020   1.799
  774SOL    HW1 3221   2.038   1.954   1.815
  774SOL    HW2 3222   1.940   2.065   1.885
  775SOL     OW 3223   1.195   2.175   3.696
  775SOL    HW1 3224   1.218   2.126   3.780
  775SOL    HW2 3225   1.277   2.218   3.658
  776SOL     OW 3226   0.515   0.192   6.106
  776SOL    HW1 3227   0.583   0.256   6.141
  776SOL    HW2 3228   0.556   0.101   6.096
  777SOL     OW 3229   3.475   0.635   1.006
  777SOL    HW1 3230   3.516   0.683   0.928
  777SOL    HW2 3231   3.381   0.609   0.984
  778SOL     OW 3232   4.198   0.878   3.875
  778SOL    HW1 3233   4.192   0.800   3.813
  778SOL    HW2 3234   4.110   0.891   3.921
  779SOL     OW 3235   0.409   1.768   1.838
  779SOL    HW1 3236   0.311   1.773   1.856
  779SOL    HW2 3237   0.432   1.677   1.803
  780SOL     OW 3238   5.636   2.921   4.446
  780SOL    HW1 3239   5.577   2.849   4.407
  780SOL    HW2 3240   5.662   2.895   4.539
  781SOL     OW 3241   6.028   1.275   6.065
  781SOL    HW1 3242   6.073   1.293   5.977
  781SOL    HW2 3243   5.966   1.197   6.056
  782SOL     OW 3244   1.159   3.535   0.661
  782SOL    HW1 3245   1.155   3.564   0.757
  782SOL    HW2 3246   1.225   3.592   0.612
  783SOL     OW 3247   3.339   4.932   0.330
  783SOL    HW1 3248   3.388   5.017   0.351
  783SOL    HW2 3249   3.403   4.863   0.298
  784SOL     OW 3250   4.574   0.810   5.177
  784SOL    HW1 3251   4.491   0.845   5.133
  784SOL    HW2 3252   4.652   0.821   5.115
  785SOL     OW 3253   6.206   1.773   2.682
  785SOL    HW1 3254   6.243   1.693   2.729
  785SOL    HW2 3255   6.197   1.752   2.584
  786SOL     OW 3256   0.341   0.513   6.993
  786SOL    HW1 3257   0.400   0.443   6.953
  786SOL    HW2 3258   0.322   0.583   6.924
  787SOL     OW 3259   3.001   1.270   5.992
  787SOL    HW1 3260   3.042   1.315   6.071
  787SOL    HW2 3261   2.952   1.337   5.936
  788SOL     OW 3262   1.534   2.871   4.418
  788SOL    HW1 3263   1.530   2.833   4.510
  788SOL    HW2 3264   1.522   2.970   4.423
  789SOL     OW 3265   6.455   4.023   2.175
  789SOL    HW1 3266   6.458   3.923   2.181
  789SOL    HW2 3267   6.479   4.052   2.083
  790SOL     OW 3268   2.308   1.474   3.973
  790SOL    HW1 3269   2.401   1.509   3.984
  790SOL    HW2 3270   2.290   1.456   3.876
  791SOL     OW 3271   4.106   0.174   4.125
  791SOL    HW1 3272   4.140   0.214   4.210
  791SOL    HW2 3273   4.117   0.075   4.129
  792SOL     OW 3274   6.189   0.104   1.388
  792SOL    HW1 3275   6.142   0.050   1.318
  792SOL    HW2 3276   6.206   0.047   1.468
  793SOL     OW 3277   4.692   6.338   1.919
  793SOL    HW1 3278   4.708   6.240   1.919
  793SOL    HW2 3279   4.635   6.363   1.997
  794SOL     OW 3280   2.379   5.054   5.404
  794SOL    HW1 3281   2.427   5.036   5.489
  794SOL    HW2 3282   2.321   4.975   5.381
  795SOL     OW 3283   3.171   5.181   5.764
  795SOL    HW1 3284   3.192   5.279   5.766
  795SOL    HW2 3285   3.253   5.129   5.788
  796SOL     OW 3286   0.252   2.146   6.091
  796SOL    HW1 3287   0.341   2.183   6.065
  796SOL    HW2 3288   0.235   2.164   6.187
  797SOL     OW 3289   4.776   2.528   2.544
  797SOL    HW1 3290   4.818   2.558   2.458
  797SOL    HW2 3291   4.772   2.428   2.545
  798SOL     OW 3292   4.564   0.539   1.188
  798SOL    HW1 3293   4.653   0.541   1.232
  798SOL    HW2 3294   4.537   0.444   1.172
  799SOL     OW 3295   6.766   1.872   3.595
  799SOL    HW1 3296   6.802   1.797   3.540
  799SOL    HW2 3297   6.666   1.867   3.597
  800SOL     OW 3298   5.409   0.661   2.538
  800SOL    HW1 3299   5.474   0.733   2.512
  800SOL    HW2 3300   5.316   0.699   2.538
  801SOL     OW 3301   1.197   3.010   3.090
  801SOL    HW1 3302   1.126   2.966   3.035
  801SOL    HW2 3303   1.261   2.941   3.124
  802SOL     OW 3304   4.854   1.381   0.388
  802SOL    HW1 3305   4.792   1.460   0.391
  802SOL    HW2 3306   4.949   1.414   0.383
  803SOL     OW 3307   5.882   6.332   4.675
  803SOL    HW1 3308   5.935   6.356   4.594
  803SOL    HW2 3309   5.863   6.234   4.674
  804SOL     OW 3310   6.398   6.656   0.073
  804SOL    HW1 3311   6.481   6.604   0.096
  804SOL    HW2 3312   6.408   6.695   7.007
  805SOL     OW 3313   4.654   2.997   5.561
  805SOL    HW1 3314   4.566   2.976   5.605
  805SOL    HW2 3315   4.699   2.912   5.535
  806SOL     OW 3316   3.808   1.718   5.324
  806SOL    HW1 3317   3.881   1.759   5.270
  806SOL    HW2 3318   3.775   1.635   5.278
  807SOL     OW 3319   1.446   0.823   3.577
  807SOL    HW1 3320   1.377   0.803   3.507
  807SOL    HW2 3321   1.537   0.810   3.539
  808SOL     OW 3322   4.970   3.167   6.100
  808SOL    HW1 3323   5.016   3.150   6.188
  808SOL    HW2 3324   4.963   3.266   6.085
  809SOL     OW 3325   1.443   4.735   0.967
  809SOL    HW1 3326   1.540   4.762   0.971
  809SOL    HW2 3327   1.398   4.761   1.053
  810SOL     OW 3328   4.434   3.110   0.756
  810SOL    HW1 3329   4.509   3.114   0.690
  810SOL    HW2 3330   4.352   3.151   0.715
  811SOL     OW 3331   4.456   5.961   3.713
  811SOL    HW1 3332   4.477   5.921   3.624
  811SOL    HW2 3333   4.508   6.046   3.725
  812SOL     OW 3334   6.690   0.720   1.259
  812SOL    HW1 3335   6.599   0.761   1.254
  812SOL    HW2 3336   6.723   0.724   1.353
  813SOL     OW 3337   4.245   5.947   3.133
  813SOL    HW1 3338   4.197   6.002   3.201
  813SOL    HW2 3339   4.181   5.922   3.060
  814SOL     OW 3340   5.275   6.697   2.806
  814SOL    HW1 3341   5.349   6.718   2.870
  814SOL    HW2 3342   5.198   6.758   2.824
  815SOL     OW 3343   6.071   2.569   2.157
  815SOL    HW1 3344   6.116   2.647   2.113
  815SOL    HW2 3345   6.061   2.495   2.090
  816SOL     OW 3346   6.696   6.529   0.099
  816SOL    HW1 3347   6.750   6.551   0.017
  816SOL    HW2 3348   6.755   6.532   0.179
  817SOL     OW 3349   1.896   4.285   2.259
  817SOL    HW1 3350   1.969   4.314   2.198
  817SOL    HW2 3351   1.847   4.366   2.292
  818SOL     OW 3352   6.280   3.142   0.285
  818SOL    HW1 3353   6.183   3.165   0.292
  818SOL    HW2 3354   6.290   3.059   0.230
  819SOL     OW 3355   6.294   2.969   4.764
  819SOL    HW1 3356   6.338   3.056   4.786
  819SOL    HW2 3357   6.266   2.970   4.668
  820SOL     OW 3358   1.077   2.898   5.286
  820SOL    HW1 3359   1.105   2.833   5.356
  820SOL    HW2 3360   1.093   2.991   5.319
  821SOL     OW 3361   2.334   4.857   0.629
  821SOL    HW1 3362   2.405   4.873   0.561
  821SOL    HW2 3363   2.348   4.919   0.707
  822SOL     OW 3364   0.924   4.924   4.732
  822SOL    HW1 3365   0.999   4.858   4.721
  822SOL    HW2 3366   0.933   4.996   4.662
  823SOL     OW 3367   4.920   4.285   6.642
  823SOL    HW1 3368   4.941   4.359   6.706
  823SOL    HW2 3369   4.827   4.252   6.658
  824SOL     OW 3370   4.868   1.365   4.979
  824SOL    HW1 3371   4.864   1.356   5.078
  824SOL    HW2 3372   4.795   1.312   4.937
  825SOL     OW 3373   2.294   2.800   2.310
  825SOL    HW1 3374   2.271   2.833   2.401
  825SOL    HW2 3375   2.322   2.704   2.315
  826SOL     OW 3376   5.965   4.099   0.803
  826SOL    HW1 3377   5.881   4.153   0.793
  826SOL    HW2 3378   5.966   4.056   0.894
  827SOL     OW 3379   3.370   5.557   5.943
  827SOL    HW1 3380   3.385   5.624   6.016
  827SOL    HW2 3381   3.272   5.541   5.932
  828SOL     OW 3382   5.767   0.682   5.083
  828SOL    HW1 3383   5.809   0.653   5.169
  828SOL    HW2 3384   5.763   0.782   5.080
  829SOL     OW 3385   2.915   3.446   3.975
  829SOL    HW1 3386   2.857   3.469   3.896
  829SOL    HW2 3387   2.989   3.385   3.945
  830SOL     OW 3388   5.336   4.686   5.556
  830SOL    HW1 3389   5.307   4.591   5.545
  830SOL    HW2 3390   5.398   4.694   5.633
  831SOL     OW 3391   6.863   6.526   4.543
  831SOL    HW1 3392   6.785   6.579   4.510
  831SOL    HW2 3393   6.925   6.586   4.593
  832SOL     OW 3394   2.273   1.083   0.375
  832SOL    HW1 3395   2.321   1.129   0.301
  832SOL    HW2 3396   2.281   0.984   0.363
  833SOL     OW 3397   6.420   6.055   6.184
  833SOL    HW1 3398   6.487   6.129   6.193
  833SOL    HW2 3399   6.433   5.989   6.258
  834SOL     OW 3400   3.784   3.604   3.017
  834SOL    HW1 3401   3.765   3.584   2.921
  834SOL    HW2 3402   3.882   3.600   3.034
  835SOL     OW 3403   3.980   6.937   3.702
  835SOL    HW1 3404   3.970   6.848   3.658
  835SOL    HW2 3405   3.944   6.933   3.795
  836SOL     OW 3406   3.804   6.463   6.798
  836SOL    HW1 3407   3.735   6.475   6.726
  836SOL    HW2 3408   3.767   6.405   6.870
  837SOL     OW 3409   5.041   0.768   0.302
  837SOL    HW1 3410   5.121   0.809   0.346
  837SOL    HW2 3411   4.959   0.816   0.333
  838SOL     OW 3412   0.623   0.111   5.230
  838SOL    HW1 3413   0.567   0.056   5.292
  838SOL    HW2 3414   0.678   0.050   5.172
  839SOL     OW 3415   2.563   1.642   3.266
  839SOL    HW1 3416   2.549   1.731   3.310
  839SOL    HW2 3417   2.485   1.583   3.286
  840SOL     OW 3418   0.302   1.193   6.286
  840SOL    HW1 3419   0.208   1.206   6.256
  840SOL    HW2 3420   0.365   1.223   6.214
  841SOL     OW 3421   5.872   3.981   0.142
  841SOL    HW1 3422   5.859   4.018   0.050
  841SOL    HW2 3423   5.960   4.011   0.179
  842SOL     OW 3424   4.083   5.418   3.485
  842SOL    HW1 3425   3.998   5.408   3.434
  842SOL    HW2 3426   4.075   5.495   3.548
  843SOL     OW 3427   6.019   2.586   0.147
  843SOL    HW1 3428   5.935   2.585   0.202
  843SOL    HW2 3429   6.056   2.494   0.140
  844SOL     OW 3430   4.784   6.134   0.637
  844SOL    HW1 3431   4.826   6.167   0.722
  844SOL    HW2 3432   4.724   6.056   0.658
  845SOL     OW 3433   6.268   2.951   5.383
  845SOL    HW1 3434   6.195   2.885   5.363
  845SOL    HW2 3435   6.330   2.913   5.451
  846SOL     OW 3436   5.956   1.572   6.980
  846SOL    HW1 3437   5.868   1.544   6.944
  846SOL    HW2 3438   5.979   1.664   6.946
  847SOL     OW 3439   6.146   3.535   1.109
  847SOL    HW1 3440   6.198   3.495   1.034
  847SOL    HW2 3441   6.208   3.554   1.185
  848SOL     OW 3442   6.257   0.822   6.445
  848SOL    HW1 3443   6.178   0.776   6.403
  848SOL    HW2 3444   6.251   0.815   6.544
  849SOL     OW 3445   0.147   5.649   5.078
  849SOL    HW1 3446   0.152   5.716   5.151
  849SOL    HW2 3447   0.240   5.622   5.051
  850SOL     OW 3448   4.549   0.332   3.567
  850SOL    HW1 3449   4.567   0.287   3.479
  850SOL    HW2 3450   4.601   0.417   3.572
  851SOL     OW 3451   0.503   1.536   6.905
  851SOL    HW1 3452   0.436   1.464   6.887
  851SOL    HW2 3453   0.487   1.575   6.995
  852SOL     OW 3454   2.319   2.364   6.685
  852SOL    HW1 3455   2.405   2.371   6.634
  852SOL    HW2 3456   2.242   2.380   6.623
  853SOL     OW 3457   0.709   3.221   3.073
  853SOL    HW1 3458   0.753   3.131   3.073
  853SOL    HW2 3459   0.776   3.291   3.048
  854SOL     OW 3460   5.370   6.697   2.514
  854SOL    HW1 3461   5.415   6.786   2.520
  854SOL    HW2 3462   5.293   6.693   2.578
  855SOL     OW 3463   5.675   0.450   1.859
  855SOL    HW1 3464   5.735   0.469   1.937
  855SOL    HW2 3465   5.645   0.536   1.818
  856SOL     OW 3466   1.521   0.800   5.141
  856SOL    HW1 3467   1.432   0.820   5.181
  856SOL    HW2 3468   1.593   0.814   5.210
  857SOL     OW 3469   5.838   4.614   1.147
  857SOL    HW1 3470   5.826   4.542   1.078
  857SOL    HW2 3471   5.750   4.656   1.168
  858SOL     OW 3472   2.786   4.853   1.887
  858SOL    HW1 3473   2.764   4.930   1.948
  858SOL    HW2 3474   2.780   4.767   1.939
  859SOL     OW 3475   5.523   5.075   6.642
  859SOL    HW1 3476   5.569   5.090   6.729
  859SOL    HW2 3477   5.479   4.985   6.643
  860SOL     OW 3478   3.688   4.251   6.822
  860SOL    HW1 3479   3.719   4.188   6.893
  860SOL    HW2 3480   3.706   4.212   6.732
  861SOL     OW 3481   3.004   6.647   5.107
  861SOL    HW1 3482   3.024   6.692   5.020
  861SOL    HW2 3483   3.090   6.628   5.155
  862SOL     OW 3484   6.130   4.451   5.180
  862SOL    HW1 3485   6.064   4.469   5.107
  862SOL    HW2 3486   6.158   4.355   5.177
  863SOL     OW 3487   0.881   0.398   0.743
  863SOL    HW1 3488   0.894   0.395   0.842
  863SOL    HW2 3489   0.790   0.364   0.720
  864SOL     OW 3490   5.131   4.365   3.394
  864SOL    HW1 3491   5.079   4.301   3.451
  864SOL    HW2 3492   5.185   4.425   3.453
  865SOL     OW 3493   1.155   6.852   4.171
  865SOL    HW1 3494   1.081   6.808   4.120
  865SOL    HW2 3495   1.147   6.952   4.162
  866SOL     OW 3496   2.708   1.393   2.406
  866SOL    HW1 3497   2.638   1.340   2.454
  866SOL    HW2 3498   2.672   1.423   2.318
  867SOL     OW 3499   3.157   2.852   0.302
  867SOL    HW1 3500   3.168   2.869   0.204
  867SOL    HW2 3501   3.184   2.758   0.323
  868SOL     OW 3502   5.906   0.265   2.433
  868SOL    HW1 3503   5.849   0.278   2.514
  868SOL    HW2 3504   5.990   0.217   2.460
  869SOL     OW 3505   6.683   5.812   2.523
  869SOL    HW1 3506   6.697   5.726   2.574
  869SOL    HW2 3507   6.750   5.880   2.555
  870SOL     OW 3508   6.972   3.097   1.862
  870SOL    HW1 3509   6.938   3.148   1.784
  870SOL    HW2 3510   6.943   3.141   1.947
  871SOL     OW 3511   6.818   2.595   2.259
  871SOL    HW1 3512   6.891   2.654   2.294
  871SOL    HW2 3513   6.761   2.563   2.335
  872SOL     OW 3514   6.321   2.587   4.486
  872SOL    HW1 3515   6.251   2.655   4.468
  872SOL    HW2 3516   6.410   2.621   4.455
  873SOL     OW 3517   3.890   0.216   3.161
  873SOL    HW1 3518   3.913   0.282   3.088
  873SOL    HW2 3519   3.942   0.239   3.243
  874SOL     OW 3520   1.779   4.420   5.360
  874SOL    HW1 3521   1.707   4.379   5.304
  874SOL    HW2 3522   1.866   4.414   5.312
  875SOL     OW 3523   5.352   4.421   0.914
  875SOL    HW1 3524   5.349   4.353   0.987
  875SOL    HW2 3525   5.359   4.512   0.954
  876SOL     OW 3526   6.568   3.417   2.492
  876SOL    HW1 3527   6.529   3.326   2.512
  876SOL    HW2 3528   6.535   3.482   2.560
  877SOL     OW 3529   5.041   5.131   0.249
  877SOL    HW1 3530   4.990   5.191   0.312
  877SOL    HW2 3531   5.053   5.041   0.291
  878SOL     OW 3532   3.359   5.177   6.764
  878SOL    HW1 3533   3.418   5.191   6.843
  878SOL    HW2 3534   3.411   5.136   6.689
  879SOL     OW 3535   4.724   1.893   2.478
  879SOL    HW1 3536   4.706   1.948   2.559
  879SOL    HW2 3537   4.637   1.863   2.438
  880SOL     OW 3538   3.748   4.472   0.263
  880SOL    HW1 3539   3.682   4.406   0.298
  880SOL    HW2 3540   3.792   4.435   0.181
  881SOL     OW 3541   4.232   4.758   4.549
  881SOL    HW1 3542   4.238   4.760   4.649
  881SOL    HW2 3543   4.254   4.666   4.516
  882SOL     OW 3544   1.226   0.428   4.412
  882SOL    HW1 3545   1.194   0.342   4.453
  882SOL    HW2 3546   1.183   0.505   4.458
  883SOL     OW 3547   3.710   4.835   5.957
  883SOL    HW1 3548   3.654   4.914   5.984
  883SOL    HW2 3549   3.745   4.789   6.038
  884SOL     OW 3550   6.442   3.741   1.557
  884SOL    HW1 3551   6.393   3.826   1.577
  884SOL    HW2 3552   6.407   3.668   1.616
  885SOL     OW 3553   5.566   6.308   0.453
  885SOL    HW1 3554   5.597   6.292   0.547
  885SOL    HW2 3555   5.498   6.381   0.452
  886SOL     OW 3556   3.863   0.937   6.735
  886SOL    HW1 3557   3.797   0.946   6.809
  886SOL    HW2 3558   3.815   0.914   6.650
  887SOL     OW 3559   4.124   0.229   6.521
  887SOL    HW1 3560   4.114   0.328   6.535
  887SOL    HW2 3561   4.050   0.197   6.461
  888SOL     OW 3562   0.177   6.521   3.654
  888SOL    HW1 3563   0.167   6.503   3.752
  888SOL    HW2 3564   0.274   6.516   3.629
  889SOL     OW 3565   6.951   6.249   5.444
  889SOL    HW1 3566   0.018   6.230   5.410
  889SOL    HW2 3567   6.885   6.195   5.393
  890SOL     OW 3568   2.725   4.723   2.251
  890SOL    HW1 3569   2.672   4.788   2.195
  890SOL    HW2 3570   2.743   4.641   2.197
  891SOL     OW 3571   5.836   3.072   1.290
  891SOL    HW1 3572   5.842   3.040   1.196
  891SOL    HW2 3573   5.760   3.138   1.298
  892SOL     OW 3574   2.715   4.040   0.839
  892SOL    HW1 3575   2.803   4.018   0.796
  892SOL    HW2 3576   2.643   3.986   0.796
  893SOL     OW 3577   1.405   0.548   0.044
  893SOL    HW1 3578   1.479   0.593   7.020
  893SOL    HW2 3579   1.342   0.616   0.081
  894SOL     OW 3580   0.978   5.245   3.985
  894SOL    HW1 3581   0.986   5.165   4.045
  894SOL    HW2 3582   0.909   5.227   3.915
  895SOL     OW 3583   1.869   7.000   4.759
  895SOL    HW1 3584   1.922   6.951   4.828
  895SOL    HW2 3585   1.860   6.942   4.678
  896SOL     OW 3586   6.144   6.242   3.722
  896SOL    HW1 3587   6.063   6.209   3.770
  896SOL    HW2 3588   6.116   6.296   3.643
  897SOL     OW 3589   5.305   2.585   6.910
  897SOL    HW1 3590   5.339   2.491   6.905
  897SOL    HW2 3591   5.340   2.628   6.993
  898SOL     OW 3592   4.792   6.411   3.703
  898SOL    HW1 3593   4.708   6.440   3.657
  898SOL    HW2 3594   4.784   6.316   3.732
  899SOL     OW 3595   0.631   4.985   6.495
  899SOL    HW1 3596   0.637   5.069   6.441
  899SOL    HW2 3597   0.615   5.008   6.591
  900SOL     OW 3598   0.454   6.003   2.988
  900SOL    HW1 3599   0.515   5.946   3.043
  900SOL    HW2 3600   0.369   6.019   3.038
  901SOL     OW 3601   6.391   1.136   4.278
  901SOL    HW1 3602   6.382   1.223   4.326
  901SOL    HW2 3603   6.312   1.078   4.298
  902SOL     OW 3604   6.819   0.465   6.137
  902SOL    HW1 3605   6.725   0.486   6.164
  902SOL    HW2 3606   6.819   0.396   6.065
  903SOL     OW 3607   0.108   4.040   0.981
  903SOL    HW1 3608   0.103   3.962   0.919
  903SOL    HW2 3609   0.198   4.083   0.973
  904SOL     OW 3610   1.642   1.031   3.377
  904SOL    HW1 3611   1.550   1.057   3.350
  904SOL    HW2 3612   1.699   1.112   3.387
  905SOL     OW 3613   5.063   2.320   5.917
  905SOL    HW1 3614   5.136   2.286   5.857
  905SOL    HW2 3615   5.102   2.349   6.004
  906SOL     OW 3616   0.233   4.405   6.269
  906SOL    HW1 3617   0.236   4.481   6.334
  906SOL    HW2 3618   0.159   4.420   6.203
  907SOL     OW 3619   6.095   2.385   2.623
  907SOL    HW1 3620   6.168   2.387   2.692
  907SOL    HW2 3621   6.069   2.291   2.606
  908SOL     OW 3622   1.723   6.851   4.259
  908SOL    HW1 3623   1.747   6.947   4.275
  908SOL    HW2 3624   1.747   6.796   4.339
  909SOL     OW 3625   2.896   0.536   0.775
  909SOL    HW1 3626   2.941   0.555   0.688
  909SOL    HW2 3627   2.820   0.599   0.789
  910SOL     OW 3628   1.532   0.925   6.999
  910SOL    HW1 3629   1.485   0.922   0.062
  910SOL    HW2 3630   1.522   0.837   6.952
  911SOL     OW 3631   0.984   4.606   1.654
  911SOL    HW1 3632   1.032   4.528   1.613
  911SOL    HW2 3633   0.895   4.576   1.689
  912SOL     OW 3634   0.235   1.707   5.820
  912SOL    HW1 3635   0.228   1.806   5.812
  912SOL    HW2 3636   0.246   1.667   5.728
  913SOL     OW 3637   2.494   0.716   3.008
  913SOL    HW1 3638   2.544   0.727   2.923
  913SOL    HW2 3639   2.439   0.797   3.026
  914SOL     OW 3640   2.892   5.941   4.124
  914SOL    HW1 3641   2.929   5.929   4.032
  914SOL    HW2 3642   2.858   6.034   4.134
  915SOL     OW 3643   0.521   3.001   0.115
  915SOL    HW1 3644   0.521   2.909   0.076
  915SOL    HW2 3645   0.593   3.056   0.072
  916SOL     OW 3646   2.484   2.232   2.825
  916SOL    HW1 3647   2.559   2.297   2.812
  916SOL    HW2 3648   2.490   2.159   2.757
  917SOL     OW 3649   3.633   1.006   1.176
  917SOL    HW1 3650   3.612   1.103   1.163
  917SOL    HW2 3651   3.585   0.952   1.107
  918SOL     OW 3652   2.455   5.857   6.036
  918SOL    HW1 3653   2.480   5.866   5.939
  918SOL    HW2 3654   2.431   5.763   6.056
  919SOL     OW 3655   1.415   5.421   1.624
  919SOL    HW1 3656   1.419   5.373   1.712
  919SOL    HW2 3657   1.498   5.475   1.612
  920SOL     OW 3658   2.628   0.598   2.721
  920SOL    HW1 3659   2.676   0.673   2.766
  920SOL    HW2 3660   2.648   0.512   2.768
  921SOL     OW 3661   5.732   4.918   4.559
  921SOL    HW1 3662   5.692   4.962   4.478
  921SOL    HW2 3663   5.708   4.971   4.640
  922SOL     OW 3664   2.777   3.292   7.004
  922SOL    HW1 3665   2.710   3.310   6.932
  922SOL    HW2 3666   2.739   3.320   0.067
  923SOL     OW 3667   2.994   6.150   6.960
  923SOL    HW1 3668   2.985   6.249   6.973
  923SOL    HW2 3669   2.905   6.111   6.938
  924SOL     OW 3670   6.076   3.457   3.162
  924SOL    HW1 3671   6.057   3.429   3.256
  924SOL    HW2 3672   6.011   3.413   3.100
  925SOL     OW 3673   0.166   2.158   5.504
  925SOL    HW1 3674   0.238   2.163   5.573
  925SOL    HW2 3675   0.093   2.097   5.536
  926SOL     OW 3676   5.250   6.387   0.594
  926SOL    HW1 3677   5.242   6.359   0.499
  926SOL    HW2 3678   5.294   6.477   0.599
  927SOL     OW 3679   4.456   4.621   4.462
  927SOL    HW1 3680   4.484   4.547   4.523
  927SOL    HW2 3681   4.458   4.589   4.368
  928SOL     OW 3682   1.548   0.291   0.529
  928SOL    HW1 3683   1.598   0.205   0.524
  928SOL    HW2 3684   1.563   0.344   0.446
  929SOL     OW 3685   0.477   2.710   2.419
  929SOL    HW1 3686   0.571   2.703   2.385
  929SOL    HW2 3687   0.464   2.798   2.465
  930SOL     OW 3688   5.091   4.855   4.613
  930SOL    HW1 3689   5.155   4.789   4.653
  930SOL    HW2 3690   5.013   4.805   4.575
  931SOL     OW 3691   0.854   2.357   3.029
  931SOL    HW1 3692   0.779   2.318   2.975
  931SOL    HW2 3693   0.915   2.283   3.059
  932SOL     OW 3694   4.282   5.843   0.916
  932SOL    HW1 3695   4.246   5.785   0.989
  932SOL    HW2 3696   4.238   5.932   0.920
  933SOL     OW 3697   1.422   5.059   2.717
  933SOL    HW1 3698   1.500   5.117   2.691
  933SOL    HW2 3699   1.366   5.107   2.785
  934SOL     OW 3700   3.411   1.254   5.236
  934SOL    HW1 3701   3.473   1.178   5.216
  934SOL    HW2 3702   3.344   1.262   5.162
  935SOL     OW 3703   4.257   3.334   6.019
  935SOL    HW1 3704   4.313   3.415   6.038
  935SOL    HW2 3705   4.294   3.287   5.939
  936SOL     OW 3706   0.318   0.203   1.132
  936SOL    HW1 3707   0.289   0.290   1.093
  936SOL    HW2 3708   0.240   0.140   1.136
  937SOL     OW 3709   4.351   1.800   4.372
  937SOL    HW1 3710   4.353   1.809   4.471
  937SOL    HW2 3711   4.267   1.840   4.336
  938SOL     OW 3712   7.005   3.174   5.883
  938SOL    HW1 3713   7.003   3.241   5.809
  938SOL    HW2 3714   0.059   3.114   5.872
  939SOL     OW 3715   5.343   1.084   6.060
  939SOL    HW1 3716   5.377   1.036   6.140
  939SOL    HW2 3717   5.322   1.179   6.084
  940SOL     OW 3718   6.866   0.543   3.051
  940SOL    HW1 3719   6.932   0.468   3.060
  940SOL    HW2 3720   6.809   0.528   2.970
  941SOL     OW 3721   5.893   1.437   3.672
  941SOL    HW1 3722   5.902   1.469   3.766
  941SOL    HW2 3723   5.885   1.515   3.610
  942SOL     OW 3724   5.157   6.845   5.619
  942SOL    HW1 3725   5.219   6.824   5.544
  942SOL    HW2 3726   5.108   6.930   5.600
  943SOL     OW 3727   6.196   3.019   2.404
  943SOL    HW1 3728   6.247   2.953   2.458
  943SOL    HW2 3729   6.243   3.036   2.318
  944SOL     OW 3730   5.621   3.269   4.823
  944SOL    HW1 3731   5.693   3.309   4.767
  944SOL    HW2 3732   5.587   3.186   4.778
  945SOL     OW 3733   4.947   4.553   4.264
  945SOL    HW1 3734   4.919   4.500   4.184
  945SOL    HW2 3735   4.916   4.647   4.254
  946SOL     OW 3736   5.813   3.082   6.072
  946SOL    HW1 3737   5.835   3.057   5.978
  946SOL    HW2 3738   5.719   3.117   6.076
  947SOL     OW 3739   3.166   2.618   6.693
  947SOL    HW1 3740   3.254   2.606   6.737
  947SOL    HW2 3741   3.118   2.696   6.733
  948SOL     OW 3742   3.604   1.418   0.879
  948SOL    HW1 3743   3.679   1.443   0.940
  948SOL    HW2 3744   3.519   1.408   0.932
  949SOL     OW 3745   6.212   5.455   6.791
  949SOL    HW1 3746   6.274   5.467   6.869
  949SOL    HW2 3747   6.129   5.408   6.822
  950SOL     OW 3748   4.175   5.034   1.192
  950SOL    HW1 3749   4.149   4.960   1.130
  950SOL    HW2 3750   4.126   5.024   1.279
  951SOL     OW 3751   0.707   0.896   1.632
  951SOL    HW1 3752   0.699   0.833   1.710
  951SOL    HW2 3753   0.728   0.844   1.549
  952SOL     OW 3754   5.055   0.781   3.038
  952SOL    HW1 3755   5.107   0.866   3.036
  952SOL    HW2 3756   4.978   0.787   2.974
  953SOL     OW 3757   4.409   6.009   5.576
  953SOL    HW1 3758   4.491   5.957   5.601
  953SOL    HW2 3759   4.424   6.056   5.489
  954SOL     OW 3760   6.292   6.687   1.318
  954SOL    HW1 3761   6.278   6.779   1.281
  954SOL    HW2 3762   6.231   6.623   1.273
  955SOL     OW 3763   0.346   5.378   3.322
  955SOL    HW1 3764   0.407   5.389   3.401
  955SOL    HW2 3765   0.388   5.316   3.256
  956SOL     OW 3766   1.335   1.364   1.070
  956SOL    HW1 3767   1.346   1.308   1.151
  956SOL    HW2 3768   1.313   1.458   1.097
  957SOL     OW 3769   1.534   4.770   5.623
  957SOL    HW1 3770   1.509   4.681   5.584
  957SOL    HW2 3771   1.620   4.801   5.582
  958SOL     OW 3772   5.317   1.843   1.283
  958SOL    HW1 3773   5.275   1.928   1.252
  958SOL    HW2 3774   5.326   1.780   1.206
  959SOL     OW 3775   3.005   4.841   2.820
  959SOL    HW1 3776   2.913   4.804   2.807
  959SOL    HW2 3777   3.016   4.922   2.762
  960SOL     OW 3778   2.217   6.014   4.803
  960SOL    HW1 3779   2.264   5.956   4.869
  960SOL    HW2 3780   2.237   5.983   4.710
  961SOL     OW 3781   4.044   6.675   2.136
  961SOL    HW1 3782   4.077   6.678   2.042
  961SOL    HW2 3783   4.001   6.762   2.159
  962SOL     OW 3784   1.604   0.632   3.114
  962SOL    HW1 3785   1.598   0.699   3.040
  962SOL    HW2 3786   1.545   0.660   3.190
  963SOL     OW 3787   6.261   0.677   1.413
  963SOL    HW1 3788   6.205   0.640   1.487
  963SOL    HW2 3789   6.238   0.632   1.327
  964SOL     OW 3790   5.723   3.666   1.401
  964SOL    HW1 3791   5.690   3.698   1.490
  964SOL    HW2 3792   5.680   3.720   1.329
  965SOL     OW 3793   6.959   1.714   0.380
  965SOL    HW1 3794   6.859   1.715   0.383
  965SOL    HW2 3795   6.995   1.701   0.473
  966SOL     OW 3796   6.551   1.683   2.768
  966SOL    HW1 3797   6.602   1.607   2.729
  966SOL    HW2 3798   6.609   1.765   2.769
  967SOL     OW 3799   1.370   5.582   0.264
  967SOL    HW1 3800   1.307   5.654   0.234
  967SOL    HW2 3801   1.317   5.503   0.296
  968SOL     OW 3802   4.683   2.712   2.255
  968SOL    HW1 3803   4.758   2.740   2.195
  968SOL    HW2 3804   4.642   2.794   2.297
  969SOL     OW 3805   4.057   6.706   6.329
  969SOL    HW1 3806   4.155   6.724   6.319
  969SOL    HW2 3807   4.014   6.712   6.239
  970SOL     OW 3808   4.541   1.795   5.416
  970SOL    HW1 3809   4.532   1.764   5.321
  970SOL    HW2 3810   4.506   1.723   5.477
  971SOL     OW 3811   7.020   1.536   2.165
  971SOL    HW1 3812   0.090   1.524   2.192
  971SOL    HW2 3813   6.960   1.500   2.237
  972SOL     OW 3814   6.513   5.096   0.802
  972SOL    HW1 3815   6.511   5.121   0.899
  972SOL    HW2 3816   6.424   5.118   0.761
  973SOL     OW 3817   6.760   4.533   6.313
  973SOL    HW1 3818   6.805   4.479   6.243
  973SOL    HW2 3819   6.736   4.623   6.276
  974SOL     OW 3820   3.090   0.269   2.987
  974SOL    HW1 3821   3.087   0.365   2.956
  974SOL    HW2 3822   3.071   0.265   3.085
  975SOL     OW 3823   2.962   5.978   5.802
  975SOL    HW1 3824   3.061   5.963   5.807
  975SOL    HW2 3825   2.944   6.063   5.754
  976SOL     OW 3826   6.997   2.783   2.828
  976SOL    HW1 3827   6.962   2.695   2.794
  976SOL    HW2 3828   0.050   2.766   2.889
  977SOL     OW 3829   1.572   1.114   3.981
  977SOL    HW1 3830   1.577   1.125   4.080
  977SOL    HW2 3831   1.653   1.067   3.948
  978SOL     OW 3832   5.792   4.172   4.672
  978SOL    HW1 3833   5.693   4.177   4.658
  978SOL    HW2 3834   5.839   4.205   4.590
  979SOL     OW 3835   5.965   1.291   2.996
  979SOL    HW1 3836   6.012   1.225   3.055
  979SOL    HW2 3837   6.031   1.335   2.935
  980SOL     OW 3838   5.413   2.318   3.799
  980SOL    HW1 3839   5.406   2.415   3.822
  980SOL    HW2 3840   5.349   2.265   3.854
  981SOL     OW 3841   1.148   1.765   4.377
  981SOL    HW1 3842   1.165   1.856   4.413
  981SOL    HW2 3843   1.056   1.735   4.402
  982SOL     OW 3844   0.761   2.372   1.553
  982SOL    HW1 3845   0.854   2.395   1.582
  982SOL    HW2 3846   0.742   2.413   1.464
  983SOL     OW 3847   6.090   1.887   3.287
  983SOL    HW1 3848   6.145   1.808   3.259
  983SOL    HW2 3849   6.147   1.969   3.285
  984SOL     OW 3850   4.637   0.908   5.429
  984SOL    HW1 3851   4.577   0.984   5.456
  984SOL    HW2 3852   4.612   0.877   5.337
  985SOL     OW 3853   3.749   5.520   0.917
  985SOL    HW1 3854   3.813   5.570   0.859
  985SOL    HW2 3855   3.672   5.488   0.861
  986SOL     OW 3856   5.474   5.341   6.529
  986SOL    HW1 3857   5.535   5.390   6.466
  986SOL    HW2 3858   5.524   5.264   6.570
  987SOL     OW 3859   2.721   6.617   1.611
  987SOL    HW1 3860   2.677   6.545   1.665
  987SOL    HW2 3861   2.653   6.686   1.587
  988SOL     OW 3862   3.800   2.753   0.818
  988SOL    HW1 3863   3.788   2.738   0.720
  988SOL    HW2 3864   3.872   2.693   0.853
  989SOL     OW 3865   0.713   0.349   6.195
  989SOL    HW1 3866   0.810   0.326   6.201
  989SOL    HW2 3867   0.702   0.434   6.143
  990SOL     OW 3868   5.033   0.292   4.091
  990SOL    HW1 3869   5.013   0.292   3.993
  990SOL    HW2 3870   5.071   0.204   4.118
  991SOL     OW 3871   1.427   2.153   4.611
  991SOL    HW1 3872   1.452   2.246   4.585
  991SOL    HW2 3873   1.408   2.150   4.709
  992SOL     OW 3874   0.159   3.011   6.342
  992SOL    HW1 3875   0.070   3.020   6.296
  992SOL    HW2 3876   0.231   2.997   6.274
  993SOL     OW 3877   2.959   5.068   2.669
  993SOL    HW1 3878   2.977   5.166   2.666
  993SOL    HW2 3879   2.921   5.038   2.582
  994SOL     OW 3880   3.763   4.088   2.530
  994SOL    HW1 3881   3.819   4.085   2.613
  994SOL    HW2 3882   3.795   4.017   2.467
  995SOL     OW 3883   2.103   3.165   6.361
  995SOL    HW1 3884   2.046   3.223   6.303
  995SOL    HW2 3885   2.059   3.152   6.450
  996SOL     OW 3886   1.950   3.253   3.311
  996SOL    HW1 3887   1.932   3.300   3.397
  996SOL    HW2 3888   1.920   3.311   3.235
  997SOL     OW 3889   0.496   0.996   1.169
  997SOL    HW1 3890   0.515   1.073   1.230
  997SOL    HW2 3891   0.573   0.983   1.107
  998SOL     OW 3892   3.839   6.328   2.577
  998SOL    HW1 3893   3.745   6.325   2.545
  998SOL    HW2 3894   3.902   6.327   2.499
  999SOL     OW 3895   5.695   5.588   1.103
  999SOL    HW1 3896   5.774   5.631   1.146
  999SOL    HW2 3897   5.642   5.540   1.172
 1000SOL     OW 3898   2.082   1.959   2.868
 1000SOL    HW1 3899   2.135   2.040   2.892
 1000SOL    HW2 3900   2.129   1.909   2.795
 1001SOL     OW 3901   4.590   6.690   7.012
 1001SOL    HW1 3902   4.665   6.746   6.974
 1001SOL    HW2 3903   4.506   6.709   6.961
 1002SOL     OW 3904   5.641   1.576   6.591
 1002SOL    HW1 3905   5.701   1.652   6.617
 1002SOL    HW2 3906   5.686   1.490   6.614
 1003SOL     OW 3907   2.245   6.468   2.824
 1003SOL    HW1 3908   2.251   6.369   2.824
 1003SOL    HW2 3909   2.256   6.503   2.917
 1004SOL     OW 3910   0.113   0.001   6.576
 1004SOL    HW1 3911   0.080   0.060   6.502
 1004SOL    HW2 3912   0.169   0.054   6.639
 1005SOL     OW 3913   0.243   0.163   2.265
 1005SOL    HW1 3914   0.162   0.130   2.314
 1005SOL    HW2 3915   0.233   0.144   2.168
 1006SOL     OW 3916   2.368   5.296   1.671
 1006SOL    HW1 3917   2.393   5.207   1.709
 1006SOL    HW2 3918   2.305   5.283   1.594
 1007SOL     OW 3919   6.741   0.894   3.633
 1007SOL    HW1 3920   6.714   0.885   3.537
 1007SOL    HW2 3921   6.696   0.974   3.673
 1008SOL     OW 3922   0.683   2.572   3.813
 1008SOL    HW1 3923   0.705   2.523   3.729
 1008SOL    HW2 3924   0.764   2.573   3.873
 1009SOL     OW 3925   6.652   5.539   3.869
 1009SOL    HW1 3926   6.566   5.571   3.909
 1009SOL    HW2 3927   6.693   5.469   3.928
 1010SOL     OW 3928   3.893   2.011   0.021
 1010SOL    HW1 3929   3.797   2.030   0.044
 1010SOL    HW2 3930   3.949   2.092   0.040
 1011SOL     OW 3931   3.066   5.784   4.294
 1011SOL    HW1 3932   3.064   5.686   4.277
 1011SOL    HW2 3933   2.984   5.827   4.257
 1012SOL     OW 3934   6.626   5.280   1.009
 1012SOL    HW1 3935   6.602   5.377   1.007
 1012SOL    HW2 3936   6.725   5.271   1.016
 1013SOL     OW 3937   0.598   1.136   6.613
 1013SOL    HW1 3938   0.565   1.085   6.534
 1013SOL    HW2 3939   0.659   1.077   6.667
 1014SOL     OW 3940   4.963   5.526   6.151
 1014SOL    HW1 3941   4.947   5.432   6.182
 1014SOL    HW2 3942   4.901   5.546   6.075
 1015SOL     OW 3943   4.216   6.901   4.844
 1015SOL    HW1 3944   4.274   6.822   4.825
 1015SOL    HW2 3945   4.157   6.919   4.765
 1016SOL     OW 3946   3.000   2.930   1.373
 1016SOL    HW1 3947   3.079   2.870   1.388
 1016SOL    HW2 3948   2.926   2.877   1.331
 1017SOL     OW 3949   5.107   2.663   0.863
 1017SOL    HW1 3950   5.108   2.634   0.958
 1017SOL    HW2 3951   5.176   2.735   0.849
 1018SOL     OW 3952   1.736   3.197   4.030
 1018SOL    HW1 3953   1.799   3.129   4.066
 1018SOL    HW2 3954   1.667   3.152   3.973
 1019SOL     OW 3955   0.372   1.294   7.000
 1019SOL    HW1 3956   0.307   1.239   0.027
 1019SOL    HW2 3957   0.464   1.255   7.010
 1020SOL     OW 3958   1.851   0.229   0.821
 1020SOL    HW1 3959   1.932   0.227   0.879
 1020SOL    HW2 3960   1.867   0.175   0.738
 1021SOL     OW 3961   6.229   1.210   2.104
 1021SOL    HW1 3962   6.148   1.253   2.063
 1021SOL    HW2 3963   6.311   1.257   2.071
 1022SOL     OW 3964   4.459   3.933   6.121
 1022SOL    HW1 3965   4.543   3.987   6.121
 1022SOL    HW2 3966   4.408   3.951   6.205
 1023SOL     OW 3967   5.773   0.164   2.126
 1023SOL    HW1 3968   5.753   0.066   2.120
 1023SOL    HW2 3969   5.692   0.217   2.098
 1024SOL     OW 3970   6.565   2.257   4.144
 1024SOL    HW1 3971   6.554   2.344   4.096
 1024SOL    HW2 3972   6.620   2.195   4.088
 1025SOL     OW 3973   3.544   4.322   0.349
 1025SOL    HW1 3974   3.594   4.241   0.318
 1025SOL    HW2 3975   3.468   4.294   0.408
 1026SOL     OW 3976   1.625   1.360   0.671
 1026SOL    HW1 3977   1.594   1.323   0.759
 1026SOL    HW2 3978   1.668   1.287   0.618
 1027SOL     OW 3979   3.239   5.839   1.351
 1027SOL    HW1 3980   3.247   5.907   1.279
 1027SOL    HW2 3981   3.144   5.808   1.358
 1028SOL     OW 3982   2.186   6.325   0.229
 1028SOL    HW1 3983   2.161   6.334   0.326
 1028SOL    HW2 3984   2.263   6.386   0.209
 1029SOL     OW 3985   2.009   0.284   0.042
 1029SOL    HW1 3986   1.993   0.306   0.139
 1029SOL    HW2 3987   1.929   0.310   7.013
 1030SOL     OW 3988   3.599   2.966   4.510
 1030SOL    HW1 3989   3.596   2.922   4.600
 1030SOL    HW2 3990   3.576   3.063   4.519
 1031SOL     OW 3991   3.442   5.337   1.809
 1031SOL    HW1 3992   3.447   5.396   1.728
 1031SOL    HW2 3993   3.459   5.392   1.891
 1032SOL     OW 3994   2.163   1.383   5.574
 1032SOL    HW1 3995   2.225   1.305   5.588
 1032SOL    HW2 3996   2.214   1.460   5.536
 1033SOL     OW 3997   1.763   5.753   1.500
 1033SOL    HW1 3998   1.823   5.832   1.517
 1033SOL    HW2 3999   1.676   5.784   1.464
 1034SOL     OW 4000   2.139   6.208   4.095
 1034SOL    HW1 4001   2.216   6.171   4.044
 1034SOL    HW2 4002   2.172   6.276   4.161
 1035SOL     OW 4003   2.825   1.856   4.109
 1035SOL    HW1 4004   2.905   1.882   4.055
 1035SOL    HW2 4005   2.743   1.894   4.067
 1036SOL     OW 4006   3.884   1.062   0.980
 1036SOL    HW1 4007   3.859   1.036   1.073
 1036SOL    HW2 4008   3.981   1.043   0.965
 1037SOL     OW 4009   0.836   1.264   0.519
 1037SOL    HW1 4010   0.742   1.261   0.484
 1037SOL    HW2 4011   0.838   1.231   0.613
 1038SOL     OW 4012   0.822   1.416   5.821
 1038SOL    HW1 4013   0.907   1.466   5.806
 1038SOL    HW2 4014   0.842   1.320   5.837
 1039SOL     OW 4015   4.055   1.767   4.649
 1039SOL    HW1 4016   3.976   1.774   4.588
 1039SOL    HW2 4017   4.026   1.730   4.737
 1040SOL     OW 4018   5.740   3.553   3.316
 1040SOL    HW1 4019   5.669   3.558   3.387
 1040SOL    HW2 4020   5.743   3.460   3.278
 1041SOL     OW 4021   6.611   0.409   3.921
 1041SOL    HW1 4022   6.675   0.447   3.987
 1041SOL    HW2 4023   6.656   0.398   3.832
 1042SOL     OW 4024   4.596   4.876   2.054
 1042SOL    HW1 4025   4.630   4.795   2.006
 1042SOL    HW2 4026   4.541   4.930   1.991
 1043SOL     OW 4027   3.802   1.272   6.435
 1043SOL    HW1 4028   3.759   1.289   6.346
 1043SOL    HW2 4029   3.747   1.314   6.507
 1044SOL     OW 4030   3.373   2.126   1.347
 1044SOL    HW1 4031   3.432   2.055   1.385
 1044SOL    HW2 4032   3.416   2.215   1.359
 1045SOL     OW 4033   2.930   0.857   1.852
 1045SOL    HW1 4034   2.869   0.853   1.931
 1045SOL    HW2 4035   2.902   0.933   1.793
 1046SOL     OW 4036   2.518   6.574   0.101
 1046SOL    HW1 4037   2.440   6.545   0.157
 1046SOL    HW2 4038   2.601   6.571   0.156
 1047SOL     OW 4039   1.634   5.156   3.138
 1047SOL    HW1 4040   1.680   5.216   3.204
 1047SOL    HW2 4041   1.703   5.114   3.079
 1048SOL     OW 4042   5.129   5.318   5.275
 1048SOL    HW1 4043   5.099   5.266   5.195
 1048SOL    HW2 4044   5.140   5.256   5.352
 1049SOL     OW 4045   0.172   3.873   5.293
 1049SOL    HW1 4046   0.215   3.798   5.343
 1049SOL    HW2 4047   0.182   3.857   5.195
 1050SOL     OW 4048   4.011   6.877   0.271
 1050SOL    HW1 4049   4.032   6.787   0.231
 1050SOL    HW2 4050   3.952   6.928   0.209
 1051SOL     OW 4051   4.089   4.838   0.149
 1051SOL    HW1 4052   4.162   4.777   0.179
 1051SOL    HW2 4053   4.000   4.798   0.171
 1052SOL     OW 4054   3.821   0.503   4.842
 1052SOL    HW1 4055   3.877   0.569   4.894
 1052SOL    HW2 4056   3.761   0.553   4.780
 1053SOL     OW 4057   5.089   5.927   3.735
 1053SOL    HW1 4058   5.035   5.867   3.795
 1053SOL    HW2 4059   5.122   5.875   3.657
 1054SOL     OW 4060   2.886   4.792   5.610
 1054SOL    HW1 4061   2.850   4.817   5.700
 1054SOL    HW2 4062   2.886   4.692   5.601
 1055SOL     OW 4063   5.477   5.451   4.731
 1055SOL    HW1 4064   5.416   5.492   4.662
 1055SOL    HW2 4065   5.509   5.522   4.793
 1056SOL     OW 4066   1.314   6.525   5.190
 1056SOL    HW1 4067   1.260   6.598   5.148
 1056SOL    HW2 4068   1.411   6.542   5.174
 1057SOL     OW 4069   3.162   3.579   3.241
 1057SOL    HW1 4070   3.155   3.498   3.298
 1057SOL    HW2 4071   3.239   3.569   3.178
 1058SOL     OW 4072   4.169   1.790   2.014
 1058SOL    HW1 4073   4.130   1.787   1.922
 1058SOL    HW2 4074   4.267   1.806   2.007
 1059SOL     OW 4075   3.957   0.710   2.093
 1059SOL    HW1 4076   3.939   0.616   2.067
 1059SOL    HW2 4077   3.879   0.768   2.069
 1060SOL     OW 4078   0.531   3.762   5.798
 1060SOL    HW1 4079   0.512   3.733   5.892
 1060SOL    HW2 4080   0.557   3.859   5.797
 1061SOL     OW 4081   3.442   4.608   1.388
 1061SOL    HW1 4082   3.365   4.622   1.450
 1061SOL    HW2 4083   3.460   4.692   1.337
 1062SOL     OW 4084   6.835   5.728   5.193
 1062SOL    HW1 4085   6.777   5.752   5.115
 1062SOL    HW2 4086   6.920   5.780   5.190
 1063SOL     OW 4087   1.043   3.278   1.346
 1063SOL    HW1 4088   1.142   3.268   1.350
 1063SOL    HW2 4089   1.013   3.340   1.420
 1064SOL     OW 4090   1.771   3.250   2.337
 1064SOL    HW1 4091   1.738   3.328   2.390
 1064SOL    HW2 4092   1.713   3.171   2.354
 1065SOL     OW 4093   5.470   6.932   3.778
 1065SOL    HW1 4094   5.529   7.013   3.785
 1065SOL    HW2 4095   5.474   6.880   3.863
 1066SOL     OW 4096   5.251   0.317   4.312
 1066SOL    HW1 4097   5.209   0.287   4.398
 1066SOL    HW2 4098   5.180   0.347   4.248
 1067SOL     OW 4099   1.679   2.545   1.433
 1067SOL    HW1 4100   1.703   2.529   1.338
 1067SOL    HW2 4101   1.708   2.637   1.460
 1068SOL     OW 4102   0.518   3.981   2.163
 1068SOL    HW1 4103   0.448   3.997   2.093
 1068SOL    HW2 4104   0.543   3.885   2.164
 1069SOL     OW 4105   4.457   4.080   0.876
 1069SOL    HW1 4106   4.464   4.044   0.783
 1069SOL    HW2 4107   4.512   4.163   0.884
 1070SOL     OW 4108   1.967   0.840   0.304
 1070SOL    HW1 4109   1.884   0.868   0.255
 1070SOL    HW2 4110   1.942   0.785   0.383
 1071SOL     OW 4111   4.149   0.086   2.918
 1071SOL    HW1 4112   4.102   0.039   2.993
 1071SOL    HW2 4113   4.127   0.041   2.832
 1072SOL     OW 4114   2.855   6.368   2.437
 1072SOL    HW1 4115   2.850   6.299   2.509
 1072SOL    HW2 4116   2.868   6.324   2.349
 1073SOL     OW 4117   3.381   4.907   2.210
 1073SOL    HW1 4118   3.446   4.911   2.286
 1073SOL    HW2 4119   3.316   4.832   2.227
 1074SOL     OW 4120   1.647   5.208   2.097
 1074SOL    HW1 4121   1.702   5.181   2.176
 1074SOL    HW2 4122   1.653   5.138   2.026
 1075SOL     OW 4123   5.175   4.760   3.401
 1075SOL    HW1 4124   5.144   4.828   3.468
 1075SOL    HW2 4125   5.202   4.676   3.447
 1076SOL     OW 4126   1.234   4.493   4.884
 1076SOL    HW1 4127   1.260   4.416   4.826
 1076SOL    HW2 4128   1.138   4.484   4.909
 1077SOL     OW 4129   5.802   6.940   0.689
 1077SOL    HW1 4130   5.706   6.926   0.664
 1077SOL    HW2 4131   5.807   6.975   0.783
 1078SOL     OW 4132   1.589   1.460   1.874
 1078SOL    HW1 4133   1.592   1.453   1.974
 1078SOL    HW2 4134   1.649   1.391   1.834
 1079SOL     OW 4135   2.683   6.037   3.794
 1079SOL    HW1 4136   2.694   5.939   3.806
 1079SOL    HW2 4137   2.600   6.054   3.740
 1080SOL     OW 4138   2.627   5.722   3.668
 1080SOL    HW1 4139   2.571   5.651   3.710
 1080SOL    HW2 4140   2.722   5.691   3.663
 1081SOL     OW 4141   1.520   1.312   5.910
 1081SOL    HW1 4142   1.514   1.371   5.991
 1081SOL    HW2 4143   1.616   1.301   5.884
 1082SOL     OW 4144   1.583   0.184   5.486
 1082SOL    HW1 4145   1.548   0.269   5.526
 1082SOL    HW2 4146   1.626   0.129   5.558
 1083SOL     OW 4147   3.304   3.472   2.261
 1083SOL    HW1 4148   3.283   3.565   2.292
 1083SOL    HW2 4149   3.404   3.459   2.260
 1084SOL     OW 4150   6.060   5.390   1.124
 1084SOL    HW1 4151   6.054   5.320   1.196
 1084SOL    HW2 4152   6.141   5.374   1.069
 1085SOL     OW 4153   2.219   4.963   4.182
 1085SOL    HW1 4154   2.220   4.879   4.235
 1085SOL    HW2 4155   2.292   5.024   4.215
 1086SOL     OW 4156   5.595   5.731   3.532
 1086SOL    HW1 4157   5.651   5.814   3.528
 1086SOL    HW2 4158   5.631   5.664   3.467
 1087SOL     OW 4159   5.184   3.079   5.170
 1087SOL    HW1 4160   5.187   3.000   5.231
 1087SOL    HW2 4161   5.216   3.160   5.219
 1088SOL     OW 4162   4.864   4.420   3.294
 1088SOL    HW1 4163   4.956   4.399   3.325
 1088SOL    HW2 4164   4.810   4.336   3.288
 1089SOL     OW 4165   0.189   0.611   4.815
 1089SOL    HW1 4166   0.180   0.572   4.907
 1089SOL    HW2 4167   0.110   0.587   4.760
 1090SOL     OW 4168   2.536   1.298   5.326
 1090SOL    HW1 4169   2.440   1.306   5.299
 1090SOL    HW2 4170   2.587   1.377   5.291
 1091SOL     OW 4171   1.802   1.820   4.169
 1091SOL    HW1 4172   1.727   1.769   4.127
 1091SOL    HW2 4173   1.841   1.766   4.243
 1092SOL     OW 4174   2.183   4.095   1.194
 1092SOL    HW1 4175   2.194   4.087   1.293
 1092SOL    HW2 4176   2.113   4.164   1.174
 1093SOL     OW 4177   1.531   2.686   1.951
 1093SOL    HW1 4178   1.614   2.651   1.907
 1093SOL    HW2 4179   1.454   2.678   1.888
 1094SOL     OW 4180   0.384   6.636   1.658
 1094SOL    HW1 4181   0.302   6.648   1.715
 1094SOL    HW2 4182   0.443   6.717   1.667
 1095SOL     OW 4183   5.943   2.828   6.414
 1095SOL    HW1 4184   6.026   2.773   6.418
 1095SOL    HW2 4185   5.870   2.782   6.466
 1096SOL     OW 4186   3.516   4.949   1.003
 1096SOL    HW1 4187   3.474   4.980   0.918
 1096SOL    HW2 4188   3.612   4.977   1.005
 1097SOL     OW 4189   1.701   5.103   5.051
 1097SOL    HW1 4190   1.755   5.163   4.992
 1097SOL    HW2 4191   1.717   5.008   5.026
 1098SOL     OW 4192   5.062   2.192   0.925
 1098SOL    HW1 4193   5.059   2.093   0.936
 1098SOL    HW2 4194   5.051   2.236   1.014
 1099SOL     OW 4195   4.098   2.246   4.300
 1099SOL    HW1 4196   4.002   2.254   4.328
 1099SOL    HW2 4197   4.157   2.258   4.380
 1100SOL     OW 4198   1.051   1.298   6.072
 1100SOL    HW1 4199   1.015   1.381   6.114
 1100SOL    HW2 4200   1.137   1.272   6.117
 1101SOL     OW 4201   5.314   3.222   1.004
 1101SOL    HW1 4202   5.269   3.247   0.918
 1101SOL    HW2 4203   5.392   3.283   1.019
 1102SOL     OW 4204   0.494   4.596   3.915
 1102SOL    HW1 4205   0.556   4.537   3.967
 1102SOL    HW2 4206   0.449   4.543   3.844
 1103SOL     OW 4207   1.482   1.698   1.825
 1103SOL    HW1 4208   1.540   1.618   1.828
 1103SOL    HW2 4209   1.530   1.777   1.863
 1104SOL     OW 4210   2.516   4.670   6.414
 1104SOL    HW1 4211   2.482   4.598   6.354
 1104SOL    HW2 4212   2.460   4.675   6.496
 1105SOL     OW 4213   5.054   4.140   0.013
 1105SOL    HW1 4214   5.121   4.201   0.056
 1105SOL    HW2 4215   5.037   4.062   0.073
 1106SOL     OW 4216   6.770   2.393   6.184
 1106SOL    HW1 4217   6.681   2.352   6.167
 1106SOL    HW2 4218   6.822   2.336   6.247
 1107SOL     OW 4219   0.794   0.156   0.059
 1107SOL    HW1 4220   0.802   0.076   0.118
 1107SOL    HW2 4221   0.857   0.145   7.006
 1108SOL     OW 4222   2.527   1.162   6.135
 1108SOL    HW1 4223   2.437   1.122   6.148
 1108SOL    HW2 4224   2.590   1.128   6.205
 1109SOL     OW 4225   4.051   6.054   4.310
 1109SOL    HW1 4226   3.962   6.097   4.325
 1109SOL    HW2 4227   4.066   5.983   4.379
 1110SOL     OW 4228   2.789   2.790   1.699
 1110SOL    HW1 4229   2.760   2.886   1.696
 1110SOL    HW2 4230   2.889   2.785   1.704
 1111SOL     OW 4231   5.669   0.171   0.136
 1111SOL    HW1 4232   5.748   0.205   0.187
 1111SOL    HW2 4233   5.606   0.125   0.199
 1112SOL     OW 4234   6.165   0.443   2.389
 1112SOL    HW1 4235   6.103   0.439   2.467
 1112SOL    HW2 4236   6.181   0.350   2.354
 1113SOL     OW 4237   6.865   3.210   2.582
 1113SOL    HW1 4238   6.900   3.272   2.511
 1113SOL    HW2 4239   6.806   3.141   2.540
 1114SOL     OW 4240   4.900   0.681   6.349
 1114SOL    HW1 4241   4.908   0.607   6.415
 1114SOL    HW2 4242   4.813   0.673   6.300
 1115SOL     OW 4243   3.855   2.754   0.293
 1115SOL    HW1 4244   3.790   2.781   0.222
 1115SOL    HW2 4245   3.888   2.836   0.341
 1116SOL     OW 4246   4.974   5.759   3.898
 1116SOL    HW1 4247   5.038   5.766   3.975
 1116SOL    HW2 4248   4.996   5.678   3.844
 1117SOL     OW 4249   2.496   2.589   1.692
 1117SOL    HW1 4250   2.485   2.682   1.726
 1117SOL    HW2 4251   2.588   2.555   1.715
 1118SOL     OW 4252   1.978   5.261   2.811
 1118SOL    HW1 4253   1.904   5.320   2.844
 1118SOL    HW2 4254   2.064   5.289   2.854
 1119SOL     OW 4255   4.272   4.084   1.712
 1119SOL    HW1 4256   4.328   4.154   1.757
 1119SOL    HW2 4257   4.261   4.006   1.774
 1120SOL     OW 4258   5.392   0.125   6.439
 1120SOL    HW1 4259   5.316   0.190   6.430
 1120SOL    HW2 4260   5.406   0.104   6.535
 1121SOL     OW 4261   5.222   2.659   1.936
 1121SOL    HW1 4262   5.171   2.656   1.850
 1121SOL    HW2 4263   5.233   2.754   1.965
 1122SOL     OW 4264   5.772   3.070   6.886
 1122SOL    HW1 4265   5.753   2.981   6.929
 1122SOL    HW2 4266   5.743   3.067   6.790
 1123SOL     OW 4267   4.464   1.501   2.134
 1123SOL    HW1 4268   4.420   1.527   2.220
 1123SOL    HW2 4269   4.465   1.401   2.126
 1124SOL     OW 4270   6.974   3.657   5.581
 1124SOL    HW1 4271   0.019   3.601   5.538
 1124SOL    HW2 4272   6.889   3.605   5.589
 1125SOL     OW 4273   2.986   2.858   5.315
 1125SOL    HW1 4274   2.976   2.767   5.356
 1125SOL    HW2 4275   2.899   2.907   5.323
 1126SOL     OW 4276   4.563   0.294   0.321
 1126SOL    HW1 4277   4.563   0.293   0.421
 1126SOL    HW2 4278   4.626   0.364   0.288
 1127SOL     OW 4279   2.908   4.680   0.253
 1127SOL    HW1 4280   2.921   4.701   0.156
 1127SOL    HW2 4281   2.837   4.611   0.262
 1128SOL     OW 4282   4.138   2.174   3.790
 1128SOL    HW1 4283   4.142   2.225   3.704
 1128SOL    HW2 4284   4.192   2.090   3.781
 1129SOL     OW 4285   4.443   0.670   0.423
 1129SOL    HW1 4286   4.456   0.761   0.384
 1129SOL    HW2 4287   4.394   0.677   0.510
 1130SOL     OW 4288   1.605   4.055   0.810
 1130SOL    HW1 4289   1.649   4.056   0.899
 1130SOL    HW2 4290   1.617   3.966   0.767
 1131SOL     OW 4291   0.146   6.193   5.697
 1131SOL    HW1 4292   0.092   6.211   5.614
 1131SOL    HW2 4293   0.225   6.253   5.698
 1132SOL     OW 4294   4.977   6.898   5.992
 1132SOL    HW1 4295   5.013   6.925   6.081
 1132SOL    HW2 4296   4.949   6.980   5.942
 1133SOL     OW 4297   0.433   2.383   1.452
 1133SOL    HW1 4298   0.428   2.350   1.546
 1133SOL    HW2 4299   0.489   2.466   1.448
 1134SOL     OW 4300   5.553   2.627   0.027
 1134SOL    HW1 4301   5.570   2.533   0.000
 1134SOL    HW2 4302   5.538   2.631   0.126
 1135SOL     OW 4303   3.104   2.130   3.359
 1135SOL    HW1 4304   3.020   2.181   3.378
 1135SOL    HW2 4305   3.092   2.077   3.275
 1136SOL     OW 4306   2.569   5.747   3.402
 1136SOL    HW1 4307   2.602   5.652   3.394
 1136SOL    HW2 4308   2.564   5.773   3.498
 1137SOL     OW 4309   1.331   1.932   6.180
 1137SOL    HW1 4310   1.259   1.884   6.130
 1137SOL    HW2 4311   1.343   1.888   6.269
 1138SOL     OW 4312   2.596   3.755   6.126
 1138SOL    HW1 4313   2.668   3.706   6.176
 1138SOL    HW2 4314   2.621   3.761   6.029
 1139SOL     OW 4315   1.039   6.234   2.885
 1139SOL    HW1 4316   0.983   6.297   2.833
 1139SOL    HW2 4317   1.084   6.283   2.960
 1140SOL     OW 4318   3.403   1.587   3.292
 1140SOL    HW1 4319   3.320   1.643   3.291
 1140SOL    HW2 4320   3.479   1.640   3.329
 1141SOL     OW 4321   5.802   5.632   5.643
 1141SOL    HW1 4322   5.799   5.553   5.705
 1141SOL    HW2 4323   5.884   5.686   5.662
 1142SOL     OW 4324   5.313   0.575   4.355
 1142SOL    HW1 4325   5.246   0.638   4.315
 1142SOL    HW2 4326   5.281   0.481   4.346
 1143SOL     OW 4327   4.108   2.265   2.525
 1143SOL    HW1 4328   4.116   2.178   2.574
 1143SOL    HW2 4329   4.105   2.340   2.592
 1144SOL     OW 4330   0.411   4.068   4.066
 1144SOL    HW1 4331   0.384   4.142   4.005
 1144SOL    HW2 4332   0.481   4.101   4.130
 1145SOL     OW 4333   6.723   5.361   4.069
 1145SOL    HW1 4334   6.660   5.394   4.140
 1145SOL    HW2 4335   6.708   5.263   4.054
 1146SOL     OW 4336   6.122   2.306   0.920
 1146SOL    HW1 4337   6.153   2.333   1.012
 1146SOL    HW2 4338   6.031   2.265   0.927
 1147SOL     OW 4339   0.606   3.590   2.280
 1147SOL    HW1 4340   0.519   3.543   2.268
 1147SOL    HW2 4341   0.612   3.626   2.373
 1148SOL     OW 4342   3.603   6.198   6.356
 1148SOL    HW1 4343   3.605   6.297   6.343
 1148SOL    HW2 4344   3.685   6.158   6.316
 1149SOL     OW 4345   6.480   3.548   2.757
 1149SOL    HW1 4346   6.427   3.565   2.840
 1149SOL    HW2 4347   6.455   3.615   2.687
 1150SOL     OW 4348   2.042   4.913   1.193
 1150SOL    HW1 4349   2.018   4.831   1.246
 1150SOL    HW2 4350   2.115   4.891   1.129
 1151SOL     OW 4351   5.692   5.515   6.445
 1151SOL    HW1 4352   5.743   5.589   6.401
 1151SOL    HW2 4353   5.600   5.547   6.468
 1152SOL     OW 4354   0.876   0.035   4.910
 1152SOL    HW1 4355   0.965   0.017   4.869
 1152SOL    HW2 4356   0.872   0.130   4.941
 1153SOL     OW 4357   2.136   6.130   2.623
 1153SOL    HW1 4358   2.209   6.151   2.688
 1153SOL    HW2 4359   2.110   6.034   2.632
 1154SOL     OW 4360   0.795   3.906   2.055
 1154SOL    HW1 4361   0.709   3.954   2.074
 1154SOL    HW2 4362   0.806   3.831   2.120
 1155SOL     OW 4363   3.202   6.313   0.816
 1155SOL    HW1 4364   3.266   6.358   0.877
 1155SOL    HW2 4365   3.235   6.221   0.794
 1156SOL     OW 4366   2.349   0.754   3.677
 1156SOL    HW1 4367   2.303   0.670   3.705
 1156SOL    HW2 4368   2.445   0.734   3.655
 1157SOL     OW 4369   6.849   2.396   4.577
 1157SOL    HW1 4370   6.779   2.367   4.511
 1157SOL    HW2 4371   6.937   2.358   4.551
 1158SOL     OW 4372   5.771   4.569   6.204
 1158SOL    HW1 4373   5.746   4.503   6.133
 1158SOL    HW2 4374   5.763   4.525   6.294
 1159SOL     OW 4375   3.307   5.863   2.723
 1159SOL    HW1 4376   3.212   5.883   2.747
 1159SOL    HW2 4377   3.316   5.857   2.624
 1160SOL     OW 4378   3.902   3.889   2.389
 1160SOL    HW1 4379   3.948   3.835   2.460
 1160SOL    HW2 4380   3.966   3.908   2.315
 1161SOL     OW 4381   5.636   0.320   4.065
 1161SOL    HW1 4382   5.538   0.318   4.044
 1161SOL    HW2 4383   5.652   0.274   4.152
 1162SOL     OW 4384   3.053   3.440   1.856
 1162SOL    HW1 4385   3.026   3.344   1.864
 1162SOL    HW2 4386   3.025   3.490   1.939
 1163SOL     OW 4387   4.754   1.960   1.601
 1163SOL    HW1 4388   4.664   1.923   1.580
 1163SOL    HW2 4389   4.795   1.908   1.677
 1164SOL     OW 4390   5.523   3.329   2.729
 1164SOL    HW1 4391   5.435   3.374   2.714
 1164SOL    HW2 4392   5.513   3.258   2.798
 1165SOL     OW 4393   0.710   3.433   3.389
 1165SOL    HW1 4394   0.760   3.347   3.387
 1165SOL    HW2 4395   0.662   3.446   3.303
 1166SOL     OW 4396   4.197   2.270   6.228
 1166SOL    HW1 4397   4.115   2.247   6.280
 1166SOL    HW2 4398   4.237   2.354   6.264
 1167SOL     OW 4399   3.899   0.927   5.072
 1167SOL    HW1 4400   3.844   1.009   5.055
 1167SOL    HW2 4401   3.887   0.898   5.166
 1168SOL     OW 4402   6.848   6.250   3.100
 1168SOL    HW1 4403   6.919   6.206   3.045
 1168SOL    HW2 4404   6.881   6.263   3.194
 1169SOL     OW 4405   0.431   3.195   1.398
 1169SOL    HW1 4406   0.422   3.176   1.496
 1169SOL    HW2 4407   0.528   3.206   1.376
 1170SOL     OW 4408   3.680   1.310   3.044
 1170SOL    HW1 4409   3.667   1.258   2.959
 1170SOL    HW2 4410   3.618   1.274   3.114
 1171SOL     OW 4411   3.147   6.210   1.246
 1171SOL    HW1 4412   3.215   6.214   1.320
 1171SOL    HW2 4413   3.060   6.245   1.279
 1172SOL     OW 4414   3.942   3.690   4.136
 1172SOL    HW1 4415   4.017   3.635   4.100
 1172SOL    HW2 4416   3.855   3.649   4.109
 1173SOL     OW 4417   3.142   0.365   5.929
 1173SOL    HW1 4418   3.186   0.414   5.854
 1173SOL    HW2 4419   3.049   0.399   5.942
 1174SOL     OW 4420   2.625   5.617   0.624
 1174SOL    HW1 4421   2.708   5.673   0.633
 1174SOL    HW2 4422   2.558   5.667   0.569
 1175SOL     OW 4423   5.745   4.561   6.743
 1175SOL    HW1 4424   5.794   4.648   6.740
 1175SOL    HW2 4425   5.665   4.571   6.803
 1176SOL     OW 4426   5.377   4.698   1.029
 1176SOL    HW1 4427   5.396   4.733   0.938
 1176SOL    HW2 4428   5.279   4.705   1.048
 1177SOL     OW 4429   6.533   3.317   5.601
 1177SOL    HW1 4430   6.559   3.270   5.686
 1177SOL    HW2 4431   6.434   3.329   5.599
 1178SOL     OW 4432   5.495   3.613   2.411
 1178SOL    HW1 4433   5.499   3.678   2.334
 1178SOL    HW2 4434   5.427   3.543   2.392
 1179SOL     OW 4435   1.745   3.726   0.763
 1179SOL    HW1 4436   1.840   3.748   0.785
 1179SOL    HW2 4437   1.721   3.638   0.803
 1180SOL     OW 4438   2.163   1.349   3.708
 1180SOL    HW1 4439   2.133   1.298   3.627
 1180SOL    HW2 4440   2.087   1.355   3.773
 1181SOL     OW 4441   1.383   4.628   4.075
 1181SOL    HW1 4442   1.441   4.694   4.122
 1181SOL    HW2 4443   1.374   4.545   4.130
 1182SOL     OW 4444   2.288   4.140   3.830
 1182SOL    HW1 4445   2.262   4.202   3.756
 1182SOL    HW2 4446   2.349   4.188   3.893
 1183SOL     OW 4447   4.389   5.881   1.586
 1183SOL    HW1 4448   4.473   5.930   1.560
 1183SOL    HW2 4449   4.357   5.827   1.509
 1184SOL     OW 4450   3.253   2.880   5.221
 1184SOL    HW1 4451   3.166   2.847   5.258
 1184SOL    HW2 4452   3.245   2.893   5.123
 1185SOL     OW 4453   2.256   0.057   0.221
 1185SOL    HW1 4454   2.245   0.153   0.249
 1185SOL    HW2 4455   2.328   0.015   0.277
 1186SOL     OW 4456   6.143   0.458   4.707
 1186SOL    HW1 4457   6.162   0.390   4.637
 1186SOL    HW2 4458   6.044   0.465   4.721
 1187SOL     OW 4459   5.900   6.640   4.746
 1187SOL    HW1 4460   5.907   6.540   4.752
 1187SOL    HW2 4461   5.974   6.675   4.689
 1188SOL     OW 4462   2.141   6.673   6.054
 1188SOL    HW1 4463   2.144   6.589   6.000
 1188SOL    HW2 4464   2.055   6.678   6.104
 1189SOL     OW 4465   5.739   1.025   1.309
 1189SOL    HW1 4466   5.748   1.113   1.263
 1189SOL    HW2 4467   5.825   1.004   1.357
 1190SOL     OW 4468   3.865   5.265   3.653
 1190SOL    HW1 4469   3.951   5.296   3.613
 1190SOL    HW2 4470   3.875   5.171   3.686
 1191SOL     OW 4471   2.944   5.374   5.733
 1191SOL    HW1 4472   2.982   5.325   5.654
 1191SOL    HW2 4473   2.851   5.342   5.750
 1192SOL     OW 4474   5.837   5.042   2.927
 1192SOL    HW1 4475   5.820   5.111   2.997
 1192SOL    HW2 4476   5.917   5.068   2.873
 1193SOL     OW 4477   5.155   0.047   4.515
 1193SOL    HW1 4478   5.100   0.006   4.442
 1193SOL    HW2 4479   5.231   7.010   4.538
 1194SOL     OW 4480   6.139   0.229   0.744
 1194SOL    HW1 4481   6.105   0.299   0.807
 1194SOL    HW2 4482   6.236   0.245   0.726
 1195SOL     OW 4483   6.045   0.970   6.267
 1195SOL    HW1 4484   6.114   1.004   6.330
 1195SOL    HW2 4485   6.030   0.872   6.284
 1196SOL     OW 4486   0.116   4.836   2.585
 1196SOL    HW1 4487   0.183   4.870   2.520
 1196SOL    HW2 4488   0.158   4.766   2.643
 1197SOL     OW 4489   4.088   6.387   5.708
 1197SOL    HW1 4490   4.018   6.338   5.760
 1197SOL    HW2 4491   4.179   6.355   5.736
 1198SOL     OW 4492   3.480   2.025   3.081
 1198SOL    HW1 4493   3.438   2.032   3.172
 1198SOL    HW2 4494   3.410   2.034   3.011
 1199SOL     OW 4495   2.975   3.762   2.085
 1199SOL    HW1 4496   3.036   3.733   2.011
 1199SOL    HW2 4497   3.017   3.837   2.136
 1200SOL     OW 4498   4.627   4.065   5.841
 1200SOL    HW1 4499   4.592   4.139   5.898
 1200SOL    HW2 4500   4.560   4.044   5.769
 1201SOL     OW 4501   1.533   1.424   4.920
 1201SOL    HW1 4502   1.493   1.404   5.009
 1201SOL    HW2 4503   1.532   1.341   4.864
 1202SOL     OW 4504   5.395   0.214   5.483
 1202SOL    HW1 4505   5.475   0.194   5.427
 1202SOL    HW2 4506   5.392   0.150   5.560
 1203SOL     OW 4507   5.573   0.693   1.001
 1203SOL    HW1 4508   5.523   0.754   1.061
 1203SOL    HW2 4509   5.635   0.746   0.943
 1204SOL     OW 4510   3.505   1.295   0.439
 1204SOL    HW1 4511   3.564   1.219   0.469
 1204SOL    HW2 4512   3.491   1.358   0.515
 1205SOL     OW 4513   5.939   2.420   6.042
 1205SOL    HW1 4514   5.924   2.403   5.944
 1205SOL    HW2 4515   5.908   2.341   6.094
 1206SOL     OW 4516   1.733   1.429   4.615
 1206SOL    HW1 4517   1.710   1.518   4.575
 1206SOL    HW2 4518   1.671   1.359   4.580
 1207SOL     OW 4519   6.088   6.944   0.474
 1207SOL    HW1 4520   6.030   6.996   0.536
 1207SOL    HW2 4521   6.137   7.007   0.414
 1208SOL     OW 4522   3.377   3.483   2.754
 1208SOL    HW1 4523   3.278   3.487   2.752
 1208SOL    HW2 4524   3.415   3.565   2.709
 1209SOL     OW 4525   6.026   6.211   5.387
 1209SOL    HW1 4526   5.953   6.143   5.395
 1209SOL    HW2 4527   6.112   6.172   5.420
 1210SOL     OW 4528   3.800   0.088   2.759
 1210SOL    HW1 4529   3.888   0.042   2.757
 1210SOL    HW2 4530   3.789   0.142   2.676
 1211SOL     OW 4531   1.527   3.622   4.084
 1211SOL    HW1 4532   1.539   3.698   4.020
 1211SOL    HW2 4533   1.612   3.571   4.092
 1212SOL     OW 4534   1.259   3.975   4.855
 1212SOL    HW1 4535   1.329   4.012   4.792
 1212SOL    HW2 4536   1.286   3.996   4.949
 1213SOL     OW 4537   0.118   2.739   5.116
 1213SOL    HW1 4538   0.082   2.796   5.190
 1213SOL    HW2 4539   0.047   2.727   5.046
 1214SOL     OW 4540   1.861   3.353   4.658
 1214SOL    HW1 4541   1.954   3.364   4.624
 1214SOL    HW2 4542   1.847   3.258   4.687
 1215SOL     OW 4543   2.646   4.633   3.019
 1215SOL    HW1 4544   2.713   4.686   2.966
 1215SOL    HW2 4545   2.607   4.562   2.960
 1216SOL     OW 4546   1.317   6.712   1.471
 1216SOL    HW1 4547   1.341   6.809   1.464
 1216SOL    HW2 4548   1.223   6.699   1.439
 1217SOL     OW 4549   1.157   6.537   0.233
 1217SOL    HW1 4550   1.106   6.598   0.294
 1217SOL    HW2 4551   1.243   6.580   0.206
 1218SOL     OW 4552   0.507   3.652   4.886
 1218SOL    HW1 4553   0.502   3.662   4.985
 1218SOL    HW2 4554   0.446   3.579   4.856
 1219SOL     OW 4555   4.219   5.222   0.727
 1219SOL    HW1 4556   4.182   5.296   0.670
 1219SOL    HW2 4557   4.299   5.256   0.776
 1220SOL     OW 4558   5.724   2.770   2.442
 1220SOL    HW1 4559   5.803   2.765   2.504
 1220SOL    HW2 4560   5.748   2.728   2.354
 1221SOL     OW 4561   5.637   3.591   0.463
 1221SOL    HW1 4562   5.663   3.549   0.550
 1221SOL    HW2 4563   5.629   3.690   0.474
 1222SOL     OW 4564   6.844   6.472   0.325
 1222SOL    HW1 4565   6.788   6.541   0.372
 1222SOL    HW2 4566   6.878   6.406   0.391
 1223SOL     OW 4567   6.059   0.001   6.662
 1223SOL    HW1 4568   5.995   0.076   6.643
 1223SOL    HW2 4569   6.062   6.964   6.584
 1224SOL     OW 4570   4.080   5.943   0.566
 1224SOL    HW1 4571   4.099   5.845   0.573
 1224SOL    HW2 4572   4.021   5.961   0.488
 1225SOL     OW 4573   4.158   2.147   0.690
 1225SOL    HW1 4574   4.140   2.070   0.629
 1225SOL    HW2 4575   4.256   2.153   0.708
 1226SOL     OW 4576   6.108   6.478   1.295
 1226SOL    HW1 4577   6.187   6.417   1.289
 1226SOL    HW2 4578   6.087   6.494   1.392
 1227SOL     OW 4579   5.624   4.409   5.699
 1227SOL    HW1 4580   5.557   4.344   5.663
 1227SOL    HW2 4581   5.581   4.499   5.708
 1228SOL     OW 4582   3.956   3.123   2.112
 1228SOL    HW1 4583   4.024   3.185   2.074
 1228SOL    HW2 4584   3.923   3.061   2.041
 1229SOL     OW 4585   2.003   6.172   2.268
 1229SOL    HW1 4586   1.915   6.139   2.303
 1229SOL    HW2 4587   2.031   6.115   2.191
 1230SOL     OW 4588   5.208   5.099   2.347
 1230SOL    HW1 4589   5.150   5.077   2.426
 1230SOL    HW2 4590   5.254   5.186   2.363
 1231SOL     OW 4591   1.492   2.367   6.228
 1231SOL    HW1 4592   1.474   2.444   6.166
 1231SOL    HW2 4593   1.475   2.396   6.322
 1232SOL     OW 4594   3.327   0.670   5.214
 1232SOL    HW1 4595   3.231   0.697   5.218
 1232SOL    HW2 4596   3.359   0.677   5.119
 1233SOL     OW 4597   0.677   4.672   3.521
 1233SOL    HW1 4598   0.763   4.629   3.494
 1233SOL    HW2 4599   0.685   4.705   3.615
 1234SOL     OW 4600   6.914   3.432   6.675
 1234SOL    HW1 4601   6.861   3.468   6.599
 1234SOL    HW2 4602   6.855   3.421   6.755
 1235SOL     OW 4603   5.758   4.764   0.342
 1235SOL    HW1 4604   5.697   4.787   0.418
 1235SOL    HW2 4605   5.846   4.733   0.378
 1236SOL     OW 4606   2.645   0.867   0.373
 1236SOL    HW1 4607   2.612   0.934   0.439
 1236SOL    HW2 4608   2.602   0.883   0.284
 1237SOL     OW 4609   1.428   0.466   4.638
 1237SOL    HW1 4610   1.496   0.537   4.621
 1237SOL    HW2 4611   1.383   0.441   4.552
 1238SOL     OW 4612   0.395   0.145   3.502
 1238SOL    HW1 4613   0.442   0.169   3.417
 1238SOL    HW2 4614   0.458   0.095   3.562
 1239SOL     OW 4615   6.135   5.486   4.229
 1239SOL    HW1 4616   6.151   5.399   4.183
 1239SOL    HW2 4617   6.044   5.486   4.271
 1240SOL     OW 4618   5.895   5.370   2.908
 1240SOL    HW1 4619   5.811   5.394   2.858
 1240SOL    HW2 4620   5.891   5.410   3.000
 1241SOL     OW 4621   5.839   5.302   4.238
 1241SOL    HW1 4622   5.793   5.349   4.162
 1241SOL    HW2 4623   5.772   5.251   4.291
 1242SOL     OW 4624   1.665   3.326   0.273
 1242SOL    HW1 4625   1.680   3.250   0.210
 1242SOL    HW2 4626   1.629   3.405   0.224
 1243SOL     OW 4627   1.476   3.833   5.129
 1243SOL    HW1 4628   1.424   3.792   5.204
 1243SOL    HW2 4629   1.558   3.778   5.112
 1244SOL     OW 4630   5.926   0.124   5.154
 1244SOL    HW1 4631   5.866   0.062   5.104
 1244SOL    HW2 4632   5.893   0.218   5.145
 1245SOL     OW 4633   4.887   6.241   0.879
 1245SOL    HW1 4634   4.886   6.147   0.910
 1245SOL    HW2 4635   4.809   6.290   0.916
 1246SOL     OW 4636   4.630   1.632   0.872
 1246SOL    HW1 4637   4.609   1.570   0.797
 1246SOL    HW2 4638   4.678   1.583   0.945
 1247SOL     OW 4639   6.957   6.472   3.554
 1247SOL    HW1 4640   0.016   6.477   3.608
 1247SOL    HW2 4641   6.924   6.565   3.534
 1248SOL     OW 4642   0.076   0.231   4.779
 1248SOL    HW1 4643   0.176   0.222   4.780
 1248SOL    HW2 4644   0.040   0.215   4.870
 1249SOL     OW 4645   0.411   4.741   1.424
 1249SOL    HW1 4646   0.503   4.709   1.400
 1249SOL    HW2 4647   0.350   4.726   1.346
 1250SOL     OW 4648   5.653   3.351   5.416
 1250SOL    HW1 4649   5.623   3.256   5.408
 1250SOL    HW2 4650   5.594   3.400   5.481
 1251SOL     OW 4651   2.851   0.484   2.444
 1251SOL    HW1 4652   2.760   0.526   2.446
 1251SOL    HW2 4653   2.843   0.389   2.414
 1252SOL     OW 4654   2.512   5.778   6.673
 1252SOL    HW1 4655   2.459   5.861   6.653
 1252SOL    HW2 4656   2.606   5.790   6.639
 1253SOL     OW 4657   3.220   0.580   0.903
 1253SOL    HW1 4658   3.232   0.511   0.831
 1253SOL    HW2 4659   3.162   0.543   0.975
 1254SOL     OW 4660   6.364   1.681   2.097
 1254SOL    HW1 4661   6.301   1.759   2.097
 1254SOL    HW2 4662   6.397   1.665   2.191
 1255SOL     OW 4663   5.523   1.770   5.049
 1255SOL    HW1 4664   5.465   1.819   4.984
 1255SOL    HW2 4665   5.579   1.835   5.100
 1256SOL     OW 4666   0.104   6.012   3.978
 1256SOL    HW1 4667   0.126   5.915   3.969
 1256SOL    HW2 4668   0.111   6.057   3.889
 1257SOL     OW 4669   0.104   4.655   3.407
 1257SOL    HW1 4670   0.067   4.613   3.490
 1257SOL    HW2 4671   0.197   4.686   3.424
 1258SOL     OW 4672   3.006   6.368   4.629
 1258SOL    HW1 4673   3.062   6.286   4.638
 1258SOL    HW2 4674   3.032   6.417   4.546
 1259SOL     OW 4675   4.576   0.521   5.282
 1259SOL    HW1 4676   4.673   0.499   5.286
 1259SOL    HW2 4677   4.559   0.607   5.332
 1260SOL     OW 4678   2.214   0.479   2.328
 1260SOL    HW1 4679   2.148   0.527   2.270
 1260SOL    HW2 4680   2.215   0.382   2.304
 1261SOL     OW 4681   0.299   4.140   6.533
 1261SOL    HW1 4682   0.245   4.076   6.587
 1261SOL    HW2 4683   0.374   4.175   6.588
 1262SOL     OW 4684   4.705   5.051   0.837
 1262SOL    HW1 4685   4.778   5.095   0.889
 1262SOL    HW2 4686   4.628   5.032   0.897
 1263SOL     OW 4687   6.915   2.273   0.784
 1263SOL    HW1 4688   7.001   2.324   0.788
 1263SOL    HW2 4689   6.885   2.266   0.689
 1264SOL     OW 4690   1.051   3.644   3.017
 1264SOL    HW1 4691   1.040   3.629   3.116
 1264SOL    HW2 4692   1.149   3.653   2.997
 1265SOL     OW 4693   0.189   3.787   4.672
 1265SOL    HW1 4694   0.113   3.765   4.734
 1265SOL    HW2 4695   0.159   3.855   4.605
 1266SOL     OW 4696   3.146   1.630   5.476
 1266SOL    HW1 4697   3.240   1.660   5.495
 1266SOL    HW2 4698   3.147   1.539   5.434
 1267SOL     OW 4699   6.886   5.447   3.190
 1267SOL    HW1 4700   6.838   5.511   3.251
 1267SOL    HW2 4701   6.959   5.402   3.240
 1268SOL     OW 4702   5.476   2.502   6.501
 1268SOL    HW1 4703   5.410   2.577   6.504
 1268SOL    HW2 4704   5.492   2.468   6.594
 1269SOL     OW 4705   6.684   6.406   4.726
 1269SOL    HW1 4706   6.774   6.413   4.683
 1269SOL    HW2 4707   6.616   6.384   4.656
 1270SOL     OW 4708   2.037   3.808   4.739
 1270SOL    HW1 4709   1.969   3.752   4.785
 1270SOL    HW2 4710   2.035   3.901   4.777
 1271SOL     OW 4711   3.174   1.695   2.872
 1271SOL    HW1 4712   3.135   1.651   2.791
 1271SOL    HW2 4713   3.113   1.681   2.950
 1272SOL     OW 4714   6.954   5.527   0.851
 1272SOL    HW1 4715   6.893   5.528   0.772
 1272SOL    HW2 4716   0.010   5.582   0.831
 1273SOL     OW 4717   2.957   4.593   6.797
 1273SOL    HW1 4718   2.857   4.592   6.807
 1273SOL    HW2 4719   2.989   4.503   6.771
 1274SOL     OW 4720   7.019   2.465   2.065
 1274SOL    HW1 4721   6.948   2.519   2.110
 1274SOL    HW2 4722   7.013   2.370   2.095
 1275SOL     OW 4723   4.525   0.920   4.271
 1275SOL    HW1 4724   4.598   0.853   4.276
 1275SOL    HW2 4725   4.510   0.960   4.362
 1276SOL     OW 4726   6.734   0.705   2.314
 1276SOL    HW1 4727   6.643   0.738   2.290
 1276SOL    HW2 4728   6.736   0.605   2.309
 1277SOL     OW 4729   0.108   1.273   4.635
 1277SOL    HW1 4730   0.198   1.249   4.598
 1277SOL    HW2 4731   0.091   1.370   4.622
 1278SOL     OW 4732   1.713   2.136   5.326
 1278SOL    HW1 4733   1.743   2.221   5.370
 1278SOL    HW2 4734   1.685   2.071   5.395
 1279SOL     OW 4735   3.031   6.470   0.963
 1279SOL    HW1 4736   3.008   6.430   1.052
 1279SOL    HW2 4737   3.111   6.425   0.925
 1280SOL     OW 4738   1.972   0.139   2.836
 1280SOL    HW1 4739   1.904   0.208   2.860
 1280SOL    HW2 4740   1.939   0.049   2.863
 1281SOL     OW 4741   1.314   5.851   3.205
 1281SOL    HW1 4742   1.369   5.778   3.164
 1281SOL    HW2 4743   1.364   5.890   3.282
 1282SOL     OW 4744   0.455   1.342   0.927
 1282SOL    HW1 4745   0.428   1.247   0.910
 1282SOL    HW2 4746   0.411   1.374   1.011
 1283SOL     OW 4747   5.572   4.225   6.232
 1283SOL    HW1 4748   5.551   4.143   6.285
 1283SOL    HW2 4749   5.671   4.234   6.222
 1284SOL     OW 4750   2.755   2.525   1.733
 1284SOL    HW1 4751   2.791   2.617   1.718
 1284SOL    HW2 4752   2.822   2.472   1.786
 1285SOL     OW 4753   5.192   2.870   6.309
 1285SOL    HW1 4754   5.283   2.908   6.290
 1285SOL    HW2 4755   5.125   2.944   6.312
 1286SOL     OW 4756   5.220   4.193   2.233
 1286SOL    HW1 4757   5.197   4.246   2.152
 1286SOL    HW2 4758   5.160   4.219   2.309
 1287SOL     OW 4759   6.063   5.190   6.410
 1287SOL    HW1 4760   5.989   5.250   6.381
 1287SOL    HW2 4761   6.034   5.095   6.401
 1288SOL     OW 4762   0.758   2.802   0.186
 1288SOL    HW1 4763   0.691   2.799   0.112
 1288SOL    HW2 4764   0.850   2.797   0.148
 1289SOL     OW 4765   0.118   6.330   2.326
 1289SOL    HW1 4766   0.179   6.357   2.400
 1289SOL    HW2 4767   0.117   6.231   2.317
 1290SOL     OW 4768   0.480   0.276   6.656
 1290SOL    HW1 4769   0.543   0.223   6.600
 1290SOL    HW2 4770   0.404   0.309   6.599
 1291SOL     OW 4771   1.954   5.018   6.228
 1291SOL    HW1 4772   2.007   4.968   6.296
 1291SOL    HW2 4773   1.911   4.954   6.165
 1292SOL     OW 4774   0.004   4.453   1.876
 1292SOL    HW1 4775   7.020   4.534   1.934
 1292SOL    HW2 4776   6.976   4.466   1.792
 1293SOL     OW 4777   2.445   1.382   6.526
 1293SOL    HW1 4778   2.539   1.410   6.544
 1293SOL    HW2 4779   2.383   1.425   6.592
 1294SOL     OW 4780   0.279   3.451   2.061
 1294SOL    HW1 4781   0.224   3.373   2.034
 1294SOL    HW2 4782   0.284   3.457   2.160
 1295SOL     OW 4783   5.932   3.394   2.504
 1295SOL    HW1 4784   5.965   3.332   2.576
 1295SOL    HW2 4785   5.835   3.414   2.520
 1296SOL     OW 4786   3.273   2.261   6.421
 1296SOL    HW1 4787   3.369   2.273   6.395
 1296SOL    HW2 4788   3.268   2.209   6.506
 1297SOL     OW 4789   5.983   1.721   5.591
 1297SOL    HW1 4790   5.986   1.689   5.686
 1297SOL    HW2 4791   5.926   1.659   5.537
 1298SOL     OW 4792   5.692   3.066   3.472
 1298SOL    HW1 4793   5.650   3.151   3.503
 1298SOL    HW2 4794   5.778   3.087   3.425
 1299SOL     OW 4795   2.121   4.298   3.424
 1299SOL    HW1 4796   2.215   4.320   3.398
 1299SOL    HW2 4797   2.115   4.202   3.450
 1300SOL     OW 4798   3.340   3.437   1.991
 1300SOL    HW1 4799   3.340   3.437   2.091
 1300SOL    HW2 4800   3.267   3.497   1.958
 1301SOL     OW 4801   0.975   6.611   3.518
 1301SOL    HW1 4802   0.921   6.552   3.579
 1301SOL    HW2 4803   1.058   6.640   3.565
 1302SOL     OW 4804   2.291   6.601   5.112
 1302SOL    HW1 4805   2.323   6.690   5.082
 1302SOL    HW2 4806   2.353   6.564   5.181
 1303SOL     OW 4807   3.785   1.469   1.069
 1303SOL    HW1 4808   3.747   1.560   1.087
 1303SOL    HW2 4809   3.876   1.463   1.112
 1304SOL     OW 4810   1.566   0.521   6.000
 1304SOL    HW1 4811   1.615   0.436   5.986
 1304SOL    HW2 4812   1.541   0.560   5.911
 1305SOL     OW 4813   5.338   6.051   4.876
 1305SOL    HW1 4814   5.282   6.049   4.959
 1305SOL    HW2 4815   5.339   6.144   4.839
 1306SOL     OW 4816   1.026   3.669   4.751
 1306SOL    HW1 4817   0.941   3.721   4.752
 1306SOL    HW2 4818   1.006   3.572   4.739
 1307SOL     OW 4819   1.520   3.155   4.917
 1307SOL    HW1 4820   1.455   3.190   4.850
 1307SOL    HW2 4821   1.502   3.059   4.935
 1308SOL     OW 4822   4.625   5.742   4.088
 1308SOL    HW1 4823   4.684   5.665   4.113
 1308SOL    HW2 4824   4.591   5.787   4.170
 1309SOL     OW 4825   5.800   2.917   5.430
 1309SOL    HW1 4826   5.761   2.833   5.468
 1309SOL    HW2 4827   5.800   2.912   5.330
 1310SOL     OW 4828   5.791   3.548   4.804
 1310SOL    HW1 4829   5.707   3.566   4.753
 1310SOL    HW2 4830   5.804   3.618   4.874
 1311SOL     OW 4831   5.755   6.900   3.855
 1311SOL    HW1 4832   5.837   6.879   3.801
 1311SOL    HW2 4833   5.725   6.993   3.834
 1312SOL     OW 4834   0.267   1.000   6.564
 1312SOL    HW1 4835   0.268   1.027   6.660
 1312SOL    HW2 4836   0.357   1.014   6.524
 1313SOL     OW 4837   3.475   5.867   5.075
 1313SOL    HW1 4838   3.490   5.966   5.067
 1313SOL    HW2 4839   3.386   5.844   5.036
 1314SOL     OW 4840   1.495   1.431   5.505
 1314SOL    HW1 4841   1.439   1.365   5.454
 1314SOL    HW2 4842   1.583   1.389   5.528
 1315SOL     OW 4843   1.329   1.318   0.684
 1315SOL    HW1 4844   1.264   1.281   0.750
 1315SOL    HW2 4845   1.391   1.246   0.654
 1316SOL     OW 4846   1.863   6.966   3.545
 1316SOL    HW1 4847   1.777   6.927   3.579
 1316SOL    HW2 4848   1.854   0.040   3.538
 1317SOL     OW 4849   0.813   4.540   4.230
 1317SOL    HW1 4850   0.808   4.448   4.193
 1317SOL    HW2 4851   0.909   4.567   4.240
 1318SOL     OW 4852   0.010   0.706   0.187
 1318SOL    HW1 4853   7.020   0.646   0.265
 1318SOL    HW2 4854   0.002   0.801   0.216
 1319SOL     OW 4855   6.573   0.687   0.689
 1319SOL    HW1 4856   6.485   0.687   0.736
 1319SOL    HW2 4857   6.572   0.753   0.614
 1320SOL     OW 4858   5.581   4.530   6.967
 1320SOL    HW1 4859   5.575   4.537   0.042
 1320SOL    HW2 4860   5.572   4.434   6.940
 1321SOL     OW 4861   4.532   3.035   6.963
 1321SOL    HW1 4862   4.434   3.035   6.981
 1321SOL    HW2 4863   4.549   3.002   6.870
 1322SOL     OW 4864   6.485   0.797   3.120
 1322SOL    HW1 4865   6.423   0.742   3.064
 1322SOL    HW2 4866   6.579   0.764   3.107
 1323SOL     OW 4867   5.581   1.750   5.680
 1323SOL    HW1 4868   5.596   1.656   5.648
 1323SOL    HW2 4869   5.534   1.802   5.608
 1324SOL     OW 4870   1.468   2.202   1.337
 1324SOL    HW1 4871   1.402   2.127   1.343
 1324SOL    HW2 4872   1.507   2.205   1.245
 1325SOL     OW 4873   1.717   6.620   3.449
 1325SOL    HW1 4874   1.651   6.549   3.475
 1325SOL    HW2 4875   1.701   6.702   3.504
 1326SOL     OW 4876   4.919   2.273   4.469
 1326SOL    HW1 4877   4.902   2.281   4.371
 1326SOL    HW2 4878   4.833   2.282   4.519
 1327SOL     OW 4879   2.558   5.179   2.725
 1327SOL    HW1 4880   2.631   5.212   2.665
 1327SOL    HW2 4881   2.523   5.254   2.780
 1328SOL     OW 4882   1.470   2.391   6.528
 1328SOL    HW1 4883   1.390   2.334   6.547
 1328SOL    HW2 4884   1.504   2.431   6.613
 1329SOL     OW 4885   0.162   1.582   0.273
 1329SOL    HW1 4886   0.095   1.644   0.314
 1329SOL    HW2 4887   0.254   1.612   0.299
 1330SOL     OW 4888   6.363   0.412   1.018
 1330SOL    HW1 4889   6.296   0.443   1.086
 1330SOL    HW2 4890   6.374   0.313   1.024
 1331SOL     OW 4891   5.766   1.298   2.816
 1331SOL    HW1 4892   5.793   1.311   2.912
 1331SOL    HW2 4893   5.773   1.201   2.792
 1332SOL     OW 4894   4.045   1.538   1.183
 1332SOL    HW1 4895   4.044   1.452   1.234
 1332SOL    HW2 4896   4.115   1.533   1.112
 1333SOL     OW 4897   3.638   4.186   5.309
 1333SOL    HW1 4898   3.708   4.151   5.371
 1333SOL    HW2 4899   3.681   4.218   5.225
 1334SOL     OW 4900   1.592   3.494   4.989
 1334SOL    HW1 4901   1.653   3.500   5.068
 1334SOL    HW2 4902   1.502   3.461   5.019
 1335SOL     OW 4903   2.323   6.669   2.659
 1335SOL    HW1 4904   2.309   6.628   2.569
 1335SOL    HW2 4905   2.312   6.599   2.729
 1336SOL     OW 4906   1.218   1.268   6.630
 1336SOL    HW1 4907   1.258   1.357   6.653
 1336SOL    HW2 4908   1.210   1.260   6.531
 1337SOL     OW 4909   2.157   2.687   6.396
 1337SOL    HW1 4910   2.171   2.592   6.369
 1337SOL    HW2 4911   2.239   2.722   6.440
 1338SOL     OW 4912   4.331   4.323   6.478
 1338SOL    HW1 4913   4.384   4.267   6.542
 1338SOL    HW2 4914   4.328   4.418   6.511
 1339SOL     OW 4915   0.056   4.884   6.587
 1339SOL    HW1 4916   0.013   4.803   6.547
 1339SOL    HW2 4917   0.140   4.905   6.536
 1340SOL     OW 4918   1.065   2.155   0.423
 1340SOL    HW1 4919   1.095   2.122   0.513
 1340SOL    HW2 4920   1.138   2.143   0.357
 1341SOL     OW 4921   3.948   0.881   4.692
 1341SOL    HW1 4922   3.998   0.855   4.610
 1341SOL    HW2 4923   3.967   0.816   4.766
 1342SOL     OW 4924   1.169   6.274   5.916
 1342SOL    HW1 4925   1.166   6.227   6.004
 1342SOL    HW2 4926   1.147   6.371   5.930
 1343SOL     OW 4927   3.514   6.658   2.584
 1343SOL    HW1 4928   3.572   6.734   2.555
 1343SOL    HW2 4929   3.541   6.574   2.536
 1344SOL     OW 4930   6.104   1.551   2.921
 1344SOL    HW1 4931   6.190   1.537   2.872
 1344SOL    HW2 4932   6.028   1.552   2.856
 1345SOL     OW 4933   0.519   1.023   3.076
 1345SOL    HW1 4934   0.607   1.046   3.032
 1345SOL    HW2 4935   0.507   1.080   3.157
 1346SOL     OW 4936   1.060   6.443   3.271
 1346SOL    HW1 4937   1.088   6.525   3.322
 1346SOL    HW2 4938   0.964   6.452   3.245
 1347SOL     OW 4939   6.629   6.772   3.219
 1347SOL    HW1 4940   6.622   6.694   3.281
 1347SOL    HW2 4941   6.726   6.793   3.203
 1348SOL     OW 4942   5.414   4.655   4.118
 1348SOL    HW1 4943   5.490   4.600   4.082
 1348SOL    HW2 4944   5.444   4.707   4.198
 1349SOL     OW 4945   4.326   2.540   0.040
 1349SOL    HW1 4946   4.357   2.629   0.008
 1349SOL    HW2 4947   4.226   2.536   0.035
 1350SOL     OW 4948   3.349   4.785   6.788
 1350SOL    HW1 4949   3.304   4.716   6.845
 1350SOL    HW2 4950   3.279   4.839   6.740
 1351SOL     OW 4951   0.385   0.172   2.887
 1351SOL    HW1 4952   0.485   0.180   2.890
 1351SOL    HW2 4953   0.345   0.263   2.876
 1352SOL     OW 4954   6.291   0.315   3.599
 1352SOL    HW1 4955   6.235   0.293   3.679
 1352SOL    HW2 4956   6.328   0.407   3.608
 1353SOL     OW 4957   6.859   4.072   4.966
 1353SOL    HW1 4958   6.881   4.169   4.953
 1353SOL    HW2 4959   6.879   4.046   5.061
 1354SOL     OW 4960   0.317   0.859   0.867
 1354SOL    HW1 4961   0.236   0.908   0.898
 1354SOL    HW2 4962   0.290   0.771   0.828
 1355SOL     OW 4963   5.184   4.395   0.491
 1355SOL    HW1 4964   5.133   4.309   0.499
 1355SOL    HW2 4965   5.158   4.456   0.566
 1356SOL     OW 4966   3.293   4.131   2.653
 1356SOL    HW1 4967   3.387   4.140   2.685
 1356SOL    HW2 4968   3.232   4.117   2.731
 1357SOL     OW 4969   2.892   3.224   6.388
 1357SOL    HW1 4970   2.849   3.148   6.339
 1357SOL    HW2 4971   2.902   3.200   6.485
 1358SOL     OW 4972   2.380   2.765   6.520
 1358SOL    HW1 4973   2.391   2.753   6.619
 1358SOL    HW2 4974   2.470   2.766   6.476
 1359SOL     OW 4975   5.942   3.772   1.533
 1359SOL    HW1 4976   5.862   3.724   1.495
 1359SOL    HW2 4977   6.013   3.778   1.463
 1360SOL     OW 4978   3.945   3.921   3.008
 1360SOL    HW1 4979   4.004   3.911   3.089
 1360SOL    HW2 4980   3.851   3.935   3.037
 1361SOL     OW 4981   1.076   7.022   6.093
 1361SOL    HW1 4982   1.017   0.028   6.019
 1361SOL    HW2 4983   1.023   6.966   6.157
 1362SOL     OW 4984   3.053   3.261   5.995
 1362SOL    HW1 4985   3.076   3.308   5.910
 1362SOL    HW2 4986   3.009   3.325   6.058
 1363SOL     OW 4987   6.712   6.003   3.073
 1363SOL    HW1 4988   6.727   5.958   3.161
 1363SOL    HW2 4989   6.737   6.100   3.080
 1364SOL     OW 4990   0.172   3.601   0.487
 1364SOL    HW1 4991   0.248   3.662   0.461
 1364SOL    HW2 4992   0.194   3.507   0.460
 1365SOL     OW 4993   1.217   3.420   5.598
 1365SOL    HW1 4994   1.217   3.402   5.500
 1365SOL    HW2 4995   1.186   3.513   5.615
 1366SOL     OW 4996   6.955   2.856   0.927
 1366SOL    HW1 4997   6.993   2.937   0.883
 1366SOL    HW2 4998   6.948   2.872   1.026
 1367SOL     OW 4999   1.312   4.407   3.757
 1367SOL    HW1 5000   1.408   4.397   3.785
 1367SOL    HW2 5001   1.308   4.426   3.659
 1368SOL     OW 5002   6.437   6.641   4.316
 1368SOL    HW1 5003   6.403   6.604   4.230
 1368SOL    HW2 5004   6.372   6.706   4.353
 1369SOL     OW 5005   1.785   5.891   2.117
 1369SOL    HW1 5006   1.754   5.886   2.022
 1369SOL    HW2 5007   1.786   5.987   2.146
 1370SOL     OW 5008   0.102   2.412   3.643
 1370SOL    HW1 5009   0.173   2.344   3.623
 1370SOL    HW2 5010   0.146   2.498   3.671
 1371SOL     OW 5011   6.229   0.948   4.624
 1371SOL    HW1 5012   6.274   0.861   4.647
 1371SOL    HW2 5013   6.287   1.024   4.652
 1372SOL     OW 5014   6.746   2.779   0.431
 1372SOL    HW1 5015   6.816   2.783   0.502
 1372SOL    HW2 5016   6.667   2.834   0.459
 1373SOL     OW 5017   4.415   2.335   1.512
 1373SOL    HW1 5018   4.411   2.268   1.585
 1373SOL    HW2 5019   4.501   2.327   1.463
 1374SOL     OW 5020   5.245   3.659   0.801
 1374SOL    HW1 5021   5.339   3.681   0.826
 1374SOL    HW2 5022   5.201   3.739   0.760
 1375SOL     OW 5023   6.656   5.513   5.829
 1375SOL    HW1 5024   6.604   5.599   5.826
 1375SOL    HW2 5025   6.642   5.463   5.744
 1376SOL     OW 5026   2.881   4.968   6.703
 1376SOL    HW1 5027   2.961   5.028   6.704
 1376SOL    HW2 5028   2.897   4.892   6.641
 1377SOL     OW 5029   0.831   2.934   3.466
 1377SOL    HW1 5030   0.865   3.026   3.445
 1377SOL    HW2 5031   0.888   2.893   3.537
 1378SOL     OW 5032   4.145   2.239   4.702
 1378SOL    HW1 5033   4.190   2.281   4.622
 1378SOL    HW2 5034   4.126   2.309   4.770
 1379SOL     OW 5035   4.953   5.486   2.194
 1379SOL    HW1 5036   4.939   5.391   2.221
 1379SOL    HW2 5037   5.023   5.527   2.251
 1380SOL     OW 5038   6.147   6.152   1.995
 1380SOL    HW1 5039   6.203   6.175   2.075
 1380SOL    HW2 5040   6.188   6.075   1.947
 1381SOL     OW 5041   5.624   2.292   6.052
 1381SOL    HW1 5042   5.581   2.381   6.070
 1381SOL    HW2 5043   5.708   2.284   6.106
 1382SOL     OW 5044   4.424   2.944   1.469
 1382SOL    HW1 5045   4.470   3.019   1.421
 1382SOL    HW2 5046   4.325   2.953   1.456
 1383SOL     OW 5047   1.704   6.448   1.576
 1383SOL    HW1 5048   1.784   6.452   1.635
 1383SOL    HW2 5049   1.621   6.461   1.630
 1384SOL     OW 5050   4.414   0.878   0.662
 1384SOL    HW1 5051   4.337   0.914   0.609
 1384SOL    HW2 5052   4.386   0.795   0.709
 1385SOL     OW 5053   2.038   4.709   3.732
 1385SOL    HW1 5054   2.074   4.619   3.708
 1385SOL    HW2 5055   1.939   4.711   3.717
 1386SOL     OW 5056   3.249   6.441   3.980
 1386SOL    HW1 5057   3.161   6.488   3.969
 1386SOL    HW2 5058   3.300   6.447   3.894
 1387SOL     OW 5059   3.697   5.866   1.629
 1387SOL    HW1 5060   3.642   5.921   1.566
 1387SOL    HW2 5061   3.641   5.792   1.666
 1388SOL     OW 5062   5.944   6.902   1.599
 1388SOL    HW1 5063   5.895   6.896   1.686
 1388SOL    HW2 5064   5.903   6.974   1.543
 1389SOL     OW 5065   5.655   1.142   3.046
 1389SOL    HW1 5066   5.678   1.161   3.142
 1389SOL    HW2 5067   5.609   1.221   3.006
 1390SOL     OW 5068   0.612   3.372   6.728
 1390SOL    HW1 5069   0.537   3.327   6.777
 1390SOL    HW2 5070   0.678   3.303   6.698
 1391SOL     OW 5071   6.800   0.677   3.809
 1391SOL    HW1 5072   6.766   0.697   3.901
 1391SOL    HW2 5073   6.793   0.760   3.752
 1392SOL     OW 5074   5.517   5.727   5.802
 1392SOL    HW1 5075   5.512   5.824   5.822
 1392SOL    HW2 5076   5.550   5.678   5.883
 1393SOL     OW 5077   6.361   5.433   5.302
 1393SOL    HW1 5078   6.410   5.348   5.325
 1393SOL    HW2 5079   6.320   5.471   5.384
 1394SOL     OW 5080   3.006   5.823   5.159
 1394SOL    HW1 5081   3.055   5.786   5.237
 1394SOL    HW2 5082   2.908   5.820   5.177
 1395SOL     OW 5083   2.455   4.387   6.241
 1395SOL    HW1 5084   2.370   4.400   6.190
 1395SOL    HW2 5085   2.529   4.364   6.177
 1396SOL     OW 5086   1.995   0.401   3.744
 1396SOL    HW1 5087   2.020   0.390   3.840
 1396SOL    HW2 5088   2.074   0.431   3.691
 1397SOL     OW 5089   0.398   0.613   4.093
 1397SOL    HW1 5090   0.376   0.691   4.034
 1397SOL    HW2 5091   0.402   0.644   4.188
 1398SOL     OW 5092   1.702   1.248   5.579
 1398SOL    HW1 5093   1.742   1.188   5.649
 1398SOL    HW2 5094   1.668   1.192   5.504
 1399SOL     OW 5095   4.160   6.636   1.172
 1399SOL    HW1 5096   4.127   6.730   1.173
 1399SOL    HW2 5097   4.223   6.625   1.095
 1400SOL     OW 5098   0.023   1.930   2.534
 1400SOL    HW1 5099   0.027   1.903   2.437
 1400SOL    HW2 5100   0.105   1.983   2.557
 1401SOL     OW 5101   0.100   1.946   5.053
 1401SOL    HW1 5102   0.149   1.900   4.979
 1401SOL    HW2 5103   0.149   1.932   5.139
 1402SOL     OW 5104   0.742   4.368   0.148
 1402SOL    HW1 5105   0.806   4.335   0.217
 1402SOL    HW2 5106   0.666   4.415   0.193
 1403SOL     OW 5107   2.808   1.473   1.739
 1403SOL    HW1 5108   2.896   1.469   1.786
 1403SOL    HW2 5109   2.823   1.472   1.640
 1404SOL     OW 5110   5.293   0.400   0.224
 1404SOL    HW1 5111   5.197   0.426   0.221
 1404SOL    HW2 5112   5.309   0.324   0.161
 1405SOL     OW 5113   2.343   3.892   1.096
 1405SOL    HW1 5114   2.275   3.935   1.155
 1405SOL    HW2 5115   2.427   3.877   1.148
 1406SOL     OW 5116   1.485   4.910   1.770
 1406SOL    HW1 5117   1.559   4.912   1.837
 1406SOL    HW2 5118   1.425   4.989   1.785
 1407SOL     OW 5119   0.434   2.121   1.570
 1407SOL    HW1 5120   0.447   2.022   1.564
 1407SOL    HW2 5121   0.480   2.165   1.493
 1408SOL     OW 5122   5.528   0.872   5.969
 1408SOL    HW1 5123   5.519   0.861   6.068
 1408SOL    HW2 5124   5.460   0.937   5.937
 1409SOL     OW 5125   0.757   0.200   5.463
 1409SOL    HW1 5126   0.725   0.157   5.379
 1409SOL    HW2 5127   0.728   0.296   5.465
 1410SOL     OW 5128   2.264   3.782   6.522
 1410SOL    HW1 5129   2.267   3.854   6.592
 1410SOL    HW2 5130   2.333   3.801   6.452
 1411SOL     OW 5131   3.024   6.223   2.799
 1411SOL    HW1 5132   3.015   6.193   2.893
 1411SOL    HW2 5133   3.028   6.323   2.795
 1412SOL     OW 5134   0.507   2.517   0.138
 1412SOL    HW1 5135   0.465   2.549   0.223
 1412SOL    HW2 5136   0.546   2.595   0.089
 1413SOL     OW 5137   2.006   1.401   4.589
 1413SOL    HW1 5138   2.048   1.313   4.611
 1413SOL    HW2 5139   1.906   1.392   4.593
 1414SOL     OW 5140   2.138   0.987   1.513
 1414SOL    HW1 5141   2.134   1.083   1.541
 1414SOL    HW2 5142   2.053   0.962   1.468
 1415SOL     OW 5143   2.585   0.453   4.774
 1415SOL    HW1 5144   2.635   0.533   4.809
 1415SOL    HW2 5145   2.547   0.475   4.685
 1416SOL     OW 5146   4.447   4.530   4.196
 1416SOL    HW1 5147   4.387   4.577   4.131
 1416SOL    HW2 5148   4.498   4.458   4.148
 1417SOL     OW 5149   2.486   1.835   0.237
 1417SOL    HW1 5150   2.471   1.898   0.313
 1417SOL    HW2 5151   2.400   1.790   0.214
 1418SOL     OW 5152   3.022   3.139   3.640
 1418SOL    HW1 5153   2.942   3.193   3.613
 1418SOL    HW2 5154   3.063   3.097   3.559
 1419SOL     OW 5155   3.192   6.551   4.762
 1419SOL    HW1 5156   3.159   6.554   4.668
 1419SOL    HW2 5157   3.192   6.456   4.794
 1420SOL     OW 5158   1.804   6.215   1.438
 1420SOL    HW1 5159   1.729   6.267   1.478
 1420SOL    HW2 5160   1.782   6.193   1.343
 1421SOL     OW 5161   2.161   3.128   3.174
 1421SOL    HW1 5162   2.106   3.182   3.238
 1421SOL    HW2 5163   2.108   3.108   3.092
 1422SOL     OW 5164   2.216   4.517   1.367
 1422SOL    HW1 5165   2.223   4.441   1.432
 1422SOL    HW2 5166   2.239   4.485   1.276
 1423SOL     OW 5167   4.830   6.467   2.685
 1423SOL    HW1 5168   4.875   6.380   2.664
 1423SOL    HW2 5169   4.731   6.452   2.691
 1424SOL     OW 5170   6.420   4.097   4.892
 1424SOL    HW1 5171   6.475   4.180   4.881
 1424SOL    HW2 5172   6.326   4.123   4.917
 1425SOL     OW 5173   1.354   5.914   4.493
 1425SOL    HW1 5174   1.355   5.874   4.402
 1425SOL    HW2 5175   1.422   5.867   4.550
 1426SOL     OW 5176   1.428   2.484   5.808
 1426SOL    HW1 5177   1.426   2.514   5.904
 1426SOL    HW2 5178   1.522   2.463   5.782
 1427SOL     OW 5179   0.144   6.900   2.851
 1427SOL    HW1 5180   0.232   6.904   2.900
 1427SOL    HW2 5181   0.128   6.807   2.819
 1428SOL     OW 5182   5.945   2.712   0.796
 1428SOL    HW1 5183   6.027   2.741   0.845
 1428SOL    HW2 5184   5.895   2.792   0.764
 1429SOL     OW 5185   5.949   2.022   0.005
 1429SOL    HW1 5186   5.964   2.120   0.014
 1429SOL    HW2 5187   5.901   1.988   0.086
 1430SOL     OW 5188   1.812   4.822   4.276
 1430SOL    HW1 5189   1.844   4.790   4.187
 1430SOL    HW2 5190   1.765   4.747   4.324
 1431SOL     OW 5191   1.778   1.544   0.894
 1431SOL    HW1 5192   1.848   1.512   0.958
 1431SOL    HW2 5193   1.782   1.489   0.811
 1432SOL     OW 5194   2.900   1.307   2.960
 1432SOL    HW1 5195   2.955   1.356   3.028
 1432SOL    HW2 5196   2.830   1.253   3.005
 1433SOL     OW 5197   4.552   1.283   4.018
 1433SOL    HW1 5198   4.485   1.355   3.999
 1433SOL    HW2 5199   4.528   1.201   3.966
 1434SOL     OW 5200   6.964   0.852   5.748
 1434SOL    HW1 5201   6.995   0.890   5.835
 1434SOL    HW2 5202   6.864   0.849   5.748
 1435SOL     OW 5203   5.691   1.171   2.494
 1435SOL    HW1 5204   5.708   1.220   2.409
 1435SOL    HW2 5205   5.774   1.123   2.522
 1436SOL     OW 5206   5.441   4.075   0.369
 1436SOL    HW1 5207   5.460   4.069   0.467
 1436SOL    HW2 5208   5.501   4.144   0.328
 1437SOL     OW 5209   2.587   2.498   3.596
 1437SOL    HW1 5210   2.528   2.569   3.636
 1437SOL    HW2 5211   2.601   2.517   3.499
 1438SOL     OW 5212   3.348   6.549   1.283
 1438SOL    HW1 5213   3.288   6.517   1.357
 1438SOL    HW2 5214   3.328   6.645   1.264
 1439SOL     OW 5215   0.137   5.636   1.435
 1439SOL    HW1 5216   0.178   5.575   1.368
 1439SOL    HW2 5217   0.137   5.730   1.399
 1440SOL     OW 5218   3.032   3.924   1.137
 1440SOL    HW1 5219   3.090   3.998   1.102
 1440SOL    HW2 5220   3.027   3.851   1.069
 1441SOL     OW 5221   5.735   0.449   2.316
 1441SOL    HW1 5222   5.737   0.540   2.357
 1441SOL    HW2 5223   5.820   0.400   2.337
 1442SOL     OW 5224   6.411   5.499   0.405
 1442SOL    HW1 5225   6.346   5.572   0.383
 1442SOL    HW2 5226   6.504   5.535   0.396
 1443SOL     OW 5227   0.901   2.299   2.585
 1443SOL    HW1 5228   0.836   2.260   2.520
 1443SOL    HW2 5229   0.983   2.242   2.590
 1444SOL     OW 5230   5.156   0.497   0.719
 1444SOL    HW1 5231   5.241   0.522   0.766
 1444SOL    HW2 5232   5.177   0.450   0.633
 1445SOL     OW 5233   1.200   3.095   2.519
 1445SOL    HW1 5234   1.227   3.060   2.429
 1445SOL    HW2 5235   1.235   3.188   2.530
 1446SOL     OW 5236   6.607   0.854   6.956
 1446SOL    HW1 5237   6.655   0.932   6.995
 1446SOL    HW2 5238   6.673   0.789   6.918
 1447SOL     OW 5239   6.240   5.273   4.035
 1447SOL    HW1 5240   6.154   5.254   3.988
 1447SOL    HW2 5241   6.306   5.311   3.970
 1448SOL     OW 5242   6.382   2.867   4.987
 1448SOL    HW1 5243   6.346   2.914   4.907
 1448SOL    HW2 5244   6.458   2.920   5.026
 1449SOL     OW 5245   1.288   4.039   5.124
 1449SOL    HW1 5246   1.360   3.972   5.142
 1449SOL    HW2 5247   1.305   4.121   5.180
 1450SOL     OW 5248   0.999   2.286   6.622
 1450SOL    HW1 5249   1.053   2.275   6.538
 1450SOL    HW2 5250   0.949   2.201   6.641
 1451SOL     OW 5251   1.398   5.932   2.672
 1451SOL    HW1 5252   1.346   6.003   2.624
 1451SOL    HW2 5253   1.409   5.958   2.768
 1452SOL     OW 5254   4.278   2.706   5.319
 1452SOL    HW1 5255   4.229   2.629   5.278
 1452SOL    HW2 5256   4.243   2.723   5.411
 1453SOL     OW 5257   0.441   4.164   5.800
 1453SOL    HW1 5258   0.357   4.134   5.754
 1453SOL    HW2 5259   0.441   4.264   5.806
 1454SOL     OW 5260   1.874   1.942   2.558
 1454SOL    HW1 5261   1.902   2.035   2.536
 1454SOL    HW2 5262   1.944   1.878   2.527
 1455SOL     OW 5263   1.728   6.647   2.577
 1455SOL    HW1 5264   1.638   6.616   2.610
 1455SOL    HW2 5265   1.796   6.577   2.598
 1456SOL     OW 5266   6.499   6.532   5.872
 1456SOL    HW1 5267   6.448   6.574   5.946
 1456SOL    HW2 5268   6.520   6.601   5.802
 1457SOL     OW 5269   1.725   4.605   7.016
 1457SOL    HW1 5270   1.707   4.702   0.005
 1457SOL    HW2 5271   1.646   4.563   6.970
 1458SOL     OW 5272   5.456   5.060   5.317
 1458SOL    HW1 5273   5.467   5.103   5.407
 1458SOL    HW2 5274   5.376   5.000   5.319
 1459SOL     OW 5275   4.195   0.109   6.251
 1459SOL    HW1 5276   4.246   0.062   6.323
 1459SOL    HW2 5277   4.185   0.049   6.172
 1460SOL     OW 5278   1.630   6.734   4.918
 1460SOL    HW1 5279   1.724   6.701   4.929
 1460SOL    HW2 5280   1.609   6.798   4.992
 1461SOL     OW 5281   0.248   4.199   3.044
 1461SOL    HW1 5282   0.228   4.125   3.108
 1461SOL    HW2 5283   0.289   4.162   2.961
 1462SOL     OW 5284   0.894   0.565   6.710
 1462SOL    HW1 5285   0.890   0.661   6.738
 1462SOL    HW2 5286   0.825   0.513   6.761
 1463SOL     OW 5287   0.781   4.606   5.507
 1463SOL    HW1 5288   0.741   4.697   5.510
 1463SOL    HW2 5289   0.708   4.537   5.501
 1464SOL     OW 5290   6.627   4.845   2.922
 1464SOL    HW1 5291   6.554   4.779   2.904
 1464SOL    HW2 5292   6.665   4.877   2.835
 1465SOL     OW 5293   2.363   1.733   3.827
 1465SOL    HW1 5294   2.360   1.648   3.774
 1465SOL    HW2 5295   2.370   1.811   3.765
 1466SOL     OW 5296   3.978   1.909   2.153
 1466SOL    HW1 5297   3.996   1.977   2.224
 1466SOL    HW2 5298   4.065   1.878   2.114
 1467SOL     OW 5299   2.171   1.263   4.083
 1467SOL    HW1 5300   2.215   1.259   4.173
 1467SOL    HW2 5301   2.220   1.328   4.025
 1468SOL     OW 5302   2.033   5.424   1.832
 1468SOL    HW1 5303   2.054   5.364   1.909
 1468SOL    HW2 5304   2.104   5.495   1.826
 1469SOL     OW 5305   6.520   6.122   2.870
 1469SOL    HW1 5306   6.575   6.043   2.841
 1469SOL    HW2 5307   6.576   6.205   2.865
 1470SOL     OW 5308   6.908   2.283   1.810
 1470SOL    HW1 5309   6.846   2.219   1.765
 1470SOL    HW2 5310   6.883   2.292   1.906
 1471SOL     OW 5311   1.102   0.188   0.018
 1471SOL    HW1 5312   1.132   0.164   0.110
 1471SOL    HW2 5313   1.045   0.114   7.006
 1472SOL     OW 5314   2.926   5.874   0.386
 1472SOL    HW1 5315   2.854   5.859   0.319
 1472SOL    HW2 5316   2.969   5.963   0.369
 1473SOL     OW 5317   2.629   5.911   4.984
 1473SOL    HW1 5318   2.651   5.904   5.081
 1473SOL    HW2 5319   2.636   6.006   4.954
 1474SOL     OW 5320   4.344   4.312   1.048
 1474SOL    HW1 5321   4.308   4.219   1.054
 1474SOL    HW2 5322   4.396   4.333   1.131
 1475SOL     OW 5323   5.154   1.361   6.922
 1475SOL    HW1 5324   5.071   1.415   6.936
 1475SOL    HW2 5325   5.135   1.265   6.941
 1476SOL     OW 5326   2.369   1.292   1.574
 1476SOL    HW1 5327   2.270   1.296   1.560
 1476SOL    HW2 5328   2.388   1.258   1.666
 1477SOL     OW 5329   3.479   6.876   0.277
 1477SOL    HW1 5330   3.464   6.797   0.336
 1477SOL    HW2 5331   3.440   6.857   0.187
 1478SOL     OW 5332   5.683   6.281   5.381
 1478SOL    HW1 5333   5.729   6.196   5.356
 1478SOL    HW2 5334   5.596   6.288   5.331
 1479SOL     OW 5335   3.328   3.202   1.779
 1479SOL    HW1 5336   3.319   3.302   1.784
 1479SOL    HW2 5337   3.419   3.175   1.810
 1480SOL     OW 5338   2.433   0.207   6.529
 1480SOL    HW1 5339   2.492   0.129   6.507
 1480SOL    HW2 5340   2.466   0.289   6.482
 1481SOL     OW 5341   5.685   3.324   5.743
 1481SOL    HW1 5342   5.637   3.303   5.828
 1481SOL    HW2 5343   5.685   3.242   5.685
 1482SOL     OW 5344   4.270   0.669   0.783
 1482SOL    HW1 5345   4.222   0.664   0.696
 1482SOL    HW2 5346   4.252   0.586   0.836
 1483SOL     OW 5347   5.681   2.699   5.532
 1483SOL    HW1 5348   5.681   2.611   5.580
 1483SOL    HW2 5349   5.642   2.688   5.441
 1484SOL     OW 5350   4.750   5.186   3.646
 1484SOL    HW1 5351   4.698   5.260   3.603
 1484SOL    HW2 5352   4.810   5.223   3.716
 1485SOL     OW 5353   5.243   0.590   3.969
 1485SOL    HW1 5354   5.264   0.652   4.044
 1485SOL    HW2 5355   5.315   0.597   3.899
 1486SOL     OW 5356   4.933   6.833   3.431
 1486SOL    HW1 5357   4.868   6.757   3.423
 1486SOL    HW2 5358   5.021   6.805   3.394
 1487SOL     OW 5359   0.454   1.602   6.622
 1487SOL    HW1 5360   0.466   1.604   6.721
 1487SOL    HW2 5361   0.496   1.519   6.585
 1488SOL     OW 5362   5.304   0.726   3.299
 1488SOL    HW1 5363   5.323   0.745   3.202
 1488SOL    HW2 5364   5.206   0.711   3.311
 1489SOL     OW 5365   4.282   4.242   5.778
 1489SOL    HW1 5366   4.298   4.149   5.812
 1489SOL    HW2 5367   4.184   4.260   5.775
 1490SOL     OW 5368   0.612   3.333   0.675
 1490SOL    HW1 5369   0.611   3.413   0.734
 1490SOL    HW2 5370   0.681   3.268   0.708
 1491SOL     OW 5371   6.523   4.028   2.423
 1491SOL    HW1 5372   6.622   4.032   2.433
 1491SOL    HW2 5373   6.499   4.036   2.326
 1492SOL     OW 5374   6.473   0.197   2.247
 1492SOL    HW1 5375   6.513   0.181   2.337
 1492SOL    HW2 5376   6.542   0.181   2.176
 1493SOL     OW 5377   3.732   0.783   6.551
 1493SOL    HW1 5378   3.702   0.701   6.601
 1493SOL    HW2 5379   3.664   0.807   6.482
 1494SOL     OW 5380   5.523   2.868   6.865
 1494SOL    HW1 5381   5.546   2.779   6.905
 1494SOL    HW2 5382   5.505   2.934   6.938
 1495SOL     OW 5383   6.769   4.000   4.576
 1495SOL    HW1 5384   6.868   3.992   4.562
 1495SOL    HW2 5385   6.745   3.968   4.667
 1496SOL     OW 5386   0.369   0.283   0.275
 1496SOL    HW1 5387   0.454   0.261   0.227
 1496SOL    HW2 5388   0.384   0.277   0.374
 1497SOL     OW 5389   5.192   3.043   2.233
 1497SOL    HW1 5390   5.237   2.970   2.284
 1497SOL    HW2 5391   5.187   3.125   2.291
 1498SOL     OW 5392   2.952   4.222   1.193
 1498SOL    HW1 5393   2.914   4.133   1.169
 1498SOL    HW2 5394   2.980   4.222   1.289
 1499SOL     OW 5395   0.839   3.733   6.370
 1499SOL    HW1 5396   0.916   3.682   6.332
 1499SOL    HW2 5397   0.833   3.823   6.327
 1500SOL     OW 5398   0.986   5.964   6.370
 1500SOL    HW1 5399   1.024   5.972   6.278
 1500SOL    HW2 5400   0.946   6.051   6.398
 1501SOL     OW 5401   5.872   2.036   6.612
 1501SOL    HW1 5402   5.965   2.067   6.627
 1501SOL    HW2 5403   5.858   2.019   6.514
 1502SOL     OW 5404   5.369   1.583   6.472
 1502SOL    HW1 5405   5.360   1.490   6.437
 1502SOL    HW2 5406   5.458   1.594   6.517
 1503SOL     OW 5407   0.538   3.060   2.898
 1503SOL    HW1 5408   0.603   3.077   2.971
 1503SOL    HW2 5409   0.449   3.037   2.937
 1504SOL     OW 5410   0.856   0.361   3.287
 1504SOL    HW1 5411   0.918   0.341   3.364
 1504SOL    HW2 5412   0.904   0.418   3.221
 1505SOL     OW 5413   5.058   0.062   5.560
 1505SOL    HW1 5414   5.073   0.114   5.644
 1505SOL    HW2 5415   5.080   0.119   5.481
 1506SOL     OW 5416   1.311   0.332   6.944
 1506SOL    HW1 5417   1.351   0.392   7.014
 1506SOL    HW2 5418   1.233   0.283   6.983
 1507SOL     OW 5419   6.927   2.057   4.627
 1507SOL    HW1 5420   6.831   2.070   4.652
 1507SOL    HW2 5421   6.977   2.143   4.638
 1508SOL     OW 5422   0.320   1.815   1.127
 1508SOL    HW1 5423   0.269   1.734   1.100
 1508SOL    HW2 5424   0.297   1.840   1.221
 1509SOL     OW 5425   4.737   1.840   4.646
 1509SOL    HW1 5426   4.664   1.801   4.590
 1509SOL    HW2 5427   4.820   1.785   4.635
 1510SOL     OW 5428   5.069   6.773   4.503
 1510SOL    HW1 5429   5.078   6.708   4.578
 1510SOL    HW2 5430   5.160   6.793   4.466
 1511SOL     OW 5431   3.709   3.533   4.061
 1511SOL    HW1 5432   3.729   3.435   4.062
 1511SOL    HW2 5433   3.610   3.547   4.050
 1512SOL     OW 5434   6.262   5.314   1.694
 1512SOL    HW1 5435   6.342   5.257   1.710
 1512SOL    HW2 5436   6.285   5.410   1.707
 1513SOL     OW 5437   3.231   0.096   4.715
 1513SOL    HW1 5438   3.234   0.002   4.682
 1513SOL    HW2 5439   3.251   0.098   4.813
 1514SOL     OW 5440   3.367   2.280   5.851
 1514SOL    HW1 5441   3.277   2.265   5.890
 1514SOL    HW2 5442   3.370   2.242   5.758
 1515SOL     OW 5443   6.574   1.484   2.210
 1515SOL    HW1 5444   6.522   1.456   2.129
 1515SOL    HW2 5445   6.523   1.461   2.292
 1516SOL     OW 5446   5.790   5.501   5.393
 1516SOL    HW1 5447   5.778   5.543   5.483
 1516SOL    HW2 5448   5.886   5.507   5.365
 1517SOL     OW 5449   4.129   6.674   3.168
 1517SOL    HW1 5450   4.038   6.648   3.136
 1517SOL    HW2 5451   4.132   6.668   3.267
 1518SOL     OW 5452   5.921   3.619   0.572
 1518SOL    HW1 5453   5.918   3.717   0.589
 1518SOL    HW2 5454   5.864   3.571   0.640
 1519SOL     OW 5455   6.839   4.434   1.126
 1519SOL    HW1 5456   6.819   4.355   1.068
 1519SOL    HW2 5457   6.755   4.485   1.143
 1520SOL     OW 5458   1.059   4.361   1.487
 1520SOL    HW1 5459   1.080   4.431   1.419
 1520SOL    HW2 5460   1.127   4.287   1.481
 1521SOL     OW 5461   1.898   4.953   7.020
 1521SOL    HW1 5462   1.939   4.999   0.074
 1521SOL    HW2 5463   1.813   4.909   0.023
 1522SOL     OW 5464   5.714   5.605   4.522
 1522SOL    HW1 5465   5.695   5.509   4.544
 1522SOL    HW2 5466   5.694   5.622   4.426
 1523SOL     OW 5467   3.858   6.738   6.774
 1523SOL    HW1 5468   3.842   6.641   6.794
 1523SOL    HW2 5469   3.774   6.789   6.791
 1524SOL     OW 5470   2.770   1.883   2.611
 1524SOL    HW1 5471   2.779   1.786   2.590
 1524SOL    HW2 5472   2.744   1.933   2.529
 1525SOL     OW 5473   5.681   3.095   1.002
 1525SOL    HW1 5474   5.776   3.121   1.020
 1525SOL    HW2 5475   5.620   3.169   1.030
 1526SOL     OW 5476   0.006   0.682   6.463
 1526SOL    HW1 5477   0.099   0.719   6.450
 1526SOL    HW2 5478   6.993   0.718   6.547
 1527SOL     OW 5479   3.613   0.820   4.826
 1527SOL    HW1 5480   3.653   0.761   4.755
 1527SOL    HW2 5481   3.668   0.903   4.836
 1528SOL     OW 5482   4.263   4.974   1.723
 1528SOL    HW1 5483   4.258   5.022   1.635
 1528SOL    HW2 5484   4.289   5.039   1.794
 1529SOL     OW 5485   4.881   1.115   6.750
 1529SOL    HW1 5486   4.801   1.158   6.790
 1529SOL    HW2 5487   4.928   1.061   6.819
 1530SOL     OW 5488   2.997   1.053   1.273
 1530SOL    HW1 5489   3.019   0.956   1.281
 1530SOL    HW2 5490   2.950   1.084   1.355
 1531SOL     OW 5491   4.493   0.545   5.015
 1531SOL    HW1 5492   4.535   0.566   5.104
 1531SOL    HW2 5493   4.548   0.585   4.942
 1532SOL     OW 5494   3.733   4.445   5.600
 1532SOL    HW1 5495   3.766   4.448   5.506
 1532SOL    HW2 5496   3.634   4.426   5.600
 1533SOL     OW 5497   4.944   5.616   0.542
 1533SOL    HW1 5498   4.991   5.529   0.552
 1533SOL    HW2 5499   4.905   5.644   0.630
 1534SOL     OW 5500   3.325   5.273   6.401
 1534SOL    HW1 5501   3.237   5.251   6.359
 1534SOL    HW2 5502   3.354   5.198   6.460
 1535SOL     OW 5503   5.602   5.979   4.769
 1535SOL    HW1 5504   5.615   5.880   4.755
 1535SOL    HW2 5505   5.511   5.995   4.806
 1536SOL     OW 5506   3.830   5.070   6.472
 1536SOL    HW1 5507   3.751   5.108   6.424
 1536SOL    HW2 5508   3.807   5.056   6.568
 1537SOL     OW 5509   4.339   5.844   3.417
 1537SOL    HW1 5510   4.278   5.812   3.490
 1537SOL    HW2 5511   4.298   5.923   3.372
 1538SOL     OW 5512   3.173   0.172   6.679
 1538SOL    HW1 5513   3.259   0.218   6.659
 1538SOL    HW2 5514   3.162   0.165   6.778
 1539SOL     OW 5515   4.909   2.966   2.238
 1539SOL    HW1 5516   4.851   2.968   2.157
 1539SOL    HW2 5517   4.987   3.027   2.224
 1540SOL     OW 5518   0.112   6.701   5.476
 1540SOL    HW1 5519   0.126   6.727   5.572
 1540SOL    HW2 5520   0.138   6.778   5.417
 1541SOL     OW 5521   3.093   3.992   4.047
 1541SOL    HW1 5522   3.035   4.004   4.128
 1541SOL    HW2 5523   3.183   4.031   4.064
 1542SOL     OW 5524   6.592   6.948   1.948
 1542SOL    HW1 5525   6.521   6.895   1.995
 1542SOL    HW2 5526   6.577   6.944   1.849
 1543SOL     OW 5527   3.607   5.448   5.822
 1543SOL    HW1 5528   3.551   5.491   5.893
 1543SOL    HW2 5529   3.603   5.349   5.832
 1544SOL     OW 5530   2.987   3.820   3.524
 1544SOL    HW1 5531   2.999   3.895   3.459
 1544SOL    HW2 5532   2.996   3.854   3.617
 1545SOL     OW 5533   4.846   0.727   2.833
 1545SOL    HW1 5534   4.800   0.670   2.901
 1545SOL    HW2 5535   4.826   0.693   2.742
 1546SOL     OW 5536   5.548   6.445   6.091
 1546SOL    HW1 5537   5.578   6.416   5.999
 1546SOL    HW2 5538   5.514   6.365   6.141
 1547SOL     OW 5539   1.332   3.408   1.389
 1547SOL    HW1 5540   1.418   3.414   1.338
 1547SOL    HW2 5541   1.347   3.354   1.472
 1548SOL     OW 5542   4.891   3.677   0.259
 1548SOL    HW1 5543   4.907   3.591   0.211
 1548SOL    HW2 5544   4.822   3.663   0.330
 1549SOL     OW 5545   4.281   1.349   2.778
 1549SOL    HW1 5546   4.205   1.406   2.809
 1549SOL    HW2 5547   4.290   1.270   2.840
 1550SOL     OW 5548   3.824   3.451   1.460
 1550SOL    HW1 5549   3.910   3.405   1.481
 1550SOL    HW2 5550   3.748   3.392   1.484
 1551SOL     OW 5551   1.636   4.709   6.680
 1551SOL    HW1 5552   1.716   4.676   6.730
 1551SOL    HW2 5553   1.632   4.664   6.591
 1552SOL     OW 5554   1.478   5.475   0.610
 1552SOL    HW1 5555   1.533   5.512   0.534
 1552SOL    HW2 5556   1.486   5.375   0.610
 1553SOL     OW 5557   6.806   1.837   6.453
 1553SOL    HW1 5558   6.709   1.851   6.435
 1553SOL    HW2 5559   6.857   1.839   6.367
 1554SOL     OW 5560   3.052   1.939   3.531
 1554SOL    HW1 5561   3.057   1.854   3.479
 1554SOL    HW2 5562   3.080   2.016   3.473
 1555SOL     OW 5563   5.683   3.331   6.948
 1555SOL    HW1 5564   5.599   3.332   7.003
 1555SOL    HW2 5565   5.725   3.241   6.953
 1556SOL     OW 5566   1.609   1.617   5.934
 1556SOL    HW1 5567   1.545   1.684   5.899
 1556SOL    HW2 5568   1.697   1.661   5.954
 1557SOL     OW 5569   2.096   4.186   5.954
 1557SOL    HW1 5570   2.135   4.161   5.865
 1557SOL    HW2 5571   2.005   4.225   5.941
 1558SOL     OW 5572   6.181   0.735   4.243
 1558SOL    HW1 5573   6.262   0.714   4.188
 1558SOL    HW2 5574   6.166   0.663   4.310
 1559SOL     OW 5575   1.875   3.288   6.277
 1559SOL    HW1 5576   1.833   3.200   6.300
 1559SOL    HW2 5577   1.832   3.325   6.194
 1560SOL     OW 5578   6.888   0.252   5.992
 1560SOL    HW1 5579   6.894   0.170   6.049
 1560SOL    HW2 5580   6.977   0.269   5.950
 1561SOL     OW 5581   5.033   6.512   3.613
 1561SOL    HW1 5582   4.951   6.471   3.652
 1561SOL    HW2 5583   5.036   6.610   3.635
 1562SOL     OW 5584   4.999   6.268   2.625
 1562SOL    HW1 5585   5.095   6.278   2.601
 1562SOL    HW2 5586   4.992   6.227   2.716
 1563SOL     OW 5587   2.968   0.685   5.669
 1563SOL    HW1 5588   2.965   0.688   5.769
 1563SOL    HW2 5589   3.031   0.755   5.636
 1564SOL     OW 5590   1.163   0.205   3.234
 1564SOL    HW1 5591   1.218   0.275   3.189
 1564SOL    HW2 5592   1.092   0.172   3.171
 1565SOL     OW 5593   4.664   4.256   3.198
 1565SOL    HW1 5594   4.619   4.345   3.199
 1565SOL    HW2 5595   4.671   4.222   3.104
 1566SOL     OW 5596   5.624   3.972   3.277
 1566SOL    HW1 5597   5.545   3.987   3.337
 1566SOL    HW2 5598   5.623   3.878   3.243
 1567SOL     OW 5599   6.122   6.082   0.556
 1567SOL    HW1 5600   6.098   6.151   0.487
 1567SOL    HW2 5601   6.132   6.125   0.645
 1568SOL     OW 5602   1.152   0.095   0.276
 1568SOL    HW1 5603   1.209   0.128   0.351
 1568SOL    HW2 5604   1.059   0.078   0.309
 1569SOL     OW 5605   4.361   6.251   3.245
 1569SOL    HW1 5606   4.319   6.221   3.159
 1569SOL    HW2 5607   4.455   6.217   3.250
 1570SOL     OW 5608   2.249   0.581   0.797
 1570SOL    HW1 5609   2.325   0.577   0.732
 1570SOL    HW2 5610   2.277   0.542   0.885
 1571SOL     OW 5611   5.888   3.281   1.053
 1571SOL    HW1 5612   5.987   3.268   1.050
 1571SOL    HW2 5613   5.867   3.357   1.115
 1572SOL     OW 5614   0.790   0.189   2.090
 1572SOL    HW1 5615   0.790   0.090   2.077
 1572SOL    HW2 5616   0.884   0.223   2.086
 1573SOL     OW 5617   4.616   1.319   1.636
 1573SOL    HW1 5618   4.675   1.322   1.555
 1573SOL    HW2 5619   4.574   1.228   1.643
 1574SOL     OW 5620   6.938   1.829   1.571
 1574SOL    HW1 5621   6.882   1.854   1.650
 1574SOL    HW2 5622   6.927   1.897   1.499
 1575SOL     OW 5623   2.177   1.468   0.617
 1575SOL    HW1 5624   2.078   1.473   0.618
 1575SOL    HW2 5625   2.213   1.531   0.548
 1576SOL     OW 5626   6.142   6.289   4.085
 1576SOL    HW1 5627   6.193   6.364   4.043
 1576SOL    HW2 5628   6.048   6.319   4.102
 1577SOL     OW 5629   2.911   1.402   4.508
 1577SOL    HW1 5630   2.847   1.450   4.568
 1577SOL    HW2 5631   2.863   1.367   4.428
 1578SOL     OW 5632   6.279   3.387   5.561
 1578SOL    HW1 5633   6.230   3.474   5.571
 1578SOL    HW2 5634   6.223   3.324   5.507
 1579SOL     OW 5635   0.238   1.469   3.336
 1579SOL    HW1 5636   0.141   1.475   3.313
 1579SOL    HW2 5637   0.249   1.414   3.419
 1580SOL     OW 5638   2.964   4.041   5.203
 1580SOL    HW1 5639   3.059   4.074   5.208
 1580SOL    HW2 5640   2.904   4.105   5.250
 1581SOL     OW 5641   0.221   4.560   4.444
 1581SOL    HW1 5642   0.219   4.595   4.350
 1581SOL    HW2 5643   0.316   4.556   4.476
 1582SOL     OW 5644   1.450   6.187   4.620
 1582SOL    HW1 5645   1.469   6.089   4.608
 1582SOL    HW2 5646   1.354   6.205   4.597
 1583SOL     OW 5647   1.667   2.395   3.964
 1583SOL    HW1 5648   1.750   2.363   4.010
 1583SOL    HW2 5649   1.588   2.380   4.024
 1584SOL     OW 5650   2.020   6.818   4.905
 1584SOL    HW1 5651   1.969   6.735   4.928
 1584SOL    HW2 5652   2.099   6.795   4.849
 1585SOL     OW 5653   5.536   1.752   3.565
 1585SOL    HW1 5654   5.517   1.849   3.580
 1585SOL    HW2 5655   5.540   1.705   3.653
 1586SOL     OW 5656   4.041   3.924   2.162
 1586SOL    HW1 5657   4.011   3.923   2.066
 1586SOL    HW2 5658   4.140   3.932   2.166
 1587SOL     OW 5659   2.963   5.269   6.286
 1587SOL    HW1 5660   2.895   5.241   6.218
 1587SOL    HW2 5661   3.023   5.339   6.247
 1588SOL     OW 5662   4.900   1.770   3.456
 1588SOL    HW1 5663   4.949   1.843   3.409
 1588SOL    HW2 5664   4.961   1.691   3.467
 1589SOL     OW 5665   5.647   4.132   3.751
 1589SOL    HW1 5666   5.623   4.132   3.848
 1589SOL    HW2 5667   5.715   4.060   3.734
 1590SOL     OW 5668   1.731   6.730   6.985
 1590SOL    HW1 5669   1.801   6.791   6.949
 1590SOL    HW2 5670   1.764   6.635   6.982
 1591SOL     OW 5671   1.203   4.879   3.332
 1591SOL    HW1 5672   1.250   4.966   3.345
 1591SOL    HW2 5673   1.176   4.869   3.237
 1592SOL     OW 5674   2.636   3.996   1.597
 1592SOL    HW1 5675   2.548   4.036   1.622
 1592SOL    HW2 5676   2.657   4.019   1.502
 1593SOL     OW 5677   1.032   6.564   4.277
 1593SOL    HW1 5678   1.017   6.643   4.218
 1593SOL    HW2 5679   0.968   6.491   4.251
 1594SOL     OW 5680   0.326   5.141   3.587
 1594SOL    HW1 5681   0.380   5.064   3.553
 1594SOL    HW2 5682   0.236   5.141   3.543
 1595SOL     OW 5683   0.488   4.664   6.442
 1595SOL    HW1 5684   0.407   4.615   6.411
 1595SOL    HW2 5685   0.462   4.755   6.475
 1596SOL     OW 5686   1.333   3.786   5.386
 1596SOL    HW1 5687   1.334   3.877   5.429
 1596SOL    HW2 5688   1.402   3.728   5.431
 1597SOL     OW 5689   2.634   5.416   0.802
 1597SOL    HW1 5690   2.607   5.485   0.735
 1597SOL    HW2 5691   2.601   5.442   0.893
 1598SOL     OW 5692   0.646   4.059   0.264
 1598SOL    HW1 5693   0.707   3.989   0.226
 1598SOL    HW2 5694   0.638   4.134   0.199
 1599SOL     OW 5695   4.727   3.457   5.689
 1599SOL    HW1 5696   4.793   3.507   5.633
 1599SOL    HW2 5697   4.763   3.366   5.708
 1600SOL     OW 5698   5.227   1.876   4.340
 1600SOL    HW1 5699   5.141   1.915   4.372
 1600SOL    HW2 5700   5.278   1.839   4.418
 1601SOL     OW 5701   1.344   4.729   4.757
 1601SOL    HW1 5702   1.325   4.632   4.767
 1601SOL    HW2 5703   1.381   4.764   4.843
 1602SOL     OW 5704   1.521   5.675   4.143
 1602SOL    HW1 5705   1.589   5.602   4.136
 1602SOL    HW2 5706   1.467   5.678   4.060
 1603SOL     OW 5707   1.555   6.226   1.787
 1603SOL    HW1 5708   1.543   6.192   1.881
 1603SOL    HW2 5709   1.540   6.325   1.786
 1604SOL     OW 5710   5.709   5.189   6.997
 1604SOL    HW1 5711   5.650   5.245   6.939
 1604SOL    HW2 5712   5.730   5.103   6.950
 1605SOL     OW 5713   6.337   0.379   1.899
 1605SOL    HW1 5714   6.320   0.365   1.996
 1605SOL    HW2 5715   6.259   0.344   1.847
 1606SOL     OW 5716   4.156   1.173   5.451
 1606SOL    HW1 5717   4.116   1.247   5.397
 1606SOL    HW2 5718   4.101   1.090   5.437
 1607SOL     OW 5719   5.406   2.548   1.107
 1607SOL    HW1 5720   5.306   2.555   1.116
 1607SOL    HW2 5721   5.449   2.604   1.178
 1608SOL     OW 5722   1.537   0.891   5.884
 1608SOL    HW1 5723   1.466   0.953   5.850
 1608SOL    HW2 5724   1.537   0.808   5.828
 1609SOL     OW 5725   5.747   2.002   6.345
 1609SOL    HW1 5726   5.746   1.934   6.272
 1609SOL    HW2 5727   5.667   1.989   6.404
 1610SOL     OW 5728   5.967   4.204   5.454
 1610SOL    HW1 5729   6.050   4.209   5.398
 1610SOL    HW2 5730   5.914   4.123   5.427
 1611SOL     OW 5731   4.167   3.299   2.030
 1611SOL    HW1 5732   4.234   3.269   2.099
 1611SOL    HW2 5733   4.187   3.255   1.943
 1612SOL     OW 5734   2.865   1.028   5.702
 1612SOL    HW1 5735   2.847   1.126   5.686
 1612SOL    HW2 5736   2.890   0.985   5.616
 1613SOL     OW 5737   2.489   5.500   1.027
 1613SOL    HW1 5738   2.448   5.430   1.087
 1613SOL    HW2 5739   2.526   5.573   1.084
 1614SOL     OW 5740   6.808   3.784   0.320
 1614SOL    HW1 5741   6.874   3.847   0.360
 1614SOL    HW2 5742   6.724   3.833   0.298
 1615SOL     OW 5743   6.771   4.821   1.313
 1615SOL    HW1 5744   6.833   4.810   1.391
 1615SOL    HW2 5745   6.679   4.844   1.347
 1616SOL     OW 5746   4.025   1.626   5.933
 1616SOL    HW1 5747   4.041   1.655   5.839
 1616SOL    HW2 5748   4.032   1.704   5.995
 1617SOL     OW 5749   5.751   0.620   2.098
 1617SOL    HW1 5750   5.848   0.634   2.075
 1617SOL    HW2 5751   5.744   0.550   2.169
 1618SOL     OW 5752   0.417   3.882   1.474
 1618SOL    HW1 5753   0.348   3.943   1.436
 1618SOL    HW2 5754   0.379   3.790   1.484
 1619SOL     OW 5755   1.504   3.026   3.925
 1619SOL    HW1 5756   1.539   2.945   3.878
 1619SOL    HW2 5757   1.418   3.003   3.971
 1620SOL     OW 5758   2.139   5.444   0.677
 1620SOL    HW1 5759   2.072   5.381   0.636
 1620SOL    HW2 5760   2.197   5.483   0.605
 1621SOL     OW 5761   0.204   0.699   6.797
 1621SOL    HW1 5762   0.280   0.688   6.732
 1621SOL    HW2 5763   0.140   0.768   6.761
 1622SOL     OW 5764   1.687   2.098   4.827
 1622SOL    HW1 5765   1.726   2.025   4.884
 1622SOL    HW2 5766   1.759   2.140   4.773
 1623SOL     OW 5767   2.627   2.795   6.390
 1623SOL    HW1 5768   2.605   2.881   6.345
 1623SOL    HW2 5769   2.629   2.722   6.322
 1624SOL     OW 5770   2.382   0.835   6.504
 1624SOL    HW1 5771   2.341   0.926   6.503
 1624SOL    HW2 5772   2.479   0.842   6.479
 1625SOL     OW 5773   1.215   5.480   2.617
 1625SOL    HW1 5774   1.254   5.435   2.537
 1625SOL    HW2 5775   1.130   5.435   2.643
 1626SOL     OW 5776   2.173   1.888   6.477
 1626SOL    HW1 5777   2.247   1.919   6.536
 1626SOL    HW2 5778   2.107   1.836   6.531
 1627SOL     OW 5779   6.477   1.779   4.695
 1627SOL    HW1 5780   6.518   1.861   4.735
 1627SOL    HW2 5781   6.547   1.708   4.686
 1628SOL     OW 5782   3.777   5.212   0.157
 1628SOL    HW1 5783   3.792   5.232   0.254
 1628SOL    HW2 5784   3.865   5.208   0.111
 1629SOL     OW 5785   2.589   2.476   4.471
 1629SOL    HW1 5786   2.503   2.517   4.440
 1629SOL    HW2 5787   2.573   2.430   4.559
 1630SOL     OW 5788   0.494   5.839   5.539
 1630SOL    HW1 5789   0.459   5.825   5.446
 1630SOL    HW2 5790   0.458   5.767   5.598
 1631SOL     OW 5791   6.952   0.554   5.853
 1631SOL    HW1 5792   6.990   0.549   5.945
 1631SOL    HW2 5793   6.954   0.649   5.822
 1632SOL     OW 5794   7.004   1.389   6.769
 1632SOL    HW1 5795   7.019   1.480   6.807
 1632SOL    HW2 5796   7.018   1.320   6.841
 1633SOL     OW 5797   5.989   3.010   2.607
 1633SOL    HW1 5798   5.976   2.913   2.625
 1633SOL    HW2 5799   6.038   3.022   2.520
 1634SOL     OW 5800   4.087   6.234   6.041
 1634SOL    HW1 5801   4.010   6.234   5.977
 1634SOL    HW2 5802   4.158   6.296   6.008
 1635SOL     OW 5803   6.393   5.771   4.420
 1635SOL    HW1 5804   6.464   5.700   4.420
 1635SOL    HW2 5805   6.326   5.750   4.492
 1636SOL     OW 5806   2.610   4.678   1.433
 1636SOL    HW1 5807   2.648   4.638   1.517
 1636SOL    HW2 5808   2.572   4.768   1.453
 1637SOL     OW 5809   6.666   1.917   2.828
 1637SOL    HW1 5810   6.742   1.864   2.863
 1637SOL    HW2 5811   6.633   1.980   2.899
 1638SOL     OW 5812   0.343   3.826   3.989
 1638SOL    HW1 5813   0.409   3.759   4.023
 1638SOL    HW2 5814   0.360   3.914   4.033
 1639SOL     OW 5815   5.274   6.008   3.030
 1639SOL    HW1 5816   5.192   5.951   3.029
 1639SOL    HW2 5817   5.248   6.104   3.041
 1640SOL     OW 5818   5.859   2.131   0.334
 1640SOL    HW1 5819   5.785   2.177   0.284
 1640SOL    HW2 5820   5.945   2.182   0.320
 1641SOL     OW 5821   5.595   3.021   3.812
 1641SOL    HW1 5822   5.526   2.952   3.793
 1641SOL    HW2 5823   5.685   2.987   3.786
 1642SOL     OW 5824   6.760   3.373   6.931
 1642SOL    HW1 5825   6.730   3.395   7.024
 1642SOL    HW2 5826   6.830   3.302   6.935
 1643SOL     OW 5827   3.524   6.445   4.981
 1643SOL    HW1 5828   3.535   6.438   4.882
 1643SOL    HW2 5829   3.487   6.360   5.017
 1644SOL     OW 5830   2.561   2.900   1.387
 1644SOL    HW1 5831   2.563   2.972   1.318
 1644SOL    HW2 5832   2.594   2.936   1.474
 1645SOL     OW 5833   3.199   6.287   5.601
 1645SOL    HW1 5834   3.159   6.375   5.576
 1645SOL    HW2 5835   3.227   6.238   5.518
 1646SOL     OW 5836   2.912   4.752   1.454
 1646SOL    HW1 5837   2.864   4.723   1.538
 1646SOL    HW2 5838   2.916   4.675   1.390
 1647SOL     OW 5839   6.099   2.490   3.331
 1647SOL    HW1 5840   6.146   2.418   3.383
 1647SOL    HW2 5841   6.160   2.526   3.261
 1648SOL     OW 5842   5.255   6.502   1.561
 1648SOL    HW1 5843   5.244   6.594   1.598
 1648SOL    HW2 5844   5.230   6.502   1.464
 1649SOL     OW 5845   3.413   0.240   3.149
 1649SOL    HW1 5846   3.314   0.249   3.155
 1649SOL    HW2 5847   3.454   0.265   3.237
 1650SOL     OW 5848   2.828   6.854   4.653
 1650SOL    HW1 5849   2.789   6.944   4.636
 1650SOL    HW2 5850   2.859   6.814   4.567
 1651SOL     OW 5851   0.471   0.378   0.518
 1651SOL    HW1 5852   0.554   0.331   0.488
 1651SOL    HW2 5853   0.496   0.467   0.557
 1652SOL     OW 5854   1.866   1.810   0.864
 1652SOL    HW1 5855   1.835   1.721   0.895
 1652SOL    HW2 5856   1.791   1.876   0.867
 1653SOL     OW 5857   0.325   4.884   1.625
 1653SOL    HW1 5858   0.262   4.951   1.586
 1653SOL    HW2 5859   0.362   4.827   1.552
 1654SOL     OW 5860   7.016   2.600   2.495
 1654SOL    HW1 5861   0.041   2.520   2.460
 1654SOL    HW2 5862   0.018   2.681   2.444
 1655SOL     OW 5863   5.574   3.965   6.317
 1655SOL    HW1 5864   5.605   3.947   6.410
 1655SOL    HW2 5865   5.653   3.976   6.256
 1656SOL     OW 5866   1.572   4.111   3.592
 1656SOL    HW1 5867   1.501   4.120   3.522
 1656SOL    HW2 5868   1.646   4.052   3.557
 1657SOL     OW 5869   0.670   1.174   5.314
 1657SOL    HW1 5870   0.651   1.116   5.234
 1657SOL    HW2 5871   0.621   1.260   5.303
 1658SOL     OW 5872   6.551   6.827   2.626
 1658SOL    HW1 5873   6.475   6.892   2.624
 1658SOL    HW2 5874   6.527   6.751   2.686
 1659SOL     OW 5875   3.521   2.290   6.267
 1659SOL    HW1 5876   3.475   2.228   6.203
 1659SOL    HW2 5877   3.578   2.355   6.217
 1660SOL     OW 5878   1.068   5.488   4.089
 1660SOL    HW1 5879   1.043   5.402   4.044
 1660SOL    HW2 5880   1.063   5.477   4.188
 1661SOL     OW 5881   3.323   2.063   2.489
 1661SOL    HW1 5882   3.389   2.080   2.562
 1661SOL    HW2 5883   3.333   2.133   2.419
 1662SOL     OW 5884   6.621   1.230   3.357
 1662SOL    HW1 5885   6.684   1.208   3.283
 1662SOL    HW2 5886   6.559   1.303   3.328
 1663SOL     OW 5887   2.776   0.264   3.151
 1663SOL    HW1 5888   2.700   0.248   3.214
 1663SOL    HW2 5889   2.821   0.177   3.131
 1664SOL     OW 5890   1.770   0.076   4.334
 1664SOL    HW1 5891   1.818   0.114   4.413
 1664SOL    HW2 5892   1.800   0.122   4.251
 1665SOL     OW 5893   0.149   1.242   3.085
 1665SOL    HW1 5894   0.110   1.291   3.007
 1665SOL    HW2 5895   0.249   1.240   3.077
 1666SOL     OW 5896   6.385   2.902   0.192
 1666SOL    HW1 5897   6.439   2.949   0.261
 1666SOL    HW2 5898   6.380   2.804   0.214
 1667SOL     OW 5899   5.388   0.525   0.485
 1667SOL    HW1 5900   5.344   0.486   0.403
 1667SOL    HW2 5901   5.480   0.555   0.462
 1668SOL     OW 5902   5.000   6.727   4.777
 1668SOL    HW1 5903   5.000   6.720   4.876
 1668SOL    HW2 5904   4.941   6.804   4.749
 1669SOL     OW 5905   5.922   6.668   0.497
 1669SOL    HW1 5906   6.017   6.682   0.524
 1669SOL    HW2 5907   5.883   6.753   0.463
 1670SOL     OW 5908   6.467   5.703   5.558
 1670SOL    HW1 5909   6.525   5.660   5.488
 1670SOL    HW2 5910   6.524   5.732   5.634
 1671SOL     OW 5911   4.317   2.781   1.008
 1671SOL    HW1 5912   4.404   2.731   1.010
 1671SOL    HW2 5913   4.304   2.828   1.095
 1672SOL     OW 5914   2.075   4.240   2.479
 1672SOL    HW1 5915   2.010   4.241   2.403
 1672SOL    HW2 5916   2.124   4.153   2.479
 1673SOL     OW 5917   0.103   2.998   4.775
 1673SOL    HW1 5918   0.115   2.909   4.819
 1673SOL    HW2 5919   0.036   2.990   4.701
 1674SOL     OW 5920   1.756   4.025   1.037
 1674SOL    HW1 5921   1.720   4.022   1.130
 1674SOL    HW2 5922   1.847   3.983   1.034
 1675SOL     OW 5923   4.647   0.595   6.575
 1675SOL    HW1 5924   4.600   0.672   6.531
 1675SOL    HW2 5925   4.704   0.629   6.650
 1676SOL     OW 5926   2.882   1.229   2.575
 1676SOL    HW1 5927   2.841   1.143   2.546
 1676SOL    HW2 5928   2.888   1.290   2.496
 1677SOL     OW 5929   5.098   1.780   5.146
 1677SOL    HW1 5930   5.075   1.818   5.057
 1677SOL    HW2 5931   5.175   1.830   5.185
 1678SOL     OW 5932   5.204   4.693   3.953
 1678SOL    HW1 5933   5.147   4.757   4.004
 1678SOL    HW2 5934   5.289   4.677   4.004
 1679SOL     OW 5935   1.578   3.725   5.464
 1679SOL    HW1 5936   1.655   3.730   5.401
 1679SOL    HW2 5937   1.596   3.783   5.543
 1680SOL     OW 5938   1.042   1.180   3.885
 1680SOL    HW1 5939   1.043   1.115   3.809
 1680SOL    HW2 5940   1.134   1.219   3.896
 1681SOL     OW 5941   6.462   5.327   1.324
 1681SOL    HW1 5942   6.389   5.379   1.368
 1681SOL    HW2 5943   6.549   5.376   1.337
 1682SOL     OW 5944   0.370   3.059   4.730
 1682SOL    HW1 5945   0.280   3.028   4.760
 1682SOL    HW2 5946   0.380   3.044   4.632
 1683SOL     OW 5947   3.740   5.079   0.695
 1683SOL    HW1 5948   3.790   5.044   0.616
 1683SOL    HW2 5949   3.642   5.063   0.683
 1684SOL     OW 5950   0.868   6.420   4.120
 1684SOL    HW1 5951   0.927   6.417   4.040
 1684SOL    HW2 5952   0.807   6.499   4.114
 1685SOL     OW 5953   1.801   0.993   6.325
 1685SOL    HW1 5954   1.795   0.934   6.245
 1685SOL    HW2 5955   1.827   0.938   6.405
 1686SOL     OW 5956   1.574   5.890   5.833
 1686SOL    HW1 5957   1.553   5.972   5.779
 1686SOL    HW2 5958   1.494   5.830   5.834
 1687SOL     OW 5959   1.893   3.183   1.751
 1687SOL    HW1 5960   1.823   3.251   1.774
 1687SOL    HW2 5961   1.983   3.225   1.753
 1688SOL     OW 5962   1.744   1.397   3.146
 1688SOL    HW1 5963   1.786   1.341   3.217
 1688SOL    HW2 5964   1.791   1.485   3.140
 1689SOL     OW 5965   3.548   1.591   2.273
 1689SOL    HW1 5966   3.527   1.583   2.371
 1689SOL    HW2 5967   3.580   1.684   2.254
 1690SOL     OW 5968   1.285   2.348   3.209
 1690SOL    HW1 5969   1.341   2.271   3.242
 1690SOL    HW2 5970   1.283   2.348   3.109
 1691SOL     OW 5971   5.149   4.282   3.040
 1691SOL    HW1 5972   5.130   4.213   3.110
 1691SOL    HW2 5973   5.197   4.359   3.081
 1692SOL     OW 5974   6.660   6.992   1.250
 1692SOL    HW1 5975   6.714   7.001   1.333
 1692SOL    HW2 5976   6.676   0.045   1.190
 1693SOL     OW 5977   1.651   2.243   3.150
 1693SOL    HW1 5978   1.730   2.195   3.191
 1693SOL    HW2 5979   1.665   2.341   3.157
 1694SOL     OW 5980   4.495   6.466   4.486
 1694SOL    HW1 5981   4.400   6.483   4.513
 1694SOL    HW2 5982   4.518   6.523   4.407
 1695SOL     OW 5983   2.783   1.813   4.595
 1695SOL    HW1 5984   2.793   1.854   4.504
 1695SOL    HW2 5985   2.739   1.724   4.586
 1696SOL     OW 5986   4.509   5.479   0.634
 1696SOL    HW1 5987   4.447   5.444   0.565
 1696SOL    HW2 5988   4.602   5.449   0.614
 1697SOL     OW 5989   0.714   6.924   1.225
 1697SOL    HW1 5990   0.748   6.842   1.269
 1697SOL    HW2 5991   0.718   7.001   1.289
 1698SOL     OW 5992   4.481   1.922   1.467
 1698SOL    HW1 5993   4.453   1.975   1.548
 1698SOL    HW2 5994   4.435   1.959   1.386
 1699SOL     OW 5995   2.547   2.158   1.244
 1699SOL    HW1 5996   2.620   2.204   1.193
 1699SOL    HW2 5997   2.575   2.064   1.264
 1700SOL     OW 5998   6.448   2.539   3.366
 1700SOL    HW1 5999   6.405   2.453   3.394
 1700SOL    HW2 6000   6.422   2.612   3.429
 1701SOL     OW 6001   5.853   2.543   4.888
 1701SOL    HW1 6002   5.916   2.612   4.852
 1701SOL    HW2 6003   5.905   2.466   4.925
 1702SOL     OW 6004   6.380   3.951   1.006
 1702SOL    HW1 6005   6.391   3.858   1.043
 1702SOL    HW2 6006   6.396   4.018   1.078
 1703SOL     OW 6007   3.238   3.960   1.918
 1703SOL    HW1 6008   3.294   3.957   2.001
 1703SOL    HW2 6009   3.198   4.052   1.909
 1704SOL     OW 6010   0.323   1.061   0.543
 1704SOL    HW1 6011   0.376   0.985   0.506
 1704SOL    HW2 6012   0.234   1.028   0.575
 1705SOL     OW 6013   3.187   2.344   1.514
 1705SOL    HW1 6014   3.263   2.368   1.575
 1705SOL    HW2 6015   3.221   2.336   1.420
 1706SOL     OW 6016   4.423   0.368   1.554
 1706SOL    HW1 6017   4.349   0.422   1.595
 1706SOL    HW2 6018   4.491   0.429   1.515
 1707SOL     OW 6019   3.953   1.537   2.000
 1707SOL    HW1 6020   3.860   1.564   2.024
 1707SOL    HW2 6021   3.970   1.556   1.903
 1708SOL     OW 6022   6.296   5.959   2.956
 1708SOL    HW1 6023   6.358   6.023   2.910
 1708SOL    HW2 6024   6.300   5.974   3.055
 1709SOL     OW 6025   2.559   6.466   2.101
 1709SOL    HW1 6026   2.539   6.505   2.190
 1709SOL    HW2 6027   2.528   6.371   2.099
 1710SOL     OW 6028   0.193   3.638   3.847
 1710SOL    HW1 6029   0.135   3.659   3.768
 1710SOL    HW2 6030   0.251   3.717   3.868
 1711SOL     OW 6031   1.314   4.477   5.172
 1711SOL    HW1 6032   1.329   4.378   5.180
 1711SOL    HW2 6033   1.306   4.501   5.075
 1712SOL     OW 6034   0.763   4.044   6.355
 1712SOL    HW1 6035   0.733   4.138   6.363
 1712SOL    HW2 6036   0.797   4.028   6.262
 1713SOL     OW 6037   1.959   2.007   1.228
 1713SOL    HW1 6038   1.993   2.101   1.223
 1713SOL    HW2 6039   1.861   2.008   1.245
 1714SOL     OW 6040   4.095   1.772   6.392
 1714SOL    HW1 6041   4.003   1.735   6.406
 1714SOL    HW2 6042   4.089   1.859   6.344
 1715SOL     OW 6043   0.007   2.965   3.242
 1715SOL    HW1 6044   0.021   3.053   3.198
 1715SOL    HW2 6045   6.996   2.979   3.335
 1716SOL     OW 6046   5.666   6.728   1.262
 1716SOL    HW1 6047   5.710   6.811   1.228
 1716SOL    HW2 6048   5.725   6.684   1.329
 1717SOL     OW 6049   2.520   6.304   6.613
 1717SOL    HW1 6050   2.574   6.350   6.683
 1717SOL    HW2 6051   2.470   6.372   6.560
 1718SOL     OW 6052   2.214   2.418   0.177
 1718SOL    HW1 6053   2.191   2.501   0.228
 1718SOL    HW2 6054   2.130   2.378   0.139
 1719SOL     OW 6055   2.372   3.564   1.159
 1719SOL    HW1 6056   2.452   3.619   1.185
 1719SOL    HW2 6057   2.326   3.531   1.241
 1720SOL     OW 6058   6.697   2.260   1.102
 1720SOL    HW1 6059   6.716   2.339   1.043
 1720SOL    HW2 6060   6.704   2.176   1.049
 1721SOL     OW 6061   1.244   6.300   2.223
 1721SOL    HW1 6062   1.311   6.252   2.166
 1721SOL    HW2 6063   1.253   6.399   2.209
 1722SOL     OW 6064   5.185   0.547   2.878
 1722SOL    HW1 6065   5.215   0.629   2.927
 1722SOL    HW2 6066   5.127   0.491   2.938
 1723SOL     OW 6067   6.457   1.827   3.391
 1723SOL    HW1 6068   6.392   1.868   3.455
 1723SOL    HW2 6069   6.436   1.729   3.380
 1724SOL     OW 6070   5.983   1.027   0.758
 1724SOL    HW1 6071   5.992   1.119   0.722
 1724SOL    HW2 6072   5.959   1.032   0.855
 1725SOL     OW 6073   3.344   4.272   6.841
 1725SOL    HW1 6074   3.374   4.352   6.790
 1725SOL    HW2 6075   3.354   4.289   6.939
 1726SOL     OW 6076   6.690   4.578   4.502
 1726SOL    HW1 6077   6.786   4.551   4.498
 1726SOL    HW2 6078   6.637   4.526   4.435
 1727SOL     OW 6079   3.720   3.567   4.624
 1727SOL    HW1 6080   3.775   3.534   4.548
 1727SOL    HW2 6081   3.779   3.589   4.701
 1728SOL     OW 6082   4.863   4.772   4.509
 1728SOL    HW1 6083   4.868   4.692   4.449
 1728SOL    HW2 6084   4.844   4.854   4.454
 1729SOL     OW 6085   2.011   3.978   3.271
 1729SOL    HW1 6086   2.087   4.042   3.256
 1729SOL    HW2 6087   2.025   3.896   3.216
 1730SOL     OW 6088   6.575   0.899   5.227
 1730SOL    HW1 6089   6.603   0.915   5.321
 1730SOL    HW2 6090   6.634   0.830   5.186
 1731SOL     OW 6091   1.621   4.462   2.119
 1731SOL    HW1 6092   1.587   4.422   2.204
 1731SOL    HW2 6093   1.554   4.527   2.083
 1732SOL     OW 6094   2.283   4.106   6.508
 1732SOL    HW1 6095   2.325   4.143   6.425
 1732SOL    HW2 6096   2.352   4.098   6.580
 1733SOL     OW 6097   1.935   3.443   2.495
 1733SOL    HW1 6098   1.982   3.480   2.414
 1733SOL    HW2 6099   1.843   3.481   2.500
 1734SOL     OW 6100   4.463   3.148   1.694
 1734SOL    HW1 6101   4.534   3.130   1.763
 1734SOL    HW2 6102   4.476   3.086   1.617
 1735SOL     OW 6103   6.070   5.756   1.511
 1735SOL    HW1 6104   5.998   5.724   1.573
 1735SOL    HW2 6105   6.032   5.770   1.420
 1736SOL     OW 6106   5.019   2.537   0.120
 1736SOL    HW1 6107   4.921   2.543   0.139
 1736SOL    HW2 6108   5.034   2.485   0.036
 1737SOL     OW 6109   2.460   0.559   3.893
 1737SOL    HW1 6110   2.497   0.580   3.803
 1737SOL    HW2 6111   2.535   0.555   3.959
 1738SOL     OW 6112   2.005   2.930   3.720
 1738SOL    HW1 6113   1.957   2.860   3.773
 1738SOL    HW2 6114   2.080   2.968   3.775
 1739SOL     OW 6115   5.065   2.295   4.721
 1739SOL    HW1 6116   4.996   2.363   4.744
 1739SOL    HW2 6117   5.054   2.268   4.625
 1740SOL     OW 6118   6.738   1.439   6.716
 1740SOL    HW1 6119   6.742   1.477   6.624
 1740SOL    HW2 6120   6.829   1.413   6.746
 1741SOL     OW 6121   1.994   1.162   2.512
 1741SOL    HW1 6122   2.024   1.067   2.519
 1741SOL    HW2 6123   1.958   1.179   2.420
 1742SOL     OW 6124   4.231   6.295   6.262
 1742SOL    HW1 6125   4.166   6.264   6.192
 1742SOL    HW2 6126   4.187   6.365   6.318
 1743SOL     OW 6127   1.769   0.882   1.940
 1743SOL    HW1 6128   1.704   0.859   2.012
 1743SOL    HW2 6129   1.719   0.910   1.858
 1744SOL     OW 6130   1.866   0.142   1.821
 1744SOL    HW1 6131   1.841   0.090   1.740
 1744SOL    HW2 6132   1.784   0.183   1.861
 1745SOL     OW 6133   6.448   1.466   4.314
 1745SOL    HW1 6134   6.379   1.418   4.367
 1745SOL    HW2 6135   6.539   1.442   4.347
 1746SOL     OW 6136   2.405   5.737   5.758
 1746SOL    HW1 6137   2.411   5.661   5.694
 1746SOL    HW2 6138   2.491   5.788   5.759
 1747SOL     OW 6139   4.998   6.861   1.907
 1747SOL    HW1 6140   4.954   6.885   1.821
 1747SOL    HW2 6141   5.059   6.936   1.935
 1748SOL     OW 6142   6.384   1.430   3.862
 1748SOL    HW1 6143   6.398   1.341   3.905
 1748SOL    HW2 6144   6.293   1.464   3.884
 1749SOL     OW 6145   4.011   6.626   5.697
 1749SOL    HW1 6146   4.050   6.535   5.682
 1749SOL    HW2 6147   3.911   6.618   5.700
 1750SOL     OW 6148   5.196   1.014   3.024
 1750SOL    HW1 6149   5.271   1.015   3.089
 1750SOL    HW2 6150   5.195   1.100   2.972
 1751SOL     OW 6151   2.999   5.124   4.729
 1751SOL    HW1 6152   3.005   5.033   4.771
 1751SOL    HW2 6153   2.910   5.164   4.748
 1752SOL     OW 6154   6.326   2.763   1.432
 1752SOL    HW1 6155   6.380   2.803   1.358
 1752SOL    HW2 6156   6.376   2.687   1.473
 1753SOL     OW 6157   0.675   1.008   0.652
 1753SOL    HW1 6158   0.594   1.025   0.707
 1753SOL    HW2 6159   0.657   1.035   0.557
 1754SOL     OW 6160   3.680   3.284   0.777
 1754SOL    HW1 6161   3.746   3.358   0.761
 1754SOL    HW2 6162   3.648   3.288   0.872
 1755SOL     OW 6163   5.462   4.816   1.737
 1755SOL    HW1 6164   5.435   4.778   1.826
 1755SOL    HW2 6165   5.534   4.883   1.751
 1756SOL     OW 6166   5.735   4.939   4.945
 1756SOL    HW1 6167   5.687   5.002   5.006
 1756SOL    HW2 6168   5.775   4.864   4.999
 1757SOL     OW 6169   2.117   6.560   4.727
 1757SOL    HW1 6170   2.078   6.501   4.655
 1757SOL    HW2 6171   2.196   6.513   4.768
 1758SOL     OW 6172   2.718   1.060   3.655
 1758SOL    HW1 6173   2.802   1.018   3.620
 1758SOL    HW2 6174   2.702   1.030   3.749
 1759SOL     OW 6175   0.135   5.078   6.089
 1759SOL    HW1 6176   0.111   5.153   6.028
 1759SOL    HW2 6177   0.230   5.089   6.120
 1760SOL     OW 6178   6.290   1.894   1.044
 1760SOL    HW1 6179   6.384   1.926   1.033
 1760SOL    HW2 6180   6.239   1.959   1.100
 1761SOL     OW 6181   6.676   6.801   0.185
 1761SOL    HW1 6182   6.648   6.720   0.134
 1761SOL    HW2 6183   6.729   6.861   0.125
 1762SOL     OW 6184   6.114   2.163   5.736
 1762SOL    HW1 6185   6.077   2.082   5.690
 1762SOL    HW2 6186   6.203   2.185   5.698
 1763SOL     OW 6187   1.563   3.844   3.935
 1763SOL    HW1 6188   1.552   3.939   3.907
 1763SOL    HW2 6189   1.509   3.785   3.874
 1764SOL     OW 6190   2.167   3.971   2.445
 1764SOL    HW1 6191   2.159   3.935   2.538
 1764SOL    HW2 6192   2.098   3.928   2.386
 1765SOL     OW 6193   3.335   1.910   6.896
 1765SOL    HW1 6194   3.384   1.828   6.866
 1765SOL    HW2 6195   3.250   1.883   6.941
 1766SOL     OW 6196   5.070   2.541   4.049
 1766SOL    HW1 6197   5.071   2.548   4.149
 1766SOL    HW2 6198   4.976   2.553   4.016
 1767SOL     OW 6199   5.439   3.905   2.841
 1767SOL    HW1 6200   5.376   3.912   2.764
 1767SOL    HW2 6201   5.491   3.820   2.835
 1768SOL     OW 6202   4.306   0.861   5.155
 1768SOL    HW1 6203   4.285   0.768   5.127
 1768SOL    HW2 6204   4.280   0.925   5.082
 1769SOL     OW 6205   4.306   2.409   4.187
 1769SOL    HW1 6206   4.325   2.429   4.091
 1769SOL    HW2 6207   4.240   2.334   4.193
 1770SOL     OW 6208   2.078   5.857   5.303
 1770SOL    HW1 6209   2.168   5.814   5.304
 1770SOL    HW2 6210   2.070   5.919   5.381
 1771SOL     OW 6211   2.962   5.781   6.245
 1771SOL    HW1 6212   2.996   5.768   6.338
 1771SOL    HW2 6213   2.994   5.868   6.209
 1772SOL     OW 6214   2.853   6.986   4.172
 1772SOL    HW1 6215   2.909   6.905   4.156
 1772SOL    HW2 6216   2.865   7.017   4.267
 1773SOL     OW 6217   2.733   5.012   5.463
 1773SOL    HW1 6218   2.636   5.003   5.487
 1773SOL    HW2 6219   2.783   4.933   5.497
 1774SOL     OW 6220   4.138   5.924   1.669
 1774SOL    HW1 6221   4.106   5.862   1.740
 1774SOL    HW2 6222   4.237   5.914   1.658
 1775SOL     OW 6223   1.560   4.084   3.851
 1775SOL    HW1 6224   1.537   4.175   3.885
 1775SOL    HW2 6225   1.553   4.083   3.751
 1776SOL     OW 6226   3.238   6.824   4.058
 1776SOL    HW1 6227   3.257   6.894   3.989
 1776SOL    HW2 6228   3.140   6.821   4.077
 1777SOL     OW 6229   3.612   5.156   6.351
 1777SOL    HW1 6230   3.516   5.135   6.330
 1777SOL    HW2 6231   3.645   5.227   6.290
 1778SOL     OW 6232   4.288   3.518   5.738
 1778SOL    HW1 6233   4.210   3.576   5.715
 1778SOL    HW2 6234   4.365   3.539   5.678
 1779SOL     OW 6235   4.771   0.820   4.571
 1779SOL    HW1 6236   4.807   0.910   4.595
 1779SOL    HW2 6237   4.761   0.765   4.653
 1780SOL     OW 6238   3.579   2.849   6.528
 1780SOL    HW1 6239   3.573   2.866   6.430
 1780SOL    HW2 6240   3.573   2.751   6.546
 1781SOL     OW 6241   4.162   5.664   3.263
 1781SOL    HW1 6242   4.125   5.697   3.176
 1781SOL    HW2 6243   4.250   5.708   3.280
 1782SOL     OW 6244   3.057   1.627   2.613
 1782SOL    HW1 6245   2.958   1.618   2.604
 1782SOL    HW2 6246   3.089   1.703   2.556
 1783SOL     OW 6247   1.970   5.519   6.014
 1783SOL    HW1 6248   2.014   5.534   5.925
 1783SOL    HW2 6249   2.004   5.434   6.053
 1784SOL     OW 6250   4.467   1.522   6.170
 1784SOL    HW1 6251   4.407   1.574   6.231
 1784SOL    HW2 6252   4.413   1.483   6.096
 1785SOL     OW 6253   6.152   4.167   3.451
 1785SOL    HW1 6254   6.101   4.247   3.483
 1785SOL    HW2 6255   6.109   4.130   3.369
 1786SOL     OW 6256   2.362   2.422   6.976
 1786SOL    HW1 6257   2.292   2.446   6.909
 1786SOL    HW2 6258   2.329   2.442   0.043
 1787SOL     OW 6259   3.015   0.991   5.463
 1787SOL    HW1 6260   3.096   1.015   5.409
 1787SOL    HW2 6261   2.935   0.988   5.403
 1788SOL     OW 6262   2.838   3.040   0.094
 1788SOL    HW1 6263   2.820   2.971   0.025
 1788SOL    HW2 6264   2.812   3.130   0.059
 1789SOL     OW 6265   5.809   1.847   3.210
 1789SOL    HW1 6266   5.809   1.868   3.113
 1789SOL    HW2 6267   5.899   1.867   3.248
 1790SOL     OW 6268   4.247   6.226   3.706
 1790SOL    HW1 6269   4.269   6.322   3.723
 1790SOL    HW2 6270   4.330   6.171   3.713
 1791SOL     OW 6271   5.921   0.612   2.912
 1791SOL    HW1 6272   5.878   0.641   2.998
 1791SOL    HW2 6273   5.985   0.537   2.931
 1792SOL     OW 6274   6.526   3.306   5.237
 1792SOL    HW1 6275   6.443   3.262   5.203
 1792SOL    HW2 6276   6.508   3.402   5.256
 1793SOL     OW 6277   6.080   6.939   3.103
 1793SOL    HW1 6278   6.174   6.969   3.123
 1793SOL    HW2 6279   6.039   7.000   3.035
 1794SOL     OW 6280   5.413   6.097   5.578
 1794SOL    HW1 6281   5.363   6.179   5.607
 1794SOL    HW2 6282   5.510   6.107   5.602
 1795SOL     OW 6283   1.297   2.009   0.345
 1795SOL    HW1 6284   1.378   1.978   0.295
 1795SOL    HW2 6285   1.248   1.930   0.380
 1796SOL     OW 6286   2.555   0.912   4.675
 1796SOL    HW1 6287   2.533   0.971   4.752
 1796SOL    HW2 6288   2.623   0.844   4.702
 1797SOL     OW 6289   1.574   6.826   0.602
 1797SOL    HW1 6290   1.533   6.739   0.629
 1797SOL    HW2 6291   1.673   6.816   0.598
 1798SOL     OW 6292   4.641   2.692   3.566
 1798SOL    HW1 6293   4.737   2.714   3.579
 1798SOL    HW2 6294   4.603   2.660   3.653
 1799SOL     OW 6295   0.033   2.642   5.569
 1799SOL    HW1 6296   0.051   2.553   5.611
 1799SOL    HW2 6297   0.047   2.714   5.637
 1800SOL     OW 6298   3.944   4.766   1.799
 1800SOL    HW1 6299   3.892   4.844   1.763
 1800SOL    HW2 6300   3.889   4.719   1.869
 1801SOL     OW 6301   7.014   0.185   1.625
 1801SOL    HW1 6302   0.040   0.270   1.613
 1801SOL    HW2 6303   0.045   0.119   1.676
 1802SOL     OW 6304   5.191   5.490   3.901
 1802SOL    HW1 6305   5.231   5.428   3.969
 1802SOL    HW2 6306   5.237   5.578   3.905
 1803SOL     OW 6307   0.550   5.832   6.876
 1803SOL    HW1 6308   0.604   5.749   6.866
 1803SOL    HW2 6309   0.468   5.826   6.818
 1804SOL     OW 6310   2.490   3.863   5.460
 1804SOL    HW1 6311   2.564   3.796   5.456
 1804SOL    HW2 6312   2.451   3.873   5.368
 1805SOL     OW 6313   5.842   4.164   6.174
 1805SOL    HW1 6314   5.902   4.155   6.094
 1805SOL    HW2 6315   5.897   4.190   6.253
 1806SOL     OW 6316   0.521   0.206   0.052
 1806SOL    HW1 6317   0.477   0.186   6.990
 1806SOL    HW2 6318   0.620   0.194   0.043
 1807SOL     OW 6319   5.350   2.623   4.829
 1807SOL    HW1 6320   5.366   2.714   4.792
 1807SOL    HW2 6321   5.320   2.631   4.924
 1808SOL     OW 6322   0.148   4.363   5.882
 1808SOL    HW1 6323   0.164   4.285   5.820
 1808SOL    HW2 6324   0.085   4.334   5.955
 1809SOL     OW 6325   1.846   2.569   4.970
 1809SOL    HW1 6326   1.848   2.635   5.045
 1809SOL    HW2 6327   1.935   2.523   4.964
 1810SOL     OW 6328   2.547   6.922   3.690
 1810SOL    HW1 6329   2.626   6.871   3.657
 1810SOL    HW2 6330   2.525   6.893   3.783
 1811SOL     OW 6331   6.093   5.683   3.790
 1811SOL    HW1 6332   6.045   5.658   3.706
 1811SOL    HW2 6333   6.161   5.612   3.810
 1812SOL     OW 6334   4.293   6.195   4.631
 1812SOL    HW1 6335   4.285   6.108   4.679
 1812SOL    HW2 6336   4.386   6.231   4.642
 1813SOL     OW 6337   6.187   4.586   0.865
 1813SOL    HW1 6338   6.256   4.536   0.917
 1813SOL    HW2 6339   6.231   4.654   0.807
 1814SOL     OW 6340   5.480   0.367   1.671
 1814SOL    HW1 6341   5.401   0.349   1.729
 1814SOL    HW2 6342   5.560   0.387   1.729
 1815SOL     OW 6343   0.476   1.769   2.500
 1815SOL    HW1 6344   0.445   1.783   2.406
 1815SOL    HW2 6345   0.567   1.809   2.511
 1816SOL     OW 6346   2.949   3.497   1.128
 1816SOL    HW1 6347   3.013   3.435   1.173
 1816SOL    HW2 6348   2.899   3.447   1.056
 1817SOL     OW 6349   2.585   0.099   2.621
 1817SOL    HW1 6350   2.670   0.048   2.608
 1817SOL    HW2 6351   2.510   0.035   2.633
 1818SOL     OW 6352   1.226   6.511   2.680
 1818SOL    HW1 6353   1.238   6.413   2.660
 1818SOL    HW2 6354   1.150   6.546   2.625
 1819SOL     OW 6355   1.466   3.926   1.964
 1819SOL    HW1 6356   1.482   3.886   1.874
 1819SOL    HW2 6357   1.489   4.023   1.962
 1820SOL     OW 6358   3.952   1.221   2.878
 1820SOL    HW1 6359   4.025   1.159   2.852
 1820SOL    HW2 6360   3.991   1.308   2.908
 1821SOL     OW 6361   0.893   1.117   1.636
 1821SOL    HW1 6362   0.821   1.057   1.673
 1821SOL    HW2 6363   0.946   1.068   1.568
 1822SOL     OW 6364   3.029   2.645   1.059
 1822SOL    HW1 6365   2.938   2.687   1.059
 1822SOL    HW2 6366   3.069   2.654   1.150
 1823SOL     OW 6367   3.225   5.768   3.257
 1823SOL    HW1 6368   3.249   5.701   3.327
 1823SOL    HW2 6369   3.187   5.849   3.302
 1824SOL     OW 6370   3.729   2.145   0.962
 1824SOL    HW1 6371   3.658   2.122   1.029
 1824SOL    HW2 6372   3.783   2.063   0.943
 1825SOL     OW 6373   1.475   0.723   1.926
 1825SOL    HW1 6374   1.416   0.804   1.929
 1825SOL    HW2 6375   1.460   0.675   1.840
 1826SOL     OW 6376   3.442   0.848   1.570
 1826SOL    HW1 6377   3.342   0.842   1.578
 1826SOL    HW2 6378   3.474   0.776   1.508
 1827SOL     OW 6379   0.124   5.166   2.372
 1827SOL    HW1 6380   0.192   5.237   2.393
 1827SOL    HW2 6381   0.074   5.144   2.456
 1828SOL     OW 6382   0.161   2.494   0.163
 1828SOL    HW1 6383   0.077   2.536   0.197
 1828SOL    HW2 6384   0.237   2.558   0.175
 1829SOL     OW 6385   4.408   6.924   2.935
 1829SOL    HW1 6386   4.458   7.010   2.927
 1829SOL    HW2 6387   4.354   6.908   2.853
 1830SOL     OW 6388   5.613   5.728   4.270
 1830SOL    HW1 6389   5.537   5.763   4.326
 1830SOL    HW2 6390   5.577   5.665   4.202
 1831SOL     OW 6391   5.893   0.133   3.206
 1831SOL    HW1 6392   5.855   0.076   3.280
 1831SOL    HW2 6393   5.984   0.165   3.233
 1832SOL     OW 6394   5.821   1.967   0.907
 1832SOL    HW1 6395   5.768   1.979   0.823
 1832SOL    HW2 6396   5.913   2.003   0.894
 1833SOL     OW 6397   5.656   0.618   5.369
 1833SOL    HW1 6398   5.614   0.700   5.329
 1833SOL    HW2 6399   5.755   0.624   5.360
 1834SOL     OW 6400   3.532   3.922   0.061
 1834SOL    HW1 6401   3.567   3.833   0.090
 1834SOL    HW2 6402   3.449   3.944   0.112
 1835SOL     OW 6403   1.697   4.369   1.875
 1835SOL    HW1 6404   1.693   4.411   1.965
 1835SOL    HW2 6405   1.659   4.432   1.807
 1836SOL     OW 6406   6.649   1.684   0.888
 1836SOL    HW1 6407   6.596   1.603   0.913
 1836SOL    HW2 6408   6.658   1.689   0.788
 1837SOL     OW 6409   0.424   2.453   3.954
 1837SOL    HW1 6410   0.501   2.485   3.899
 1837SOL    HW2 6411   0.455   2.429   4.045
 1838SOL     OW 6412   0.103   2.020   3.891
 1838SOL    HW1 6413   0.047   2.054   3.815
 1838SOL    HW2 6414   0.149   2.098   3.935
 1839SOL     OW 6415   4.651   2.528   4.783
 1839SOL    HW1 6416   4.579   2.478   4.831
 1839SOL    HW2 6417   4.648   2.624   4.812
 1840SOL     OW 6418   3.616   6.248   1.629
 1840SOL    HW1 6419   3.612   6.154   1.595
 1840SOL    HW2 6420   3.650   6.307   1.556
 1841SOL     OW 6421   2.048   3.127   4.434
 1841SOL    HW1 6422   2.070   3.225   4.430
 1841SOL    HW2 6423   2.104   3.084   4.505
 1842SOL     OW 6424   0.921   5.540   0.377
 1842SOL    HW1 6425   1.017   5.563   0.363
 1842SOL    HW2 6426   0.887   5.587   0.459
 1843SOL     OW 6427   1.444   2.373   4.125
 1843SOL    HW1 6428   1.446   2.387   4.223
 1843SOL    HW2 6429   1.349   2.369   4.093
 1844SOL     OW 6430   3.834   0.843   6.060
 1844SOL    HW1 6431   3.861   0.795   6.144
 1844SOL    HW2 6432   3.751   0.896   6.078
 1845SOL     OW 6433   2.664   0.386   5.951
 1845SOL    HW1 6434   2.638   0.305   5.898
 1845SOL    HW2 6435   2.659   0.365   6.049
 1846SOL     OW 6436   3.583   2.324   6.937
 1846SOL    HW1 6437   3.660   2.333   6.874
 1846SOL    HW2 6438   3.602   2.250   7.002
 1847SOL     OW 6439   1.449   0.988   6.558
 1847SOL    HW1 6440   1.448   0.889   6.540
 1847SOL    HW2 6441   1.422   1.005   6.653
 1848SOL     OW 6442   1.926   6.237   2.788
 1848SOL    HW1 6443   2.011   6.205   2.745
 1848SOL    HW2 6444   1.855   6.169   2.775
 1849SOL     OW 6445   4.018   1.726   0.262
 1849SOL    HW1 6446   3.970   1.686   0.340
 1849SOL    HW2 6447   3.990   1.680   0.178
 1850SOL     OW 6448   6.464   2.242   2.685
 1850SOL    HW1 6449   6.407   2.315   2.722
 1850SOL    HW2 6450   6.435   2.154   2.724
 1851SOL     OW 6451   0.450   1.430   0.670
 1851SOL    HW1 6452   0.503   1.364   0.617
 1851SOL    HW2 6453   0.454   1.406   0.767
 1852SOL     OW 6454   5.149   4.109   1.177
 1852SOL    HW1 6455   5.139   4.208   1.166
 1852SOL    HW2 6456   5.087   4.062   1.114
 1853SOL     OW 6457   1.012   3.020   2.129
 1853SOL    HW1 6458   1.058   3.094   2.080
 1853SOL    HW2 6459   1.078   2.972   2.188
 1854SOL     OW 6460   2.749   6.222   3.996
 1854SOL    HW1 6461   2.721   6.155   3.928
 1854SOL    HW2 6462   2.836   6.264   3.968
 1855SOL     OW 6463   4.386   4.396   6.764
 1855SOL    HW1 6464   4.287   4.383   6.754
 1855SOL    HW2 6465   4.404   4.485   6.805
 1856SOL     OW 6466   6.139   3.212   5.407
 1856SOL    HW1 6467   6.047   3.212   5.368
 1856SOL    HW2 6468   6.185   3.126   5.385
 1857SOL     OW 6469   3.512   1.074   5.528
 1857SOL    HW1 6470   3.498   0.976   5.512
 1857SOL    HW2 6471   3.591   1.106   5.475
 1858SOL     OW 6472   5.794   2.851   3.639
 1858SOL    HW1 6473   5.718   2.892   3.589
 1858SOL    HW2 6474   5.832   2.776   3.586
 1859SOL     OW 6475   4.177   1.378   3.695
 1859SOL    HW1 6476   4.173   1.473   3.663
 1859SOL    HW2 6477   4.263   1.337   3.666
 1860SOL     OW 6478   6.731   0.594   3.466
 1860SOL    HW1 6479   6.682   0.626   3.547
 1860SOL    HW2 6480   6.829   0.603   3.481
 1861SOL     OW 6481   4.960   6.333   2.360
 1861SOL    HW1 6482   5.033   6.281   2.317
 1861SOL    HW2 6483   4.940   6.295   2.450
 1862SOL     OW 6484   2.482   6.939   6.702
 1862SOL    HW1 6485   2.429   7.024   6.695
 1862SOL    HW2 6486   2.472   6.886   6.618
 1863SOL     OW 6487   2.081   2.382   0.819
 1863SOL    HW1 6488   2.174   2.352   0.799
 1863SOL    HW2 6489   2.059   2.362   0.914
 1864SOL     OW 6490   1.337   0.114   5.396
 1864SOL    HW1 6491   1.427   0.112   5.438
 1864SOL    HW2 6492   1.272   0.160   5.457
 1865SOL     OW 6493   3.319   0.521   5.759
 1865SOL    HW1 6494   3.289   0.553   5.669
 1865SOL    HW2 6495   3.370   0.594   5.805
 1866SOL     OW 6496   4.317   4.735   2.755
 1866SOL    HW1 6497   4.281   4.766   2.667
 1866SOL    HW2 6498   4.242   4.699   2.811
 1867SOL     OW 6499   0.883   4.392   0.711
 1867SOL    HW1 6500   0.934   4.309   0.688
 1867SOL    HW2 6501   0.948   4.466   0.732
 1868SOL     OW 6502   4.743   4.744   0.500
 1868SOL    HW1 6503   4.775   4.658   0.541
 1868SOL    HW2 6504   4.732   4.731   0.401
 1869SOL     OW 6505   6.505   2.184   4.796
 1869SOL    HW1 6506   6.480   2.279   4.776
 1869SOL    HW2 6507   6.512   2.133   4.711
 1870SOL     OW 6508   2.233   4.124   5.734
 1870SOL    HW1 6509   2.320   4.124   5.782
 1870SOL    HW2 6510   2.236   4.058   5.659
 1871SOL     OW 6511   1.402   6.687   6.667
 1871SOL    HW1 6512   1.409   6.770   6.722
 1871SOL    HW2 6513   1.316   6.687   6.617
 1872SOL     OW 6514   3.764   3.876   6.789
 1872SOL    HW1 6515   3.703   3.810   6.745
 1872SOL    HW2 6516   3.856   3.869   6.751
 1873SOL     OW 6517   4.495   1.213   5.088
 1873SOL    HW1 6518   4.399   1.242   5.091
 1873SOL    HW2 6519   4.530   1.207   5.181
 1874SOL     OW 6520   2.406   1.096   0.805
 1874SOL    HW1 6521   2.309   1.089   0.781
 1874SOL    HW2 6522   2.438   1.190   0.790
 1875SOL     OW 6523   0.837   1.434   6.509
 1875SOL    HW1 6524   0.764   1.405   6.447
 1875SOL    HW2 6525   0.919   1.379   6.492
 1876SOL     OW 6526   3.393   0.319   6.034
 1876SOL    HW1 6527   3.309   0.367   6.013
 1876SOL    HW2 6528   3.381   0.265   6.118
 1877SOL     OW 6529   0.734   0.084   3.155
 1877SOL    HW1 6530   0.698   0.112   3.066
 1877SOL    HW2 6531   0.720   7.011   3.168
 1878SOL     OW 6532   6.906   1.599   4.002
 1878SOL    HW1 6533   6.816   1.560   3.985
 1878SOL    HW2 6534   6.957   1.540   4.065
 1879SOL     OW 6535   1.087   3.880   3.888
 1879SOL    HW1 6536   1.024   3.885   3.966
 1879SOL    HW2 6537   1.112   3.785   3.871
 1880SOL     OW 6538   6.784   1.776   4.687
 1880SOL    HW1 6539   6.876   1.803   4.659
 1880SOL    HW2 6540   6.745   1.846   4.747
 1881SOL     OW 6541   5.541   2.471   2.686
 1881SOL    HW1 6542   5.499   2.561   2.698
 1881SOL    HW2 6543   5.482   2.414   2.629
 1882SOL     OW 6544   1.101   4.232   6.858
 1882SOL    HW1 6545   1.114   4.306   6.925
 1882SOL    HW2 6546   1.022   4.177   6.883
 1883SOL     OW 6547   6.059   2.133   2.600
 1883SOL    HW1 6548   5.999   2.107   2.525
 1883SOL    HW2 6549   6.034   2.081   2.682
 1884SOL     OW 6550   0.444   2.239   0.661
 1884SOL    HW1 6551   0.495   2.225   0.576
 1884SOL    HW2 6552   0.387   2.158   0.678
 1885SOL     OW 6553   2.023   1.707   6.306
 1885SOL    HW1 6554   2.055   1.664   6.221
 1885SOL    HW2 6555   2.101   1.723   6.366
 1886SOL     OW 6556   1.269   0.102   2.122
 1886SOL    HW1 6557   1.268   0.095   2.222
 1886SOL    HW2 6558   1.279   0.011   2.082
 1887SOL     OW 6559   0.292   5.329   5.855
 1887SOL    HW1 6560   0.386   5.359   5.864
 1887SOL    HW2 6561   0.231   5.391   5.905
 1888SOL     OW 6562   3.065   2.183   7.007
 1888SOL    HW1 6563   3.160   2.198   6.981
 1888SOL    HW2 6564   3.016   2.142   6.930
 1889SOL     OW 6565   0.435   4.106   4.629
 1889SOL    HW1 6566   0.491   4.027   4.654
 1889SOL    HW2 6567   0.343   4.094   4.666
 1890SOL     OW 6568   1.344   5.410   3.928
 1890SOL    HW1 6569   1.254   5.421   3.970
 1890SOL    HW2 6570   1.382   5.499   3.905
 1891SOL     OW 6571   4.795   2.735   1.532
 1891SOL    HW1 6572   4.727   2.748   1.604
 1891SOL    HW2 6573   4.804   2.819   1.478
 1892SOL     OW 6574   0.401   6.927   1.968
 1892SOL    HW1 6575   0.395   6.946   1.870
 1892SOL    HW2 6576   0.310   6.907   2.004
 1893SOL     OW 6577   3.617   2.767   1.958
 1893SOL    HW1 6578   3.585   2.758   2.052
 1893SOL    HW2 6579   3.539   2.782   1.897
 1894SOL     OW 6580   3.725   3.264   4.221
 1894SOL    HW1 6581   3.747   3.255   4.124
 1894SOL    HW2 6582   3.794   3.321   4.265
 1895SOL     OW 6583   4.005   0.353   0.610
 1895SOL    HW1 6584   4.076   0.284   0.598
 1895SOL    HW2 6585   3.961   0.340   0.699
 1896SOL     OW 6586   6.242   1.627   1.111
 1896SOL    HW1 6587   6.263   1.547   1.055
 1896SOL    HW2 6588   6.251   1.710   1.055
 1897SOL     OW 6589   2.049   5.122   2.041
 1897SOL    HW1 6590   2.140   5.084   2.028
 1897SOL    HW2 6591   1.990   5.097   1.964
 1898SOL     OW 6592   1.659   4.390   3.264
 1898SOL    HW1 6593   1.751   4.424   3.283
 1898SOL    HW2 6594   1.645   4.389   3.165
 1899SOL     OW 6595   0.304   1.869   0.054
 1899SOL    HW1 6596   0.218   1.881   0.102
 1899SOL    HW2 6597   0.380   1.887   0.116
 1900SOL     OW 6598   2.205   0.705   0.133
 1900SOL    HW1 6599   2.139   0.703   0.208
 1900SOL    HW2 6600   2.211   0.615   0.091
 1901SOL     OW 6601   2.093   1.822   1.062
 1901SOL    HW1 6602   2.016   1.841   1.001
 1901SOL    HW2 6603   2.080   1.870   1.149
 1902SOL     OW 6604   2.654   0.788   4.320
 1902SOL    HW1 6605   2.650   0.696   4.359
 1902SOL    HW2 6606   2.566   0.834   4.335
 1903SOL     OW 6607   0.857   3.456   2.602
 1903SOL    HW1 6608   0.872   3.363   2.569
 1903SOL    HW2 6609   0.765   3.464   2.639
 1904SOL     OW 6610   5.450   5.230   3.370
 1904SOL    HW1 6611   5.534   5.177   3.378
 1904SOL    HW2 6612   5.448   5.274   3.280
 1905SOL     OW 6613   0.525   0.467   3.529
 1905SOL    HW1 6614   0.529   0.401   3.454
 1905SOL    HW2 6615   0.559   0.423   3.613
 1906SOL     OW 6616   3.155   1.020   6.278
 1906SOL    HW1 6617   3.090   0.990   6.208
 1906SOL    HW2 6618   3.104   1.062   6.354
 1907SOL     OW 6619   4.667   2.637   1.190
 1907SOL    HW1 6620   4.672   2.568   1.262
 1907SOL    HW2 6621   4.746   2.698   1.196
 1908SOL     OW 6622   4.104   6.445   6.448
 1908SOL    HW1 6623   4.121   6.439   6.546
 1908SOL    HW2 6624   4.088   6.541   6.423
 1909SOL     OW 6625   0.662   3.250   3.661
 1909SOL    HW1 6626   0.669   3.322   3.592
 1909SOL    HW2 6627   0.593   3.183   3.632
 1910SOL     OW 6628   6.863   6.505   5.305
 1910SOL    HW1 6629   6.841   6.584   5.363
 1910SOL    HW2 6630   6.835   6.421   5.351
 1911SOL     OW 6631   6.762   3.514   4.844
 1911SOL    HW1 6632   6.692   3.577   4.809
 1911SOL    HW2 6633   6.776   3.440   4.779
 1912SOL     OW 6634   2.803   5.921   2.257
 1912SOL    HW1 6635   2.708   5.908   2.229
 1912SOL    HW2 6636   2.865   5.887   2.186
 1913SOL     OW 6637   2.403   0.447   5.050
 1913SOL    HW1 6638   2.327   0.412   5.105
 1913SOL    HW2 6639   2.480   0.384   5.057
 1914SOL     OW 6640   3.880   3.558   0.127
 1914SOL    HW1 6641   3.830   3.494   0.185
 1914SOL    HW2 6642   3.969   3.578   0.169
 1915SOL     OW 6643   4.987   2.951   5.757
 1915SOL    HW1 6644   4.902   2.968   5.808
 1915SOL    HW2 6645   5.063   2.941   5.822
 1916SOL     OW 6646   4.473   6.262   1.188
 1916SOL    HW1 6647   4.487   6.252   1.286
 1916SOL    HW2 6648   4.375   6.269   1.169
 1917SOL     OW 6649   2.709   3.373   0.223
 1917SOL    HW1 6650   2.776   3.351   0.294
 1917SOL    HW2 6651   2.617   3.362   0.260
 1918SOL     OW 6652   0.634   0.867   4.807
 1918SOL    HW1 6653   0.648   0.823   4.719
 1918SOL    HW2 6654   0.688   0.952   4.811
 1919SOL     OW 6655   1.728   1.443   1.413
 1919SOL    HW1 6656   1.780   1.358   1.423
 1919SOL    HW2 6657   1.773   1.516   1.464
 1920SOL     OW 6658   6.243   3.301   2.932
 1920SOL    HW1 6659   6.257   3.244   2.851
 1920SOL    HW2 6660   6.293   3.387   2.921
 1921SOL     OW 6661   1.510   3.162   6.843
 1921SOL    HW1 6662   1.437   3.151   6.777
 1921SOL    HW2 6663   1.575   3.086   6.834
 1922SOL     OW 6664   2.807   3.582   1.983
 1922SOL    HW1 6665   2.817   3.504   2.044
 1922SOL    HW2 6666   2.830   3.666   2.031
 1923SOL     OW 6667   4.409   1.290   6.851
 1923SOL    HW1 6668   4.351   1.209   6.840
 1923SOL    HW2 6669   4.364   1.369   6.811
 1924SOL     OW 6670   4.541   0.335   0.825
 1924SOL    HW1 6671   4.466   0.398   0.843
 1924SOL    HW2 6672   4.564   0.286   0.909
 1925SOL     OW 6673   1.339   4.693   1.700
 1925SOL    HW1 6674   1.387   4.781   1.698
 1925SOL    HW2 6675   1.241   4.708   1.693
 1926SOL     OW 6676   3.161   0.496   1.891
 1926SOL    HW1 6677   3.090   0.538   1.835
 1926SOL    HW2 6678   3.121   0.426   1.951
 1927SOL     OW 6679   2.454   3.959   0.649
 1927SOL    HW1 6680   2.442   3.862   0.669
 1927SOL    HW2 6681   2.372   4.009   0.676
 1928SOL     OW 6682   5.380   5.266   4.331
 1928SOL    HW1 6683   5.306   5.200   4.349
 1928SOL    HW2 6684   5.353   5.356   4.364
 1929SOL     OW 6685   2.771   0.361   1.967
 1929SOL    HW1 6686   2.699   0.298   1.995
 1929SOL    HW2 6687   2.858   0.331   2.006
 1930SOL     OW 6688   5.389   3.287   6.633
 1930SOL    HW1 6689   5.358   3.198   6.599
 1930SOL    HW2 6690   5.386   3.287   6.733
 1931SOL     OW 6691   1.135   2.112   6.411
 1931SOL    HW1 6692   1.084   2.026   6.402
 1931SOL    HW2 6693   1.130   2.163   6.325
 1932SOL     OW 6694   4.674   2.757   3.309
 1932SOL    HW1 6695   4.730   2.837   3.287
 1932SOL    HW2 6696   4.662   2.751   3.408
 1933SOL     OW 6697   0.581   2.148   0.453
 1933SOL    HW1 6698   0.640   2.071   0.477
 1933SOL    HW2 6699   0.632   2.214   0.399
 1934SOL     OW 6700   0.447   0.982   5.593
 1934SOL    HW1 6701   0.426   0.978   5.495
 1934SOL    HW2 6702   0.398   0.910   5.640
 1935SOL     OW 6703   4.389   4.924   3.562
 1935SOL    HW1 6704   4.408   5.002   3.503
 1935SOL    HW2 6705   4.379   4.841   3.505
 1936SOL     OW 6706   4.813   3.776   4.106
 1936SOL    HW1 6707   4.825   3.827   4.020
 1936SOL    HW2 6708   4.769   3.689   4.087
 1937SOL     OW 6709   4.682   5.980   6.848
 1937SOL    HW1 6710   4.744   6.058   6.833
 1937SOL    HW2 6711   4.649   5.947   6.760
 1938SOL     OW 6712   1.186   2.710   0.281
 1938SOL    HW1 6713   1.131   2.766   0.218
 1938SOL    HW2 6714   1.135   2.627   0.304
 1939SOL     OW 6715   0.304   5.648   4.120
 1939SOL    HW1 6716   0.353   5.602   4.193
 1939SOL    HW2 6717   0.348   5.736   4.100
 1940SOL     OW 6718   5.647   4.407   1.954
 1940SOL    HW1 6719   5.633   4.472   1.880
 1940SOL    HW2 6720   5.726   4.435   2.008
 1941SOL     OW 6721   0.411   2.828   3.502
 1941SOL    HW1 6722   0.452   2.737   3.504
 1941SOL    HW2 6723   0.478   2.895   3.535
 1942SOL     OW 6724   5.599   4.115   2.931
 1942SOL    HW1 6725   5.579   4.162   3.016
 1942SOL    HW2 6726   5.526   4.050   2.910
 1943SOL     OW 6727   1.641   1.395   2.178
 1943SOL    HW1 6728   1.647   1.487   2.216
 1943SOL    HW2 6729   1.733   1.363   2.154
 1944SOL     OW 6730   6.183   4.268   0.153
 1944SOL    HW1 6731   6.158   4.194   0.216
 1944SOL    HW2 6732   6.281   4.284   0.158
 1945SOL     OW 6733   3.975   6.674   0.843
 1945SOL    HW1 6734   4.047   6.732   0.806
 1945SOL    HW2 6735   3.902   6.731   0.882
 1946SOL     OW 6736   5.612   6.418   1.770
 1946SOL    HW1 6737   5.584   6.463   1.685
 1946SOL    HW2 6738   5.705   6.448   1.794
 1947SOL     OW 6739   6.327   5.832   4.021
 1947SOL    HW1 6740   6.316   5.926   3.989
 1947SOL    HW2 6741   6.254   5.810   4.085
 1948SOL     OW 6742   5.749   4.321   2.581
 1948SOL    HW1 6743   5.724   4.227   2.601
 1948SOL    HW2 6744   5.725   4.380   2.659
 1949SOL     OW 6745   4.112   4.218   0.427
 1949SOL    HW1 6746   4.072   4.149   0.367
 1949SOL    HW2 6747   4.207   4.193   0.448
 1950SOL     OW 6748   3.788   3.276   3.969
 1950SOL    HW1 6749   3.814   3.183   3.943
 1950SOL    HW2 6750   3.832   3.342   3.908
 1951SOL     OW 6751   6.653   4.115   5.532
 1951SOL    HW1 6752   6.717   4.063   5.475
 1951SOL    HW2 6753   6.704   4.180   5.589
 1952SOL     OW 6754   4.892   4.436   1.436
 1952SOL    HW1 6755   4.911   4.495   1.515
 1952SOL    HW2 6756   4.863   4.346   1.467
 1953SOL     OW 6757   6.870   1.324   6.276
 1953SOL    HW1 6758   6.954   1.359   6.234
 1953SOL    HW2 6759   6.830   1.396   6.334
 1954SOL     OW 6760   5.550   0.973   1.747
 1954SOL    HW1 6761   5.629   1.031   1.766
 1954SOL    HW2 6762   5.549   0.896   1.811
 1955SOL     OW 6763   0.314   1.426   1.409
 1955SOL    HW1 6764   0.390   1.489   1.391
 1955SOL    HW2 6765   0.277   1.444   1.500
 1956SOL     OW 6766   4.835   0.114   2.833
 1956SOL    HW1 6767   4.775   0.163   2.769
 1956SOL    HW2 6768   4.846   0.019   2.803
 1957SOL     OW 6769   5.164   3.402   4.118
 1957SOL    HW1 6770   5.259   3.379   4.134
 1957SOL    HW2 6771   5.148   3.498   4.144
 1958SOL     OW 6772   4.564   1.690   1.360
 1958SOL    HW1 6773   4.567   1.775   1.414
 1958SOL    HW2 6774   4.471   1.654   1.361
 1959SOL     OW 6775   6.295   6.799   4.001
 1959SOL    HW1 6776   6.341   6.875   4.046
 1959SOL    HW2 6777   6.352   6.764   3.926
 1960SOL     OW 6778   6.881   2.760   3.127
 1960SOL    HW1 6779   6.939   2.834   3.162
 1960SOL    HW2 6780   6.870   2.690   3.198
 1961SOL     OW 6781   6.524   4.352   4.800
 1961SOL    HW1 6782   6.514   4.433   4.742
 1961SOL    HW2 6783   6.495   4.374   4.893
 1962SOL     OW 6784   1.160   5.722   2.764
 1962SOL    HW1 6785   1.155   5.699   2.861
 1962SOL    HW2 6786   1.157   5.638   2.710
 1963SOL     OW 6787   0.907   1.564   1.042
 1963SOL    HW1 6788   0.878   1.638   0.981
 1963SOL    HW2 6789   0.847   1.562   1.122
 1964SOL     OW 6790   5.238   4.487   1.526
 1964SOL    HW1 6791   5.194   4.577   1.520
 1964SOL    HW2 6792   5.318   4.485   1.467
 1965SOL     OW 6793   1.090   3.594   3.814
 1965SOL    HW1 6794   1.113   3.637   3.727
 1965SOL    HW2 6795   1.061   3.500   3.798
 1966SOL     OW 6796   1.431   4.762   0.684
 1966SOL    HW1 6797   1.442   4.674   0.637
 1966SOL    HW2 6798   1.391   4.747   0.774
 1967SOL     OW 6799   6.694   2.238   3.825
 1967SOL    HW1 6800   6.709   2.200   3.916
 1967SOL    HW2 6801   6.604   2.211   3.791
 1968SOL     OW 6802   2.576   1.078   5.477
 1968SOL    HW1 6803   2.655   1.023   5.450
 1968SOL    HW2 6804   2.570   1.158   5.419
 1969SOL     OW 6805   3.460   0.910   1.836
 1969SOL    HW1 6806   3.466   0.835   1.770
 1969SOL    HW2 6807   3.367   0.916   1.872
 1970SOL     OW 6808   6.483   6.638   4.939
 1970SOL    HW1 6809   6.492   6.545   4.975
 1970SOL    HW2 6810   6.521   6.703   5.005
 1971SOL     OW 6811   0.951   0.074   5.620
 1971SOL    HW1 6812   0.910   7.012   5.649
 1971SOL    HW2 6813   0.881   0.133   5.580
 1972SOL     OW 6814   5.418   2.302   1.382
 1972SOL    HW1 6815   5.388   2.263   1.469
 1972SOL    HW2 6816   5.393   2.398   1.378
 1973SOL     OW 6817   2.438   3.814   1.488
 1973SOL    HW1 6818   2.495   3.797   1.407
 1973SOL    HW2 6819   2.483   3.881   1.546
 1974SOL     OW 6820   4.335   6.656   4.713
 1974SOL    HW1 6821   4.286   6.577   4.675
 1974SOL    HW2 6822   4.324   6.734   4.651
 1975SOL     OW 6823   2.221   3.018   3.852
 1975SOL    HW1 6824   2.215   3.098   3.912
 1975SOL    HW2 6825   2.264   2.943   3.900
 1976SOL     OW 6826   6.031   6.953   6.977
 1976SOL    HW1 6827   5.988   0.013   6.949
 1976SOL    HW2 6828   6.124   6.949   6.939
 1977SOL     OW 6829   2.882   3.225   6.671
 1977SOL    HW1 6830   2.785   3.235   6.692
 1977SOL    HW2 6831   2.931   3.196   6.753
 1978SOL     OW 6832   2.301   6.142   3.323
 1978SOL    HW1 6833   2.224   6.201   3.297
 1978SOL    HW2 6834   2.268   6.050   3.341
 1979SOL     OW 6835   6.207   4.994   0.144
 1979SOL    HW1 6836   6.210   4.921   0.075
 1979SOL    HW2 6837   6.163   4.959   0.227
 1980SOL     OW 6838   3.328   0.453   2.433
 1980SOL    HW1 6839   3.314   0.354   2.433
 1980SOL    HW2 6840   3.332   0.486   2.338
 1981SOL     OW 6841   5.102   2.934   2.686
 1981SOL    HW1 6842   5.103   2.875   2.767
 1981SOL    HW2 6843   5.019   2.917   2.633
 1982SOL     OW 6844   6.873   4.123   3.948
 1982SOL    HW1 6845   6.861   4.219   3.973
 1982SOL    HW2 6846   6.970   4.106   3.930
 1983SOL     OW 6847   0.561   0.235   1.026
 1983SOL    HW1 6848   0.550   0.259   0.929
 1983SOL    HW2 6849   0.471   0.227   1.068
 1984SOL     OW 6850   5.389   2.353   4.785
 1984SOL    HW1 6851   5.301   2.309   4.801
 1984SOL    HW2 6852   5.377   2.453   4.787
 1985SOL     OW 6853   6.473   5.147   1.753
 1985SOL    HW1 6854   6.529   5.201   1.816
 1985SOL    HW2 6855   6.529   5.074   1.712
 1986SOL     OW 6856   2.653   1.198   6.580
 1986SOL    HW1 6857   2.561   1.227   6.554
 1986SOL    HW2 6858   2.681   1.247   6.662
 1987SOL     OW 6859   2.073   1.072   3.909
 1987SOL    HW1 6860   2.100   1.150   3.966
 1987SOL    HW2 6861   2.154   1.033   3.866
 1988SOL     OW 6862   0.210   1.595   1.034
 1988SOL    HW1 6863   0.116   1.610   1.002
 1988SOL    HW2 6864   0.213   1.510   1.087
 1989SOL     OW 6865   2.695   5.969   4.660
 1989SOL    HW1 6866   2.655   6.059   4.641
 1989SOL    HW2 6867   2.622   5.901   4.661
 1990SOL     OW 6868   4.020   0.355   0.236
 1990SOL    HW1 6869   4.003   0.359   0.334
 1990SOL    HW2 6870   4.058   0.265   0.213
 1991SOL     OW 6871   3.041   5.357   6.927
 1991SOL    HW1 6872   2.981   5.412   6.869
 1991SOL    HW2 6873   3.047   5.265   6.891
 1992SOL     OW 6874   7.017   6.491   0.037
 1992SOL    HW1 6875   0.003   6.489   0.136
 1992SOL    HW2 6876   6.947   6.426   0.009
 1993SOL     OW 6877   2.416   2.664   4.628
 1993SOL    HW1 6878   2.505   2.619   4.619
 1993SOL    HW2 6879   2.409   2.707   4.718
 1994SOL     OW 6880   4.678   2.298   0.782
 1994SOL    HW1 6881   4.736   2.372   0.816
 1994SOL    HW2 6882   4.709   2.270   0.691
 1995SOL     OW 6883   5.548   2.436   4.336
 1995SOL    HW1 6884   5.480   2.462   4.267
 1995SOL    HW2 6885   5.627   2.393   4.291
 1996SOL     OW 6886   2.863   2.050   1.194
 1996SOL    HW1 6887   2.836   2.146   1.203
 1996SOL    HW2 6888   2.955   2.038   1.229
 1997SOL     OW 6889   3.399   1.462   4.152
 1997SOL    HW1 6890   3.319   1.519   4.135
 1997SOL    HW2 6891   3.433   1.426   4.065
 1998SOL     OW 6892   1.368   3.118   1.180
 1998SOL    HW1 6893   1.345   3.122   1.083
 1998SOL    HW2 6894   1.290   3.083   1.231
 1999SOL     OW 6895   0.159   0.861   4.948
 1999SOL    HW1 6896   0.198   0.778   4.908
 1999SOL    HW2 6897   0.125   0.921   4.875
 2000SOL     OW 6898   4.142   3.813   6.048
 2000SOL    HW1 6899   4.188   3.898   6.022
 2000SOL    HW2 6900   4.211   3.743   6.067
 2001SOL     OW 6901   1.538   1.790   6.822
 2001SOL    HW1 6902   1.544   1.691   6.812
 2001SOL    HW2 6903   1.465   1.813   6.885
 2002SOL     OW 6904   0.614   5.568   0.916
 2002SOL    HW1 6905   0.664   5.577   1.002
 2002SOL    HW2 6906   0.641   5.641   0.854
 2003SOL     OW 6907   6.075   5.219   2.015
 2003SOL    HW1 6908   6.114   5.128   2.031
 2003SOL    HW2 6909   6.137   5.272   1.958
 2004SOL     OW 6910   4.228   0.946   3.608
 2004SOL    HW1 6911   4.198   1.029   3.561
 2004SOL    HW2 6912   4.205   0.953   3.705
 2005SOL     OW 6913   6.960   6.027   0.181
 2005SOL    HW1 6914   6.880   6.078   0.214
 2005SOL    HW2 6915   6.931   5.967   0.106
 2006SOL     OW 6916   5.236   0.097   3.918
 2006SOL    HW1 6917   5.267   0.185   3.955
 2006SOL    HW2 6918   5.286   0.023   3.963
 2007SOL     OW 6919   4.802   4.176   1.588
 2007SOL    HW1 6920   4.793   4.081   1.558
 2007SOL    HW2 6921   4.898   4.195   1.609
 2008SOL     OW 6922   2.061   3.658   3.936
 2008SOL    HW1 6923   2.116   3.647   3.853
 2008SOL    HW2 6924   2.079   3.747   3.976
 2009SOL     OW 6925   5.559   6.133   1.661
 2009SOL    HW1 6926   5.607   6.167   1.742
 2009SOL    HW2 6927   5.462   6.160   1.666
 2010SOL     OW 6928   1.258   2.248   1.039
 2010SOL    HW1 6929   1.312   2.319   1.083
 2010SOL    HW2 6930   1.234   2.277   0.946
 2011SOL     OW 6931   0.187   0.129   5.635
 2011SOL    HW1 6932   0.194   0.139   5.536
 2011SOL    HW2 6933   0.152   0.037   5.657
 2012SOL     OW 6934   1.682   3.538   2.083
 2012SOL    HW1 6935   1.750   3.466   2.070
 2012SOL    HW2 6936   1.630   3.519   2.166
 2013SOL     OW 6937   0.279   2.622   3.118
 2013SOL    HW1 6938   0.341   2.690   3.080
 2013SOL    HW2 6939   0.207   2.601   3.052
 2014SOL     OW 6940   3.229   0.270   3.546
 2014SOL    HW1 6941   3.172   0.325   3.609
 2014SOL    HW2 6942   3.282   0.204   3.599
 2015SOL     OW 6943   3.914   0.569   1.328
 2015SOL    HW1 6944   4.011   0.558   1.349
 2015SOL    HW2 6945   3.864   0.596   1.410
 2016SOL     OW 6946   1.261   6.331   5.425
 2016SOL    HW1 6947   1.284   6.248   5.375
 2016SOL    HW2 6948   1.289   6.411   5.372
 2017SOL     OW 6949   4.327   0.455   3.480
 2017SOL    HW1 6950   4.250   0.392   3.492
 2017SOL    HW2 6951   4.410   0.414   3.517
 2018SOL     OW 6952   7.024   2.110   3.479
 2018SOL    HW1 6953   6.976   2.037   3.430
 2018SOL    HW2 6954   6.989   2.116   3.572
 2019SOL     OW 6955   6.162   4.826   6.954
 2019SOL    HW1 6956   6.253   4.807   6.915
 2019SOL    HW2 6957   6.093   4.817   6.883
 2020SOL     OW 6958   1.143   5.869   6.133
 2020SOL    HW1 6959   1.229   5.822   6.156
 2020SOL    HW2 6960   1.076   5.802   6.102
 2021SOL     OW 6961   6.552   6.592   3.420
 2021SOL    HW1 6962   6.575   6.495   3.412
 2021SOL    HW2 6963   6.465   6.602   3.469
 2022SOL     OW 6964   2.005   4.253   4.894
 2022SOL    HW1 6965   2.087   4.217   4.849
 2022SOL    HW2 6966   2.032   4.302   4.977
 2023SOL     OW 6967   0.030   6.795   6.963
 2023SOL    HW1 6968   0.085   6.874   6.990
 2023SOL    HW2 6969   0.002   6.744   0.019
 2024SOL     OW 6970   0.466   5.500   3.885
 2024SOL    HW1 6971   0.515   5.540   3.807
 2024SOL    HW2 6972   0.433   5.573   3.944
 2025SOL     OW 6973   3.068   0.880   3.806
 2025SOL    HW1 6974   3.018   0.905   3.890
 2025SOL    HW2 6975   3.068   0.958   3.743
 2026SOL     OW 6976   5.907   0.988   6.577
 2026SOL    HW1 6977   5.989   1.030   6.616
 2026SOL    HW2 6978   5.826   1.023   6.623
 2027SOL     OW 6979   0.649   5.775   1.833
 2027SOL    HW1 6980   0.591   5.707   1.788
 2027SOL    HW2 6981   0.704   5.730   1.904
 2028SOL     OW 6982   3.721   5.878   3.027
 2028SOL    HW1 6983   3.645   5.833   3.074
 2028SOL    HW2 6984   3.702   5.881   2.929
 2029SOL     OW 6985   0.121   2.064   6.952
 2029SOL    HW1 6986   0.206   2.015   6.931
 2029SOL    HW2 6987   0.090   2.113   6.870
 2030SOL     OW 6988   2.824   6.163   2.643
 2030SOL    HW1 6989   2.848   6.082   2.589
 2030SOL    HW2 6990   2.898   6.186   2.705
 2031SOL     OW 6991   7.017   5.432   2.566
 2031SOL    HW1 6992   7.021   5.513   2.624
 2031SOL    HW2 6993   6.933   5.380   2.586
 2032SOL     OW 6994   3.664   1.432   0.287
 2032SOL    HW1 6995   3.604   1.491   0.233
 2032SOL    HW2 6996   3.609   1.370   0.343
 2033SOL     OW 6997   1.250   1.036   0.437
 2033SOL    HW1 6998   1.220   0.950   0.477
 2033SOL    HW2 6999   1.204   1.050   0.349
 2034SOL     OW 7000   1.451   5.297   5.619
 2034SOL    HW1 7001   1.367   5.282   5.670
 2034SOL    HW2 7002   1.524   5.238   5.655
 2035SOL     OW 7003   6.854   6.757   1.735
 2035SOL    HW1 7004   6.908   6.737   1.817
 2035SOL    HW2 7005   6.760   6.727   1.749
 2036SOL     OW 7006   0.944   3.374   2.974
 2036SOL    HW1 7007   1.003   3.453   2.959
 2036SOL    HW2 7008   0.945   3.316   2.892
 2037SOL     OW 7009   6.927   2.999   6.215
 2037SOL    HW1 7010   6.856   3.057   6.254
 2037SOL    HW2 7011   6.911   2.987   6.117
 2038SOL     OW 7012   2.779   1.195   0.143
 2038SOL    HW1 7013   2.839   1.206   0.222
 2038SOL    HW2 7014   2.768   1.098   0.122
 2039SOL     OW 7015   0.183   5.919   2.539
 2039SOL    HW1 7016   0.201   5.821   2.526
 2039SOL    HW2 7017   0.136   5.933   2.625
 2040SOL     OW 7018   2.103   2.512   6.841
 2040SOL    HW1 7019   2.107   2.536   6.744
 2040SOL    HW2 7020   2.103   2.596   6.896
 2041SOL     OW 7021   2.085   6.839   5.680
 2041SOL    HW1 7022   2.173   6.884   5.665
 2041SOL    HW2 7023   2.057   6.852   5.775
 2042SOL     OW 7024   4.990   0.350   6.171
 2042SOL    HW1 7025   4.934   0.380   6.095
 2042SOL    HW2 7026   5.079   0.396   6.168
 2043SOL     OW 7027   6.778   2.566   1.460
 2043SOL    HW1 7028   6.811   2.493   1.400
 2043SOL    HW2 7029   6.826   2.561   1.548
 2044SOL     OW 7030   6.053   1.157   1.257
 2044SOL    HW1 7031   6.109   1.240   1.265
 2044SOL    HW2 7032   6.026   1.125   1.348
 2045SOL     OW 7033   1.812   5.361   5.677
 2045SOL    HW1 7034   1.775   5.271   5.700
 2045SOL    HW2 7035   1.748   5.432   5.708
 2046SOL     OW 7036   0.282   1.722   5.381
 2046SOL    HW1 7037   0.342   1.694   5.456
 2046SOL    HW2 7038   0.312   1.679   5.296
 2047SOL     OW 7039   6.565   2.540   0.555
 2047SOL    HW1 7040   6.481   2.588   0.530
 2047SOL    HW2 7041   6.631   2.548   0.480
 2048SOL     OW 7042   0.913   1.402   4.043
 2048SOL    HW1 7043   0.947   1.340   3.972
 2048SOL    HW2 7044   0.972   1.483   4.047
 2049SOL     OW 7045   4.439   1.306   4.736
 2049SOL    HW1 7046   4.364   1.250   4.701
 2049SOL    HW2 7047   4.403   1.393   4.769
 2050SOL     OW 7048   0.171   2.047   4.283
 2050SOL    HW1 7049   0.264   2.029   4.250
 2050SOL    HW2 7050   0.159   2.146   4.297
 2051SOL     OW 7051   2.967   6.641   0.397
 2051SOL    HW1 7052   3.006   6.637   0.489
 2051SOL    HW2 7053   2.987   6.730   0.357
 2052SOL     OW 7054   2.008   3.861   0.508
 2052SOL    HW1 7055   1.913   3.893   0.507
 2052SOL    HW2 7056   2.069   3.939   0.492
 2053SOL     OW 7057   0.950   5.220   4.694
 2053SOL    HW1 7058   0.912   5.243   4.784
 2053SOL    HW2 7059   1.035   5.270   4.680
 2054SOL     OW 7060   3.523   2.899   2.489
 2054SOL    HW1 7061   3.613   2.878   2.451
 2054SOL    HW2 7062   3.499   2.993   2.465
 2055SOL     OW 7063   0.741   2.475   4.743
 2055SOL    HW1 7064   0.746   2.574   4.733
 2055SOL    HW2 7065   0.747   2.451   4.840
 2056SOL     OW 7066   3.831   5.184   0.951
 2056SOL    HW1 7067   3.892   5.259   0.924
 2056SOL    HW2 7068   3.789   5.145   0.869
 2057SOL     OW 7069   5.765   2.685   4.657
 2057SOL    HW1 7070   5.792   2.623   4.731
 2057SOL    HW2 7071   5.675   2.658   4.622
 2058SOL     OW 7072   0.659   5.945   3.198
 2058SOL    HW1 7073   0.716   6.026   3.213
 2058SOL    HW2 7074   0.691   5.871   3.258
 2059SOL     OW 7075   2.653   0.357   5.571
 2059SOL    HW1 7076   2.652   0.356   5.471
 2059SOL    HW2 7077   2.600   0.279   5.606
 2060SOL     OW 7078   1.564   3.368   0.537
 2060SOL    HW1 7079   1.600   3.369   0.443
 2060SOL    HW2 7080   1.557   3.273   0.569
 2061SOL     OW 7081   2.084   2.738   2.547
 2061SOL    HW1 7082   2.014   2.792   2.594
 2061SOL    HW2 7083   2.173   2.757   2.587
 2062SOL     OW 7084   6.640   5.163   5.033
 2062SOL    HW1 7085   6.625   5.259   5.058
 2062SOL    HW2 7086   6.693   5.159   4.948
 2063SOL     OW 7087   1.575   6.892   5.139
 2063SOL    HW1 7088   1.592   6.841   5.223
 2063SOL    HW2 7089   1.630   6.976   5.139
 2064SOL     OW 7090   0.984   3.669   4.151
 2064SOL    HW1 7091   1.083   3.654   4.144
 2064SOL    HW2 7092   0.937   3.608   4.087
 2065SOL     OW 7093   5.201   2.666   5.161
 2065SOL    HW1 7094   5.136   2.603   5.203
 2065SOL    HW2 7095   5.156   2.714   5.086
 2066SOL     OW 7096   5.884   3.376   5.562
 2066SOL    HW1 7097   5.833   3.356   5.478
 2066SOL    HW2 7098   5.825   3.363   5.641
 2067SOL     OW 7099   6.485   4.663   1.202
 2067SOL    HW1 7100   6.430   4.637   1.282
 2067SOL    HW2 7101   6.550   4.734   1.229
 2068SOL     OW 7102   3.826   1.116   3.875
 2068SOL    HW1 7103   3.803   1.213   3.874
 2068SOL    HW2 7104   3.818   1.078   3.783
 2069SOL     OW 7105   6.925   1.722   4.356
 2069SOL    HW1 7106   7.005   1.741   4.300
 2069SOL    HW2 7107   6.862   1.663   4.305
 2070SOL     OW 7108   1.209   2.946   1.901
 2070SOL    HW1 7109   1.167   2.893   1.974
 2070SOL    HW2 7110   1.229   3.039   1.933
 2071SOL     OW 7111   6.253   1.357   5.842
 2071SOL    HW1 7112   6.319   1.329   5.912
 2071SOL    HW2 7113   6.259   1.456   5.828
 2072SOL     OW 7114   4.088   4.602   5.327
 2072SOL    HW1 7115   3.996   4.635   5.350
 2072SOL    HW2 7116   4.084   4.503   5.311
 2073SOL     OW 7117   4.062   6.444   6.728
 2073SOL    HW1 7118   3.967   6.412   6.722
 2073SOL    HW2 7119   4.065   6.528   6.782
 2074SOL     OW 7120   2.058   3.626   5.490
 2074SOL    HW1 7121   2.071   3.566   5.569
 2074SOL    HW2 7122   2.079   3.575   5.406
 2075SOL     OW 7123   6.792   2.288   2.348
 2075SOL    HW1 7124   6.731   2.221   2.391
 2075SOL    HW2 7125   6.874   2.298   2.404
 2076SOL     OW 7126   5.544   0.037   4.918
 2076SOL    HW1 7127   5.644   0.040   4.924
 2076SOL    HW2 7128   5.516   0.063   4.825
 2077SOL     OW 7129   0.741   3.347   1.715
 2077SOL    HW1 7130   0.811   3.355   1.785
 2077SOL    HW2 7131   0.651   3.347   1.759
 2078SOL     OW 7132   2.121   5.002   5.934
 2078SOL    HW1 7133   2.199   5.063   5.952
 2078SOL    HW2 7134   2.150   4.907   5.949
 2079SOL     OW 7135   5.001   1.413   1.878
 2079SOL    HW1 7136   5.042   1.452   1.795
 2079SOL    HW2 7137   4.985   1.486   1.944
 2080SOL     OW 7138   2.796   2.362   5.046
 2080SOL    HW1 7139   2.861   2.411   4.988
 2080SOL    HW2 7140   2.714   2.418   5.059
 2081SOL     OW 7141   0.391   6.652   3.056
 2081SOL    HW1 7142   0.379   6.751   3.050
 2081SOL    HW2 7143   0.449   6.620   2.981
 2082SOL     OW 7144   0.544   6.092   2.435
 2082SOL    HW1 7145   0.620   6.108   2.372
 2082SOL    HW2 7146   0.537   5.994   2.454
 2083SOL     OW 7147   0.364   6.254   3.661
 2083SOL    HW1 7148   0.284   6.265   3.720
 2083SOL    HW2 7149   0.411   6.342   3.652
 2084SOL     OW 7150   1.075   1.517   1.465
 2084SOL    HW1 7151   1.092   1.564   1.551
 2084SOL    HW2 7152   1.108   1.423   1.471
 2085SOL     OW 7153   5.070   6.160   0.080
 2085SOL    HW1 7154   5.035   6.254   0.081
 2085SOL    HW2 7155   5.061   6.120   0.171
 2086SOL     OW 7156   4.144   0.119   0.239
 2086SOL    HW1 7157   4.140   0.023   0.211
 2086SOL    HW2 7158   4.217   0.131   0.306
 2087SOL     OW 7159   4.158   1.994   6.843
 2087SOL    HW1 7160   4.073   2.047   6.849
 2087SOL    HW2 7161   4.152   1.930   6.766
 2088SOL     OW 7162   0.129   5.502   5.608
 2088SOL    HW1 7163   0.049   5.475   5.661
 2088SOL    HW2 7164   0.171   5.421   5.567
 2089SOL     OW 7165   3.737   3.091   5.725
 2089SOL    HW1 7166   3.644   3.061   5.743
 2089SOL    HW2 7167   3.738   3.191   5.714
 2090SOL     OW 7168   4.889   3.532   5.316
 2090SOL    HW1 7169   4.815   3.555   5.253
 2090SOL    HW2 7170   4.870   3.572   5.406
 2091SOL     OW 7171   6.319   5.812   1.621
 2091SOL    HW1 7172   6.238   5.783   1.570
 2091SOL    HW2 7173   6.389   5.845   1.557
 2092SOL     OW 7174   4.618   3.659   1.188
 2092SOL    HW1 7175   4.575   3.669   1.278
 2092SOL    HW2 7176   4.658   3.746   1.160
 2093SOL     OW 7177   4.015   2.148   2.292
 2093SOL    HW1 7178   3.917   2.136   2.308
 2093SOL    HW2 7179   4.057   2.187   2.374
 2094SOL     OW 7180   5.752   2.925   0.288
 2094SOL    HW1 7181   5.834   2.926   0.345
 2094SOL    HW2 7182   5.777   2.901   0.194
 2095SOL     OW 7183   5.879   6.309   4.104
 2095SOL    HW1 7184   5.838   6.379   4.045
 2095SOL    HW2 7185   5.807   6.260   4.152
 2096SOL     OW 7186   4.634   6.500   2.204
 2096SOL    HW1 7187   4.698   6.559   2.253
 2096SOL    HW2 7188   4.541   6.521   2.234
 2097SOL     OW 7189   1.908   4.629   6.746
 2097SOL    HW1 7190   1.880   4.541   6.783
 2097SOL    HW2 7191   1.979   4.669   6.803
 2098SOL     OW 7192   3.880   6.110   3.170
 2098SOL    HW1 7193   3.796   6.060   3.191
 2098SOL    HW2 7194   3.955   6.075   3.226
 2099SOL     OW 7195   4.758   1.854   6.686
 2099SOL    HW1 7196   4.775   1.755   6.684
 2099SOL    HW2 7197   4.845   1.902   6.699
 2100SOL     OW 7198   5.611   0.930   0.592
 2100SOL    HW1 7199   5.710   0.939   0.581
 2100SOL    HW2 7200   5.565   0.988   0.526
 2101SOL     OW 7201   7.010   6.470   1.316
 2101SOL    HW1 7202   0.077   6.450   1.348
 2101SOL    HW2 7203   7.003   6.448   1.218
 2102SOL     OW 7204   3.808   3.114   1.418
 2102SOL    HW1 7205   3.797   3.100   1.516
 2102SOL    HW2 7206   3.874   3.187   1.402
 2103SOL     OW 7207   3.201   5.443   0.097
 2103SOL    HW1 7208   3.135   5.404   0.032
 2103SOL    HW2 7209   3.191   5.397   0.185
 2104SOL     OW 7210   1.564   4.698   3.085
 2104SOL    HW1 7211   1.515   4.681   3.170
 2104SOL    HW2 7212   1.529   4.638   3.014
 2105SOL     OW 7213   5.149   4.359   0.170
 2105SOL    HW1 7214   5.184   4.411   0.092
 2105SOL    HW2 7215   5.177   4.404   0.255
 2106SOL     OW 7216   4.978   3.554   1.951
 2106SOL    HW1 7217   4.956   3.609   2.032
 2106SOL    HW2 7218   5.053   3.491   1.973
 2107SOL     OW 7219   5.065   3.923   5.983
 2107SOL    HW1 7220   4.976   3.885   5.957
 2107SOL    HW2 7221   5.128   3.848   6.003
 2108SOL     OW 7222   5.704   6.964   6.308
 2108SOL    HW1 7223   5.737   6.902   6.379
 2108SOL    HW2 7224   5.658   6.912   6.236
 2109SOL     OW 7225   3.016   5.782   2.811
 2109SOL    HW1 7226   3.009   5.728   2.727
 2109SOL    HW2 7227   3.077   5.736   2.875
 2110SOL     OW 7228   3.652   0.490   6.652
 2110SOL    HW1 7229   3.745   0.474   6.618
 2110SOL    HW2 7230   3.586   0.443   6.594
 2111SOL     OW 7231   1.055   2.769   5.616
 2111SOL    HW1 7232   1.143   2.722   5.618
 2111SOL    HW2 7233   1.070   2.867   5.603
 2112SOL     OW 7234   6.773   1.053   0.477
 2112SOL    HW1 7235   6.857   1.067   0.530
 2112SOL    HW2 7236   6.796   1.038   0.381
 2113SOL     OW 7237   1.451   6.838   4.360
 2113SOL    HW1 7238   1.542   6.833   4.319
 2113SOL    HW2 7239   1.419   6.745   4.379
 2114SOL     OW 7240   1.790   2.543   6.760
 2114SOL    HW1 7241   1.824   2.552   6.853
 2114SOL    HW2 7242   1.855   2.586   6.697
 2115SOL     OW 7243   0.350   5.093   3.088
 2115SOL    HW1 7244   0.428   5.131   3.040
 2115SOL    HW2 7245   0.381   5.044   3.170
 2116SOL     OW 7246   1.328   2.164   6.976
 2116SOL    HW1 7247   1.389   2.189   6.901
 2116SOL    HW2 7248   1.350   2.072   7.008
 2117SOL     OW 7249   5.547   2.266   2.511
 2117SOL    HW1 7250   5.469   2.283   2.451
 2117SOL    HW2 7251   5.617   2.336   2.495
 2118SOL     OW 7252   6.788   3.470   2.312
 2118SOL    HW1 7253   6.881   3.453   2.344
 2118SOL    HW2 7254   6.723   3.422   2.372
 2119SOL     OW 7255   2.367   0.544   6.538
 2119SOL    HW1 7256   2.358   0.642   6.518
 2119SOL    HW2 7257   2.461   0.525   6.566
 2120SOL     OW 7258   6.179   2.137   1.646
 2120SOL    HW1 7259   6.091   2.182   1.634
 2120SOL    HW2 7260   6.251   2.192   1.603
 2121SOL     OW 7261   2.015   1.470   5.831
 2121SOL    HW1 7262   1.968   1.557   5.814
 2121SOL    HW2 7263   2.087   1.456   5.763
 2122SOL     OW 7264   6.203   0.407   5.210
 2122SOL    HW1 7265   6.146   0.342   5.260
 2122SOL    HW2 7266   6.278   0.438   5.269
 2123SOL     OW 7267   0.446   5.566   2.955
 2123SOL    HW1 7268   0.455   5.597   3.049
 2123SOL    HW2 7269   0.531   5.583   2.905
 2124SOL     OW 7270   3.309   2.863   5.568
 2124SOL    HW1 7271   3.250   2.783   5.584
 2124SOL    HW2 7272   3.260   2.929   5.512
 2125SOL     OW 7273   1.653   5.723   3.726
 2125SOL    HW1 7274   1.616   5.650   3.669
 2125SOL    HW2 7275   1.752   5.713   3.733
 2126SOL     OW 7276   3.603   3.692   0.192
 2126SOL    HW1 7277   3.517   3.648   0.165
 2126SOL    HW2 7278   3.679   3.633   0.166
 2127SOL     OW 7279   0.155   2.960   5.924
 2127SOL    HW1 7280   0.208   2.944   6.007
 2127SOL    HW2 7281   0.212   2.939   5.844
 2128SOL     OW 7282   5.282   3.688   1.365
 2128SOL    HW1 7283   5.306   3.784   1.381
 2128SOL    HW2 7284   5.278   3.671   1.266
 2129SOL     OW 7285   5.237   3.889   3.658
 2129SOL    HW1 7286   5.238   3.838   3.743
 2129SOL    HW2 7287   5.321   3.871   3.607
 2130SOL     OW 7288   2.186   1.244   1.972
 2130SOL    HW1 7289   2.224   1.327   1.932
 2130SOL    HW2 7290   2.219   1.164   1.921
 2131SOL     OW 7291   5.607   1.626   5.937
 2131SOL    HW1 7292   5.548   1.548   5.959
 2131SOL    HW2 7293   5.587   1.658   5.844
 2132SOL     OW 7294   2.417   1.546   0.028
 2132SOL    HW1 7295   2.516   1.542   0.036
 2132SOL    HW2 7296   2.380   1.608   0.097
 2133SOL     OW 7297   2.177   1.573   1.671
 2133SOL    HW1 7298   2.275   1.570   1.651
 2133SOL    HW2 7299   2.159   1.646   1.737
 2134SOL     OW 7300   0.449   6.531   4.526
 2134SOL    HW1 7301   0.393   6.459   4.486
 2134SOL    HW2 7302   0.545   6.515   4.504
 2135SOL     OW 7303   0.733   0.901   3.228
 2135SOL    HW1 7304   0.766   0.822   3.174
 2135SOL    HW2 7305   0.634   0.909   3.218
 2136SOL     OW 7306   0.707   3.572   4.737
 2136SOL    HW1 7307   0.764   3.492   4.756
 2136SOL    HW2 7308   0.639   3.583   4.809
 2137SOL     OW 7309   1.043   6.689   5.387
 2137SOL    HW1 7310   1.106   6.765   5.397
 2137SOL    HW2 7311   1.059   6.622   5.460
 2138SOL     OW 7312   6.973   2.752   0.612
 2138SOL    HW1 7313   6.962   2.795   0.701
 2138SOL    HW2 7314   6.975   2.653   0.623
 2139SOL     OW 7315   3.139   0.509   4.566
 2139SOL    HW1 7316   3.120   0.606   4.553
 2139SOL    HW2 7317   3.126   0.461   4.479
 2140SOL     OW 7318   2.588   6.355   3.615
 2140SOL    HW1 7319   2.538   6.319   3.694
 2140SOL    HW2 7320   2.562   6.303   3.533
 2141SOL     OW 7321   6.144   2.762   1.011
 2141SOL    HW1 7322   6.176   2.852   1.043
 2141SOL    HW2 7323   6.210   2.692   1.039
 2142SOL     OW 7324   1.187   1.831   3.619
 2142SOL    HW1 7325   1.224   1.738   3.627
 2142SOL    HW2 7326   1.118   1.833   3.547
 2143SOL     OW 7327   3.469   6.800   1.583
 2143SOL    HW1 7328   3.453   6.872   1.516
 2143SOL    HW2 7329   3.539   6.737   1.549
 2144SOL     OW 7330   1.346   0.397   3.406
 2144SOL    HW1 7331   1.302   0.370   3.491
 2144SOL    HW2 7332   1.394   0.318   3.367
 2145SOL     OW 7333   3.238   5.479   3.671
 2145SOL    HW1 7334   3.289   5.520   3.747
 2145SOL    HW2 7335   3.291   5.403   3.633
 2146SOL     OW 7336   3.134   2.958   2.166
 2146SOL    HW1 7337   3.135   2.933   2.069
 2146SOL    HW2 7338   3.039   2.964   2.197
 2147SOL     OW 7339   0.686   1.932   6.382
 2147SOL    HW1 7340   0.699   1.922   6.283
 2147SOL    HW2 7341   0.608   1.878   6.411
 2148SOL     OW 7342   4.939   3.605   3.839
 2148SOL    HW1 7343   4.928   3.539   3.913
 2148SOL    HW2 7344   5.034   3.639   3.839
 2149SOL     OW 7345   3.821   0.988   2.326
 2149SOL    HW1 7346   3.823   1.034   2.238
 2149SOL    HW2 7347   3.799   0.891   2.312
 2150SOL     OW 7348   3.742   1.964   3.330
 2150SOL    HW1 7349   3.664   1.912   3.365
 2150SOL    HW2 7350   3.728   1.985   3.234
 2151SOL     OW 7351   3.839   2.431   5.752
 2151SOL    HW1 7352   3.850   2.507   5.688
 2151SOL    HW2 7353   3.750   2.437   5.796
 2152SOL     OW 7354   5.938   6.697   2.102
 2152SOL    HW1 7355   5.965   6.709   2.007
 2152SOL    HW2 7356   6.017   6.716   2.161
 2153SOL     OW 7357   4.765   1.685   4.152
 2153SOL    HW1 7358   4.698   1.695   4.079
 2153SOL    HW2 7359   4.817   1.771   4.161
 2154SOL     OW 7360   3.398   5.609   4.702
 2154SOL    HW1 7361   3.348   5.614   4.788
 2154SOL    HW2 7362   3.342   5.647   4.628
 2155SOL     OW 7363   1.954   4.555   0.165
 2155SOL    HW1 7364   1.886   4.571   0.094
 2155SOL    HW2 7365   1.983   4.460   0.163
 2156SOL     OW 7366   1.643   0.307   2.287
 2156SOL    HW1 7367   1.557   0.303   2.236
 2156SOL    HW2 7368   1.688   0.395   2.270
 2157SOL     OW 7369   0.008   1.336   5.004
 2157SOL    HW1 7370   6.962   1.389   5.051
 2157SOL    HW2 7371   7.005   1.240   5.000
 2158SOL     OW 7372   3.960   0.152   1.268
 2158SOL    HW1 7373   3.998   0.097   1.343
 2158SOL    HW2 7374   3.876   0.197   1.300
 2159SOL     OW 7375   1.497   7.002   4.617
 2159SOL    HW1 7376   1.515   6.931   4.686
 2159SOL    HW2 7377   1.482   6.959   4.528
 2160SOL     OW 7378   3.516   4.292   1.287
 2160SOL    HW1 7379   3.506   4.357   1.363
 2160SOL    HW2 7380   3.477   4.331   1.204
 2161SOL     OW 7381   4.970   3.546   3.569
 2161SOL    HW1 7382   4.942   3.571   3.662
 2161SOL    HW2 7383   4.918   3.467   3.538
 2162SOL     OW 7384   2.093   0.943   6.705
 2162SOL    HW1 7385   2.003   0.973   6.673
 2162SOL    HW2 7386   2.164   0.998   6.663
 2163SOL     OW 7387   1.711   0.362   0.062
 2163SOL    HW1 7388   1.640   0.292   0.057
 2163SOL    HW2 7389   1.717   0.410   7.000
 2164SOL     OW 7390   2.012   0.558   6.107
 2164SOL    HW1 7391   1.996   0.634   6.170
 2164SOL    HW2 7392   1.983   0.472   6.151
 2165SOL     OW 7393   1.265   0.523   2.363
 2165SOL    HW1 7394   1.166   0.512   2.360
 2165SOL    HW2 7395   1.309   0.439   2.332
 2166SOL     OW 7396   1.474   2.324   5.090
 2166SOL    HW1 7397   1.477   2.312   5.190
 2166SOL    HW2 7398   1.468   2.235   5.046
 2167SOL     OW 7399   3.063   0.677   2.137
 2167SOL    HW1 7400   2.975   0.717   2.112
 2167SOL    HW2 7401   3.126   0.750   2.163
 2168SOL     OW 7402   5.922   3.173   4.548
 2168SOL    HW1 7403   5.941   3.218   4.635
 2168SOL    HW2 7404   5.912   3.242   4.476
 2169SOL     OW 7405   5.387   2.796   6.026
 2169SOL    HW1 7406   5.433   2.814   6.113
 2169SOL    HW2 7407   5.428   2.715   5.982
 2170SOL     OW 7408   4.564   5.069   5.070
 2170SOL    HW1 7409   4.572   5.041   5.166
 2170SOL    HW2 7410   4.617   5.007   5.012
 2171SOL     OW 7411   6.577   3.499   0.098
 2171SOL    HW1 7412   6.630   3.525   0.179
 2171SOL    HW2 7413   6.500   3.441   0.125
 2172SOL     OW 7414   3.320   1.157   0.710
 2172SOL    HW1 7415   3.335   1.254   0.692
 2172SOL    HW2 7416   3.283   1.145   0.802
 2173SOL     OW 7417   4.117   0.953   5.740
 2173SOL    HW1 7418   4.185   0.885   5.716
 2173SOL    HW2 7419   4.029   0.908   5.758
 2174SOL     OW 7420   6.457   4.572   4.649
 2174SOL    HW1 7421   6.534   4.579   4.585
 2174SOL    HW2 7422   6.380   4.528   4.603
 2175SOL     OW 7423   2.772   0.353   3.606
 2175SOL    HW1 7424   2.806   0.263   3.580
 2175SOL    HW2 7425   2.703   0.383   3.541
 2176SOL     OW 7426   2.155   2.210   3.080
 2176SOL    HW1 7427   2.160   2.285   3.014
 2176SOL    HW2 7428   2.245   2.168   3.088
 2177SOL     OW 7429   0.216   2.258   0.955
 2177SOL    HW1 7430   0.203   2.303   0.866
 2177SOL    HW2 7431   0.254   2.167   0.941
 2178SOL     OW 7432   0.677   4.678   0.386
 2178SOL    HW1 7433   0.672   4.601   0.449
 2178SOL    HW2 7434   0.628   4.756   0.425
 2179SOL     OW 7435   1.578   5.058   4.469
 2179SOL    HW1 7436   1.581   5.145   4.520
 2179SOL    HW2 7437   1.582   5.077   4.371
 2180SOL     OW 7438   3.123   4.022   2.473
 2180SOL    HW1 7439   3.186   4.038   2.549
 2180SOL    HW2 7440   3.117   4.104   2.416
 2181SOL     OW 7441   5.062   5.809   5.631
 2181SOL    HW1 7442   5.012   5.755   5.563
 2181SOL    HW2 7443   5.107   5.747   5.695
 2182SOL     OW 7444   6.839   3.947   6.393
 2182SOL    HW1 7445   6.845   3.982   6.300
 2182SOL    HW2 7446   6.908   3.990   6.450
 2183SOL     OW 7447   3.081   3.075   0.452
 2183SOL    HW1 7448   3.075   3.079   0.552
 2183SOL    HW2 7449   3.115   2.985   0.425
 2184SOL     OW 7450   3.739   2.004   6.322
 2184SOL    HW1 7451   3.744   1.947   6.239
 2184SOL    HW2 7452   3.679   2.082   6.305
 2185SOL     OW 7453   1.374   0.684   0.441
 2185SOL    HW1 7454   1.362   0.586   0.427
 2185SOL    HW2 7455   1.300   0.720   0.496
 2186SOL     OW 7456   6.846   5.078   3.116
 2186SOL    HW1 7457   6.923   5.128   3.076
 2186SOL    HW2 7458   6.761   5.106   3.072
 2187SOL     OW 7459   6.220   1.610   0.397
 2187SOL    HW1 7460   6.178   1.635   0.485
 2187SOL    HW2 7461   6.157   1.632   0.323
 2188SOL     OW 7462   5.576   6.639   3.525
 2188SOL    HW1 7463   5.592   6.557   3.470
 2188SOL    HW2 7464   5.480   6.666   3.518
 2189SOL     OW 7465   2.198   0.169   6.027
 2189SOL    HW1 7466   2.209   0.175   5.928
 2189SOL    HW2 7467   2.282   0.199   6.072
 2190SOL     OW 7468   6.158   2.359   1.196
 2190SOL    HW1 7469   6.252   2.392   1.206
 2190SOL    HW2 7470   6.094   2.433   1.217
 2191SOL     OW 7471   3.619   3.243   6.533
 2191SOL    HW1 7472   3.588   3.227   6.439
 2191SOL    HW2 7473   3.599   3.162   6.588
 2192SOL     OW 7474   4.100   5.863   5.039
 2192SOL    HW1 7475   4.200   5.858   5.035
 2192SOL    HW2 7476   4.062   5.787   4.985
 2193SOL     OW 7477   0.722   5.220   5.783
 2193SOL    HW1 7478   0.676   5.304   5.815
 2193SOL    HW2 7479   0.691   5.143   5.839
 2194SOL     OW 7480   2.419   6.255   0.852
 2194SOL    HW1 7481   2.407   6.190   0.927
 2194SOL    HW2 7482   2.509   6.242   0.810
 2195SOL     OW 7483   1.424   5.429   2.977
 2195SOL    HW1 7484   1.362   5.353   2.960
 2195SOL    HW2 7485   1.493   5.433   2.904
 2196SOL     OW 7486   3.584   1.802   5.980
 2196SOL    HW1 7487   3.637   1.718   5.976
 2196SOL    HW2 7488   3.593   1.851   5.893
 2197SOL     OW 7489   4.991   5.097   1.744
 2197SOL    HW1 7490   5.056   5.034   1.786
 2197SOL    HW2 7491   4.916   5.046   1.702
 2198SOL     OW 7492   6.651   4.474   0.138
 2198SOL    HW1 7493   6.744   4.454   0.108
 2198SOL    HW2 7494   6.608   4.537   0.073
 2199SOL     OW 7495   4.657   7.008   1.064
 2199SOL    HW1 7496   4.687   0.009   0.972
 2199SOL    HW2 7497   4.724   6.946   1.105
 2200SOL     OW 7498   4.012   0.595   4.403
 2200SOL    HW1 7499   3.971   0.679   4.367
 2200SOL    HW2 7500   4.098   0.617   4.449
 2201SOL     OW 7501   6.258   3.375   2.468
 2201SOL    HW1 7502   6.266   3.309   2.543
 2201SOL    HW2 7503   6.176   3.354   2.415
 2202SOL     OW 7504   4.255   5.579   3.964
 2202SOL    HW1 7505   4.302   5.667   3.961
 2202SOL    HW2 7506   4.215   5.567   4.055
 2203SOL     OW 7507   3.737   1.950   3.066
 2203SOL    HW1 7508   3.638   1.959   3.076
 2203SOL    HW2 7509   3.759   1.875   3.004
 2204SOL     OW 7510   2.892   2.439   0.630
 2204SOL    HW1 7511   2.960   2.502   0.593
 2204SOL    HW2 7512   2.840   2.398   0.555
 2205SOL     OW 7513   2.552   6.542   0.519
 2205SOL    HW1 7514   2.612   6.574   0.593
 2205SOL    HW2 7515   2.578   6.449   0.493
 2206SOL     OW 7516   3.037   3.187   6.905
 2206SOL    HW1 7517   2.964   3.232   6.955
 2206SOL    HW2 7518   3.102   3.255   6.870
 2207SOL     OW 7519   1.626   4.557   6.456
 2207SOL    HW1 7520   1.630   4.458   6.438
 2207SOL    HW2 7521   1.536   4.591   6.429
 2208SOL     OW 7522   0.417   3.921   1.903
 2208SOL    HW1 7523   0.344   3.875   1.852
 2208SOL    HW2 7524   0.472   3.976   1.839
 2209SOL     OW 7525   0.936   5.590   6.106
 2209SOL    HW1 7526   0.907   5.657   6.175
 2209SOL    HW2 7527   0.991   5.519   6.151
 2210SOL     OW 7528   1.196   5.477   3.517
 2210SOL    HW1 7529   1.224   5.573   3.517
 2210SOL    HW2 7530   1.162   5.452   3.426
 2211SOL     OW 7531   5.908   1.034   5.508
 2211SOL    HW1 7532   5.844   0.958   5.511
 2211SOL    HW2 7533   5.938   1.057   5.601
 2212SOL     OW 7534   1.142   0.269   6.052
 2212SOL    HW1 7535   1.220   0.264   5.989
 2212SOL    HW2 7536   1.117   0.177   6.081
 2213SOL     OW 7537   4.156   2.333   3.556
 2213SOL    HW1 7538   4.087   2.309   3.489
 2213SOL    HW2 7539   4.224   2.393   3.515
 2214SOL     OW 7540   5.436   0.048   4.654
 2214SOL    HW1 7541   5.366   0.119   4.644
 2214SOL    HW2 7542   5.428   7.007   4.579
 2215SOL     OW 7543   6.709   2.330   5.487
 2215SOL    HW1 7544   6.765   2.285   5.417
 2215SOL    HW2 7545   6.750   2.418   5.510
 2216SOL     OW 7546   1.179   6.642   1.168
 2216SOL    HW1 7547   1.273   6.609   1.180
 2216SOL    HW2 7548   1.124   6.571   1.123
 2217SOL     OW 7549   4.418   0.120   1.450
 2217SOL    HW1 7550   4.394   0.208   1.490
 2217SOL    HW2 7551   4.498   0.082   1.496
 2218SOL     OW 7552   1.001   5.572   6.656
 2218SOL    HW1 7553   0.910   5.571   6.699
 2218SOL    HW2 7554   1.017   5.661   6.615
 2219SOL     OW 7555   2.281   4.075   3.278
 2219SOL    HW1 7556   2.320   4.144   3.340
 2219SOL    HW2 7557   2.288   4.108   3.184
 2220SOL     OW 7558   0.350   1.566   5.594
 2220SOL    HW1 7559   0.345   1.483   5.539
 2220SOL    HW2 7560   0.445   1.591   5.610
 2221SOL     OW 7561   6.406   2.291   1.525
 2221SOL    HW1 7562   6.480   2.291   1.592
 2221SOL    HW2 7563   6.349   2.372   1.538
 2222SOL     OW 7564   4.636   6.734   2.037
 2222SOL    HW1 7565   4.567   6.695   2.099
 2222SOL    HW2 7566   4.711   6.669   2.025
 2223SOL     OW 7567   5.742   4.983   3.547
 2223SOL    HW1 7568   5.678   5.001   3.623
 2223SOL    HW2 7569   5.690   4.963   3.464
 2224SOL     OW 7570   2.150   4.739   1.763
 2224SOL    HW1 7571   2.106   4.799   1.830
 2224SOL    HW2 7572   2.157   4.785   1.675
 2225SOL     OW 7573   6.089   4.655   2.080
 2225SOL    HW1 7574   5.995   4.669   2.049
 2225SOL    HW2 7575   6.099   4.561   2.114
 2226SOL     OW 7576   3.655   3.296   1.053
 2226SOL    HW1 7577   3.639   3.216   1.111
 2226SOL    HW2 7578   3.753   3.310   1.043
 2227SOL     OW 7579   6.765   3.836   5.516
 2227SOL    HW1 7580   6.751   3.830   5.417
 2227SOL    HW2 7581   6.860   3.813   5.537
 2228SOL     OW 7582   3.123   4.995   6.057
 2228SOL    HW1 7583   3.218   4.989   6.087
 2228SOL    HW2 7584   3.102   5.089   6.031
 2229SOL     OW 7585   4.186   1.075   2.950
 2229SOL    HW1 7586   4.158   1.000   3.010
 2229SOL    HW2 7587   4.284   1.068   2.932
 2230SOL     OW 7588   0.809   6.243   5.706
 2230SOL    HW1 7589   0.723   6.193   5.692
 2230SOL    HW2 7590   0.856   6.255   5.619
 2231SOL     OW 7591   2.180   6.669   2.024
 2231SOL    HW1 7592   2.194   6.724   2.107
 2231SOL    HW2 7593   2.123   6.590   2.047
 2232SOL     OW 7594   6.531   2.748   2.393
 2232SOL    HW1 7595   6.454   2.762   2.456
 2232SOL    HW2 7596   6.599   2.689   2.437
 2233SOL     OW 7597   3.465   6.657   0.411
 2233SOL    HW1 7598   3.524   6.590   0.366
 2233SOL    HW2 7599   3.375   6.618   0.425
 2234SOL     OW 7600   3.784   1.460   0.656
 2234SOL    HW1 7601   3.713   1.439   0.724
 2234SOL    HW2 7602   3.865   1.495   0.702
 2235SOL     OW 7603   0.967   6.648   0.447
 2235SOL    HW1 7604   0.873   6.621   0.424
 2235SOL    HW2 7605   0.981   6.744   0.424
 2236SOL     OW 7606   0.949   4.450   1.114
 2236SOL    HW1 7607   0.984   4.357   1.123
 2236SOL    HW2 7608   0.864   4.458   1.167
 2237SOL     OW 7609   6.104   2.676   4.831
 2237SOL    HW1 7610   6.166   2.705   4.758
 2237SOL    HW2 7611   6.059   2.756   4.871
 2238SOL     OW 7612   0.544   5.926   2.173
 2238SOL    HW1 7613   0.468   5.872   2.208
 2238SOL    HW2 7614   0.531   5.943   2.076
 2239SOL     OW 7615   4.408   5.160   3.116
 2239SOL    HW1 7616   4.411   5.248   3.069
 2239SOL    HW2 7617   4.346   5.098   3.068
 2240SOL     OW 7618   6.137   4.775   2.655
 2240SOL    HW1 7619   6.234   4.792   2.644
 2240SOL    HW2 7620   6.086   4.859   2.635
 2241SOL     OW 7621   0.168   6.656   1.807
 2241SOL    HW1 7622   0.173   6.562   1.839
 2241SOL    HW2 7623   0.166   6.718   1.885
 2242SOL     OW 7624   4.765   1.910   3.168
 2242SOL    HW1 7625   4.850   1.931   3.218
 2242SOL    HW2 7626   4.689   1.960   3.211
 2243SOL     OW 7627   2.473   5.563   5.291
 2243SOL    HW1 7628   2.458   5.623   5.370
 2243SOL    HW2 7629   2.402   5.493   5.287
 2244SOL     OW 7630   2.533   0.469   4.509
 2244SOL    HW1 7631   2.442   0.496   4.475
 2244SOL    HW2 7632   2.544   0.370   4.501
 2245SOL     OW 7633   0.909   0.920   2.368
 2245SOL    HW1 7634   0.874   0.851   2.431
 2245SOL    HW2 7635   0.935   0.876   2.282
 2246SOL     OW 7636   0.957   3.981   6.115
 2246SOL    HW1 7637   1.022   3.997   6.189
 2246SOL    HW2 7638   0.948   4.063   6.059
 2247SOL     OW 7639   2.451   3.167   6.667
 2247SOL    HW1 7640   2.427   3.212   6.581
 2247SOL    HW2 7641   2.368   3.144   6.716
 2248SOL     OW 7642   4.609   3.705   5.821
 2248SOL    HW1 7643   4.682   3.757   5.865
 2248SOL    HW2 7644   4.641   3.613   5.800
 2249SOL     OW 7645   5.377   5.846   3.638
 2249SOL    HW1 7646   5.313   5.868   3.564
 2249SOL    HW2 7647   5.464   5.817   3.599
 2250SOL     OW 7648   6.874   4.190   0.971
 2250SOL    HW1 7649   6.817   4.127   0.918
 2250SOL    HW2 7650   6.965   4.151   0.982
 2251SOL     OW 7651   5.585   0.823   0.223
 2251SOL    HW1 7652   5.588   0.761   0.144
 2251SOL    HW2 7653   5.605   0.773   0.306
 2252SOL     OW 7654   5.065   2.524   5.433
 2252SOL    HW1 7655   5.093   2.547   5.526
 2252SOL    HW2 7656   5.008   2.441   5.434
 2253SOL     OW 7657   2.352   2.839   0.181
 2253SOL    HW1 7658   2.409   2.897   0.240
 2253SOL    HW2 7659   2.406   2.763   0.146
 2254SOL     OW 7660   2.616   4.066   6.282
 2254SOL    HW1 7661   2.536   4.008   6.263
 2254SOL    HW2 7662   2.700   4.014   6.266
 2255SOL     OW 7663   5.736   2.560   1.606
 2255SOL    HW1 7664   5.717   2.559   1.508
 2255SOL    HW2 7665   5.722   2.468   1.644
 2256SOL     OW 7666   4.210   4.743   2.175
 2256SOL    HW1 7667   4.215   4.781   2.083
 2256SOL    HW2 7668   4.273   4.666   2.183
 2257SOL     OW 7669   2.120   4.462   3.664
 2257SOL    HW1 7670   2.115   4.414   3.577
 2257SOL    HW2 7671   2.211   4.449   3.704
 2258SOL     OW 7672   1.746   5.595   4.885
 2258SOL    HW1 7673   1.686   5.542   4.825
 2258SOL    HW2 7674   1.696   5.676   4.917
 2259SOL     OW 7675   5.053   3.777   6.923
 2259SOL    HW1 7676   5.015   3.811   7.009
 2259SOL    HW2 7677   5.051   3.850   6.855
 2260SOL     OW 7678   5.528   4.735   1.475
 2260SOL    HW1 7679   5.532   4.780   1.564
 2260SOL    HW2 7680   5.441   4.757   1.431
 2261SOL     OW 7681   5.318   0.178   0.085
 2261SOL    HW1 7682   5.317   0.084   0.119
 2261SOL    HW2 7683   5.321   0.177   7.010
 2262SOL     OW 7684   4.820   2.071   3.854
 2262SOL    HW1 7685   4.841   1.984   3.809
 2262SOL    HW2 7686   4.824   2.059   3.953
 2263SOL     OW 7687   0.937   5.421   5.719
 2263SOL    HW1 7688   0.865   5.354   5.739
 2263SOL    HW2 7689   1.004   5.380   5.658
 2264SOL     OW 7690   3.310   3.144   4.252
 2264SOL    HW1 7691   3.227   3.139   4.196
 2264SOL    HW2 7692   3.325   3.239   4.279
 2265SOL     OW 7693   0.113   0.143   1.968
 2265SOL    HW1 7694   0.037   0.145   2.032
 2265SOL    HW2 7695   0.103   0.065   1.907
 2266SOL     OW 7696   5.863   0.483   0.675
 2266SOL    HW1 7697   5.928   0.514   0.605
 2266SOL    HW2 7698   5.819   0.399   0.643
 2267SOL     OW 7699   6.702   2.874   5.631
 2267SOL    HW1 7700   6.624   2.931   5.605
 2267SOL    HW2 7701   6.689   2.782   5.595
 2268SOL     OW 7702   6.995   5.987   6.694
 2268SOL    HW1 7703   6.999   5.922   6.618
 2268SOL    HW2 7704   0.062   6.018   6.717
 2269SOL     OW 7705   6.343   5.332   5.992
 2269SOL    HW1 7706   6.399   5.250   5.979
 2269SOL    HW2 7707   6.310   5.364   5.903
 2270SOL     OW 7708   3.757   3.415   1.806
 2270SOL    HW1 7709   3.689   3.363   1.858
 2270SOL    HW2 7710   3.812   3.352   1.752
 2271SOL     OW 7711   6.386   4.422   2.146
 2271SOL    HW1 7712   6.439   4.504   2.167
 2271SOL    HW2 7713   6.357   4.379   2.232
 2272SOL     OW 7714   5.707   2.011   5.680
 2272SOL    HW1 7715   5.711   1.919   5.641
 2272SOL    HW2 7716   5.633   2.063   5.637
 2273SOL     OW 7717   0.673   1.519   3.304
 2273SOL    HW1 7718   0.587   1.487   3.344
 2273SOL    HW2 7719   0.750   1.473   3.349
 2274SOL     OW 7720   1.349   3.559   4.561
 2274SOL    HW1 7721   1.442   3.523   4.559
 2274SOL    HW2 7722   1.350   3.654   4.591
 2275SOL     OW 7723   5.101   6.767   4.152
 2275SOL    HW1 7724   5.115   6.719   4.065
 2275SOL    HW2 7725   5.082   6.702   4.225
 2276SOL     OW 7726   4.029   4.466   1.709
 2276SOL    HW1 7727   3.938   4.445   1.744
 2276SOL    HW2 7728   4.033   4.444   1.612
 2277SOL     OW 7729   3.442   3.255   0.213
 2277SOL    HW1 7730   3.506   3.249   0.137
 2277SOL    HW2 7731   3.381   3.333   0.199
 2278SOL     OW 7732   5.190   5.931   1.083
 2278SOL    HW1 7733   5.178   5.854   1.145
 2278SOL    HW2 7734   5.218   6.012   1.135
 2279SOL     OW 7735   5.744   3.177   5.075
 2279SOL    HW1 7736   5.689   3.193   4.993
 2279SOL    HW2 7737   5.773   3.264   5.115
 2280SOL     OW 7738   6.113   6.154   6.194
 2280SOL    HW1 7739   6.097   6.181   6.099
 2280SOL    HW2 7740   6.211   6.142   6.209
 2281SOL     OW 7741   3.737   2.228   1.379
 2281SOL    HW1 7742   3.780   2.314   1.407
 2281SOL    HW2 7743   3.705   2.180   1.461
 2282SOL     OW 7744   4.720   5.600   2.814
 2282SOL    HW1 7745   4.701   5.581   2.911
 2282SOL    HW2 7746   4.765   5.520   2.774
 2283SOL     OW 7747   6.978   3.297   3.450
 2283SOL    HW1 7748   6.915   3.331   3.519
 2283SOL    HW2 7749   6.978   3.197   3.451
 2284SOL     OW 7750   2.129   2.174   1.507
 2284SOL    HW1 7751   2.040   2.163   1.551
 2284SOL    HW2 7752   2.170   2.261   1.536
 2285SOL     OW 7753   2.000   3.891   1.096
 2285SOL    HW1 7754   2.027   3.831   1.021
 2285SOL    HW2 7755   2.073   3.957   1.114
 2286SOL     OW 7756   6.498   6.362   4.946
 2286SOL    HW1 7757   6.568   6.377   4.876
 2286SOL    HW2 7758   6.529   6.292   5.010
 2287SOL     OW 7759   2.300   2.504   1.970
 2287SOL    HW1 7760   2.388   2.467   1.940
 2287SOL    HW2 7761   2.300   2.603   1.955
 2288SOL     OW 7762   0.360   6.269   3.154
 2288SOL    HW1 7763   0.363   6.171   3.171
 2288SOL    HW2 7764   0.283   6.310   3.203
 2289SOL     OW 7765   5.351   2.286   2.317
 2289SOL    HW1 7766   5.271   2.229   2.304
 2289SOL    HW2 7767   5.342   2.369   2.261
 2290SOL     OW 7768   3.112   3.494   2.658
 2290SOL    HW1 7769   3.025   3.449   2.639
 2290SOL    HW2 7770   3.109   3.588   2.623
 2291SOL     OW 7771   2.120   2.942   1.022
 2291SOL    HW1 7772   2.031   2.900   1.039
 2291SOL    HW2 7773   2.144   2.931   0.926
 2292SOL     OW 7774   4.334   2.161   3.383
 2292SOL    HW1 7775   4.235   2.156   3.390
 2292SOL    HW2 7776   4.361   2.255   3.359
 2293SOL     OW 7777   6.029   1.237   0.178
 2293SOL    HW1 7778   5.957   1.305   0.190
 2293SOL    HW2 7779   6.052   1.197   0.267
 2294SOL     OW 7780   0.675   2.502   6.006
 2294SOL    HW1 7781   0.681   2.436   6.081
 2294SOL    HW2 7782   0.766   2.513   5.965
 2295SOL     OW 7783   6.261   6.574   1.663
 2295SOL    HW1 7784   6.351   6.599   1.628
 2295SOL    HW2 7785   6.271   6.520   1.747
 2296SOL     OW 7786   2.832   5.562   3.588
 2296SOL    HW1 7787   2.765   5.518   3.528
 2296SOL    HW2 7788   2.853   5.500   3.664
 2297SOL     OW 7789   4.526   4.388   5.430
 2297SOL    HW1 7790   4.445   4.339   5.395
 2297SOL    HW2 7791   4.505   4.428   5.518
 2298SOL     OW 7792   3.695   3.149   4.805
 2298SOL    HW1 7793   3.706   3.082   4.878
 2298SOL    HW2 7794   3.785   3.179   4.773
 2299SOL     OW 7795   5.481   2.923   4.805
 2299SOL    HW1 7796   5.412   2.951   4.740
 2299SOL    HW2 7797   5.570   2.960   4.778
 2300SOL     OW 7798   4.101   6.554   2.673
 2300SOL    HW1 7799   4.002   6.547   2.682
 2300SOL    HW2 7800   4.125   6.626   2.608
 2301SOL     OW 7801   3.550   3.863   4.773
 2301SOL    HW1 7802   3.587   3.941   4.723
 2301SOL    HW2 7803   3.558   3.880   4.871
 2302SOL     OW 7804   4.907   2.165   0.140
 2302SOL    HW1 7805   4.835   2.186   0.075
 2302SOL    HW2 7806   4.907   2.067   0.160
 2303SOL     OW 7807   2.964   2.006   0.902
 2303SOL    HW1 7808   2.948   1.993   1.000
 2303SOL    HW2 7809   3.053   1.967   0.877
 2304SOL     OW 7810   5.820   5.835   2.129
 2304SOL    HW1 7811   5.784   5.925   2.104
 2304SOL    HW2 7812   5.751   5.765   2.111
 2305SOL     OW 7813   1.662   1.179   5.160
 2305SOL    HW1 7814   1.696   1.269   5.185
 2305SOL    HW2 7815   1.734   1.111   5.172
 2306SOL     OW 7816   2.232   5.098   3.809
 2306SOL    HW1 7817   2.280   5.033   3.868
 2306SOL    HW2 7818   2.195   5.173   3.864
 2307SOL     OW 7819   0.912   2.346   5.285
 2307SOL    HW1 7820   0.903   2.437   5.326
 2307SOL    HW2 7821   0.894   2.276   5.354
 2308SOL     OW 7822   2.699   4.313   1.684
 2308SOL    HW1 7823   2.645   4.244   1.732
 2308SOL    HW2 7824   2.719   4.389   1.745
 2309SOL     OW 7825   1.424   6.571   4.294
 2309SOL    HW1 7826   1.413   6.617   4.205
 2309SOL    HW2 7827   1.460   6.479   4.280
 2310SOL     OW 7828   4.628   6.727   1.320
 2310SOL    HW1 7829   4.696   6.800   1.320
 2310SOL    HW2 7830   4.566   6.738   1.243
 2311SOL     OW 7831   2.504   6.022   1.228
 2311SOL    HW1 7832   2.471   5.980   1.143
 2311SOL    HW2 7833   2.471   6.117   1.233
 2312SOL     OW 7834   3.482   4.957   2.873
 2312SOL    HW1 7835   3.526   4.980   2.960
 2312SOL    HW2 7836   3.390   4.997   2.871
 2313SOL     OW 7837   5.606   4.989   2.331
 2313SOL    HW1 7838   5.514   4.956   2.306
 2313SOL    HW2 7839   5.658   4.914   2.371
 2314SOL     OW 7840   3.194   6.093   4.050
 2314SOL    HW1 7841   3.287   6.117   4.022
 2314SOL    HW2 7842   3.155   6.028   3.985
 2315SOL     OW 7843   4.198   3.369   6.530
 2315SOL    HW1 7844   4.164   3.334   6.442
 2315SOL    HW2 7845   4.279   3.317   6.557
 2316SOL     OW 7846   5.248   3.022   3.010
 2316SOL    HW1 7847   5.165   2.975   2.980
 2316SOL    HW2 7848   5.267   2.999   3.105
 2317SOL     OW 7849   1.459   4.221   3.353
 2317SOL    HW1 7850   1.439   4.133   3.309
 2317SOL    HW2 7851   1.536   4.264   3.307
 2318SOL     OW 7852   7.012   0.600   3.495
 2318SOL    HW1 7853   0.067   0.624   3.441
 2318SOL    HW2 7854   6.976   0.512   3.466
 2319SOL     OW 7855   1.709   4.586   4.367
 2319SOL    HW1 7856   1.756   4.591   4.455
 2319SOL    HW2 7857   1.751   4.515   4.310
 2320SOL     OW 7858   6.779   2.924   4.320
 2320SOL    HW1 7859   6.841   2.935   4.242
 2320SOL    HW2 7860   6.830   2.891   4.399
 2321SOL     OW 7861   2.915   6.830   5.456
 2321SOL    HW1 7862   2.882   6.924   5.459
 2321SOL    HW2 7863   2.864   6.778   5.388
 2322SOL     OW 7864   1.702   0.459   4.900
 2322SOL    HW1 7865   1.729   0.364   4.888
 2322SOL    HW2 7866   1.648   0.469   4.983
 2323SOL     OW 7867   4.393   5.830   2.131
 2323SOL    HW1 7868   4.397   5.912   2.188
 2323SOL    HW2 7869   4.478   5.821   2.079
 2324SOL     OW 7870   0.062   5.337   3.329
 2324SOL    HW1 7871   0.047   5.244   3.363
 2324SOL    HW2 7872   0.158   5.350   3.307
 2325SOL     OW 7873   0.656   3.171   1.215
 2325SOL    HW1 7874   0.723   3.243   1.197
 2325SOL    HW2 7875   0.624   3.132   1.129
 2326SOL     OW 7876   1.333   5.304   6.742
 2326SOL    HW1 7877   1.331   5.289   6.841
 2326SOL    HW2 7878   1.417   5.265   6.704
 2327SOL     OW 7879   4.962   2.615   4.412
 2327SOL    HW1 7880   4.956   2.651   4.505
 2327SOL    HW2 7881   4.926   2.682   4.347
 2328SOL     OW 7882   4.318   0.749   3.092
 2328SOL    HW1 7883   4.307   0.810   3.170
 2328SOL    HW2 7884   4.232   0.744   3.040
 2329SOL     OW 7885   1.302   5.921   3.772
 2329SOL    HW1 7886   1.284   5.909   3.674
 2329SOL    HW2 7887   1.215   5.930   3.821
 2330SOL     OW 7888   0.476   4.375   2.598
 2330SOL    HW1 7889   0.397   4.320   2.628
 2330SOL    HW2 7890   0.522   4.327   2.523
 2331SOL     OW 7891   0.603   4.853   5.234
 2331SOL    HW1 7892   0.634   4.771   5.185
 2331SOL    HW2 7893   0.516   4.883   5.195
 2332SOL     OW 7894   5.567   2.609   5.928
 2332SOL    HW1 7895   5.651   2.621   5.981
 2332SOL    HW2 7896   5.583   2.545   5.854
 2333SOL     OW 7897   1.252   5.741   3.518
 2333SOL    HW1 7898   1.162   5.785   3.518
 2333SOL    HW2 7899   1.321   5.807   3.488
 2334SOL     OW 7900   3.367   6.856   0.031
 2334SOL    HW1 7901   3.350   6.947   0.069
 2334SOL    HW2 7902   3.418   6.864   6.971
 2335SOL     OW 7903   5.261   6.944   3.587
 2335SOL    HW1 7904   5.234   6.848   3.593
 2335SOL    HW2 7905   5.334   6.962   3.654
 2336SOL     OW 7906   4.952   1.453   5.754
 2336SOL    HW1 7907   4.921   1.362   5.782
 2336SOL    HW2 7908   4.989   1.502   5.833
 2337SOL     OW 7909   5.184   0.032   2.947
 2337SOL    HW1 7910   5.161   0.106   3.011
 2337SOL    HW2 7911   5.262   0.059   2.892
 2338SOL     OW 7912   0.732   6.769   6.427
 2338SOL    HW1 7913   0.701   6.753   6.333
 2338SOL    HW2 7914   0.675   6.839   6.469
 2339SOL     OW 7915   3.483   4.534   0.089
 2339SOL    HW1 7916   3.557   4.495   0.034
 2339SOL    HW2 7917   3.413   4.572   0.029
 2340SOL     OW 7918   3.956   5.642   4.900
 2340SOL    HW1 7919   4.008   5.641   4.814
 2340SOL    HW2 7920   3.975   5.558   4.951
 2341SOL     OW 7921   5.380   5.281   1.075
 2341SOL    HW1 7922   5.364   5.365   1.023
 2341SOL    HW2 7923   5.478   5.262   1.080
 2342SOL     OW 7924   6.201   0.551   4.983
 2342SOL    HW1 7925   6.203   0.506   5.072
 2342SOL    HW2 7926   6.114   0.530   4.937
 2343SOL     OW 7927   1.432   6.094   0.971
 2343SOL    HW1 7928   1.461   6.116   0.878
 2343SOL    HW2 7929   1.332   6.086   0.973
 2344SOL     OW 7930   1.321   2.140   2.312
 2344SOL    HW1 7931   1.398   2.201   2.327
 2344SOL    HW2 7932   1.268   2.172   2.233
 2345SOL     OW 7933   2.075   0.970   4.489
 2345SOL    HW1 7934   2.093   0.878   4.523
 2345SOL    HW2 7935   2.062   0.967   4.390
 2346SOL     OW 7936   5.202   4.166   5.942
 2346SOL    HW1 7937   5.163   4.075   5.927
 2346SOL    HW2 7938   5.193   4.192   6.038
 2347SOL     OW 7939   1.280   2.633   1.790
 2347SOL    HW1 7940   1.299   2.554   1.732
 2347SOL    HW2 7941   1.213   2.609   1.860
 2348SOL     OW 7942   2.612   6.793   2.516
 2348SOL    HW1 7943   2.634   6.700   2.544
 2348SOL    HW2 7944   2.692   6.852   2.531
 2349SOL     OW 7945   6.042   6.503   5.650
 2349SOL    HW1 7946   6.130   6.547   5.670
 2349SOL    HW2 7947   6.014   6.526   5.557
 2350SOL     OW 7948   2.741   6.975   5.944
 2350SOL    HW1 7949   2.680   0.023   5.914
 2350SOL    HW2 7950   2.772   6.994   6.037
 2351SOL     OW 7951   2.411   5.427   4.227
 2351SOL    HW1 7952   2.331   5.385   4.186
 2351SOL    HW2 7953   2.446   5.499   4.166
 2352SOL     OW 7954   0.711   3.889   2.912
 2352SOL    HW1 7955   0.760   3.949   2.847
 2352SOL    HW2 7956   0.767   3.877   2.994
 2353SOL     OW 7957   3.336   4.718   5.713
 2353SOL    HW1 7958   3.318   4.736   5.617
 2353SOL    HW2 7959   3.418   4.663   5.722
 2354SOL     OW 7960   3.590   2.118   0.712
 2354SOL    HW1 7961   3.645   2.152   0.789
 2354SOL    HW2 7962   3.646   2.061   0.653
 2355SOL     OW 7963   0.337   6.297   0.805
 2355SOL    HW1 7964   0.333   6.199   0.786
 2355SOL    HW2 7965   0.331   6.312   0.903
 2356SOL     OW 7966   2.735   5.012   3.562
 2356SOL    HW1 7967   2.804   5.074   3.600
 2356SOL    HW2 7968   2.764   4.917   3.577
 2357SOL     OW 7969   6.518   3.796   1.866
 2357SOL    HW1 7970   6.526   3.791   1.965
 2357SOL    HW2 7971   6.559   3.715   1.824
 2358SOL     OW 7972   3.877   1.374   5.469
 2358SOL    HW1 7973   3.834   1.287   5.495
 2358SOL    HW2 7974   3.825   1.414   5.392
 2359SOL     OW 7975   1.398   1.701   5.228
 2359SOL    HW1 7976   1.384   1.677   5.324
 2359SOL    HW2 7977   1.351   1.634   5.170
 2360SOL     OW 7978   4.008   4.707   0.854
 2360SOL    HW1 7979   3.959   4.682   0.937
 2360SOL    HW2 7980   3.975   4.795   0.820
 2361SOL     OW 7981   3.171   6.609   1.913
 2361SOL    HW1 7982   3.122   6.689   1.949
 2361SOL    HW2 7983   3.176   6.616   1.814
 2362SOL     OW 7984   4.051   5.844   4.504
 2362SOL    HW1 7985   4.104   5.774   4.455
 2362SOL    HW2 7986   3.953   5.822   4.498
 2363SOL     OW 7987   3.503   3.474   0.688
 2363SOL    HW1 7988   3.553   3.389   0.704
 2363SOL    HW2 7989   3.449   3.497   0.768
 2364SOL     OW 7990   4.375   2.124   1.966
 2364SOL    HW1 7991   4.357   2.217   1.997
 2364SOL    HW2 7992   4.306   2.096   1.899
 2365SOL     OW 7993   5.766   3.681   4.229
 2365SOL    HW1 7994   5.709   3.651   4.306
 2365SOL    HW2 7995   5.836   3.612   4.212
 2366SOL     OW 7996   2.383   4.472   5.404
 2366SOL    HW1 7997   2.368   4.540   5.332
 2366SOL    HW2 7998   2.388   4.381   5.363
 2367SOL     OW 7999   0.749   4.393   5.950
 2367SOL    HW1 8000   0.813   4.353   5.885
 2367SOL    HW2 8001   0.778   4.486   5.974
 2368SOL     OW 8002   5.671   6.758   4.441
 2368SOL    HW1 8003   5.599   6.738   4.375
 2368SOL    HW2 8004   5.742   6.687   4.434
 2369SOL     OW 8005   2.698   1.273   3.399
 2369SOL    HW1 8006   2.691   1.286   3.300
 2369SOL    HW2 8007   2.635   1.202   3.429
 2370SOL     OW 8008   5.675   2.555   1.330
 2370SOL    HW1 8009   5.700   2.487   1.261
 2370SOL    HW2 8010   5.674   2.646   1.288
 2371SOL     OW 8011   0.687   6.916   2.861
 2371SOL    HW1 8012   0.663   6.862   2.780
 2371SOL    HW2 8013   0.783   6.899   2.884
 2372SOL     OW 8014   6.690   1.581   5.789
 2372SOL    HW1 8015   6.700   1.557   5.693
 2372SOL    HW2 8016   6.647   1.671   5.796
 2373SOL     OW 8017   6.136   6.908   6.227
 2373SOL    HW1 8018   6.096   6.828   6.181
 2373SOL    HW2 8019   6.230   6.889   6.253
 2374SOL     OW 8020   6.039   6.068   2.367
 2374SOL    HW1 8021   6.087   5.989   2.330
 2374SOL    HW2 8022   6.053   6.073   2.465
 2375SOL     OW 8023   1.478   0.656   4.027
 2375SOL    HW1 8024   1.557   0.628   3.972
 2375SOL    HW2 8025   1.505   0.725   4.093
 2376SOL     OW 8026   5.921   1.837   2.693
 2376SOL    HW1 8027   6.019   1.853   2.700
 2376SOL    HW2 8028   5.902   1.739   2.699
 2377SOL     OW 8029   4.428   4.982   5.751
 2377SOL    HW1 8030   4.378   4.996   5.836
 2377SOL    HW2 8031   4.369   5.006   5.673
 2378SOL     OW 8032   6.997   1.472   0.104
 2378SOL    HW1 8033   0.040   1.496   0.173
 2378SOL    HW2 8034   7.004   1.534   0.026
 2379SOL     OW 8035   6.817   5.625   1.142
 2379SOL    HW1 8036   6.850   5.718   1.157
 2379SOL    HW2 8037   6.895   5.565   1.122
 2380SOL     OW 8038   5.190   4.499   4.894
 2380SOL    HW1 8039   5.220   4.551   4.814
 2380SOL    HW2 8040   5.106   4.540   4.930
 2381SOL     OW 8041   3.160   5.109   5.132
 2381SOL    HW1 8042   3.200   5.033   5.082
 2381SOL    HW2 8043   3.077   5.140   5.086
 2382SOL     OW 8044   1.195   6.212   1.678
 2382SOL    HW1 8045   1.185   6.206   1.778
 2382SOL    HW2 8046   1.144   6.291   1.645
 2383SOL     OW 8047   5.016   5.776   4.773
 2383SOL    HW1 8048   4.976   5.867   4.788
 2383SOL    HW2 8049   5.075   5.753   4.851
 2384SOL     OW 8050   0.836   1.670   1.639
 2384SOL    HW1 8051   0.857   1.581   1.598
 2384SOL    HW2 8052   0.897   1.685   1.717
 2385SOL     OW 8053   0.513   1.892   0.709
 2385SOL    HW1 8054   0.435   1.946   0.679
 2385SOL    HW2 8055   0.522   1.811   0.652
 2386SOL     OW 8056   4.541   6.200   3.750
 2386SOL    HW1 8057   4.590   6.236   3.829
 2386SOL    HW2 8058   4.550   6.263   3.673
 2387SOL     OW 8059   0.999   1.386   3.184
 2387SOL    HW1 8060   0.919   1.415   3.132
 2387SOL    HW2 8061   1.082   1.410   3.133
 2388SOL     OW 8062   6.309   1.955   5.829
 2388SOL    HW1 8063   6.326   1.907   5.915
 2388SOL    HW2 8064   6.303   2.053   5.846
 2389SOL     OW 8065   5.360   4.379   3.801
 2389SOL    HW1 8066   5.281   4.437   3.779
 2389SOL    HW2 8067   5.331   4.283   3.801
 2390SOL     OW 8068   4.831   4.484   6.047
 2390SOL    HW1 8069   4.747   4.490   6.102
 2390SOL    HW2 8070   4.811   4.513   5.954
 2391SOL     OW 8071   3.601   3.664   6.678
 2391SOL    HW1 8072   3.646   3.580   6.648
 2391SOL    HW2 8073   3.516   3.641   6.724
 2392SOL     OW 8074   3.294   6.019   4.808
 2392SOL    HW1 8075   3.321   6.013   4.711
 2392SOL    HW2 8076   3.239   5.939   4.831
 2393SOL     OW 8077   3.208   5.047   1.317
 2393SOL    HW1 8078   3.145   5.057   1.239
 2393SOL    HW2 8079   3.179   4.971   1.374
 2394SOL     OW 8080   0.617   3.146   3.340
 2394SOL    HW1 8081   0.659   3.055   3.348
 2394SOL    HW2 8082   0.596   3.165   3.244
 2395SOL     OW 8083   0.334   2.557   5.791
 2395SOL    HW1 8084   0.350   2.653   5.766
 2395SOL    HW2 8085   0.320   2.503   5.707
 2396SOL     OW 8086   6.357   1.063   5.594
 2396SOL    HW1 8087   6.278   1.120   5.617
 2396SOL    HW2 8088   6.441   1.113   5.615
 2397SOL     OW 8089   0.653   4.604   5.147
 2397SOL    HW1 8090   0.631   4.578   5.053
 2397SOL    HW2 8091   0.712   4.534   5.188
 2398SOL     OW 8092   2.856   5.520   3.911
 2398SOL    HW1 8093   2.900   5.458   3.846
 2398SOL    HW2 8094   2.924   5.578   3.955
 2399SOL     OW 8095   2.870   2.248   3.426
 2399SOL    HW1 8096   2.910   2.281   3.511
 2399SOL    HW2 8097   2.773   2.228   3.440
 2400SOL     OW 8098   1.461   3.572   0.408
 2400SOL    HW1 8099   1.510   3.504   0.463
 2400SOL    HW2 8100   1.519   3.603   0.333
 2401SOL     OW 8101   3.695   6.977   5.928
 2401SOL    HW1 8102   3.750   7.008   6.006
 2401SOL    HW2 8103   3.754   6.960   5.850
 2402SOL     OW 8104   1.069   2.001   2.142
 2402SOL    HW1 8105   1.016   1.987   2.058
 2402SOL    HW2 8106   1.156   2.045   2.120
 2403SOL     OW 8107   3.642   3.869   2.836
 2403SOL    HW1 8108   3.725   3.881   2.782
 2403SOL    HW2 8109   3.624   3.953   2.888
 2404SOL     OW 8110   6.995   1.354   0.767
 2404SOL    HW1 8111   0.048   1.416   0.769
 2404SOL    HW2 8112   6.946   1.364   0.680
 2405SOL     OW 8113   2.938   4.058   0.587
 2405SOL    HW1 8114   2.967   4.104   0.502
 2405SOL    HW2 8115   2.859   4.000   0.568
 2406SOL     OW 8116   2.200   0.059   5.088
 2406SOL    HW1 8117   2.259   0.058   5.007
 2406SOL    HW2 8118   2.153   6.997   5.096
 2407SOL     OW 8119   3.766   1.397   3.831
 2407SOL    HW1 8120   3.845   1.454   3.856
 2407SOL    HW2 8121   3.709   1.446   3.766
 2408SOL     OW 8122   2.465   6.384   4.406
 2408SOL    HW1 8123   2.563   6.396   4.393
 2408SOL    HW2 8124   2.449   6.306   4.467
 2409SOL     OW 8125   2.687   2.676   0.852
 2409SOL    HW1 8126   2.724   2.703   0.940
 2409SOL    HW2 8127   2.601   2.626   0.866
 2410SOL     OW 8128   6.417   3.603   5.703
 2410SOL    HW1 8129   6.408   3.664   5.624
 2410SOL    HW2 8130   6.357   3.524   5.690
 2411SOL     OW 8131   2.462   3.327   0.322
 2411SOL    HW1 8132   2.445   3.342   0.419
 2411SOL    HW2 8133   2.377   3.300   0.277
 2412SOL     OW 8134   2.580   2.120   6.596
 2412SOL    HW1 8135   2.605   2.042   6.539
 2412SOL    HW2 8136   2.586   2.095   6.692
 2413SOL     OW 8137   0.036   2.664   6.536
 2413SOL    HW1 8138   0.131   2.641   6.514
 2413SOL    HW2 8139   0.030   2.760   6.562
 2414SOL     OW 8140   6.124   2.327   4.613
 2414SOL    HW1 8141   6.053   2.394   4.591
 2414SOL    HW2 8142   6.150   2.278   4.529
 2415SOL     OW 8143   2.782   6.024   1.290
 2415SOL    HW1 8144   2.808   6.120   1.304
 2415SOL    HW2 8145   2.683   6.018   1.277
 2416SOL     OW 8146   6.626   3.052   2.974
 2416SOL    HW1 8147   6.713   3.011   2.946
 2416SOL    HW2 8148   6.632   3.152   2.962
 2417SOL     OW 8149   3.863   3.173   0.600
 2417SOL    HW1 8150   3.925   3.251   0.585
 2417SOL    HW2 8151   3.781   3.205   0.648
 2418SOL     OW 8152   5.079   3.938   5.676
 2418SOL    HW1 8153   5.157   3.925   5.736
 2418SOL    HW2 8154   5.006   3.984   5.726
 2419SOL     OW 8155   2.105   6.114   4.496
 2419SOL    HW1 8156   2.052   6.062   4.563
 2419SOL    HW2 8157   2.195   6.071   4.484
 2420SOL     OW 8158   2.860   4.996   2.431
 2420SOL    HW1 8159   2.776   5.002   2.377
 2420SOL    HW2 8160   2.919   4.925   2.392
 2421SOL     OW 8161   3.275   6.883   4.608
 2421SOL    HW1 8162   3.342   6.825   4.654
 2421SOL    HW2 8163   3.225   6.829   4.540
 2422SOL     OW 8164   3.770   6.456   2.038
 2422SOL    HW1 8165   3.757   6.548   2.076
 2422SOL    HW2 8166   3.862   6.450   1.997
 2423SOL     OW 8167   1.688   4.914   2.336
 2423SOL    HW1 8168   1.777   4.956   2.317
 2423SOL    HW2 8169   1.698   4.848   2.411
 2424SOL     OW 8170   5.136   0.835   6.245
 2424SOL    HW1 8171   5.182   0.881   6.322
 2424SOL    HW2 8172   5.077   0.763   6.280
 2425SOL     OW 8173   4.321   5.413   5.744
 2425SOL    HW1 8174   4.296   5.378   5.654
 2425SOL    HW2 8175   4.285   5.506   5.755
 2426SOL     OW 8176   1.081   5.277   5.547
 2426SOL    HW1 8177   1.050   5.185   5.569
 2426SOL    HW2 8178   1.081   5.290   5.448
 2427SOL     OW 8179   5.371   0.478   6.442
 2427SOL    HW1 8180   5.346   0.509   6.350
 2427SOL    HW2 8181   5.288   0.449   6.491
 2428SOL     OW 8182   0.178   0.613   3.293
 2428SOL    HW1 8183   0.257   0.552   3.283
 2428SOL    HW2 8184   0.154   0.651   3.204
 2429SOL     OW 8185   5.624   5.674   1.972
 2429SOL    HW1 8186   5.626   5.700   1.875
 2429SOL    HW2 8187   5.689   5.600   1.988
 2430SOL     OW 8188   6.505   3.018   0.430
 2430SOL    HW1 8189   6.471   2.931   0.466
 2430SOL    HW2 8190   6.429   3.083   0.422
 2431SOL     OW 8191   6.543   1.938   0.958
 2431SOL    HW1 8192   6.561   1.850   0.916
 2431SOL    HW2 8193   6.592   2.010   0.909
 2432SOL     OW 8194   3.702   5.474   2.314
 2432SOL    HW1 8195   3.603   5.484   2.305
 2432SOL    HW2 8196   3.725   5.467   2.411
 2433SOL     OW 8197   6.931   4.889   0.152
 2433SOL    HW1 8198   6.957   4.819   0.085
 2433SOL    HW2 8199   6.945   4.980   0.112
 2434SOL     OW 8200   4.129   1.972   2.927
 2434SOL    HW1 8201   4.229   1.977   2.924
 2434SOL    HW2 8202   4.101   1.886   2.969
 2435SOL     OW 8203   5.973   0.192   6.954
 2435SOL    HW1 8204   5.881   0.231   6.945
 2435SOL    HW2 8205   6.030   0.222   6.878
 2436SOL     OW 8206   1.148   1.239   0.873
 2436SOL    HW1 8207   1.221   1.291   0.915
 2436SOL    HW2 8208   1.079   1.302   0.835
 2437SOL     OW 8209   6.692   6.021   2.300
 2437SOL    HW1 8210   6.715   5.926   2.281
 2437SOL    HW2 8211   6.761   6.061   2.360
 2438SOL     OW 8212   3.438   1.691   4.366
 2438SOL    HW1 8213   3.387   1.682   4.451
 2438SOL    HW2 8214   3.373   1.705   4.290
 2439SOL     OW 8215   0.494   5.454   6.970
 2439SOL    HW1 8216   0.495   5.354   6.972
 2439SOL    HW2 8217   0.512   5.489   0.037
 2440SOL     OW 8218   4.062   1.182   4.573
 2440SOL    HW1 8219   4.012   1.165   4.488
 2440SOL    HW2 8220   4.062   1.280   4.593
 2441SOL     OW 8221   6.294   0.147   6.696
 2441SOL    HW1 8222   6.201   0.124   6.669
 2441SOL    HW2 8223   6.292   0.215   6.770
 2442SOL     OW 8224   5.193   3.347   1.981
 2442SOL    HW1 8225   5.272   3.390   2.024
 2442SOL    HW2 8226   5.222   3.266   1.930
 2443SOL     OW 8227   2.165   1.299   6.818
 2443SOL    HW1 8228   2.259   1.328   6.837
 2443SOL    HW2 8229   2.123   1.264   6.901
 2444SOL     OW 8230   3.362   5.716   0.934
 2444SOL    HW1 8231   3.309   5.639   0.969
 2444SOL    HW2 8232   3.445   5.726   0.988
 2445SOL     OW 8233   0.564   2.247   0.987
 2445SOL    HW1 8234   0.482   2.198   0.957
 2445SOL    HW2 8235   0.586   2.318   0.920
 2446SOL     OW 8236   1.528   3.879   2.216
 2446SOL    HW1 8237   1.613   3.845   2.254
 2446SOL    HW2 8238   1.530   3.870   2.116
 2447SOL     OW 8239   1.995   0.649   0.814
 2447SOL    HW1 8240   2.091   0.634   0.793
 2447SOL    HW2 8241   1.946   0.676   0.731
 2448SOL     OW 8242   6.169   2.098   4.376
 2448SOL    HW1 8243   6.165   2.068   4.471
 2448SOL    HW2 8244   6.262   2.084   4.340
 2449SOL     OW 8245   1.575   4.164   1.990
 2449SOL    HW1 8246   1.620   4.247   1.956
 2449SOL    HW2 8247   1.633   4.122   2.060
 2450SOL     OW 8248   2.119   5.316   6.638
 2450SOL    HW1 8249   2.049   5.282   6.702
 2450SOL    HW2 8250   2.124   5.255   6.559
 2451SOL     OW 8251   0.795   0.375   4.232
 2451SOL    HW1 8252   0.821   0.373   4.136
 2451SOL    HW2 8253   0.696   0.367   4.241
 2452SOL     OW 8254   2.817   2.385   3.185
 2452SOL    HW1 8255   2.859   2.367   3.274
 2452SOL    HW2 8256   2.745   2.453   3.195
 2453SOL     OW 8257   0.186   1.996   0.370
 2453SOL    HW1 8258   0.221   2.081   0.331
 2453SOL    HW2 8259   0.105   1.967   0.319
 2454SOL     OW 8260   3.476   5.475   0.735
 2454SOL    HW1 8261   3.425   5.402   0.781
 2454SOL    HW2 8262   3.420   5.558   0.732
 2455SOL     OW 8263   3.314   1.241   0.030
 2455SOL    HW1 8264   3.284   1.263   0.122
 2455SOL    HW2 8265   3.250   1.176   7.013
 2456SOL     OW 8266   1.170   3.834   6.810
 2456SOL    HW1 8267   1.261   3.796   6.820
 2456SOL    HW2 8268   1.126   3.840   6.900
 2457SOL     OW 8269   5.506   1.015   5.471
 2457SOL    HW1 8270   5.586   1.048   5.521
 2457SOL    HW2 8271   5.452   1.093   5.440
 2458SOL     OW 8272   0.889   0.378   2.896
 2458SOL    HW1 8273   0.862   0.451   2.959
 2458SOL    HW2 8274   0.889   0.413   2.803
 2459SOL     OW 8275   2.691   5.975   6.970
 2459SOL    HW1 8276   2.755   5.986   0.021
 2459SOL    HW2 8277   2.651   6.064   6.948
 2460SOL     OW 8278   0.968   1.268   6.715
 2460SOL    HW1 8279   0.918   1.354   6.710
 2460SOL    HW2 8280   1.061   1.282   6.682
 2461SOL     OW 8281   4.163   0.345   4.834
 2461SOL    HW1 8282   4.085   0.284   4.842
 2461SOL    HW2 8283   4.221   0.316   4.758
 2462SOL     OW 8284   0.632   5.142   0.609
 2462SOL    HW1 8285   0.714   5.157   0.665
 2462SOL    HW2 8286   0.569   5.082   0.658
 2463SOL     OW 8287   6.512   1.182   0.029
 2463SOL    HW1 8288   6.440   1.113   0.027
 2463SOL    HW2 8289   6.533   1.212   6.961
 2464SOL     OW 8290   0.377   2.976   2.525
 2464SOL    HW1 8291   0.316   2.964   2.603
 2464SOL    HW2 8292   0.360   3.065   2.482
 2465SOL     OW 8293   6.878   5.277   6.133
 2465SOL    HW1 8294   6.806   5.346   6.140
 2465SOL    HW2 8295   6.861   5.204   6.199
 2466SOL     OW 8296   1.623   1.943   1.913
 2466SOL    HW1 8297   1.564   1.995   1.851
 2466SOL    HW2 8298   1.610   1.976   2.006
 2467SOL     OW 8299   4.667   1.744   6.147
 2467SOL    HW1 8300   4.654   1.749   6.048
 2467SOL    HW2 8301   4.600   1.681   6.186
 2468SOL     OW 8302   3.534   0.230   6.589
 2468SOL    HW1 8303   3.582   0.165   6.647
 2468SOL    HW2 8304   3.560   0.215   6.494
 2469SOL     OW 8305   4.447   2.835   5.630
 2469SOL    HW1 8306   4.437   2.834   5.729
 2469SOL    HW2 8307   4.367   2.878   5.588
 2470SOL     OW 8308   3.825   4.751   6.189
 2470SOL    HW1 8309   3.853   4.843   6.215
 2470SOL    HW2 8310   3.831   4.691   6.268
 2471SOL     OW 8311   3.768   6.998   1.059
 2471SOL    HW1 8312   3.831   7.000   1.137
 2471SOL    HW2 8313   3.820   7.004   0.974
 2472SOL     OW 8314   4.795   2.542   3.998
 2472SOL    HW1 8315   4.717   2.536   3.936
 2472SOL    HW2 8316   4.768   2.509   4.088
 2473SOL     OW 8317   1.499   4.273   4.921
 2473SOL    HW1 8318   1.525   4.367   4.942
 2473SOL    HW2 8319   1.419   4.272   4.862
 2474SOL     OW 8320   1.044   5.345   0.239
 2474SOL    HW1 8321   0.992   5.407   0.299
 2474SOL    HW2 8322   1.138   5.339   0.272
 2475SOL     OW 8323   4.703   0.772   0.699
 2475SOL    HW1 8324   4.609   0.799   0.721
 2475SOL    HW2 8325   4.730   0.696   0.758
 2476SOL     OW 8326   5.157   0.741   2.587
 2476SOL    HW1 8327   5.172   0.836   2.614
 2476SOL    HW2 8328   5.115   0.691   2.664
 2477SOL     OW 8329   4.121   0.631   3.388
 2477SOL    HW1 8330   4.078   0.605   3.301
 2477SOL    HW2 8331   4.208   0.581   3.398
 2478SOL     OW 8332   4.552   1.126   2.412
 2478SOL    HW1 8333   4.534   1.031   2.437
 2478SOL    HW2 8334   4.548   1.183   2.493
 2479SOL     OW 8335   1.189   2.946   1.326
 2479SOL    HW1 8336   1.180   2.850   1.302
 2479SOL    HW2 8337   1.108   2.977   1.375
 2480SOL     OW 8338   3.951   2.744   1.247
 2480SOL    HW1 8339   3.878   2.795   1.201
 2480SOL    HW2 8340   3.972   2.662   1.194
 2481SOL     OW 8341   2.709   0.386   1.526
 2481SOL    HW1 8342   2.692   0.322   1.451
 2481SOL    HW2 8343   2.706   0.479   1.492
 2482SOL     OW 8344   5.208   3.423   7.006
 2482SOL    HW1 8345   5.250   3.502   6.962
 2482SOL    HW2 8346   5.265   3.342   6.990
 2483SOL     OW 8347   1.571   1.854   0.287
 2483SOL    HW1 8348   1.622   1.809   0.214
 2483SOL    HW2 8349   1.610   1.829   0.375
 2484SOL     OW 8350   3.345   0.773   1.225
 2484SOL    HW1 8351   3.372   0.725   1.142
 2484SOL    HW2 8352   3.395   0.736   1.304
 2485SOL     OW 8353   5.221   2.979   0.220
 2485SOL    HW1 8354   5.128   2.957   0.190
 2485SOL    HW2 8355   5.247   2.920   0.297
 2486SOL     OW 8356   0.197   5.261   5.488
 2486SOL    HW1 8357   0.140   5.240   5.408
 2486SOL    HW2 8358   0.238   5.178   5.523
 2487SOL     OW 8359   3.937   6.218   0.465
 2487SOL    HW1 8360   3.878   6.244   0.388
 2487SOL    HW2 8361   3.883   6.216   0.549
 2488SOL     OW 8362   0.735   3.557   1.525
 2488SOL    HW1 8363   0.726   3.466   1.567
 2488SOL    HW2 8364   0.692   3.625   1.585
 2489SOL     OW 8365   1.084   6.098   3.978
 2489SOL    HW1 8366   1.130   6.182   4.003
 2489SOL    HW2 8367   1.065   6.043   4.059
 2490SOL     OW 8368   0.714   5.812   0.843
 2490SOL    HW1 8369   0.777   5.859   0.781
 2490SOL    HW2 8370   0.719   5.855   0.934
 2491SOL     OW 8371   3.896   4.366   1.159
 2491SOL    HW1 8372   3.826   4.435   1.143
 2491SOL    HW2 8373   3.903   4.306   1.079
 2492SOL     OW 8374   4.545   3.517   0.965
 2492SOL    HW1 8375   4.548   3.564   1.054
 2492SOL    HW2 8376   4.454   3.477   0.952
 2493SOL     OW 8377   6.709   0.204   1.125
 2493SOL    HW1 8378   6.777   0.276   1.144
 2493SOL    HW2 8379   6.620   0.234   1.159
 2494SOL     OW 8380   6.142   3.729   2.141
 2494SOL    HW1 8381   6.052   3.726   2.187
 2494SOL    HW2 8382   6.192   3.646   2.163
 2495SOL     OW 8383   5.401   5.987   3.874
 2495SOL    HW1 8384   5.417   5.929   3.794
 2495SOL    HW2 8385   5.483   6.043   3.891
 2496SOL     OW 8386   0.407   3.855   6.941
 2496SOL    HW1 8387   0.389   3.834   0.012
 2496SOL    HW2 8388   0.385   3.775   6.884
 2497SOL     OW 8389   0.506   0.265   0.772
 2497SOL    HW1 8390   0.504   0.166   0.785
 2497SOL    HW2 8391   0.466   0.287   0.683
 2498SOL     OW 8392   3.386   1.990   5.729
 2498SOL    HW1 8393   3.383   2.055   5.653
 2498SOL    HW2 8394   3.476   1.946   5.731
 2499SOL     OW 8395   5.674   3.043   2.149
 2499SOL    HW1 8396   5.666   3.033   2.248
 2499SOL    HW2 8397   5.754   3.100   2.128
 2500SOL     OW 8398   4.185   3.623   6.607
 2500SOL    HW1 8399   4.259   3.655   6.548
 2500SOL    HW2 8400   4.162   3.529   6.584
 2501SOL     OW 8401   5.065   5.798   0.141
 2501SOL    HW1 8402   5.096   5.795   0.046
 2501SOL    HW2 8403   5.145   5.799   0.202
 2502SOL     OW 8404   2.191   0.365   5.202
 2502SOL    HW1 8405   2.160   0.330   5.290
 2502SOL    HW2 8406   2.131   0.331   5.129
 2503SOL     OW 8407   3.353   6.664   4.997
 2503SOL    HW1 8408   3.308   6.650   4.909
 2503SOL    HW2 8409   3.435   6.607   5.002
 2504SOL     OW 8410   3.822   5.478   2.939
 2504SOL    HW1 8411   3.876   5.453   3.019
 2504SOL    HW2 8412   3.786   5.395   2.896
 2505SOL     OW 8413   0.091   5.635   2.742
 2505SOL    HW1 8414   0.108   5.618   2.839
 2505SOL    HW2 8415   0.074   5.732   2.727
 2506SOL     OW 8416   6.227   3.093   6.175
 2506SOL    HW1 8417   6.320   3.059   6.166
 2506SOL    HW2 8418   6.217   3.141   6.263
 2507SOL     OW 8419   0.311   3.297   0.103
 2507SOL    HW1 8420   0.309   3.205   0.062
 2507SOL    HW2 8421   0.405   3.331   0.105
 2508SOL     OW 8422   2.543   1.782   4.028
 2508SOL    HW1 8423   2.615   1.722   3.990
 2508SOL    HW2 8424   2.463   1.780   3.967
 2509SOL     OW 8425   0.227   4.529   0.979
 2509SOL    HW1 8426   0.183   4.561   1.062
 2509SOL    HW2 8427   0.183   4.571   0.899
 2510SOL     OW 8428   3.375   4.647   0.930
 2510SOL    HW1 8429   3.327   4.734   0.944
 2510SOL    HW2 8430   3.445   4.659   0.860
 2511SOL     OW 8431   2.424   1.523   4.650
 2511SOL    HW1 8432   2.391   1.531   4.744
 2511SOL    HW2 8433   2.355   1.559   4.587
 2512SOL     OW 8434   4.228   4.031   5.436
 2512SOL    HW1 8435   4.168   4.110   5.426
 2512SOL    HW2 8436   4.303   4.054   5.499
 2513SOL     OW 8437   1.930   5.517   4.702
 2513SOL    HW1 8438   2.021   5.527   4.742
 2513SOL    HW2 8439   1.865   5.575   4.751
 2514SOL     OW 8440   0.420   4.368   4.242
 2514SOL    HW1 8441   0.435   4.276   4.278
 2514SOL    HW2 8442   0.428   4.435   4.315
 2515SOL     OW 8443   1.847   6.331   0.723
 2515SOL    HW1 8444   1.812   6.311   0.815
 2515SOL    HW2 8445   1.942   6.301   0.716
 2516SOL     OW 8446   5.417   1.373   2.226
 2516SOL    HW1 8447   5.352   1.438   2.189
 2516SOL    HW2 8448   5.387   1.343   2.316
 2517SOL     OW 8449   1.636   0.575   6.273
 2517SOL    HW1 8450   1.596   0.502   6.328
 2517SOL    HW2 8451   1.618   0.557   6.176
 2518SOL     OW 8452   0.923   5.431   0.855
 2518SOL    HW1 8453   0.964   5.340   0.865
 2518SOL    HW2 8454   0.842   5.424   0.797
 2519SOL     OW 8455   3.541   0.399   1.664
 2519SOL    HW1 8456   3.632   0.363   1.686
 2519SOL    HW2 8457   3.515   0.468   1.731
 2520SOL     OW 8458   3.357   1.927   0.630
 2520SOL    HW1 8459   3.455   1.912   0.621
 2520SOL    HW2 8460   3.323   1.975   0.550
 2521SOL     OW 8461   3.534   1.417   5.434
 2521SOL    HW1 8462   3.544   1.396   5.531
 2521SOL    HW2 8463   3.460   1.361   5.395
 2522SOL     OW 8464   1.392   1.282   5.158
 2522SOL    HW1 8465   1.479   1.238   5.183
 2522SOL    HW2 8466   1.323   1.263   5.228
 2523SOL     OW 8467   1.031   2.989   1.020
 2523SOL    HW1 8468   1.064   2.935   1.097
 2523SOL    HW2 8469   0.979   2.930   0.958
 2524SOL     OW 8470   6.670   6.677   4.436
 2524SOL    HW1 8471   6.658   6.753   4.500
 2524SOL    HW2 8472   6.586   6.664   4.384
 2525SOL     OW 8473   0.865   2.753   4.680
 2525SOL    HW1 8474   0.938   2.737   4.746
 2525SOL    HW2 8475   0.840   2.850   4.680
 2526SOL     OW 8476   1.821   4.394   6.877
 2526SOL    HW1 8477   1.856   4.317   6.929
 2526SOL    HW2 8478   1.791   4.466   6.939
 2527SOL     OW 8479   5.726   6.702   5.740
 2527SOL    HW1 8480   5.762   6.635   5.805
 2527SOL    HW2 8481   5.717   6.791   5.785
 2528SOL     OW 8482   5.641   4.767   6.344
 2528SOL    HW1 8483   5.680   4.684   6.305
 2528SOL    HW2 8484   5.595   4.819   6.272
 2529SOL     OW 8485   6.788   6.580   6.854
 2529SOL    HW1 8486   6.717   6.643   6.825
 2529SOL    HW2 8487   6.877   6.612   6.822
 2530SOL     OW 8488   2.383   5.815   5.288
 2530SOL    HW1 8489   2.359   5.897   5.237
 2530SOL    HW2 8490   2.397   5.739   5.225
 2531SOL     OW 8491   6.267   6.426   5.107
 2531SOL    HW1 8492   6.336   6.361   5.076
 2531SOL    HW2 8493   6.176   6.385   5.098
 2532SOL     OW 8494   6.940   6.440   0.761
 2532SOL    HW1 8495   6.844   6.444   0.734
 2532SOL    HW2 8496   6.996   6.407   0.685
 2533SOL     OW 8497   4.710   0.057   3.755
 2533SOL    HW1 8498   4.705   6.984   3.770
 2533SOL    HW2 8499   4.625   0.100   3.783
 2534SOL     OW 8500   3.405   1.610   1.922
 2534SOL    HW1 8501   3.401   1.525   1.975
 2534SOL    HW2 8502   3.314   1.651   1.919
 2535SOL     OW 8503   3.540   3.183   6.270
 2535SOL    HW1 8504   3.442   3.202   6.266
 2535SOL    HW2 8505   3.582   3.211   6.184
 2536SOL     OW 8506   1.265   1.087   6.391
 2536SOL    HW1 8507   1.310   1.150   6.328
 2536SOL    HW2 8508   1.331   1.053   6.458
 2537SOL     OW 8509   3.009   6.772   6.545
 2537SOL    HW1 8510   2.973   6.679   6.555
 2537SOL    HW2 8511   3.060   6.797   6.627
 2538SOL     OW 8512   0.513   4.284   3.584
 2538SOL    HW1 8513   0.440   4.336   3.541
 2538SOL    HW2 8514   0.599   4.303   3.537
 2539SOL     OW 8515   5.267   0.807   4.136
 2539SOL    HW1 8516   5.334   0.846   4.200
 2539SOL    HW2 8517   5.258   0.868   4.057
 2540SOL     OW 8518   4.512   1.775   2.776
 2540SOL    HW1 8519   4.581   1.703   2.774
 2540SOL    HW2 8520   4.440   1.753   2.710
 2541SOL     OW 8521   3.239   0.383   5.184
 2541SOL    HW1 8522   3.304   0.459   5.182
 2541SOL    HW2 8523   3.151   0.416   5.219
 2542SOL     OW 8524   3.899   3.649   6.462
 2542SOL    HW1 8525   3.848   3.579   6.512
 2542SOL    HW2 8526   3.840   3.691   6.393
 2543SOL     OW 8527   0.525   0.752   3.685
 2543SOL    HW1 8528   0.530   0.661   3.725
 2543SOL    HW2 8529   0.494   0.818   3.753
 2544SOL     OW 8530   0.231   5.681   0.142
 2544SOL    HW1 8531   0.237   5.711   0.047
 2544SOL    HW2 8532   0.205   5.757   0.200
 2545SOL     OW 8533   1.981   6.825   1.936
 2545SOL    HW1 8534   1.959   6.814   1.839
 2545SOL    HW2 8535   2.050   6.757   1.962
 2546SOL     OW 8536   0.051   1.613   1.495
 2546SOL    HW1 8537   0.012   1.532   1.451
 2546SOL    HW2 8538   7.002   1.666   1.537
 2547SOL     OW 8539   0.752   4.366   6.664
 2547SOL    HW1 8540   0.757   4.429   6.586
 2547SOL    HW2 8541   0.792   4.278   6.639
 2548SOL     OW 8542   0.982   6.552   4.644
 2548SOL    HW1 8543   1.053   6.488   4.674
 2548SOL    HW2 8544   1.021   6.616   4.577
 2549SOL     OW 8545   0.894   0.109   1.350
 2549SOL    HW1 8546   0.835   0.080   1.426
 2549SOL    HW2 8547   0.842   0.168   1.288
 2550SOL     OW 8548   6.034   6.762   0.174
 2550SOL    HW1 8549   6.022   6.818   0.093
 2550SOL    HW2 8550   6.132   6.758   0.197
 2551SOL     OW 8551   3.361   4.258   0.108
 2551SOL    HW1 8552   3.406   4.335   0.153
 2551SOL    HW2 8553   3.263   4.275   0.102
 2552SOL     OW 8554   1.677   6.136   4.340
 2552SOL    HW1 8555   1.622   6.204   4.292
 2552SOL    HW2 8556   1.664   6.047   4.297
 2553SOL     OW 8557   3.899   3.796   5.902
 2553SOL    HW1 8558   3.915   3.733   5.826
 2553SOL    HW2 8559   3.982   3.803   5.958
 2554SOL     OW 8560   3.056   0.304   0.469
 2554SOL    HW1 8561   3.103   0.332   0.385
 2554SOL    HW2 8562   2.958   0.320   0.459
 2555SOL     OW 8563   6.399   1.393   4.873
 2555SOL    HW1 8564   6.373   1.490   4.872
 2555SOL    HW2 8565   6.452   1.374   4.956
 2556SOL     OW 8566   4.804   6.708   0.519
 2556SOL    HW1 8567   4.759   6.649   0.587
 2556SOL    HW2 8568   4.801   6.664   0.430
 2557SOL     OW 8569   1.477   3.776   0.739
 2557SOL    HW1 8570   1.576   3.762   0.746
 2557SOL    HW2 8571   1.434   3.755   0.827
 2558SOL     OW 8572   4.867   1.042   4.687
 2558SOL    HW1 8573   4.823   1.092   4.761
 2558SOL    HW2 8574   4.872   1.100   4.605
 2559SOL     OW 8575   1.008   4.374   5.328
 2559SOL    HW1 8576   0.916   4.374   5.288
 2559SOL    HW2 8577   1.013   4.444   5.399
 2560SOL     OW 8578   5.584   2.454   5.712
 2560SOL    HW1 8579   5.502   2.409   5.678
 2560SOL    HW2 8580   5.663   2.424   5.659
 2561SOL     OW 8581   2.504   4.890   5.108
 2561SOL    HW1 8582   2.586   4.934   5.071
 2561SOL    HW2 8583   2.530   4.806   5.154
 2562SOL     OW 8584   2.688   5.077   1.473
 2562SOL    HW1 8585   2.743   5.031   1.403
 2562SOL    HW2 8586   2.730   5.165   1.496
 2563SOL     OW 8587   3.379   1.437   0.655
 2563SOL    HW1 8588   3.294   1.489   0.657
 2563SOL    HW2 8589   3.453   1.492   0.694
 2564SOL     OW 8590   1.994   5.683   6.942
 2564SOL    HW1 8591   2.011   5.677   0.015
 2564SOL    HW2 8592   2.059   5.624   6.893
 2565SOL     OW 8593   1.713   0.130   6.822
 2565SOL    HW1 8594   1.711   0.204   6.755
 2565SOL    HW2 8595   1.656   0.154   6.900
 2566SOL     OW 8596   2.401   0.035   1.318
 2566SOL    HW1 8597   2.397   0.135   1.309
 2566SOL    HW2 8598   2.345   0.006   1.394
 2567SOL     OW 8599   0.817   0.370   0.430
 2567SOL    HW1 8600   0.884   0.361   0.355
 2567SOL    HW2 8601   0.865   0.364   0.518
 2568SOL     OW 8602   4.769   1.923   6.343
 2568SOL    HW1 8603   4.680   1.967   6.356
 2568SOL    HW2 8604   4.758   1.840   6.289
 2569SOL     OW 8605   2.695   0.381   2.883
 2569SOL    HW1 8606   2.607   0.335   2.891
 2569SOL    HW2 8607   2.752   0.359   2.962
 2570SOL     OW 8608   5.454   0.430   5.771
 2570SOL    HW1 8609   5.461   0.472   5.681
 2570SOL    HW2 8610   5.477   0.333   5.764
 2571SOL     OW 8611   2.397   5.128   4.578
 2571SOL    HW1 8612   2.407   5.095   4.671
 2571SOL    HW2 8613   2.323   5.196   4.575
 2572SOL     OW 8614   2.695   5.876   1.903
 2572SOL    HW1 8615   2.785   5.902   1.939
 2572SOL    HW2 8616   2.656   5.954   1.853
 2573SOL     OW 8617   0.813   1.772   0.872
 2573SOL    HW1 8618   0.720   1.754   0.907
 2573SOL    HW2 8619   0.808   1.796   0.775
 2574SOL     OW 8620   5.515   4.068   0.632
 2574SOL    HW1 8621   5.437   4.066   0.694
 2574SOL    HW2 8622   5.588   4.124   0.673
 2575SOL     OW 8623   5.319   5.733   7.016
 2575SOL    HW1 8624   5.353   5.826   7.006
 2575SOL    HW2 8625   5.361   5.690   0.071
 2576SOL     OW 8626   4.511   6.438   4.148
 2576SOL    HW1 8627   4.544   6.345   4.134
 2576SOL    HW2 8628   4.588   6.499   4.165
 2577SOL     OW 8629   3.255   5.827   2.417
 2577SOL    HW1 8630   3.166   5.843   2.375
 2577SOL    HW2 8631   3.323   5.887   2.376
 2578SOL     OW 8632   4.031   1.828   3.839
 2578SOL    HW1 8633   3.952   1.881   3.808
 2578SOL    HW2 8634   4.004   1.769   3.915
 2579SOL     OW 8635   0.816   6.451   3.663
 2579SOL    HW1 8636   0.846   6.361   3.694
 2579SOL    HW2 8637   0.766   6.497   3.736
 2580SOL     OW 8638   2.430   4.626   6.815
 2580SOL    HW1 8639   2.416   4.674   6.728
 2580SOL    HW2 8640   2.373   4.545   6.818
 2581SOL     OW 8641   2.625   5.435   1.587
 2581SOL    HW1 8642   2.627   5.526   1.545
 2581SOL    HW2 8643   2.531   5.401   1.586
 2582SOL     OW 8644   0.288   4.378   1.822
 2582SOL    HW1 8645   0.199   4.423   1.819
 2582SOL    HW2 8646   0.287   4.305   1.890
 2583SOL     OW 8647   0.680   1.314   6.322
 2583SOL    HW1 8648   0.730   1.229   6.340
 2583SOL    HW2 8649   0.701   1.347   6.230
 2584SOL     OW 8650   3.991   5.397   6.108
 2584SOL    HW1 8651   4.043   5.471   6.066
 2584SOL    HW2 8652   4.017   5.310   6.067
 2585SOL     OW 8653   3.116   3.423   0.570
 2585SOL    HW1 8654   3.192   3.358   0.563
 2585SOL    HW2 8655   3.141   3.508   0.524
 2586SOL     OW 8656   3.137   0.885   5.690
 2586SOL    HW1 8657   3.162   0.954   5.759
 2586SOL    HW2 8658   3.091   0.930   5.613
 2587SOL     OW 8659   6.405   1.046   3.560
 2587SOL    HW1 8660   6.397   0.956   3.516
 2587SOL    HW2 8661   6.477   1.099   3.515
 2588SOL     OW 8662   3.963   2.103   5.753
 2588SOL    HW1 8663   3.922   2.094   5.844
 2588SOL    HW2 8664   3.984   2.200   5.736
 2589SOL     OW 8665   1.731   0.042   5.653
 2589SOL    HW1 8666   1.785   0.089   5.723
 2589SOL    HW2 8667   1.684   6.990   5.694
 2590SOL     OW 8668   2.905   5.191   0.227
 2590SOL    HW1 8669   2.856   5.251   0.163
 2590SOL    HW2 8670   2.966   5.131   0.176
 2591SOL     OW 8671   6.545   5.093   3.338
 2591SOL    HW1 8672   6.601   5.033   3.394
 2591SOL    HW2 8673   6.538   5.056   3.246
 2592SOL     OW 8674   2.880   4.753   6.530
 2592SOL    HW1 8675   2.785   4.728   6.549
 2592SOL    HW2 8676   2.940   4.683   6.568
 2593SOL     OW 8677   3.208   5.901   0.811
 2593SOL    HW1 8678   3.253   5.829   0.864
 2593SOL    HW2 8679   3.261   5.921   0.729
 2594SOL     OW 8680   2.482   4.159   5.856
 2594SOL    HW1 8681   2.428   4.243   5.863
 2594SOL    HW2 8682   2.573   4.174   5.893
 2595SOL     OW 8683   0.079   1.254   3.878
 2595SOL    HW1 8684   0.148   1.236   3.808
 2595SOL    HW2 8685   0.029   1.169   3.897
 2596SOL     OW 8686   2.476   2.424   1.292
 2596SOL    HW1 8687   2.416   2.434   1.371
 2596SOL    HW2 8688   2.483   2.327   1.268
 2597SOL     OW 8689   0.417   5.314   6.392
 2597SOL    HW1 8690   0.510   5.333   6.359
 2597SOL    HW2 8691   0.420   5.289   6.488
 2598SOL     OW 8692   6.686   1.437   1.814
 2598SOL    HW1 8693   6.675   1.535   1.798
 2598SOL    HW2 8694   6.656   1.387   1.732
 2599SOL     OW 8695   1.676   6.124   0.610
 2599SOL    HW1 8696   1.650   6.038   0.566
 2599SOL    HW2 8697   1.744   6.171   0.554
 2600SOL     OW 8698   5.923   2.498   4.475
 2600SOL    HW1 8699   5.929   2.494   4.375
 2600SOL    HW2 8700   5.919   2.594   4.504
 2601SOL     OW 8701   1.370   1.737   1.185
 2601SOL    HW1 8702   1.358   1.826   1.140
 2601SOL    HW2 8703   1.304   1.672   1.149
 2602SOL     OW 8704   1.783   4.668   4.628
 2602SOL    HW1 8705   1.802   4.628   4.718
 2602SOL    HW2 8706   1.869   4.692   4.583
 2603SOL     OW 8707   2.738   0.794   2.861
 2603SOL    HW1 8708   2.810   0.800   2.792
 2603SOL    HW2 8709   2.704   0.885   2.881
 2604SOL     OW 8710   5.154   1.772   2.660
 2604SOL    HW1 8711   5.094   1.719   2.600
 2604SOL    HW2 8712   5.195   1.847   2.608
 2605SOL     OW 8713   1.772   3.119   2.694
 2605SOL    HW1 8714   1.729   3.041   2.648
 2605SOL    HW2 8715   1.791   3.190   2.626
 2606SOL     OW 8716   5.738   5.226   1.650
 2606SOL    HW1 8717   5.834   5.215   1.677
 2606SOL    HW2 8718   5.727   5.197   1.555
 2607SOL     OW 8719   0.730   1.232   0.974
 2607SOL    HW1 8720   0.789   1.285   0.913
 2607SOL    HW2 8721   0.640   1.275   0.978
 2608SOL     OW 8722   3.152   5.717   6.767
 2608SOL    HW1 8723   3.207   5.634   6.756
 2608SOL    HW2 8724   3.098   5.711   6.851
 2609SOL     OW 8725   6.526   1.444   1.368
 2609SOL    HW1 8726   6.449   1.382   1.348
 2609SOL    HW2 8727   6.573   1.413   1.450
 2610SOL     OW 8728   1.083   4.413   3.917
 2610SOL    HW1 8729   1.062   4.502   3.958
 2610SOL    HW2 8730   1.179   4.412   3.886
 2611SOL     OW 8731   4.694   6.212   0.125
 2611SOL    HW1 8732   4.790   6.221   0.153
 2611SOL    HW2 8733   4.652   6.303   0.123
 2612SOL     OW 8734   5.323   6.921   4.105
 2612SOL    HW1 8735   5.246   6.861   4.129
 2612SOL    HW2 8736   5.394   6.866   4.061
 2613SOL     OW 8737   2.105   4.866   6.386
 2613SOL    HW1 8738   2.179   4.860   6.452
 2613SOL    HW2 8739   2.033   4.800   6.411
 2614SOL     OW 8740   5.903   1.382   6.433
 2614SOL    HW1 8741   5.897   1.465   6.378
 2614SOL    HW2 8742   5.854   1.308   6.388
 2615SOL     OW 8743   0.157   2.641   1.927
 2615SOL    HW1 8744   0.090   2.574   1.960
 2615SOL    HW2 8745   0.141   2.660   1.831
 2616SOL     OW 8746   0.983   1.600   5.554
 2616SOL    HW1 8747   0.900   1.599   5.497
 2616SOL    HW2 8748   1.043   1.675   5.525
 2617SOL     OW 8749   4.976   0.488   0.921
 2617SOL    HW1 8750   4.994   0.403   0.971
 2617SOL    HW2 8751   5.034   0.493   0.841
 2618SOL     OW 8752   1.200   5.874   4.901
 2618SOL    HW1 8753   1.184   5.873   4.802
 2618SOL    HW2 8754   1.171   5.961   4.939
 2619SOL     OW 8755   3.883   1.979   1.847
 2619SOL    HW1 8756   3.927   2.044   1.909
 2619SOL    HW2 8757   3.856   1.898   1.899
 2620SOL     OW 8758   6.312   6.390   1.867
 2620SOL    HW1 8759   6.369   6.335   1.807
 2620SOL    HW2 8760   6.242   6.331   1.910
 2621SOL     OW 8761   0.476   4.842   2.902
 2621SOL    HW1 8762   0.436   4.760   2.943
 2621SOL    HW2 8763   0.460   4.840   2.803
 2622SOL     OW 8764   3.343   3.289   5.878
 2622SOL    HW1 8765   3.332   3.252   5.970
 2622SOL    HW2 8766   3.349   3.214   5.813
 2623SOL     OW 8767   0.533   0.188   3.832
 2623SOL    HW1 8768   0.436   0.213   3.832
 2623SOL    HW2 8769   0.582   0.244   3.899
 2624SOL     OW 8770   6.590   2.268   4.505
 2624SOL    HW1 8771   6.539   2.196   4.457
 2624SOL    HW2 8772   6.538   2.297   4.586
 2625SOL     OW 8773   1.958   5.234   5.484
 2625SOL    HW1 8774   1.907   5.283   5.554
 2625SOL    HW2 8775   2.034   5.185   5.526
 2626SOL     OW 8776   6.529   0.086   5.479
 2626SOL    HW1 8777   6.569   0.178   5.485
 2626SOL    HW2 8778   6.478   0.078   5.394
 2627SOL     OW 8779   1.186   0.281   6.480
 2627SOL    HW1 8780   1.259   0.243   6.423
 2627SOL    HW2 8781   1.209   0.268   6.577
 2628SOL     OW 8782   1.831   3.501   4.048
 2628SOL    HW1 8783   1.884   3.428   4.090
 2628SOL    HW2 8784   1.890   3.554   3.987
 2629SOL     OW 8785   3.851   3.639   3.307
 2629SOL    HW1 8786   3.812   3.636   3.215
 2629SOL    HW2 8787   3.800   3.577   3.366
 2630SOL     OW 8788   3.606   1.093   3.563
 2630SOL    HW1 8789   3.690   1.039   3.558
 2630SOL    HW2 8790   3.629   1.190   3.555
 2631SOL     OW 8791   5.894   0.706   6.617
 2631SOL    HW1 8792   5.810   0.673   6.661
 2631SOL    HW2 8793   5.886   0.804   6.600
 2632SOL     OW 8794   5.666   4.252   1.664
 2632SOL    HW1 8795   5.762   4.260   1.692
 2632SOL    HW2 8796   5.640   4.333   1.611
 2633SOL     OW 8797   6.669   2.617   5.481
 2633SOL    HW1 8798   6.747   2.617   5.418
 2633SOL    HW2 8799   6.585   2.597   5.430
 2634SOL     OW 8800   0.881   6.034   4.471
 2634SOL    HW1 8801   0.811   6.075   4.528
 2634SOL    HW2 8802   0.847   5.949   4.430
 2635SOL     OW 8803   5.974   5.286   3.924
 2635SOL    HW1 8804   5.985   5.244   3.834
 2635SOL    HW2 8805   5.883   5.265   3.960
 2636SOL     OW 8806   3.267   1.342   6.498
 2636SOL    HW1 8807   3.263   1.440   6.518
 2636SOL    HW2 8808   3.329   1.297   6.563
 2637SOL     OW 8809   0.046   1.580   3.719
 2637SOL    HW1 8810   0.020   1.579   3.815
 2637SOL    HW2 8811   0.010   1.499   3.674
 2638SOL     OW 8812   0.438   0.616   4.687
 2638SOL    HW1 8813   0.377   0.634   4.609
 2638SOL    HW2 8814   0.383   0.596   4.768
 2639SOL     OW 8815   4.779   5.102   5.355
 2639SOL    HW1 8816   4.694   5.147   5.384
 2639SOL    HW2 8817   4.839   5.170   5.311
 2640SOL     OW 8818   0.338   0.062   5.126
 2640SOL    HW1 8819   0.420   0.015   5.158
 2640SOL    HW2 8820   0.319   0.035   5.032
 2641SOL     OW 8821   4.921   2.642   0.644
 2641SOL    HW1 8822   4.983   2.696   0.700
 2641SOL    HW2 8823   4.954   2.547   0.638
 2642SOL     OW 8824   0.075   0.705   3.734
 2642SOL    HW1 8825   0.140   0.709   3.658
 2642SOL    HW2 8826   7.023   0.646   3.709
 2643SOL     OW 8827   0.433   3.315   4.079
 2643SOL    HW1 8828   0.460   3.226   4.042
 2643SOL    HW2 8829   0.492   3.387   4.042
 2644SOL     OW 8830   4.758   5.605   5.167
 2644SOL    HW1 8831   4.713   5.628   5.254
 2644SOL    HW2 8832   4.713   5.525   5.126
 2645SOL     OW 8833   4.841   4.785   4.100
 2645SOL    HW1 8834   4.901   4.862   4.121
 2645SOL    HW2 8835   4.842   4.767   4.002
 2646SOL     OW 8836   0.812   4.104   6.613
 2646SOL    HW1 8837   0.853   4.067   6.529
 2646SOL    HW2 8838   0.736   4.046   6.641
 2647SOL     OW 8839   5.120   0.080   1.952
 2647SOL    HW1 8840   5.137   0.088   2.050
 2647SOL    HW2 8841   5.046   0.143   1.926
 2648SOL     OW 8842   0.838   0.034   3.422
 2648SOL    HW1 8843   0.808   0.042   3.327
 2648SOL    HW2 8844   0.764   0.063   3.483
 2649SOL     OW 8845   5.237   3.106   1.836
 2649SOL    HW1 8846   5.305   3.045   1.876
 2649SOL    HW2 8847   5.145   3.072   1.857
 2650SOL     OW 8848   2.940   5.619   4.715
 2650SOL    HW1 8849   2.959   5.523   4.737
 2650SOL    HW2 8850   2.887   5.660   4.789
 2651SOL     OW 8851   3.507   1.717   6.343
 2651SOL    HW1 8852   3.434   1.760   6.289
 2651SOL    HW2 8853   3.560   1.656   6.283
 2652SOL     OW 8854   4.495   3.579   5.534
 2652SOL    HW1 8855   4.542   3.643   5.472
 2652SOL    HW2 8856   4.562   3.522   5.581
 2653SOL     OW 8857   3.737   6.061   5.767
 2653SOL    HW1 8858   3.754   5.985   5.705
 2653SOL    HW2 8859   3.670   6.033   5.836
 2654SOL     OW 8860   5.145   6.762   0.767
 2654SOL    HW1 8861   5.111   6.750   0.673
 2654SOL    HW2 8862   5.216   6.695   0.786
 2655SOL     OW 8863   4.659   6.219   3.392
 2655SOL    HW1 8864   4.671   6.144   3.457
 2655SOL    HW2 8865   4.629   6.301   3.441
 2656SOL     OW 8866   3.793   5.770   3.840
 2656SOL    HW1 8867   3.853   5.839   3.800
 2656SOL    HW2 8868   3.726   5.741   3.773
 2657SOL     OW 8869   1.868   3.158   0.425
 2657SOL    HW1 8870   1.842   3.061   0.431
 2657SOL    HW2 8871   1.788   3.212   0.401
 2658SOL     OW 8872   4.513   4.123   6.547
 2658SOL    HW1 8873   4.584   4.189   6.525
 2658SOL    HW2 8874   4.501   4.119   6.647
 2659SOL     OW 8875   5.626   2.757   4.984
 2659SOL    HW1 8876   5.558   2.821   4.948
 2659SOL    HW2 8877   5.653   2.693   4.912
 2660SOL     OW 8878   0.428   1.099   0.787
 2660SOL    HW1 8879   0.396   1.015   0.832
 2660SOL    HW2 8880   0.371   1.118   0.707
 2661SOL     OW 8881   1.207   0.799   2.208
 2661SOL    HW1 8882   1.252   0.857   2.140
 2661SOL    HW2 8883   1.259   0.802   2.294
 2662SOL     OW 8884   3.219   0.634   3.780
 2662SOL    HW1 8885   3.170   0.721   3.773
 2662SOL    HW2 8886   3.155   0.558   3.766
 2663SOL     OW 8887   3.240   6.934   5.974
 2663SOL    HW1 8888   3.278   6.901   5.888
 2663SOL    HW2 8889   3.152   6.889   5.992
 2664SOL     OW 8890   3.908   2.359   5.443
 2664SOL    HW1 8891   3.956   2.425   5.501
 2664SOL    HW2 8892   3.811   2.359   5.467
 2665SOL     OW 8893   2.476   3.497   5.474
 2665SOL    HW1 8894   2.457   3.416   5.418
 2665SOL    HW2 8895   2.515   3.569   5.417
 2666SOL     OW 8896   2.030   2.980   2.275
 2666SOL    HW1 8897   2.107   2.918   2.288
 2666SOL    HW2 8898   2.053   3.070   2.314
 2667SOL     OW 8899   6.573   4.625   3.757
 2667SOL    HW1 8900   6.525   4.640   3.844
 2667SOL    HW2 8901   6.596   4.528   3.749
 2668SOL     OW 8902   5.440   2.217   4.508
 2668SOL    HW1 8903   5.405   2.257   4.593
 2668SOL    HW2 8904   5.487   2.287   4.455
 2669SOL     OW 8905   2.734   6.101   6.697
 2669SOL    HW1 8906   2.724   6.182   6.755
 2669SOL    HW2 8907   2.664   6.034   6.720
 2670SOL     OW 8908   6.372   1.604   5.584
 2670SOL    HW1 8909   6.360   1.598   5.683
 2670SOL    HW2 8910   6.363   1.699   5.554
 2671SOL     OW 8911   4.390   6.117   6.423
 2671SOL    HW1 8912   4.464   6.072   6.372
 2671SOL    HW2 8913   4.381   6.211   6.390
 2672SOL     OW 8914   3.566   1.167   1.871
 2672SOL    HW1 8915   3.532   1.074   1.883
 2672SOL    HW2 8916   3.664   1.165   1.854
 2673SOL     OW 8917   5.059   6.844   2.827
 2673SOL    HW1 8918   5.092   6.936   2.849
 2673SOL    HW2 8919   4.959   6.843   2.829
 2674SOL     OW 8920   1.544   5.209   3.943
 2674SOL    HW1 8921   1.526   5.126   3.890
 2674SOL    HW2 8922   1.482   5.281   3.913
 2675SOL     OW 8923   0.261   6.715   3.450
 2675SOL    HW1 8924   0.227   6.671   3.533
 2675SOL    HW2 8925   0.350   6.756   3.467
 2676SOL     OW 8926   3.114   3.962   2.205
 2676SOL    HW1 8927   3.200   4.012   2.210
 2676SOL    HW2 8928   3.066   3.969   2.292
 2677SOL     OW 8929   2.582   4.553   0.768
 2677SOL    HW1 8930   2.635   4.469   0.782
 2677SOL    HW2 8931   2.510   4.559   0.836
 2678SOL     OW 8932   7.025   2.254   2.477
 2678SOL    HW1 8933   0.041   2.279   2.564
 2678SOL    HW2 8934   0.067   2.204   2.421
 2679SOL     OW 8935   2.072   5.636   2.124
 2679SOL    HW1 8936   1.977   5.628   2.156
 2679SOL    HW2 8937   2.113   5.545   2.122
 2680SOL     OW 8938   1.027   2.480   0.312
 2680SOL    HW1 8939   1.075   2.395   0.291
 2680SOL    HW2 8940   0.966   2.466   0.389
 2681SOL     OW 8941   1.327   2.657   5.145
 2681SOL    HW1 8942   1.321   2.579   5.081
 2681SOL    HW2 8943   1.244   2.660   5.200
 2682SOL     OW 8944   4.834   4.036   2.269
 2682SOL    HW1 8945   4.846   4.045   2.367
 2682SOL    HW2 8946   4.801   4.123   2.231
 2683SOL     OW 8947   2.133   4.404   2.700
 2683SOL    HW1 8948   2.047   4.401   2.751
 2683SOL    HW2 8949   2.117   4.372   2.607
 2684SOL     OW 8950   5.243   6.767   2.259
 2684SOL    HW1 8951   5.318   6.795   2.199
 2684SOL    HW2 8952   5.280   6.714   2.335
 2685SOL     OW 8953   6.751   4.746   4.892
 2685SOL    HW1 8954   6.748   4.842   4.867
 2685SOL    HW2 8955   6.659   4.706   4.882
 2686SOL     OW 8956   1.150   1.495   4.781
 2686SOL    HW1 8957   1.107   1.408   4.755
 2686SOL    HW2 8958   1.079   1.560   4.808
 2687SOL     OW 8959   3.997   0.677   1.736
 2687SOL    HW1 8960   3.957   0.693   1.826
 2687SOL    HW2 8961   3.929   0.636   1.676
 2688SOL     OW 8962   3.303   1.942   0.925
 2688SOL    HW1 8963   3.376   2.001   0.959
 2688SOL    HW2 8964   3.316   1.927   0.826
 2689SOL     OW 8965   0.580   4.281   2.375
 2689SOL    HW1 8966   0.676   4.300   2.356
 2689SOL    HW2 8967   0.541   4.228   2.300
 2690SOL     OW 8968   3.123   2.514   6.459
 2690SOL    HW1 8969   3.204   2.526   6.401
 2690SOL    HW2 8970   3.144   2.546   6.551
 2691SOL     OW 8971   0.292   4.675   3.701
 2691SOL    HW1 8972   0.261   4.764   3.735
 2691SOL    HW2 8973   0.216   4.610   3.705
 2692SOL     OW 8974   2.808   6.251   3.248
 2692SOL    HW1 8975   2.899   6.288   3.268
 2692SOL    HW2 8976   2.814   6.151   3.243
 2693SOL     OW 8977   1.853   4.977   3.840
 2693SOL    HW1 8978   1.926   4.991   3.774
 2693SOL    HW2 8979   1.870   5.033   3.921
 2694SOL     OW 8980   4.006   6.172   3.558
 2694SOL    HW1 8981   3.941   6.245   3.578
 2694SOL    HW2 8982   4.098   6.200   3.587
 2695SOL     OW 8983   6.387   6.988   3.177
 2695SOL    HW1 8984   6.446   0.044   3.173
 2695SOL    HW2 8985   6.441   6.909   3.206
 2696SOL     OW 8986   4.573   3.846   6.555
 2696SOL    HW1 8987   4.560   3.945   6.546
 2696SOL    HW2 8988   4.510   3.798   6.493
 2697SOL     OW 8989   4.226   1.607   0.912
 2697SOL    HW1 8990   4.278   1.687   0.883
 2697SOL    HW2 8991   4.222   1.540   0.838
 2698SOL     OW 8992   1.373   4.901   6.142
 2698SOL    HW1 8993   1.291   4.938   6.098
 2698SOL    HW2 8994   1.346   4.834   6.210
 2699SOL     OW 8995   2.925   5.945   1.996
 2699SOL    HW1 8996   2.923   6.034   1.952
 2699SOL    HW2 8997   3.019   5.918   2.015
 2700SOL     OW 8998   2.535   1.907   1.017
 2700SOL    HW1 8999   2.458   1.856   0.978
 2700SOL    HW2 9000   2.549   1.879   1.112
 2701SOL     OW 9001   5.157   2.097   4.866
 2701SOL    HW1 9002   5.084   2.104   4.934
 2701SOL    HW2 9003   5.149   2.172   4.801
 2702SOL     OW 9004   1.694   1.614   3.982
 2702SOL    HW1 9005   1.726   1.532   4.031
 2702SOL    HW2 9006   1.761   1.639   3.912
 2703SOL     OW 9007   1.457   5.644   1.286
 2703SOL    HW1 9008   1.433   5.704   1.209
 2703SOL    HW2 9009   1.375   5.594   1.315
 2704SOL     OW 9010   6.889   5.617   2.982
 2704SOL    HW1 9011   6.888   5.573   3.072
 2704SOL    HW2 9012   6.919   5.551   2.913
 2705SOL     OW 9013   6.762   1.499   5.505
 2705SOL    HW1 9014   6.794   1.420   5.453
 2705SOL    HW2 9015   6.804   1.582   5.468
 2706SOL     OW 9016   5.904   4.387   4.135
 2706SOL    HW1 9017   5.937   4.391   4.229
 2706SOL    HW2 9018   5.855   4.301   4.121
 2707SOL     OW 9019   4.227   6.978   3.405
 2707SOL    HW1 9020   4.176   6.987   3.320
 2707SOL    HW2 9021   4.202   6.892   3.449
 2708SOL     OW 9022   5.996   3.201   7.013
 2708SOL    HW1 9023   5.999   3.174   0.084
 2708SOL    HW2 9024   5.909   3.174   6.973
 2709SOL     OW 9025   5.087   6.867   6.317
 2709SOL    HW1 9026   5.172   6.829   6.352
 2709SOL    HW2 9027   5.019   6.794   6.307
 2710SOL     OW 9028   1.548   2.804   3.769
 2710SOL    HW1 9029   1.505   2.761   3.848
 2710SOL    HW2 9030   1.499   2.778   3.686
 2711SOL     OW 9031   3.225   2.106   3.682
 2711SOL    HW1 9032   3.302   2.132   3.625
 2711SOL    HW2 9033   3.169   2.038   3.634
 2712SOL     OW 9034   3.420   5.511   2.289
 2712SOL    HW1 9035   3.333   5.543   2.253
 2712SOL    HW2 9036   3.405   5.426   2.340
 2713SOL     OW 9037   4.567   4.710   6.425
 2713SOL    HW1 9038   4.562   4.766   6.343
 2713SOL    HW2 9039   4.625   4.755   6.493
 2714SOL     OW 9040   3.763   4.092   6.621
 2714SOL    HW1 9041   3.756   4.024   6.695
 2714SOL    HW2 9042   3.785   4.045   6.536
 2715SOL     OW 9043   5.420   1.907   1.013
 2715SOL    HW1 9044   5.517   1.886   1.024
 2715SOL    HW2 9045   5.403   2.003   1.037
 2716SOL     OW 9046   4.445   2.311   2.700
 2716SOL    HW1 9047   4.348   2.327   2.716
 2716SOL    HW2 9048   4.473   2.360   2.617
 2717SOL     OW 9049   0.536   0.488   1.862
 2717SOL    HW1 9050   0.492   0.577   1.877
 2717SOL    HW2 9051   0.557   0.446   1.950
 2718SOL     OW 9052   0.414   1.326   5.255
 2718SOL    HW1 9053   0.368   1.292   5.173
 2718SOL    HW2 9054   0.408   1.426   5.257
 2719SOL     OW 9055   1.617   4.328   2.628
 2719SOL    HW1 9056   1.527   4.309   2.666
 2719SOL    HW2 9057   1.610   4.339   2.529
 2720SOL     OW 9058   0.713   6.894   5.062
 2720SOL    HW1 9059   0.775   6.950   5.006
 2720SOL    HW2 9060   0.759   6.869   5.147
 2721SOL     OW 9061   3.243   6.179   1.552
 2721SOL    HW1 9062   3.190   6.174   1.636
 2721SOL    HW2 9063   3.267   6.274   1.533
 2722SOL     OW 9064   4.694   5.635   6.590
 2722SOL    HW1 9065   4.712   5.610   6.495
 2722SOL    HW2 9066   4.760   5.590   6.650
 2723SOL     OW 9067   3.097   6.786   7.002
 2723SOL    HW1 9068   3.179   6.794   0.034
 2723SOL    HW2 9069   3.024   6.843   0.015
 2724SOL     OW 9070   1.371   5.748   6.231
 2724SOL    HW1 9071   1.391   5.658   6.192
 2724SOL    HW2 9072   1.337   5.737   6.324
 2725SOL     OW 9073   5.051   4.169   4.138
 2725SOL    HW1 9074   5.135   4.223   4.139
 2725SOL    HW2 9075   5.074   4.072   4.144
 2726SOL     OW 9076   0.980   1.920   1.092
 2726SOL    HW1 9077   0.962   1.857   1.168
 2726SOL    HW2 9078   0.915   1.903   1.018
 2727SOL     OW 9079   2.273   4.235   4.360
 2727SOL    HW1 9080   2.182   4.252   4.397
 2727SOL    HW2 9081   2.327   4.183   4.426
 2728SOL     OW 9082   5.514   6.103   6.463
 2728SOL    HW1 9083   5.472   6.017   6.493
 2728SOL    HW2 9084   5.563   6.144   6.540
 2729SOL     OW 9085   6.068   6.471   0.143
 2729SOL    HW1 9086   6.111   6.456   0.054
 2729SOL    HW2 9087   6.065   6.570   0.162
 2730SOL     OW 9088   0.563   5.521   1.743
 2730SOL    HW1 9089   0.632   5.517   1.814
 2730SOL    HW2 9090   0.491   5.454   1.763
 2731SOL     OW 9091   3.118   3.366   3.463
 2731SOL    HW1 9092   3.186   3.330   3.528
 2731SOL    HW2 9093   3.107   3.301   3.388
 2732SOL     OW 9094   4.911   1.398   1.282
 2732SOL    HW1 9095   4.928   1.459   1.360
 2732SOL    HW2 9096   4.993   1.345   1.262
 2733SOL     OW 9097   6.874   1.163   5.533
 2733SOL    HW1 9098   6.968   1.190   5.553
 2733SOL    HW2 9099   6.847   1.198   5.443
 2734SOL     OW 9100   3.581   6.351   1.898
 2734SOL    HW1 9101   3.661   6.383   1.948
 2734SOL    HW2 9102   3.610   6.313   1.810
 2735SOL     OW 9103   1.623   2.074   0.166
 2735SOL    HW1 9104   1.602   1.991   0.218
 2735SOL    HW2 9105   1.633   2.151   0.229
 2736SOL     OW 9106   5.488   6.070   4.462
 2736SOL    HW1 9107   5.575   6.024   4.448
 2736SOL    HW2 9108   5.497   6.140   4.532
 2737SOL     OW 9109   2.852   2.106   6.099
 2737SOL    HW1 9110   2.916   2.104   6.176
 2737SOL    HW2 9111   2.765   2.145   6.129
 2738SOL     OW 9112   5.903   0.374   1.678
 2738SOL    HW1 9113   5.933   0.351   1.585
 2738SOL    HW2 9114   5.818   0.426   1.674
 2739SOL     OW 9115   1.096   5.314   1.276
 2739SOL    HW1 9116   1.103   5.388   1.210
 2739SOL    HW2 9117   1.016   5.258   1.256
 2740SOL     OW 9118   0.437   5.229   2.517
 2740SOL    HW1 9119   0.514   5.286   2.488
 2740SOL    HW2 9120   0.405   5.260   2.607
 2741SOL     OW 9121   1.043   2.097   4.144
 2741SOL    HW1 9122   1.049   2.147   4.231
 2741SOL    HW2 9123   0.991   2.013   4.158
 2742SOL     OW 9124   3.235   4.742   1.856
 2742SOL    HW1 9125   3.182   4.682   1.917
 2742SOL    HW2 9126   3.331   4.739   1.882
 2743SOL     OW 9127   0.142   4.692   2.246
 2743SOL    HW1 9128   0.226   4.744   2.258
 2743SOL    HW2 9129   0.068   4.737   2.296
 2744SOL     OW 9130   3.579   3.447   2.236
 2744SOL    HW1 9131   3.665   3.497   2.223
 2744SOL    HW2 9132   3.596   3.369   2.296
 2745SOL     OW 9133   6.367   1.634   5.849
 2745SOL    HW1 9134   6.436   1.706   5.856
 2745SOL    HW2 9135   6.301   1.643   5.923
 2746SOL     OW 9136   0.827   1.110   4.154
 2746SOL    HW1 9137   0.773   1.192   4.140
 2746SOL    HW2 9138   0.924   1.132   4.144
 2747SOL     OW 9139   4.095   5.924   6.632
 2747SOL    HW1 9140   4.100   5.825   6.632
 2747SOL    HW2 9141   4.026   5.955   6.567
 2748SOL     OW 9142   4.574   0.689   1.462
 2748SOL    HW1 9143   4.583   0.786   1.440
 2748SOL    HW2 9144   4.591   0.634   1.380
 2749SOL     OW 9145   1.218   3.715   0.422
 2749SOL    HW1 9146   1.261   3.798   0.457
 2749SOL    HW2 9147   1.287   3.644   0.409
 2750SOL     OW 9148   2.514   5.016   1.761
 2750SOL    HW1 9149   2.601   5.022   1.713
 2750SOL    HW2 9150   2.487   4.919   1.768
 2751SOL     OW 9151   1.885   1.620   1.533
 2751SOL    HW1 9152   1.853   1.699   1.586
 2751SOL    HW2 9153   1.974   1.640   1.492
 2752SOL     OW 9154   4.425   4.390   6.206
 2752SOL    HW1 9155   4.414   4.366   6.302
 2752SOL    HW2 9156   4.351   4.450   6.177
 2753SOL     OW 9157   6.016   6.317   5.104
 2753SOL    HW1 9158   5.937   6.376   5.121
 2753SOL    HW2 9159   6.020   6.246   5.174
 2754SOL     OW 9160   0.922   6.700   6.641
 2754SOL    HW1 9161   0.855   6.658   6.701
 2754SOL    HW2 9162   0.876   6.741   6.563
 2755SOL     OW 9163   2.819   6.868   2.911
 2755SOL    HW1 9164   2.726   6.836   2.891
 2755SOL    HW2 9165   2.856   6.913   2.830
 2756SOL     OW 9166   4.375   6.264   0.786
 2756SOL    HW1 9167   4.290   6.224   0.751
 2756SOL    HW2 9168   4.436   6.284   0.709
 2757SOL     OW 9169   1.835   5.579   0.567
 2757SOL    HW1 9170   1.816   5.525   0.649
 2757SOL    HW2 9171   1.754   5.580   0.509
 2758SOL     OW 9172   5.272   0.324   4.699
 2758SOL    HW1 9173   5.237   0.319   4.793
 2758SOL    HW2 9174   5.308   0.415   4.682
 2759SOL     OW 9175   5.272   6.311   4.011
 2759SOL    HW1 9176   5.301   6.253   4.087
 2759SOL    HW2 9177   5.176   6.336   4.022
 2760SOL     OW 9178   1.346   5.460   2.367
 2760SOL    HW1 9179   1.312   5.553   2.351
 2760SOL    HW2 9180   1.441   5.454   2.337
 2761SOL     OW 9181   1.885   4.740   4.019
 2761SOL    HW1 9182   1.982   4.743   3.996
 2761SOL    HW2 9183   1.834   4.802   3.959
 2762SOL     OW 9184   0.678   0.814   5.487
 2762SOL    HW1 9185   0.760   0.813   5.543
 2762SOL    HW2 9186   0.634   0.904   5.494
 2763SOL     OW 9187   5.617   2.113   3.935
 2763SOL    HW1 9188   5.627   2.073   3.844
 2763SOL    HW2 9189   5.569   2.200   3.928
 2764SOL     OW 9190   5.797   0.012   1.214
 2764SOL    HW1 9191   5.724   0.069   1.176
 2764SOL    HW2 9192   5.816   0.041   1.308
 2765SOL     OW 9193   5.338   0.646   1.362
 2765SOL    HW1 9194   5.336   0.618   1.267
 2765SOL    HW2 9195   5.274   0.722   1.377
 2766SOL     OW 9196   5.616   1.818   0.556
 2766SOL    HW1 9197   5.698   1.868   0.528
 2766SOL    HW2 9198   5.541   1.839   0.493
 2767SOL     OW 9199   0.025   5.165   0.095
 2767SOL    HW1 9200   6.961   5.190   0.057
 2767SOL    HW2 9201   0.097   5.219   0.052
 2768SOL     OW 9202   5.633   1.513   0.284
 2768SOL    HW1 9203   5.717   1.495   0.334
 2768SOL    HW2 9204   5.628   1.453   0.204
 2769SOL     OW 9205   6.250   4.483   4.136
 2769SOL    HW1 9206   6.251   4.571   4.183
 2769SOL    HW2 9207   6.249   4.498   4.037
 2770SOL     OW 9208   1.623   5.797   6.561
 2770SOL    HW1 9209   1.698   5.848   6.519
 2770SOL    HW2 9210   1.619   5.705   6.523
 2771SOL     OW 9211   5.321   1.325   1.714
 2771SOL    HW1 9212   5.333   1.414   1.759
 2771SOL    HW2 9213   5.263   1.266   1.771
 2772SOL     OW 9214   4.668   2.317   0.464
 2772SOL    HW1 9215   4.672   2.401   0.411
 2772SOL    HW2 9216   4.583   2.268   0.443
 2773SOL     OW 9217   4.540   3.172   5.956
 2773SOL    HW1 9218   4.528   3.246   6.023
 2773SOL    HW2 9219   4.468   3.177   5.887
 2774SOL     OW 9220   6.159   3.129   3.130
 2774SOL    HW1 9221   6.064   3.103   3.111
 2774SOL    HW2 9222   6.192   3.191   3.059
 2775SOL     OW 9223   6.846   5.834   0.551
 2775SOL    HW1 9224   6.782   5.907   0.527
 2775SOL    HW2 9225   6.838   5.813   0.648
 2776SOL     OW 9226   4.190   5.691   5.469
 2776SOL    HW1 9227   4.133   5.703   5.550
 2776SOL    HW2 9228   4.148   5.738   5.392
 2777SOL     OW 9229   3.202   1.201   2.073
 2777SOL    HW1 9230   3.212   1.103   2.092
 2777SOL    HW2 9231   3.174   1.249   2.156
 2778SOL     OW 9232   2.102   1.088   5.305
 2778SOL    HW1 9233   2.156   1.076   5.222
 2778SOL    HW2 9234   2.005   1.076   5.284
 2779SOL     OW 9235   4.465   0.348   0.563
 2779SOL    HW1 9236   4.463   0.346   0.663
 2779SOL    HW2 9237   4.441   0.439   0.530
 2780SOL     OW 9238   6.115   5.848   5.870
 2780SOL    HW1 9239   6.097   5.866   5.966
 2780SOL    HW2 9240   6.094   5.753   5.849
 2781SOL     OW 9241   6.230   5.473   1.974
 2781SOL    HW1 9242   6.204   5.519   2.058
 2781SOL    HW2 9243   6.251   5.541   1.903
 2782SOL     OW 9244   3.295   2.853   6.368
 2782SOL    HW1 9245   3.218   2.880   6.311
 2782SOL    HW2 9246   3.277   2.877   6.463
 2783SOL     OW 9247   5.940   3.442   5.040
 2783SOL    HW1 9248   5.960   3.366   4.978
 2783SOL    HW2 9249   6.000   3.519   5.016
 2784SOL     OW 9250   2.531   1.922   1.350
 2784SOL    HW1 9251   2.473   1.841   1.355
 2784SOL    HW2 9252   2.495   1.994   1.409
 2785SOL     OW 9253   6.365   0.948   0.084
 2785SOL    HW1 9254   6.279   0.906   0.114
 2785SOL    HW2 9255   6.371   0.944   7.009
 2786SOL     OW 9256   3.309   6.979   1.440
 2786SOL    HW1 9257   3.294   6.934   1.352
 2786SOL    HW2 9258   3.324   0.052   1.425
 2787SOL     OW 9259   2.627   3.325   6.776
 2787SOL    HW1 9260   2.575   3.245   6.745
 2787SOL    HW2 9261   2.611   3.401   6.713
 2788SOL     OW 9262   1.901   3.841   0.216
 2788SOL    HW1 9263   1.916   3.936   0.241
 2788SOL    HW2 9264   1.879   3.835   0.119
 2789SOL     OW 9265   1.481   1.842   3.605
 2789SOL    HW1 9266   1.392   1.884   3.587
 2789SOL    HW2 9267   1.468   1.744   3.622
 2790SOL     OW 9268   3.513   5.367   2.688
 2790SOL    HW1 9269   3.465   5.361   2.776
 2790SOL    HW2 9270   3.517   5.277   2.646
 2791SOL     OW 9271   1.744   4.129   4.859
 2791SOL    HW1 9272   1.836   4.152   4.889
 2791SOL    HW2 9273   1.677   4.177   4.916
 2792SOL     OW 9274   1.308   0.171   4.949
 2792SOL    HW1 9275   1.356   0.098   4.996
 2792SOL    HW2 9276   1.367   0.209   4.878
 2793SOL     OW 9277   4.744   2.269   2.552
 2793SOL    HW1 9278   4.702   2.211   2.622
 2793SOL    HW2 9279   4.708   2.243   2.462
 2794SOL     OW 9280   7.019   3.006   0.527
 2794SOL    HW1 9281   0.040   3.007   0.439
 2794SOL    HW2 9282   7.004   2.912   0.556
 2795SOL     OW 9283   3.119   4.175   1.429
 2795SOL    HW1 9284   3.059   4.134   1.497
 2795SOL    HW2 9285   3.191   4.111   1.404
 2796SOL     OW 9286   6.594   4.312   2.491
 2796SOL    HW1 9287   6.672   4.320   2.553
 2796SOL    HW2 9288   6.552   4.222   2.503
 2797SOL     OW 9289   5.180   5.762   4.993
 2797SOL    HW1 9290   5.182   5.857   5.024
 2797SOL    HW2 9291   5.144   5.703   5.066
 2798SOL     OW 9292   1.126   4.262   2.322
 2798SOL    HW1 9293   1.046   4.209   2.294
 2798SOL    HW2 9294   1.097   4.342   2.375
 2799SOL     OW 9295   0.217   5.846   6.953
 2799SOL    HW1 9296   0.205   5.945   6.953
 2799SOL    HW2 9297   0.268   5.818   6.872
 2800SOL     OW 9298   4.673   4.275   6.749
 2800SOL    HW1 9299   4.671   4.353   6.812
 2800SOL    HW2 9300   4.605   4.208   6.778
 2801SOL     OW 9301   4.385   5.829   3.945
 2801SOL    HW1 9302   4.458   5.864   4.004
 2801SOL    HW2 9303   4.401   5.861   3.851
 2802SOL     OW 9304   4.406   3.155   6.379
 2802SOL    HW1 9305   4.448   3.088   6.319
 2802SOL    HW2 9306   4.321   3.117   6.417
 2803SOL     OW 9307   2.357   6.269   6.238
 2803SOL    HW1 9308   2.285   6.208   6.270
 2803SOL    HW2 9309   2.398   6.316   6.316
 2804SOL     OW 9310   6.867   4.352   3.725
 2804SOL    HW1 9311   6.898   4.263   3.692
 2804SOL    HW2 9312   6.832   4.343   3.818
 2805SOL     OW 9313   4.345   3.674   1.239
 2805SOL    HW1 9314   4.329   3.770   1.262
 2805SOL    HW2 9315   4.408   3.668   1.162
 2806SOL     OW 9316   5.818   5.212   3.451
 2806SOL    HW1 9317   5.914   5.197   3.427
 2806SOL    HW2 9318   5.783   5.132   3.500
 2807SOL     OW 9319   5.338   4.811   3.724
 2807SOL    HW1 9320   5.302   4.898   3.692
 2807SOL    HW2 9321   5.285   4.778   3.802
 2808SOL     OW 9322   3.902   1.437   3.102
 2808SOL    HW1 9323   3.858   1.518   3.141
 2808SOL    HW2 9324   3.834   1.381   3.055
 2809SOL     OW 9325   6.678   2.822   1.414
 2809SOL    HW1 9326   6.666   2.857   1.507
 2809SOL    HW2 9327   6.759   2.764   1.410
 2810SOL     OW 9328   3.448   6.700   4.711
 2810SOL    HW1 9329   3.515   6.661   4.649
 2810SOL    HW2 9330   3.361   6.651   4.702
 2811SOL     OW 9331   0.595   0.643   3.329
 2811SOL    HW1 9332   0.528   0.644   3.255
 2811SOL    HW2 9333   0.563   0.582   3.402
 2812SOL     OW 9334   5.251   3.497   1.541
 2812SOL    HW1 9335   5.283   3.578   1.492
 2812SOL    HW2 9336   5.151   3.492   1.535
 2813SOL     OW 9337   6.251   6.760   5.675
 2813SOL    HW1 9338   6.312   6.829   5.714
 2813SOL    HW2 9339   6.239   6.778   5.577
 2814SOL     OW 9340   4.252   3.067   6.979
 2814SOL    HW1 9341   4.172   3.046   0.009
 2814SOL    HW2 9342   4.292   3.153   7.009
 2815SOL     OW 9343   0.051   1.547   4.702
 2815SOL    HW1 9344   6.999   1.560   4.763
 2815SOL    HW2 9345   0.043   1.609   4.624
 2816SOL     OW 9346   6.730   6.512   3.717
 2816SOL    HW1 9347   6.791   6.582   3.679
 2816SOL    HW2 9348   6.783   6.430   3.739
 2817SOL     OW 9349   1.590   0.083   1.323
 2817SOL    HW1 9350   1.660   0.011   1.325
 2817SOL    HW2 9351   1.592   0.129   1.234
 2818SOL     OW 9352   6.751   5.444   6.961
 2818SOL    HW1 9353   6.686   5.520   6.967
 2818SOL    HW2 9354   6.806   5.441   0.020
 2819SOL     OW 9355   0.581   2.447   0.793
 2819SOL    HW1 9356   0.511   2.493   0.848
 2819SOL    HW2 9357   0.537   2.388   0.725
 2820SOL     OW 9358   0.950   2.252   1.962
 2820SOL    HW1 9359   0.911   2.160   1.953
 2820SOL    HW2 9360   1.039   2.247   2.005
 2821SOL     OW 9361   3.416   3.910   6.590
 2821SOL    HW1 9362   3.515   3.897   6.598
 2821SOL    HW2 9363   3.378   3.934   6.679
 2822SOL     OW 9364   3.732   2.417   0.473
 2822SOL    HW1 9365   3.819   2.460   0.448
 2822SOL    HW2 9366   3.750   2.330   0.519
 2823SOL     OW 9367   2.043   6.357   1.447
 2823SOL    HW1 9368   1.951   6.324   1.428
 2823SOL    HW2 9369   2.090   6.292   1.507
 2824SOL     OW 9370   2.382   1.233   4.630
 2824SOL    HW1 9371   2.395   1.328   4.656
 2824SOL    HW2 9372   2.470   1.190   4.611
 2825SOL     OW 9373   6.302   6.744   0.302
 2825SOL    HW1 9374   6.334   6.839   0.295
 2825SOL    HW2 9375   6.336   6.692   0.223
 2826SOL     OW 9376   5.289   2.165   6.176
 2826SOL    HW1 9377   5.249   2.252   6.148
 2826SOL    HW2 9378   5.364   2.142   6.114
 2827SOL     OW 9379   6.713   0.920   5.469
 2827SOL    HW1 9380   6.786   0.852   5.474
 2827SOL    HW2 9381   6.745   1.006   5.508
 2828SOL     OW 9382   3.494   1.292   6.668
 2828SOL    HW1 9383   3.508   1.235   6.749
 2828SOL    HW2 9384   3.576   1.347   6.652
 2829SOL     OW 9385   4.125   4.179   6.273
 2829SOL    HW1 9386   4.086   4.172   6.365
 2829SOL    HW2 9387   4.165   4.269   6.260
 2830SOL     OW 9388   0.176   4.361   6.682
 2830SOL    HW1 9389   0.117   4.330   6.756
 2830SOL    HW2 9390   0.229   4.284   6.646
 2831SOL     OW 9391   6.814   6.053   3.867
 2831SOL    HW1 9392   6.816   5.953   3.863
 2831SOL    HW2 9393   6.878   6.084   3.938
 2832SOL     OW 9394   0.547   1.089   1.532
 2832SOL    HW1 9395   0.555   1.119   1.437
 2832SOL    HW2 9396   0.618   1.022   1.552
 2833SOL     OW 9397   5.117   2.187   1.979
 2833SOL    HW1 9398   5.208   2.213   1.947
 2833SOL    HW2 9399   5.089   2.102   1.934
 2834SOL     OW 9400   2.940   0.756   5.972
 2834SOL    HW1 9401   2.907   0.844   6.006
 2834SOL    HW2 9402   3.040   0.755   5.974
 2835SOL     OW 9403   0.167   0.367   1.528
 2835SOL    HW1 9404   0.224   0.323   1.458
 2835SOL    HW2 9405   0.210   0.453   1.556
 2836SOL     OW 9406   6.470   0.324   1.313
 2836SOL    HW1 9407   6.407   0.309   1.389
 2836SOL    HW2 9408   6.561   0.347   1.349
 2837SOL     OW 9409   5.688   3.049   3.066
 2837SOL    HW1 9410   5.626   3.008   3.133
 2837SOL    HW2 9411   5.712   2.980   2.997
 2838SOL     OW 9412   1.942   3.988   1.941
 2838SOL    HW1 9413   1.908   3.904   1.899
 2838SOL    HW2 9414   1.883   4.013   2.017
 2839SOL     OW 9415   6.020   1.338   1.993
 2839SOL    HW1 9416   5.956   1.403   2.035
 2839SOL    HW2 9417   6.011   1.342   1.893
 2840SOL     OW 9418   0.643   0.917   4.141
 2840SOL    HW1 9419   0.720   0.977   4.163
 2840SOL    HW2 9420   0.581   0.912   4.220
 2841SOL     OW 9421   7.023   0.962   6.034
 2841SOL    HW1 9422   6.945   1.022   6.046
 2841SOL    HW2 9423   7.002   0.871   6.069
 2842SOL     OW 9424   0.432   1.829   4.045
 2842SOL    HW1 9425   0.360   1.786   3.992
 2842SOL    HW2 9426   0.491   1.882   3.984
 2843SOL     OW 9427   3.257   1.840   3.808
 2843SOL    HW1 9428   3.195   1.884   3.872
 2843SOL    HW2 9429   3.344   1.819   3.854
 2844SOL     OW 9430   1.351   4.123   0.698
 2844SOL    HW1 9431   1.375   4.048   0.636
 2844SOL    HW2 9432   1.410   4.120   0.779
 2845SOL     OW 9433   1.282   3.270   0.731
 2845SOL    HW1 9434   1.288   3.369   0.737
 2845SOL    HW2 9435   1.353   3.236   0.670
 2846SOL     OW 9436   5.079   1.753   6.833
 2846SOL    HW1 9437   5.109   1.681   6.771
 2846SOL    HW2 9438   5.068   1.838   6.783
 2847SOL     OW 9439   5.251   3.587   3.462
 2847SOL    HW1 9440   5.182   3.582   3.534
 2847SOL    HW2 9441   5.210   3.623   3.379
 2848SOL     OW 9442   0.284   4.699   6.183
 2848SOL    HW1 9443   0.346   4.622   6.170
 2848SOL    HW2 9444   0.328   4.783   6.150
 2849SOL     OW 9445   3.483   0.267   1.444
 2849SOL    HW1 9446   3.386   0.267   1.420
 2849SOL    HW2 9447   3.495   0.304   1.536
 2850SOL     OW 9448   3.378   0.300   1.971
 2850SOL    HW1 9449   3.339   0.311   1.880
 2850SOL    HW2 9450   3.323   0.352   2.037
 2851SOL     OW 9451   1.008   4.154   5.535
 2851SOL    HW1 9452   1.041   4.220   5.468
 2851SOL    HW2 9453   0.920   4.117   5.504
 2852SOL     OW 9454   5.578   4.572   0.234
 2852SOL    HW1 9455   5.635   4.649   0.262
 2852SOL    HW2 9456   5.536   4.531   0.315
 2853SOL     OW 9457   2.679   2.113   6.884
 2853SOL    HW1 9458   2.688   2.207   6.917
 2853SOL    HW2 9459   2.628   2.059   6.950
 2854SOL     OW 9460   3.105   1.527   4.163
 2854SOL    HW1 9461   3.114   1.430   4.141
 2854SOL    HW2 9462   3.008   1.552   4.163
 2855SOL     OW 9463   2.130   0.867   5.854
 2855SOL    HW1 9464   2.074   0.901   5.779
 2855SOL    HW2 9465   2.143   0.768   5.844
 2856SOL     OW 9466   2.243   2.972   6.149
 2856SOL    HW1 9467   2.196   2.996   6.234
 2856SOL    HW2 9468   2.258   3.055   6.095
 2857SOL     OW 9469   3.193   1.873   1.713
 2857SOL    HW1 9470   3.126   1.897   1.784
 2857SOL    HW2 9471   3.232   1.784   1.733
 2858SOL     OW 9472   6.331   3.540   1.727
 2858SOL    HW1 9473   6.249   3.593   1.752
 2858SOL    HW2 9474   6.373   3.503   1.810
 2859SOL     OW 9475   5.299   2.250   0.829
 2859SOL    HW1 9476   5.301   2.198   0.744
 2859SOL    HW2 9477   5.216   2.228   0.880
 2860SOL     OW 9478   3.910   1.899   0.997
 2860SOL    HW1 9479   3.894   1.929   1.091
 2860SOL    HW2 9480   4.007   1.909   0.974
 2861SOL     OW 9481   4.727   5.530   5.670
 2861SOL    HW1 9482   4.675   5.467   5.728
 2861SOL    HW2 9483   4.758   5.481   5.589
 2862SOL     OW 9484   5.258   1.541   2.929
 2862SOL    HW1 9485   5.295   1.585   2.847
 2862SOL    HW2 9486   5.285   1.444   2.930
 2863SOL     OW 9487   5.850   1.146   6.941
 2863SOL    HW1 9488   5.824   1.220   6.879
 2863SOL    HW2 9489   5.949   1.146   6.954
 2864SOL     OW 9490   3.968   0.242   1.636
 2864SOL    HW1 9491   3.869   0.241   1.648
 2864SOL    HW2 9492   3.995   0.171   1.571
 2865SOL     OW 9493   5.090   4.497   5.439
 2865SOL    HW1 9494   5.059   4.419   5.492
 2865SOL    HW2 9495   5.167   4.469   5.381
 2866SOL     OW 9496   6.100   6.286   0.358
 2866SOL    HW1 9497   6.089   6.344   0.278
 2866SOL    HW2 9498   6.164   6.328   0.422
 2867SOL     OW 9499   5.801   3.741   2.194
 2867SOL    HW1 9500   5.776   3.795   2.115
 2867SOL    HW2 9501   5.852   3.797   2.259
 2868SOL     OW 9502   0.304   2.964   5.231
 2868SOL    HW1 9503   0.361   2.891   5.270
 2868SOL    HW2 9504   0.362   3.036   5.195
 2869SOL     OW 9505   6.036   1.393   3.257
 2869SOL    HW1 9506   5.947   1.416   3.219
 2869SOL    HW2 9507   6.047   1.293   3.260
 2870SOL     OW 9508   6.664   1.542   4.579
 2870SOL    HW1 9509   6.706   1.516   4.492
 2870SOL    HW2 9510   6.714   1.620   4.617
 2871SOL     OW 9511   1.960   1.468   6.738
 2871SOL    HW1 9512   2.018   1.550   6.728
 2871SOL    HW2 9513   2.016   1.390   6.764
 2872SOL     OW 9514   2.675   1.460   3.601
 2872SOL    HW1 9515   2.674   1.399   3.521
 2872SOL    HW2 9516   2.712   1.411   3.680
 2873SOL     OW 9517   1.588   5.129   3.553
 2873SOL    HW1 9518   1.552   5.163   3.640
 2873SOL    HW2 9519   1.626   5.205   3.501
 2874SOL     OW 9520   4.810   5.609   2.469
 2874SOL    HW1 9521   4.862   5.590   2.552
 2874SOL    HW2 9522   4.792   5.708   2.463
 2875SOL     OW 9523   4.663   6.254   6.612
 2875SOL    HW1 9524   4.607   6.187   6.564
 2875SOL    HW2 9525   4.730   6.293   6.549
 2876SOL     OW 9526   0.911   0.041   1.730
 2876SOL    HW1 9527   0.897   0.010   1.824
 2876SOL    HW2 9528   1.009   0.052   1.713
 2877SOL     OW 9529   3.525   2.954   5.223
 2877SOL    HW1 9530   3.440   2.918   5.261
 2877SOL    HW2 9531   3.587   2.979   5.298
 2878SOL     OW 9532   3.651   4.936   4.607
 2878SOL    HW1 9533   3.663   4.931   4.706
 2878SOL    HW2 9534   3.554   4.947   4.586
 2879SOL     OW 9535   4.726   5.259   0.194
 2879SOL    HW1 9536   4.695   5.308   0.276
 2879SOL    HW2 9537   4.690   5.166   0.196
 2880SOL     OW 9538   6.187   6.533   0.670
 2880SOL    HW1 9539   6.243   6.605   0.630
 2880SOL    HW2 9540   6.186   6.544   0.770
 2881SOL     OW 9541   5.623   6.123   0.960
 2881SOL    HW1 9542   5.606   6.176   1.043
 2881SOL    HW2 9543   5.539   6.117   0.906
 2882SOL     OW 9544   0.606   3.484   2.647
 2882SOL    HW1 9545   0.559   3.398   2.668
 2882SOL    HW2 9546   0.557   3.560   2.689
 2883SOL     OW 9547   4.851   6.550   3.933
 2883SOL    HW1 9548   4.803   6.638   3.936
 2883SOL    HW2 9549   4.824   6.500   3.851
 2884SOL     OW 9550   0.689   5.382   3.273
 2884SOL    HW1 9551   0.645   5.380   3.362
 2884SOL    HW2 9552   0.638   5.442   3.211
 2885SOL     OW 9553   6.924   2.505   2.728
 2885SOL    HW1 9554   6.962   2.524   2.637
 2885SOL    HW2 9555   6.852   2.437   2.720
 2886SOL     OW 9556   2.281   3.375   6.831
 2886SOL    HW1 9557   2.325   3.432   6.762
 2886SOL    HW2 9558   2.187   3.355   6.803
 2887SOL     OW 9559   2.099   6.838   5.220
 2887SOL    HW1 9560   2.028   6.908   5.232
 2887SOL    HW2 9561   2.074   6.778   5.145
 2888SOL     OW 9562   0.349   4.947   6.655
 2888SOL    HW1 9563   0.365   4.935   6.557
 2888SOL    HW2 9564   0.291   4.873   6.689
 2889SOL     OW 9565   1.623   0.806   2.170
 2889SOL    HW1 9566   1.552   0.779   2.104
 2889SOL    HW2 9567   1.581   0.853   2.247
 2890SOL     OW 9568   2.657   0.546   1.071
 2890SOL    HW1 9569   2.700   0.629   1.106
 2890SOL    HW2 9570   2.572   0.570   1.024
 2891SOL     OW 9571   2.316   4.485   3.121
 2891SOL    HW1 9572   2.221   4.471   3.094
 2891SOL    HW2 9573   2.363   4.539   3.052
 2892SOL     OW 9574   5.009   4.206   0.411
 2892SOL    HW1 9575   4.917   4.179   0.383
 2892SOL    HW2 9576   5.053   4.257   0.337
 2893SOL     OW 9577   1.191   6.748   5.035
 2893SOL    HW1 9578   1.174   6.771   4.939
 2893SOL    HW2 9579   1.241   6.823   5.079
 2894SOL     OW 9580   3.200   2.512   0.052
 2894SOL    HW1 9581   3.268   2.535   0.122
 2894SOL    HW2 9582   3.203   2.413   0.035
 2895SOL     OW 9583   4.151   3.081   6.414
 2895SOL    HW1 9584   4.196   2.992   6.402
 2895SOL    HW2 9585   4.088   3.075   6.491
 2896SOL     OW 9586   2.680   5.155   6.598
 2896SOL    HW1 9587   2.583   5.133   6.589
 2896SOL    HW2 9588   2.727   5.078   6.642
 2897SOL     OW 9589   2.497   6.186   4.145
 2897SOL    HW1 9590   2.429   6.161   4.076
 2897SOL    HW2 9591   2.589   6.181   4.106
 2898SOL     OW 9592   4.637   4.979   2.872
 2898SOL    HW1 9593   4.552   5.004   2.826
 2898SOL    HW2 9594   4.641   5.024   2.962
 2899SOL     OW 9595   0.224   1.758   6.617
 2899SOL    HW1 9596   0.137   1.713   6.636
 2899SOL    HW2 9597   0.294   1.689   6.602
 2900SOL     OW 9598   1.339   5.107   5.362
 2900SOL    HW1 9599   1.272   5.180   5.347
 2900SOL    HW2 9600   1.429   5.137   5.331
 2901SOL     OW 9601   1.244   6.991   2.996
 2901SOL    HW1 9602   1.232   6.967   2.900
 2901SOL    HW2 9603   1.197   6.924   3.053
 2902SOL     OW 9604   5.735   6.291   0.726
 2902SOL    HW1 9605   5.705   6.296   0.821
 2902SOL    HW2 9606   5.783   6.375   0.701
 2903SOL     OW 9607   3.063   0.010   2.156
 2903SOL    HW1 9608   3.109   0.022   2.244
 2903SOL    HW2 9609   3.068   6.938   2.129
 2904SOL     OW 9610   2.445   3.277   5.332
 2904SOL    HW1 9611   2.501   3.206   5.289
 2904SOL    HW2 9612   2.353   3.241   5.348
 2905SOL     OW 9613   1.011   2.138   2.880
 2905SOL    HW1 9614   1.048   2.163   2.790
 2905SOL    HW2 9615   0.913   2.158   2.883
 2906SOL     OW 9616   5.283   4.954   2.770
 2906SOL    HW1 9617   5.224   4.878   2.798
 2906SOL    HW2 9618   5.366   4.953   2.826
 2907SOL     OW 9619   6.405   0.736   4.647
 2907SOL    HW1 9620   6.433   0.685   4.729
 2907SOL    HW2 9621   6.483   0.788   4.613
 2908SOL     OW 9622   4.093   6.632   4.016
 2908SOL    HW1 9623   4.128   6.585   4.097
 2908SOL    HW2 9624   3.995   6.649   4.027
 2909SOL     OW 9625   0.486   5.546   4.364
 2909SOL    HW1 9626   0.475   5.462   4.416
 2909SOL    HW2 9627   0.569   5.541   4.308
 2910SOL     OW 9628   3.945   6.756   4.630
 2910SOL    HW1 9629   3.944   6.840   4.686
 2910SOL    HW2 9630   3.953   6.781   4.534
 2911SOL     OW 9631   2.487   5.500   3.773
 2911SOL    HW1 9632   2.495   5.404   3.744
 2911SOL    HW2 9633   2.528   5.510   3.864
 2912SOL     OW 9634   3.423   6.251   0.065
 2912SOL    HW1 9635   3.368   6.180   0.021
 2912SOL    HW2 9636   3.409   6.249   0.164
 2913SOL     OW 9637   2.110   4.883   2.571
 2913SOL    HW1 9638   2.144   4.957   2.514
 2913SOL    HW2 9639   2.160   4.882   2.658
 2914SOL     OW 9640   5.794   5.451   6.690
 2914SOL    HW1 9641   5.724   5.481   6.754
 2914SOL    HW2 9642   5.763   5.469   6.596
 2915SOL     OW 9643   4.794   1.898   4.369
 2915SOL    HW1 9644   4.721   1.949   4.415
 2915SOL    HW2 9645   4.760   1.808   4.342
 2916SOL     OW 9646   6.406   4.902   5.964
 2916SOL    HW1 9647   6.389   4.866   6.056
 2916SOL    HW2 9648   6.338   4.865   5.900
 2917SOL     OW 9649   4.295   0.440   2.077
 2917SOL    HW1 9650   4.286   0.538   2.062
 2917SOL    HW2 9651   4.240   0.390   2.010
 2918SOL     OW 9652   0.272   2.947   3.230
 2918SOL    HW1 9653   0.174   2.966   3.234
 2918SOL    HW2 9654   0.293   2.867   3.286
 2919SOL     OW 9655   6.716   0.447   0.376
 2919SOL    HW1 9656   6.703   0.495   0.463
 2919SOL    HW2 9657   6.698   0.510   0.300
 2920SOL     OW 9658   3.820   2.121   2.613
 2920SOL    HW1 9659   3.786   2.130   2.707
 2920SOL    HW2 9660   3.918   2.102   2.614
 2921SOL     OW 9661   6.996   0.513   2.593
 2921SOL    HW1 9662   6.968   0.595   2.544
 2921SOL    HW2 9663   0.048   0.470   2.545
 2922SOL     OW 9664   5.689   6.631   6.946
 2922SOL    HW1 9665   5.775   6.646   6.897
 2922SOL    HW2 9666   5.707   6.617   0.018
 2923SOL     OW 9667   6.803   5.228   1.790
 2923SOL    HW1 9668   6.823   5.144   1.840
 2923SOL    HW2 9669   6.729   5.277   1.836
 2924SOL     OW 9670   6.953   1.864   6.232
 2924SOL    HW1 9671   6.896   1.944   6.214
 2924SOL    HW2 9672   6.962   1.810   6.149
 2925SOL     OW 9673   5.436   0.742   3.036
 2925SOL    HW1 9674   5.399   0.816   2.979
 2925SOL    HW2 9675   5.525   0.770   3.073
 2926SOL     OW 9676   6.864   1.671   5.237
 2926SOL    HW1 9677   6.773   1.703   5.265
 2926SOL    HW2 9678   6.883   1.702   5.144
 2927SOL     OW 9679   1.930   1.816   2.261
 2927SOL    HW1 9680   2.009   1.871   2.236
 2927SOL    HW2 9681   1.951   1.764   2.344
 2928SOL     OW 9682   6.335   2.328   6.479
 2928SOL    HW1 9683   6.278   2.336   6.398
 2928SOL    HW2 9684   6.409   2.395   6.474
 2929SOL     OW 9685   0.938   1.289   5.571
 2929SOL    HW1 9686   0.947   1.372   5.517
 2929SOL    HW2 9687   0.843   1.257   5.569
 2930SOL     OW 9688   4.811   6.365   5.172
 2930SOL    HW1 9689   4.783   6.418   5.092
 2930SOL    HW2 9690   4.768   6.403   5.254
 2931SOL     OW 9691   4.843   6.054   6.524
 2931SOL    HW1 9692   4.910   6.015   6.587
 2931SOL    HW2 9693   4.861   6.152   6.512
 2932SOL     OW 9694   1.650   4.757   2.117
 2932SOL    HW1 9695   1.617   4.791   2.205
 2932SOL    HW2 9696   1.734   4.705   2.131
 2933SOL     OW 9697   5.397   2.577   3.849
 2933SOL    HW1 9698   5.437   2.623   3.770
 2933SOL    HW2 9699   5.336   2.639   3.897
 2934SOL     OW 9700   3.700   1.144   0.525
 2934SOL    HW1 9701   3.699   1.123   0.623
 2934SOL    HW2 9702   3.782   1.105   0.483
 2935SOL     OW 9703   6.641   2.964   1.657
 2935SOL    HW1 9704   6.596   2.957   1.746
 2935SOL    HW2 9705   6.639   3.060   1.627
 2936SOL     OW 9706   5.113   5.786   1.397
 2936SOL    HW1 9707   5.155   5.729   1.327
 2936SOL    HW2 9708   5.131   5.747   1.487
 2937SOL     OW 9709   3.450   5.068   0.738
 2937SOL    HW1 9710   3.402   4.987   0.705
 2937SOL    HW2 9711   3.421   5.148   0.685
 2938SOL     OW 9712   4.648   4.816   5.542
 2938SOL    HW1 9713   4.698   4.788   5.460
 2938SOL    HW2 9714   4.707   4.805   5.622
 2939SOL     OW 9715   0.512   6.455   3.990
 2939SOL    HW1 9716   0.554   6.365   4.005
 2939SOL    HW2 9717   0.509   6.505   4.077
 2940SOL     OW 9718   5.982   0.077   5.435
 2940SOL    HW1 9719   6.073   0.117   5.449
 2940SOL    HW2 9720   5.980   0.029   5.347
 2941SOL     OW 9721   2.248   2.184   5.304
 2941SOL    HW1 9722   2.258   2.279   5.275
 2941SOL    HW2 9723   2.163   2.147   5.267
 2942SOL     OW 9724   2.538   0.796   2.010
 2942SOL    HW1 9725   2.551   0.720   1.947
 2942SOL    HW2 9726   2.443   0.800   2.039
 2943SOL     OW 9727   5.174   3.277   3.362
 2943SOL    HW1 9728   5.232   3.339   3.309
 2943SOL    HW2 9729   5.115   3.330   3.423
 2944SOL     OW 9730   3.011   5.269   5.485
 2944SOL    HW1 9731   2.964   5.223   5.410
 2944SOL    HW2 9732   3.056   5.352   5.450
 2945SOL     OW 9733   4.102   3.472   3.487
 2945SOL    HW1 9734   4.083   3.569   3.473
 2945SOL    HW2 9735   4.085   3.422   3.401
 2946SOL     OW 9736   6.924   5.439   5.753
 2946SOL    HW1 9737   6.838   5.486   5.769
 2946SOL    HW2 9738   6.944   5.379   5.831
 2947SOL     OW 9739   1.075   4.151   0.701
 2947SOL    HW1 9740   1.062   4.107   0.612
 2947SOL    HW2 9741   1.166   4.192   0.705
 2948SOL     OW 9742   6.471   3.761   5.452
 2948SOL    HW1 9743   6.384   3.810   5.462
 2948SOL    HW2 9744   6.545   3.815   5.492
 2949SOL     OW 9745   1.857   5.906   1.015
 2949SOL    HW1 9746   1.915   5.890   0.935
 2949SOL    HW2 9747   1.805   5.822   1.035
 2950SOL     OW 9748   5.441   3.365   4.525
 2950SOL    HW1 9749   5.518   3.301   4.526
 2950SOL    HW2 9750   5.357   3.316   4.504
 2951SOL     OW 9751   6.940   2.712   6.853
 2951SOL    HW1 9752   6.864   2.713   6.787
 2951SOL    HW2 9753   6.985   2.623   6.850
 2952SOL     OW 9754   1.635   4.867   4.744
 2952SOL    HW1 9755   1.651   4.789   4.683
 2952SOL    HW2 9756   1.576   4.839   4.819
 2953SOL     OW 9757   5.017   2.704   2.162
 2953SOL    HW1 9758   4.934   2.704   2.106
 2953SOL    HW2 9759   5.051   2.797   2.172
 2954SOL     OW 9760   1.115   5.633   1.644
 2954SOL    HW1 9761   1.165   5.590   1.569
 2954SOL    HW2 9762   1.179   5.684   1.702
 2955SOL     OW 9763   0.869   3.093   0.218
 2955SOL    HW1 9764   0.822   3.117   0.133
 2955SOL    HW2 9765   0.920   3.172   0.251
 2956SOL     OW 9766   6.759   6.072   2.718
 2956SOL    HW1 9767   6.807   6.008   2.777
 2956SOL    HW2 9768   6.820   6.146   2.692
 2957SOL     OW 9769   6.347   3.333   0.944
 2957SOL    HW1 9770   6.300   3.287   0.869
 2957SOL    HW2 9771   6.415   3.271   0.983
 2958SOL     OW 9772   2.596   4.621   4.827
 2958SOL    HW1 9773   2.616   4.709   4.785
 2958SOL    HW2 9774   2.664   4.601   4.897
 2959SOL     OW 9775   5.214   4.515   6.961
 2959SOL    HW1 9776   5.260   4.437   6.918
 2959SOL    HW2 9777   5.133   4.540   6.908
 2960SOL     OW 9778   2.714   1.117   6.843
 2960SOL    HW1 9779   2.690   1.046   6.777
 2960SOL    HW2 9780   2.674   1.095   6.932
 2961SOL     OW 9781   5.264   2.563   4.475
 2961SOL    HW1 9782   5.246   2.467   4.455
 2961SOL    HW2 9783   5.178   2.610   4.497
 2962SOL     OW 9784   4.583   0.817   3.999
 2962SOL    HW1 9785   4.630   0.876   3.934
 2962SOL    HW2 9786   4.530   0.873   4.063
 2963SOL     OW 9787   1.670   1.926   5.514
 2963SOL    HW1 9788   1.608   1.931   5.592
 2963SOL    HW2 9789   1.765   1.925   5.546
 2964SOL     OW 9790   1.392   0.282   1.747
 2964SOL    HW1 9791   1.472   0.290   1.807
 2964SOL    HW2 9792   1.422   0.256   1.655
 2965SOL     OW 9793   0.275   1.296   5.014
 2965SOL    HW1 9794   0.180   1.326   5.007
 2965SOL    HW2 9795   0.322   1.311   4.927
 2966SOL     OW 9796   5.922   4.772   3.930
 2966SOL    HW1 9797   5.979   4.851   3.909
 2966SOL    HW2 9798   5.976   4.688   3.918
 2967SOL     OW 9799   6.189   2.557   3.744
 2967SOL    HW1 9800   6.167   2.516   3.656
 2967SOL    HW2 9801   6.124   2.525   3.813
 2968SOL     OW 9802   0.937   4.202   5.806
 2968SOL    HW1 9803   0.952   4.182   5.710
 2968SOL    HW2 9804   1.022   4.188   5.857
 2969SOL     OW 9805   5.773   0.977   5.096
 2969SOL    HW1 9806   5.840   1.038   5.139
 2969SOL    HW2 9807   5.754   1.009   5.003
 2970SOL     OW 9808   1.303   4.018   0.156
 2970SOL    HW1 9809   1.325   4.055   0.066
 2970SOL    HW2 9810   1.244   4.082   0.205
 2971SOL     OW 9811   5.254   2.893   4.626
 2971SOL    HW1 9812   5.211   2.803   4.629
 2971SOL    HW2 9813   5.213   2.951   4.696
 2972SOL     OW 9814   6.610   4.713   6.576
 2972SOL    HW1 9815   6.614   4.747   6.482
 2972SOL    HW2 9816   6.595   4.614   6.575
 2973SOL     OW 9817   5.744   0.945   4.373
 2973SOL    HW1 9818   5.811   0.871   4.363
 2973SOL    HW2 9819   5.703   0.939   4.464
 2974SOL     OW 9820   6.789   3.908   3.380
 2974SOL    HW1 9821   6.798   3.861   3.467
 2974SOL    HW2 9822   6.869   3.966   3.364
 2975SOL     OW 9823   0.676   2.168   5.217
 2975SOL    HW1 9824   0.587   2.205   5.243
 2975SOL    HW2 9825   0.743   2.242   5.210
 2976SOL     OW 9826   3.891   1.504   2.630
 2976SOL    HW1 9827   3.828   1.441   2.675
 2976SOL    HW2 9828   3.893   1.484   2.532
 2977SOL     OW 9829   2.054   0.377   4.608
 2977SOL    HW1 9830   1.998   0.299   4.579
 2977SOL    HW2 9831   2.144   0.345   4.638
 2978SOL     OW 9832   4.504   4.629   6.852
 2978SOL    HW1 9833   4.558   4.597   6.774
 2978SOL    HW2 9834   4.525   4.725   6.870
 2979SOL     OW 9835   4.328   6.760   3.923
 2979SOL    HW1 9836   4.383   6.802   3.995
 2979SOL    HW2 9837   4.254   6.707   3.965
 2980SOL     OW 9838   1.649   6.217   3.926
 2980SOL    HW1 9839   1.737   6.194   3.967
 2980SOL    HW2 9840   1.618   6.143   3.866
 2981SOL     OW 9841   0.965   6.887   6.301
 2981SOL    HW1 9842   1.044   6.922   6.352
 2981SOL    HW2 9843   0.914   6.823   6.358
 2982SOL     OW 9844   4.623   6.246   3.090
 2982SOL    HW1 9845   4.664   6.156   3.077
 2982SOL    HW2 9846   4.642   6.278   3.183
 2983SOL     OW 9847   1.169   0.707   4.032
 2983SOL    HW1 9848   1.164   0.619   4.079
 2983SOL    HW2 9849   1.218   0.695   3.945
 2984SOL     OW 9850   4.767   5.751   1.343
 2984SOL    HW1 9851   4.670   5.776   1.346
 2984SOL    HW2 9852   4.822   5.831   1.368
 2985SOL     OW 9853   0.745   2.197   4.482
 2985SOL    HW1 9854   0.809   2.233   4.550
 2985SOL    HW2 9855   0.728   2.266   4.412
 2986SOL     OW 9856   2.067   3.989   6.348
 2986SOL    HW1 9857   2.090   3.996   6.445
 2986SOL    HW2 9858   2.008   4.066   6.323
 2987SOL     OW 9859   4.985   1.042   3.732
 2987SOL    HW1 9860   4.997   0.985   3.650
 2987SOL    HW2 9861   5.047   1.010   3.804
 2988SOL     OW 9862   0.210   6.709   2.412
 2988SOL    HW1 9863   0.126   6.719   2.464
 2988SOL    HW2 9864   0.189   6.683   2.318
 2989SOL     OW 9865   6.059   6.077   1.117
 2989SOL    HW1 9866   5.990   6.063   1.046
 2989SOL    HW2 9867   6.093   5.989   1.149
 2990SOL     OW 9868   4.331   1.134   3.348
 2990SOL    HW1 9869   4.319   1.040   3.316
 2990SOL    HW2 9870   4.248   1.187   3.329
 2991SOL     OW 9871   6.761   3.511   0.281
 2991SOL    HW1 9872   6.778   3.610   0.283
 2991SOL    HW2 9873   6.833   3.464   0.332
 2992SOL     OW 9874   2.099   5.402   5.716
 2992SOL    HW1 9875   2.002   5.378   5.717
 2992SOL    HW2 9876   2.153   5.320   5.699
 2993SOL     OW 9877   1.393   4.627   2.020
 2993SOL    HW1 9878   1.438   4.693   1.959
 2993SOL    HW2 9879   1.366   4.673   2.105
 2994SOL     OW 9880   4.249   1.252   0.449
 2994SOL    HW1 9881   4.325   1.309   0.416
 2994SOL    HW2 9882   4.164   1.280   0.405
 2995SOL     OW 9883   0.946   3.008   6.792
 2995SOL    HW1 9884   0.971   2.929   6.736
 2995SOL    HW2 9885   1.024   3.036   6.847
 2996SOL     OW 9886   3.308   6.376   4.553
 2996SOL    HW1 9887   3.276   6.281   4.545
 2996SOL    HW2 9888   3.371   6.384   4.631
 2997SOL     OW 9889   5.174   6.300   1.907
 2997SOL    HW1 9890   5.129   6.256   1.985
 2997SOL    HW2 9891   5.222   6.382   1.939
 2998SOL     OW 9892   4.927   6.128   5.115
 2998SOL    HW1 9893   4.876   6.211   5.140
 2998SOL    HW2 9894   4.873   6.048   5.142
 2999SOL     OW 9895   3.729   6.239   4.074
 2999SOL    HW1 9896   3.694   6.147   4.057
 2999SOL    HW2 9897   3.730   6.257   4.173
 3000SOL     OW 9898   1.517   3.995   6.309
 3000SOL    HW1 9899   1.614   4.003   6.286
 3000SOL    HW2 9900   1.505   4.013   6.406
 3001SOL     OW 9901   5.221   0.325   6.849
 3001SOL    HW1 9902   5.146   0.351   6.789
 3001SOL    HW2 9903   5.216   0.227   6.868
 3002SOL     OW 9904   3.985   0.444   5.462
 3002SOL    HW1 9905   3.946   0.354   5.444
 3002SOL    HW2 9906   3.912   0.512   5.467
 3003SOL     OW 9907   2.733   6.323   6.938
 3003SOL    HW1 9908   2.807   6.371   6.985
 3003SOL    HW2 9909   2.711   6.371   6.854
 3004SOL     OW 9910   6.526   4.700   4.156
 3004SOL    HW1 9911   6.496   4.738   4.068
 3004SOL    HW2 9912   6.622   4.670   4.147
 3005SOL     OW 9913   3.510   2.977   1.035
 3005SOL    HW1 9914   3.575   3.031   1.088
 3005SOL    HW2 9915   3.437   2.944   1.095
 3006SOL     OW 9916   6.271   2.244   0.478
 3006SOL    HW1 9917   6.243   2.206   0.565
 3006SOL    HW2 9918   6.337   2.183   0.434
 3007SOL     OW 9919   6.100   5.302   2.557
 3007SOL    HW1 9920   6.056   5.390   2.575
 3007SOL    HW2 9921   6.038   5.243   2.505
 3008SOL     OW 9922   4.022   0.316   6.244
 3008SOL    HW1 9923   3.985   0.344   6.156
 3008SOL    HW2 9924   4.094   0.248   6.230
 3009SOL     OW 9925   0.613   6.441   2.492
 3009SOL    HW1 9926   0.637   6.386   2.572
 3009SOL    HW2 9927   0.680   6.425   2.420
 3010SOL     OW 9928   3.821   5.347   3.371
 3010SOL    HW1 9929   3.799   5.274   3.435
 3010SOL    HW2 9930   3.750   5.418   3.375
 3011SOL     OW 9931   5.666   1.025   6.717
 3011SOL    HW1 9932   5.711   0.947   6.760
 3011SOL    HW2 9933   5.567   1.016   6.724
 3012SOL     OW 9934   0.703   3.870   4.838
 3012SOL    HW1 9935   0.674   3.785   4.883
 3012SOL    HW2 9936   0.747   3.849   4.751
 3013SOL     OW 9937   5.311   5.732   3.943
 3013SOL    HW1 9938   5.320   5.831   3.926
 3013SOL    HW2 9939   5.396   5.698   3.982
 3014SOL     OW 9940   4.912   2.482   3.705
 3014SOL    HW1 9941   4.957   2.393   3.696
 3014SOL    HW2 9942   4.898   2.502   3.802
 3015SOL     OW 9943   3.497   2.568   0.693
 3015SOL    HW1 9944   3.472   2.473   0.677
 3015SOL    HW2 9945   3.572   2.594   0.632
 3016SOL     OW 9946   3.504   5.964   4.628
 3016SOL    HW1 9947   3.587   5.910   4.612
 3016SOL    HW2 9948   3.500   6.039   4.562
 3017SOL     OW 9949   1.069   5.536   1.047
 3017SOL    HW1 9950   1.002   5.514   0.977
 3017SOL    HW2 9951   1.161   5.514   1.014
 3018SOL     OW 9952   3.392   6.803   6.499
 3018SOL    HW1 9953   3.349   6.888   6.469
 3018SOL    HW2 9954   3.379   6.793   6.598
 3019SOL     OW 9955   2.729   6.439   1.200
 3019SOL    HW1 9956   2.656   6.492   1.244
 3019SOL    HW2 9957   2.743   6.471   1.106
 3020SOL     OW 9958   3.800   3.759   1.524
 3020SOL    HW1 9959   3.823   3.677   1.472
 3020SOL    HW2 9960   3.876   3.781   1.585
 3021SOL     OW 9961   2.330   1.646   0.478
 3021SOL    HW1 9962   2.338   1.694   0.566
 3021SOL    HW2 9963   2.420   1.640   0.435
 3022SOL     OW 9964   4.173   6.283   2.756
 3022SOL    HW1 9965   4.173   6.275   2.855
 3022SOL    HW2 9966   4.144   6.375   2.729
 3023SOL     OW 9967   3.326   6.248   3.064
 3023SOL    HW1 9968   3.272   6.331   3.054
 3023SOL    HW2 9969   3.355   6.216   2.974
 3024SOL     OW 9970   3.234   0.691   6.583
 3024SOL    HW1 9971   3.239   0.675   6.682
 3024SOL    HW2 9972   3.282   0.617   6.536
 3025SOL     OW 9973   3.297   2.738   0.545
 3025SOL    HW1 9974   3.364   2.686   0.598
 3025SOL    HW2 9975   3.326   2.834   0.539
 3026SOL     OW 9976   1.288   3.077   0.934
 3026SOL    HW1 9977   1.201   3.039   0.964
 3026SOL    HW2 9978   1.274   3.171   0.901
 3027SOL     OW 9979   3.841   1.150   1.823
 3027SOL    HW1 9980   3.869   1.082   1.754
 3027SOL    HW2 9981   3.874   1.240   1.796
 3028SOL     OW 9982   1.328   4.361   6.528
 3028SOL    HW1 9983   1.256   4.292   6.523
 3028SOL    HW2 9984   1.386   4.343   6.608
 3029SOL     OW 9985   6.953   5.350   4.784
 3029SOL    HW1 9986   6.906   5.410   4.848
 3029SOL    HW2 9987   6.886   5.297   4.731
 3030SOL     OW 9988   0.743   1.831   5.705
 3030SOL    HW1 9989   0.671   1.900   5.717
 3030SOL    HW2 9990   0.740   1.795   5.612
 3031SOL     OW 9991   0.483   3.724   0.773
 3031SOL    HW1 9992   0.493   3.694   0.678
 3031SOL    HW2 9993   0.528   3.657   0.833
 3032SOL     OW 9994   5.255   0.767   0.479
 3032SOL    HW1 9995   5.340   0.821   0.476
 3032SOL    HW2 9996   5.278   0.670   0.494
 3033SOL     OW 9997   0.941   2.862   0.749
 3033SOL    HW1 9998   0.876   2.787   0.751
 3033SOL    HW2 9999   0.996   2.856   0.666
 3034SOL     OW10000   2.339   6.050   3.967
 3034SOL    HW110001   2.297   5.961   3.985
 3034SOL    HW210002   2.357   6.059   3.869
 3035SOL     OW10003   0.320   2.860   0.724
 3035SOL    HW110004   0.370   2.846   0.810
 3035SOL    HW210005   0.230   2.899   0.745
 3036SOL     OW10006   1.718   3.333   6.832
 3036SOL    HW110007   1.679   3.403   6.892
 3036SOL    HW210008   1.667   3.247   6.846
 3037SOL     OW10009   6.265   5.791   4.677
 3037SOL    HW110010   6.170   5.786   4.707
 3037SOL    HW210011   6.285   5.884   4.646
 3038SOL     OW10012   5.995   6.773   6.460
 3038SOL    HW110013   5.993   6.815   6.369
 3038SOL    HW210014   6.083   6.728   6.474
 3039SOL     OW10015   6.726   3.738   2.288
 3039SOL    HW110016   6.792   3.769   2.219
 3039SOL    HW210017   6.738   3.640   2.304
 3040SOL     OW10018   4.911   4.254   6.144
 3040SOL    HW110019   4.894   4.330   6.082
 3040SOL    HW210020   4.942   4.289   6.232
 3041SOL     OW10021   1.893   2.448   5.472
 3041SOL    HW110022   1.854   2.433   5.381
 3041SOL    HW210023   1.929   2.541   5.477
 3042SOL     OW10024   4.955   6.173   1.717
 3042SOL    HW110025   4.949   6.264   1.758
 3042SOL    HW210026   5.002   6.179   1.629
 3043SOL     OW10027   0.352   5.604   0.946
 3043SOL    HW110028   0.322   5.519   0.989
 3043SOL    HW210029   0.451   5.600   0.932
 3044SOL     OW10030   2.968   4.779   6.033
 3044SOL    HW110031   3.000   4.858   5.981
 3044SOL    HW210032   2.999   4.786   6.128
 3045SOL     OW10033   4.850   0.340   2.267
 3045SOL    HW110034   4.849   0.423   2.323
 3045SOL    HW210035   4.759   0.327   2.226
 3046SOL     OW10036   1.684   2.462   5.735
 3046SOL    HW110037   1.721   2.369   5.734
 3046SOL    HW210038   1.741   2.520   5.793
 3047SOL     OW10039   4.864   5.775   2.127
 3047SOL    HW110040   4.907   5.779   2.036
 3047SOL    HW210041   4.895   5.692   2.174
 3048SOL     OW10042   3.362   3.163   1.375
 3048SOL    HW110043   3.345   3.120   1.464
 3048SOL    HW210044   3.402   3.253   1.389
 3049SOL     OW10045   0.928   5.922   1.298
 3049SOL    HW110046   0.929   5.914   1.398
 3049SOL    HW210047   1.003   5.868   1.260
 3050SOL     OW10048   3.469   0.388   3.374
 3050SOL    HW110049   3.412   0.439   3.439
 3050SOL    HW210050   3.565   0.395   3.401
 3051SOL     OW10051   2.725   3.656   0.171
 3051SOL    HW110052   2.712   3.557   0.163
 3051SOL    HW210053   2.642   3.699   0.207
 3052SOL     OW10054   4.363   0.780   2.374
 3052SOL    HW110055   4.325   0.848   2.312
 3052SOL    HW210056   4.446   0.741   2.333
 3053SOL     OW10057   6.446   0.672   6.741
 3053SOL    HW110058   6.346   0.677   6.742
 3053SOL    HW210059   6.477   0.605   6.808
 3054SOL     OW10060   0.689   2.723   0.429
 3054SOL    HW110061   0.589   2.723   0.423
 3054SOL    HW210062   0.727   2.755   0.342
 3055SOL     OW10063   4.895   0.426   3.590
 3055SOL    HW110064   4.799   0.447   3.607
 3055SOL    HW210065   4.909   0.409   3.493
 3056SOL     OW10066   0.210   0.282   6.775
 3056SOL    HW110067   0.263   0.281   6.691
 3056SOL    HW210068   0.114   0.300   6.754
 3057SOL     OW10069   4.425   5.419   3.034
 3057SOL    HW110070   4.501   5.484   3.041
 3057SOL    HW210071   4.342   5.468   3.007
 3058SOL     OW10072   6.625   5.661   1.385
 3058SOL    HW110073   6.701   5.653   1.449
 3058SOL    HW210074   6.658   5.698   1.298
 3059SOL     OW10075   1.607   2.661   5.227
 3059SOL    HW110076   1.668   2.595   5.182
 3059SOL    HW210077   1.520   2.664   5.178
 3060SOL     OW10078   0.258   6.169   0.158
 3060SOL    HW110079   0.191   6.157   0.084
 3060SOL    HW210080   0.232   6.111   0.236
 3061SOL     OW10081   6.880   1.098   4.986
 3061SOL    HW110082   6.914   1.110   4.893
 3061SOL    HW210083   6.931   1.026   5.032
 3062SOL     OW10084   1.312   6.715   0.422
 3062SOL    HW110085   1.334   6.681   0.330
 3062SOL    HW210086   1.368   6.668   0.489
 3063SOL     OW10087   2.310   5.028   1.954
 3063SOL    HW110088   2.319   4.946   2.011
 3063SOL    HW210089   2.361   5.015   1.869
 3064SOL     OW10090   6.019   3.217   3.599
 3064SOL    HW110091   6.103   3.172   3.568
 3064SOL    HW210092   5.958   3.150   3.639
 3065SOL     OW10093   1.998   0.487   6.576
 3065SOL    HW110094   2.057   0.416   6.538
 3065SOL    HW210095   1.947   0.531   6.502
 3066SOL     OW10096   5.543   4.445   0.742
 3066SOL    HW110097   5.470   4.429   0.809
 3066SOL    HW210098   5.576   4.539   0.751
 3067SOL     OW10099   3.397   1.247   4.340
 3067SOL    HW110100   3.416   1.174   4.275
 3067SOL    HW210101   3.399   1.335   4.293
 3068SOL     OW10102   5.425   5.953   0.551
 3068SOL    HW110103   5.442   5.855   0.560
 3068SOL    HW210104   5.508   6.004   0.576
 3069SOL     OW10105   6.770   5.681   1.682
 3069SOL    HW110106   6.771   5.752   1.753
 3069SOL    HW210107   6.823   5.713   1.603
 3070SOL     OW10108   2.031   0.788   1.988
 3070SOL    HW110109   2.066   0.788   1.894
 3070SOL    HW210110   1.944   0.836   1.991
 3071SOL     OW10111   6.298   6.618   3.582
 3071SOL    HW110112   6.335   6.639   3.672
 3071SOL    HW210113   6.301   6.700   3.525
 3072SOL     OW10114   1.117   6.099   0.956
 3072SOL    HW110115   1.043   6.161   0.932
 3072SOL    HW210116   1.132   6.035   0.880
 3073SOL     OW10117   0.932   3.396   4.724
 3073SOL    HW110118   1.011   3.388   4.785
 3073SOL    HW210119   0.933   3.321   4.658
 3074SOL     OW10120   5.533   2.924   0.821
 3074SOL    HW110121   5.568   2.990   0.887
 3074SOL    HW210122   5.552   2.831   0.854
 3075SOL     OW10123   1.766   6.120   1.170
 3075SOL    HW110124   1.808   6.068   1.096
 3075SOL    HW210125   1.678   6.079   1.194
 3076SOL     OW10126   6.707   0.795   4.038
 3076SOL    HW110127   6.674   0.749   4.121
 3076SOL    HW210128   6.790   0.846   4.060
 3077SOL     OW10129   5.306   4.375   2.560
 3077SOL    HW110130   5.337   4.469   2.574
 3077SOL    HW210131   5.223   4.375   2.504
 3078SOL     OW10132   2.153   3.565   1.033
 3078SOL    HW110133   2.240   3.575   1.081
 3078SOL    HW210134   2.079   3.561   1.100
 3079SOL     OW10135   1.878   2.549   4.503
 3079SOL    HW110136   1.938   2.526   4.427
 3079SOL    HW210137   1.930   2.601   4.571
 3080SOL     OW10138   5.775   4.768   2.472
 3080SOL    HW110139   5.826   4.682   2.472
 3080SOL    HW210140   5.698   4.761   2.535
 3081SOL     OW10141   0.508   4.545   6.013
 3081SOL    HW110142   0.599   4.503   6.023
 3081SOL    HW210143   0.467   4.516   5.927
 3082SOL     OW10144   3.750   0.012   3.527
 3082SOL    HW110145   3.819   0.007   3.599
 3082SOL    HW210146   3.767   6.964   3.460
 3083SOL     OW10147   3.886   6.619   3.062
 3083SOL    HW110148   3.846   6.558   2.993
 3083SOL    HW210149   3.854   6.713   3.046
 3084SOL     OW10150   4.586   4.829   4.578
 3084SOL    HW110151   4.677   4.790   4.562
 3084SOL    HW210152   4.517   4.762   4.549
 3085SOL     OW10153   0.212   4.655   2.774
 3085SOL    HW110154   0.202   4.605   2.859
 3085SOL    HW210155   0.303   4.640   2.736
 3086SOL     OW10156   4.309   1.591   1.387
 3086SOL    HW110157   4.262   1.659   1.331
 3086SOL    HW210158   4.268   1.588   1.478
 3087SOL     OW10159   0.353   4.815   4.039
 3087SOL    HW110160   0.402   4.731   4.015
 3087SOL    HW210161   0.324   4.862   3.956
 3088SOL     OW10162   2.500   4.986   5.649
 3088SOL    HW110163   2.563   5.022   5.717
 3088SOL    HW210164   2.487   4.888   5.664
 3089SOL     OW10165   1.058   2.884   0.108
 3089SOL    HW110166   1.135   2.918   0.053
 3089SOL    HW210167   1.024   2.957   0.167
 3090SOL     OW10168   1.787   1.838   1.635
 3090SOL    HW110169   1.875   1.886   1.640
 3090SOL    HW210170   1.725   1.875   1.704
 3091SOL     OW10171   2.842   6.372   0.408
 3091SOL    HW110172   2.757   6.323   0.428
 3091SOL    HW210173   2.824   6.441   0.338
 3092SOL     OW10174   4.975   0.362   7.012
 3092SOL    HW110175   4.973   0.434   6.943
 3092SOL    HW210176   4.988   0.401   0.078
 3093SOL     OW10177   5.517   5.068   5.646
 3093SOL    HW110178   5.431   5.017   5.642
 3093SOL    HW210179   5.521   5.120   5.732
 3094SOL     OW10180   3.498   0.007   5.027
 3094SOL    HW110181   3.467   6.962   5.091
 3094SOL    HW210182   3.425   0.074   5.013
 3095SOL     OW10183   2.787   4.921   4.408
 3095SOL    HW110184   2.747   4.830   4.417
 3095SOL    HW210185   2.792   4.945   4.311
 3096SOL     OW10186   0.512   0.369   4.255
 3096SOL    HW110187   0.463   0.420   4.185
 3096SOL    HW210188   0.466   0.382   4.343
 3097SOL     OW10189   0.704   2.714   0.704
 3097SOL    HW110190   0.698   2.615   0.712
 3097SOL    HW210191   0.702   2.740   0.607
 3098SOL     OW10192   2.317   3.445   1.407
 3098SOL    HW110193   2.290   3.352   1.431
 3098SOL    HW210194   2.409   3.463   1.442
 3099SOL     OW10195   0.110   5.950   4.844
 3099SOL    HW110196   0.203   5.950   4.808
 3099SOL    HW210197   0.107   6.001   4.930
 3100SOL     OW10198   6.686   0.304   4.411
 3100SOL    HW110199   6.716   0.301   4.315
 3100SOL    HW210200   6.760   0.273   4.470
 3101SOL     OW10201   4.479   6.194   5.366
 3101SOL    HW110202   4.463   6.268   5.301
 3101SOL    HW210203   4.495   6.232   5.457
 3102SOL     OW10204   1.250   4.817   2.161
 3102SOL    HW110205   1.163   4.803   2.113
 3102SOL    HW210206   1.288   4.906   2.136
 3103SOL     OW10207   3.254   1.728   1.488
 3103SOL    HW110208   3.174   1.700   1.435
 3103SOL    HW210209   3.236   1.815   1.532
 3104SOL     OW10210   5.991   6.857   4.315
 3104SOL    HW110211   5.949   6.907   4.239
 3104SOL    HW210212   6.008   6.921   4.390
 3105SOL     OW10213   6.411   5.438   3.387
 3105SOL    HW110214   6.458   5.492   3.457
 3105SOL    HW210215   6.415   5.341   3.411
 3106SOL     OW10216   6.799   1.422   2.893
 3106SOL    HW110217   6.792   1.480   2.974
 3106SOL    HW210218   6.709   1.387   2.869
 3107SOL     OW10219   3.549   0.342   4.393
 3107SOL    HW110220   3.514   0.259   4.437
 3107SOL    HW210221   3.502   0.422   4.431
 3108SOL     OW10222   1.999   0.647   4.585
 3108SOL    HW110223   1.956   0.666   4.674
 3108SOL    HW210224   2.036   0.554   4.586
 3109SOL     OW10225   5.843   5.774   2.935
 3109SOL    HW110226   5.928   5.724   2.950
 3109SOL    HW210227   5.862   5.872   2.931
 3110SOL     OW10228   1.103   1.536   3.762
 3110SOL    HW110229   1.130   1.461   3.702
 3110SOL    HW210230   1.162   1.537   3.843
 3111SOL     OW10231   6.431   5.557   4.148
 3111SOL    HW110232   6.339   5.520   4.140
 3111SOL    HW210233   6.430   5.654   4.123
 3112SOL     OW10234   5.072   2.684   5.943
 3112SOL    HW110235   4.983   2.729   5.948
 3112SOL    HW210236   5.121   2.697   6.029
 3113SOL     OW10237   2.029   0.049   4.473
 3113SOL    HW110238   2.093   0.074   4.401
 3113SOL    HW210239   2.017   6.975   4.474
 3114SOL     OW10240   4.727   3.262   0.103
 3114SOL    HW110241   4.658   3.278   0.031
 3114SOL    HW210242   4.757   3.167   0.099
 3115SOL     OW10243   4.680   3.420   0.317
 3115SOL    HW110244   4.701   3.389   0.225
 3115SOL    HW210245   4.765   3.439   0.366
 3116SOL     OW10246   0.653   3.930   6.765
 3116SOL    HW110247   0.572   3.954   6.818
 3116SOL    HW210248   0.630   3.858   6.699
 3117SOL     OW10249   4.598   3.765   5.350
 3117SOL    HW110250   4.500   3.782   5.335
 3117SOL    HW210251   4.635   3.712   5.274
 3118SOL     OW10252   6.864   4.632   6.939
 3118SOL    HW110253   6.789   4.698   6.950
 3118SOL    HW210254   6.891   4.628   6.843
 3119SOL     OW10255   1.838   3.755   5.375
 3119SOL    HW110256   1.847   3.764   5.276
 3119SOL    HW210257   1.912   3.698   5.410
 3120SOL     OW10258   2.476   6.183   4.640
 3120SOL    HW110259   2.416   6.186   4.719
 3120SOL    HW210260   2.430   6.136   4.564
 3121SOL     OW10261   0.842   1.114   2.185
 3121SOL    HW110262   0.876   1.039   2.241
 3121SOL    HW210263   0.869   1.201   2.225
 3122SOL     OW10264   3.616   5.993   6.043
 3122SOL    HW110265   3.608   5.941   6.128
 3122SOL    HW210266   3.560   5.950   5.972
 3123SOL     OW10267   3.599   6.522   3.958
 3123SOL    HW110268   3.645   6.435   3.977
 3123SOL    HW210269   3.522   6.506   3.897
 3124SOL     OW10270   3.598   0.654   5.235
 3124SOL    HW110271   3.500   0.671   5.225
 3124SOL    HW210272   3.618   0.558   5.215
 3125SOL     OW10273   6.138   2.079   6.230
 3125SOL    HW110274   6.102   2.081   6.136
 3125SOL    HW210275   6.133   2.171   6.269
 3126SOL     OW10276   5.023   4.812   6.599
 3126SOL    HW110277   5.068   4.852   6.679
 3126SOL    HW210278   4.965   4.881   6.555
 3127SOL     OW10279   0.493   2.533   2.826
 3127SOL    HW110280   0.521   2.492   2.739
 3127SOL    HW210281   0.475   2.461   2.893
 3128SOL     OW10282   1.588   0.430   0.305
 3128SOL    HW110283   1.585   0.521   0.346
 3128SOL    HW210284   1.603   0.438   0.207
 3129SOL     OW10285   0.727   4.542   6.464
 3129SOL    HW110286   0.719   4.465   6.400
 3129SOL    HW210287   0.637   4.582   6.479
 3130SOL     OW10288   2.521   4.544   2.564
 3130SOL    HW110289   2.597   4.609   2.559
 3130SOL    HW210290   2.435   4.592   2.552
 3131SOL     OW10291   1.268   2.915   2.290
 3131SOL    HW110292   1.341   2.930   2.223
 3131SOL    HW210293   1.267   2.819   2.317
 3132SOL     OW10294   5.420   6.251   5.252
 3132SOL    HW110295   5.462   6.168   5.216
 3132SOL    HW210296   5.342   6.227   5.310
 3133SOL     OW10297   2.675   2.049   3.985
 3133SOL    HW110298   2.646   2.067   3.891
 3133SOL    HW210299   2.601   2.072   4.048
 3134SOL     OW10300   5.594   3.784   1.610
 3134SOL    HW110301   5.505   3.737   1.604
 3134SOL    HW210302   5.583   3.867   1.664
 3135SOL     OW10303   4.444   2.108   4.600
 3135SOL    HW110304   4.382   2.044   4.646
 3135SOL    HW210305   4.523   2.126   4.659
 3136SOL     OW10306   5.952   6.476   5.381
 3136SOL    HW110307   5.977   6.379   5.385
 3136SOL    HW210308   5.886   6.490   5.308
 3137SOL     OW10309   5.323   0.880   3.717
 3137SOL    HW110310   5.309   0.959   3.777
 3137SOL    HW210311   5.309   0.907   3.622
 3138SOL     OW10312   6.364   1.726   4.456
 3138SOL    HW110313   6.411   1.642   4.430
 3138SOL    HW210314   6.388   1.751   4.550
 3139SOL     OW10315   5.002   0.054   6.451
 3139SOL    HW110316   4.929   0.102   6.403
 3139SOL    HW210317   5.026   6.996   6.400
 3140SOL     OW10318   6.547   5.719   6.152
 3140SOL    HW110319   6.496   5.696   6.235
 3140SOL    HW210320   6.484   5.750   6.082
 3141SOL     OW10321   0.815   6.465   6.399
 3141SOL    HW110322   0.739   6.522   6.432
 3141SOL    HW210323   0.894   6.522   6.381
 3142SOL     OW10324   5.017   6.524   0.388
 3142SOL    HW110325   4.985   6.436   0.423
 3142SOL    HW210326   5.092   6.557   0.444
 3143SOL     OW10327   6.944   2.455   6.689
 3143SOL    HW110328   6.998   2.371   6.687
 3143SOL    HW210329   6.982   2.520   6.622
 3144SOL     OW10330   2.510   3.582   0.816
 3144SOL    HW110331   2.532   3.511   0.882
 3144SOL    HW210332   2.528   3.548   0.724
 3145SOL     OW10333   2.328   5.541   2.777
 3145SOL    HW110334   2.391   5.571   2.706
 3145SOL    HW210335   2.282   5.620   2.817
 3146SOL     OW10336   1.084   6.112   3.449
 3146SOL    HW110337   1.101   6.098   3.351
 3146SOL    HW210338   1.074   6.024   3.494
 3147SOL     OW10339   4.211   5.418   6.964
 3147SOL    HW110340   4.307   5.410   6.937
 3147SOL    HW210341   4.153   5.370   6.899
 3148SOL     OW10342   4.162   5.616   4.388
 3148SOL    HW110343   4.086   5.553   4.378
 3148SOL    HW210344   4.240   5.584   4.334
 3149SOL     OW10345   3.069   0.228   5.648
 3149SOL    HW110346   3.157   0.233   5.696
 3149SOL    HW210347   3.010   0.303   5.679
 3150SOL     OW10348   5.335   6.238   4.335
 3150SOL    HW110349   5.374   6.165   4.392
 3150SOL    HW210350   5.396   6.318   4.337
 3151SOL     OW10351   4.945   1.541   6.244
 3151SOL    HW110352   4.897   1.456   6.267
 3151SOL    HW210353   4.900   1.618   6.291
 3152SOL     OW10354   1.318   5.158   1.849
 3152SOL    HW110355   1.231   5.136   1.805
 3152SOL    HW210356   1.324   5.111   1.936
 3153SOL     OW10357   6.419   4.080   1.873
 3153SOL    HW110358   6.329   4.080   1.829
 3153SOL    HW210359   6.472   4.001   1.840
 3154SOL     OW10360   6.422   2.188   0.126
 3154SOL    HW110361   6.422   2.167   0.029
 3154SOL    HW210362   6.374   2.116   0.176
 3155SOL     OW10363   0.552   5.049   1.678
 3155SOL    HW110364   0.639   5.001   1.664
 3155SOL    HW210365   0.476   4.985   1.664
 3156SOL     OW10366   4.108   3.202   4.118
 3156SOL    HW110367   4.184   3.138   4.118
 3156SOL    HW210368   4.044   3.179   4.044
 3157SOL     OW10369   1.241   2.773   4.590
 3157SOL    HW110370   1.271   2.822   4.507
 3157SOL    HW210371   1.178   2.700   4.564
 3158SOL     OW10372   4.848   0.263   1.560
 3158SOL    HW110373   4.890   0.354   1.556
 3158SOL    HW210374   4.766   0.262   1.503
 3159SOL     OW10375   4.987   6.431   0.088
 3159SOL    HW110376   4.971   6.486   0.170
 3159SOL    HW210377   5.049   6.480   0.027
 3160SOL     OW10378   6.327   4.678   6.178
 3160SOL    HW110379   6.323   4.749   6.248
 3160SOL    HW210380   6.247   4.686   6.118
 3161SOL     OW10381   1.286   1.657   2.788
 3161SOL    HW110382   1.237   1.739   2.757
 3161SOL    HW210383   1.362   1.685   2.847
 3162SOL     OW10384   6.878   5.503   0.160
 3162SOL    HW110385   6.965   5.460   0.181
 3162SOL    HW210386   6.841   5.545   0.244
 3163SOL     OW10387   3.727   2.879   5.994
 3163SOL    HW110388   3.824   2.896   5.976
 3163SOL    HW210389   3.696   2.936   6.070
 3164SOL     OW10390   5.062   4.297   1.674
 3164SOL    HW110391   5.009   4.369   1.717
 3164SOL    HW210392   5.136   4.337   1.619
 3165SOL     OW10393   1.341   6.584   2.181
 3165SOL    HW110394   1.355   6.678   2.213
 3165SOL    HW210395   1.254   6.578   2.133
 3166SOL     OW10396   5.200   2.998   5.967
 3166SOL    HW110397   5.136   2.997   6.044
 3166SOL    HW210398   5.260   2.918   5.972
 3167SOL     OW10399   6.368   4.740   1.683
 3167SOL    HW110400   6.318   4.819   1.647
 3167SOL    HW210401   6.307   4.687   1.742
 3168SOL     OW10402   5.253   2.869   0.873
 3168SOL    HW110403   5.337   2.922   0.874
 3168SOL    HW210404   5.201   2.886   0.956
 3169SOL     OW10405   0.837   3.400   5.864
 3169SOL    HW110406   0.851   3.306   5.896
 3169SOL    HW210407   0.852   3.464   5.940
 3170SOL     OW10408   3.666   0.356   0.000
 3170SOL    HW110409   3.724   0.317   6.954
 3170SOL    HW210410   3.701   0.329   0.090
 3171SOL     OW10411   6.444   6.761   1.538
 3171SOL    HW110412   6.469   6.857   1.529
 3171SOL    HW210413   6.410   6.727   1.450
 3172SOL     OW10414   6.782   6.207   4.999
 3172SOL    HW110415   6.821   6.140   4.936
 3172SOL    HW210416   6.706   6.166   5.049
 3173SOL     OW10417   2.367   0.690   2.398
 3173SOL    HW110418   2.336   0.784   2.381
 3173SOL    HW210419   2.301   0.626   2.361
 3174SOL     OW10420   2.480   3.278   6.153
 3174SOL    HW110421   2.463   3.200   6.093
 3174SOL    HW210422   2.514   3.355   6.100
 3175SOL     OW10423   0.982   6.315   6.696
 3175SOL    HW110424   0.926   6.284   6.773
 3175SOL    HW210425   0.962   6.412   6.677
 3176SOL     OW10426   1.616   4.432   6.038
 3176SOL    HW110427   1.539   4.468   5.985
 3176SOL    HW210428   1.667   4.368   5.982
 3177SOL     OW10429   5.771   5.205   6.008
 3177SOL    HW110430   5.692   5.193   5.948
 3177SOL    HW210431   5.821   5.118   6.015
 3178SOL     OW10432   0.245   4.143   1.989
 3178SOL    HW110433   0.154   4.124   2.026
 3178SOL    HW210434   0.286   4.058   1.954
 3179SOL     OW10435   1.911   2.177   2.012
 3179SOL    HW110436   1.969   2.246   2.054
 3179SOL    HW210437   1.821   2.178   2.055
 3180SOL     OW10438   4.447   1.073   5.809
 3180SOL    HW110439   4.534   1.040   5.846
 3180SOL    HW210440   4.378   1.071   5.881
 3181SOL     OW10441   0.682   0.982   3.652
 3181SOL    HW110442   0.644   0.891   3.634
 3181SOL    HW210443   0.698   0.992   3.750
 3182SOL     OW10444   0.609   0.408   5.723
 3182SOL    HW110445   0.562   0.324   5.751
 3182SOL    HW210446   0.708   0.396   5.733
 3183SOL     OW10447   3.939   4.703   1.529
 3183SOL    HW110448   3.989   4.683   1.614
 3183SOL    HW210449   3.887   4.623   1.501
 3184SOL     OW10450   2.455   1.856   2.234
 3184SOL    HW110451   2.417   1.933   2.182
 3184SOL    HW210452   2.548   1.837   2.204
 3185SOL     OW10453   0.240   0.154   5.374
 3185SOL    HW110454   0.233   0.254   5.366
 3185SOL    HW210455   0.250   0.114   5.283
 3186SOL     OW10456   3.381   1.184   3.066
 3186SOL    HW110457   3.310   1.181   3.136
 3186SOL    HW210458   3.366   1.261   3.005
 3187SOL     OW10459   3.873   4.179   0.183
 3187SOL    HW110460   3.831   4.159   0.094
 3187SOL    HW210461   3.954   4.122   0.195
 3188SOL     OW10462   3.426   6.141   2.789
 3188SOL    HW110463   3.398   6.049   2.818
 3188SOL    HW210464   3.525   6.142   2.775
 3189SOL     OW10465   1.561   0.806   2.924
 3189SOL    HW110466   1.644   0.840   2.880
 3189SOL    HW210467   1.481   0.839   2.875
 3190SOL     OW10468   1.406   6.470   1.649
 3190SOL    HW110469   1.341   6.394   1.649
 3190SOL    HW210470   1.370   6.544   1.592
 3191SOL     OW10471   3.728   0.926   1.435
 3191SOL    HW110472   3.639   0.935   1.479
 3191SOL    HW210473   3.717   0.938   1.336
 3192SOL     OW10474   0.784   1.707   0.448
 3192SOL    HW110475   0.692   1.694   0.487
 3192SOL    HW210476   0.784   1.789   0.390
 3193SOL     OW10477   4.404   2.168   6.025
 3193SOL    HW110478   4.353   2.115   5.957
 3193SOL    HW210479   4.340   2.205   6.092
 3194SOL     OW10480   1.478   3.360   6.508
 3194SOL    HW110481   1.571   3.329   6.526
 3194SOL    HW210482   1.459   3.354   6.410
 3195SOL     OW10483   1.754   2.542   3.156
 3195SOL    HW110484   1.849   2.523   3.181
 3195SOL    HW210485   1.707   2.587   3.233
 3196SOL     OW10486   0.067   0.206   4.495
 3196SOL    HW110487   0.088   0.188   4.591
 3196SOL    HW210488   7.022   0.141   4.464
 3197SOL     OW10489   1.079   5.742   3.079
 3197SOL    HW110490   1.096   5.648   3.109
 3197SOL    HW210491   1.155   5.800   3.108
 3198SOL     OW10492   6.782   2.071   6.125
 3198SOL    HW110493   6.831   2.115   6.201
 3198SOL    HW210494   6.789   2.128   6.043
 3199SOL     OW10495   4.450   1.832   1.963
 3199SOL    HW110496   4.514   1.820   2.039
 3199SOL    HW210497   4.461   1.923   1.924
 3200SOL     OW10498   0.165   2.643   0.914
 3200SOL    HW110499   0.069   2.631   0.891
 3200SOL    HW210500   0.174   2.710   0.987
 3201SOL     OW10501   5.200   3.683   3.897
 3201SOL    HW110502   5.297   3.681   3.874
 3201SOL    HW210503   5.188   3.723   3.988
 3202SOL     OW10504   1.936   4.200   2.992
 3202SOL    HW110505   1.933   4.186   2.893
 3202SOL    HW210506   1.856   4.156   3.034
 3203SOL     OW10507   6.427   0.825   1.563
 3203SOL    HW110508   6.371   0.763   1.509
 3203SOL    HW210509   6.521   0.791   1.567
 3204SOL     OW10510   5.900   5.589   1.730
 3204SOL    HW110511   5.911   5.683   1.763
 3204SOL    HW210512   5.867   5.531   1.805
 3205SOL     OW10513   6.493   4.035   6.317
 3205SOL    HW110514   6.485   4.085   6.231
 3205SOL    HW210515   6.557   3.959   6.305
 3206SOL     OW10516   0.208   6.770   5.753
 3206SOL    HW110517   0.235   6.693   5.811
 3206SOL    HW210518   0.115   6.797   5.774
 3207SOL     OW10519   0.909   1.391   5.325
 3207SOL    HW110520   0.844   1.464   5.304
 3207SOL    HW210521   0.907   1.323   5.252
 3208SOL     OW10522   4.351   5.761   5.061
 3208SOL    HW110523   4.327   5.669   5.032
 3208SOL    HW210524   4.384   5.759   5.156
 3209SOL     OW10525   2.922   6.738   4.349
 3209SOL    HW110526   2.828   6.721   4.377
 3209SOL    HW210527   2.934   6.711   4.254
 3210SOL     OW10528   0.022   3.747   2.619
 3210SOL    HW110529   6.950   3.771   2.605
 3210SOL    HW210530   0.043   3.748   2.717
 3211SOL     OW10531   2.312   4.336   0.843
 3211SOL    HW110532   2.336   4.325   0.940
 3211SOL    HW210533   2.256   4.418   0.832
 3212SOL     OW10534   4.295   2.465   6.401
 3212SOL    HW110535   4.356   2.540   6.378
 3212SOL    HW210536   4.271   2.469   6.498
 3213SOL     OW10537   5.456   5.650   3.266
 3213SOL    HW110538   5.555   5.640   3.272
 3213SOL    HW210539   5.417   5.566   3.228
 3214SOL     OW10540   4.496   6.215   6.837
 3214SOL    HW110541   4.432   6.146   6.803
 3214SOL    HW210542   4.561   6.239   6.764
 3215SOL     OW10543   6.963   2.598   0.285
 3215SOL    HW110544   6.889   2.636   0.230
 3215SOL    HW210545   6.950   2.499   0.295
 3216SOL     OW10546   5.490   6.133   3.424
 3216SOL    HW110547   5.449   6.152   3.513
 3216SOL    HW210548   5.419   6.109   3.358
 3217SOL     OW10549   0.946   4.629   2.877
 3217SOL    HW110550   0.944   4.595   2.971
 3217SOL    HW210551   0.852   4.645   2.846
 3218SOL     OW10552   3.794   6.869   3.035
 3218SOL    HW110553   3.776   6.964   3.063
 3218SOL    HW210554   3.737   6.847   2.956
 3219SOL     OW10555   0.200   0.352   2.779
 3219SOL    HW110556   0.166   0.286   2.713
 3219SOL    HW210557   0.185   0.445   2.744
 3220SOL     OW10558   0.251   4.534   4.909
 3220SOL    HW110559   0.277   4.440   4.931
 3220SOL    HW210560   0.196   4.535   4.826
 3221SOL     OW10561   2.262   6.580   3.078
 3221SOL    HW110562   2.219   6.660   3.119
 3221SOL    HW210563   2.340   6.551   3.134
 3222SOL     OW10564   5.138   1.881   2.930
 3222SOL    HW110565   5.163   1.818   2.856
 3222SOL    HW210566   5.061   1.937   2.901
 3223SOL     OW10567   2.595   5.365   6.358
 3223SOL    HW110568   2.568   5.442   6.418
 3223SOL    HW210569   2.643   5.297   6.413
 3224SOL     OW10570   4.475   5.580   0.035
 3224SOL    HW110571   4.383   5.615   0.051
 3224SOL    HW210572   4.539   5.656   0.023
 3225SOL     OW10573   4.027   3.166   0.114
 3225SOL    HW110574   3.977   3.103   0.055
 3225SOL    HW210575   4.052   3.248   0.062
 3226SOL     OW10576   2.322   0.824   4.255
 3226SOL    HW110577   2.329   0.768   4.337
 3226SOL    HW210578   2.226   0.848   4.239
 3227SOL     OW10579   3.657   1.888   5.716
 3227SOL    HW110580   3.704   1.976   5.707
 3227SOL    HW210581   3.715   1.815   5.682
 3228SOL     OW10582   6.175   3.248   4.097
 3228SOL    HW110583   6.270   3.226   4.075
 3228SOL    HW210584   6.126   3.164   4.121
 3229SOL     OW10585   3.494   2.103   6.033
 3229SOL    HW110586   3.445   2.019   6.056
 3229SOL    HW210587   3.449   2.147   5.955
 3230SOL     OW10588   0.332   1.020   2.877
 3230SOL    HW110589   0.371   1.096   2.824
 3230SOL    HW210590   0.383   1.010   2.962
 3231SOL     OW10591   4.523   5.517   1.284
 3231SOL    HW110592   4.615   5.522   1.245
 3231SOL    HW210593   4.461   5.475   1.217
 3232SOL     OW10594   3.386   5.231   4.855
 3232SOL    HW110595   3.337   5.274   4.931
 3232SOL    HW210596   3.453   5.167   4.891
 3233SOL     OW10597   1.184   3.914   1.307
 3233SOL    HW110598   1.174   3.827   1.258
 3233SOL    HW210599   1.119   3.917   1.383
 3234SOL     OW10600   0.240   2.215   0.174
 3234SOL    HW110601   0.227   2.314   0.170
 3234SOL    HW210602   0.188   2.171   0.101
 3235SOL     OW10603   5.658   6.729   2.796
 3235SOL    HW110604   5.603   6.686   2.725
 3235SOL    HW210605   5.659   6.671   2.877
 3236SOL     OW10606   1.112   2.600   2.183
 3236SOL    HW110607   1.032   2.561   2.227
 3236SOL    HW210608   1.176   2.633   2.253
 3237SOL     OW10609   4.588   6.542   4.752
 3237SOL    HW110610   4.570   6.456   4.705
 3237SOL    HW210611   4.501   6.586   4.775
 3238SOL     OW10612   0.593   5.512   6.518
 3238SOL    HW110613   0.539   5.528   6.600
 3238SOL    HW210614   0.629   5.599   6.485
 3239SOL     OW10615   6.179   0.672   5.942
 3239SOL    HW110616   6.154   0.598   5.879
 3239SOL    HW210617   6.266   0.712   5.914
 3240SOL     OW10618   0.510   0.142   4.593
 3240SOL    HW110619   0.558   0.229   4.592
 3240SOL    HW210620   0.572   0.070   4.626
 3241SOL     OW10621   5.006   1.316   3.700
 3241SOL    HW110622   4.937   1.360   3.758
 3241SOL    HW210623   5.007   1.217   3.718
 3242SOL     OW10624   3.816   6.067   6.221
 3242SOL    HW110625   3.910   6.080   6.189
 3242SOL    HW210626   3.761   6.030   6.146
 3243SOL     OW10627   4.421   5.280   0.131
 3243SOL    HW110628   4.447   5.365   0.087
 3243SOL    HW210629   4.443   5.203   0.071
 3244SOL     OW10630   4.236   6.011   5.789
 3244SOL    HW110631   4.291   6.003   5.705
 3244SOL    HW210632   4.239   6.105   5.822
 3245SOL     OW10633   4.146   3.340   6.261
 3245SOL    HW110634   4.197   3.336   6.176
 3245SOL    HW210635   4.126   3.247   6.292
 3246SOL     OW10636   5.973   6.928   2.480
 3246SOL    HW110637   5.923   6.950   2.564
 3246SOL    HW210638   5.922   6.860   2.429
 3247SOL     OW10639   0.045   3.550   4.052
 3247SOL    HW110640   0.131   3.543   4.001
 3247SOL    HW210641   6.994   3.531   3.990
 3248SOL     OW10642   6.337   3.303   2.147
 3248SOL    HW110643   6.331   3.204   2.138
 3248SOL    HW210644   6.251   3.338   2.184
 3249SOL     OW10645   3.266   4.875   5.009
 3249SOL    HW110646   3.246   4.897   4.914
 3249SOL    HW210647   3.241   4.780   5.028
 3250SOL     OW10648   5.063   6.684   2.548
 3250SOL    HW110649   5.060   6.690   2.648
 3250SOL    HW210650   4.985   6.631   2.516
 3251SOL     OW10651   3.996   1.729   2.995
 3251SOL    HW110652   3.964   1.679   3.075
 3251SOL    HW210653   3.923   1.733   2.926
 3252SOL     OW10654   3.056   1.054   2.865
 3252SOL    HW110655   3.016   1.145   2.869
 3252SOL    HW210656   3.051   1.011   2.955
 3253SOL     OW10657   4.808   2.965   1.360
 3253SOL    HW110658   4.882   3.028   1.333
 3253SOL    HW210659   4.720   3.011   1.350
 3254SOL     OW10660   4.030   4.833   3.492
 3254SOL    HW110661   4.086   4.912   3.469
 3254SOL    HW210662   4.059   4.797   3.581
 3255SOL     OW10663   4.320   5.752   0.211
 3255SOL    HW110664   4.394   5.728   0.274
 3255SOL    HW210665   4.349   5.829   0.154
 3256SOL     OW10666   5.201   6.724   5.977
 3256SOL    HW110667   5.274   6.761   6.034
 3256SOL    HW210668   5.129   6.792   5.967
 3257SOL     OW10669   1.584   1.888   1.142
 3257SOL    HW110670   1.541   1.812   1.190
 3257SOL    HW210671   1.601   1.863   1.047
 3258SOL     OW10672   4.932   6.869   1.643
 3258SOL    HW110673   4.959   6.774   1.629
 3258SOL    HW210674   5.010   6.929   1.626
 3259SOL     OW10675   4.298   6.066   4.182
 3259SOL    HW110676   4.286   6.142   4.118
 3259SOL    HW210677   4.222   6.065   4.247
 3260SOL     OW10678   1.555   1.474   6.920
 3260SOL    HW110679   1.592   1.388   6.954
 3260SOL    HW210680   1.509   1.459   6.833
 3261SOL     OW10681   4.095   6.938   0.837
 3261SOL    HW110682   4.150   6.904   0.761
 3261SOL    HW210683   4.014   6.985   0.801
 3262SOL     OW10684   3.582   1.770   3.423
 3262SOL    HW110685   3.488   1.779   3.456
 3262SOL    HW210686   3.643   1.753   3.501
 3263SOL     OW10687   4.372   6.658   2.195
 3263SOL    HW110688   4.369   6.732   2.128
 3263SOL    HW210689   4.284   6.610   2.196
 3264SOL     OW10690   0.235   5.342   0.071
 3264SOL    HW110691   0.237   5.348   6.996
 3264SOL    HW210692   0.237   5.435   0.109
 3265SOL     OW10693   4.337   2.044   6.430
 3265SOL    HW110694   4.329   2.068   6.333
 3265SOL    HW210695   4.409   1.976   6.442
 3266SOL     OW10696   0.298   2.630   6.520
 3266SOL    HW110697   0.344   2.718   6.511
 3266SOL    HW210698   0.331   2.582   6.601
 3267SOL     OW10699   3.524   2.048   1.113
 3267SOL    HW110700   3.534   1.964   1.166
 3267SOL    HW210701   3.440   2.094   1.139
 3268SOL     OW10702   0.983   3.985   0.273
 3268SOL    HW110703   1.002   3.887   0.278
 3268SOL    HW210704   0.953   4.018   0.362
 3269SOL     OW10705   4.445   4.458   1.244
 3269SOL    HW110706   4.430   4.480   1.341
 3269SOL    HW210707   4.542   4.440   1.229
 3270SOL     OW10708   0.631   5.301   3.816
 3270SOL    HW110709   0.554   5.348   3.858
 3270SOL    HW210710   0.672   5.239   3.883
 3271SOL     OW10711   5.979   2.509   1.820
 3271SOL    HW110712   6.022   2.590   1.862
 3271SOL    HW210713   6.014   2.427   1.864
 3272SOL     OW10714   3.712   0.715   0.650
 3272SOL    HW110715   3.666   0.694   0.563
 3272SOL    HW210716   3.733   0.631   0.698
 3273SOL     OW10717   1.014   6.170   2.420
 3273SOL    HW110718   0.955   6.128   2.352
 3273SOL    HW210719   1.003   6.123   2.508
 3274SOL     OW10720   2.892   1.947   5.584
 3274SOL    HW110721   2.811   1.993   5.549
 3274SOL    HW210722   2.926   1.995   5.665
 3275SOL     OW10723   2.130   0.616   6.784
 3275SOL    HW110724   2.134   0.709   6.748
 3275SOL    HW210725   2.075   0.558   6.724
 3276SOL     OW10726   3.225   5.681   6.301
 3276SOL    HW110727   3.188   5.712   6.388
 3276SOL    HW210728   3.303   5.619   6.318
 3277SOL     OW10729   7.011   6.385   5.873
 3277SOL    HW110730   0.053   6.315   5.848
 3277SOL    HW210731   0.012   6.426   5.961
 3278SOL     OW10732   1.216   1.181   5.354
 3278SOL    HW110733   1.209   1.083   5.370
 3278SOL    HW210734   1.206   1.230   5.441
 3279SOL     OW10735   0.122   6.938   1.166
 3279SOL    HW110736   0.078   6.965   1.252
 3279SOL    HW210737   0.092   6.998   1.092
 3280SOL     OW10738   2.486   5.210   6.174
 3280SOL    HW110739   2.485   5.120   6.219
 3280SOL    HW210740   2.518   5.279   6.239
 3281SOL     OW10741   2.584   5.708   0.154
 3281SOL    HW110742   2.677   5.699   0.190
 3281SOL    HW210743   2.584   5.769   0.075
 3282SOL     OW10744   2.794   5.312   4.245
 3282SOL    HW110745   2.759   5.379   4.311
 3282SOL    HW210746   2.732   5.309   4.166
 3283SOL     OW10747   3.051   0.833   3.454
 3283SOL    HW110748   3.024   0.769   3.526
 3283SOL    HW210749   3.122   0.792   3.396
 3284SOL     OW10750   6.961   5.776   6.999
 3284SOL    HW110751   6.942   5.729   0.060
 3284SOL    HW210752   0.034   5.792   6.991
 3285SOL     OW10753   0.150   2.289   3.094
 3285SOL    HW110754   0.250   2.300   3.098
 3285SOL    HW210755   0.110   2.317   3.180
 3286SOL     OW10756   3.350   3.651   4.807
 3286SOL    HW110757   3.409   3.730   4.791
 3286SOL    HW210758   3.391   3.593   4.877
 3287SOL     OW10759   2.111   5.404   0.240
 3287SOL    HW110760   2.184   5.336   0.246
 3287SOL    HW210761   2.053   5.383   0.161
 3288SOL     OW10762   0.539   5.773   6.168
 3288SOL    HW110763   0.615   5.722   6.207
 3288SOL    HW210764   0.570   5.865   6.144
 3289SOL     OW10765   0.188   6.232   5.336
 3289SOL    HW110766   0.207   6.327   5.361
 3289SOL    HW210767   0.263   6.174   5.365
 3290SOL     OW10768   6.923   5.498   1.888
 3290SOL    HW110769   6.979   5.546   1.820
 3290SOL    HW210770   6.887   5.414   1.848
 3291SOL     OW10771   1.621   6.248   6.720
 3291SOL    HW110772   1.600   6.176   6.786
 3291SOL    HW210773   1.535   6.285   6.683
 3292SOL     OW10774   6.749   6.534   6.421
 3292SOL    HW110775   6.784   6.602   6.356
 3292SOL    HW210776   6.823   6.474   6.449
 3293SOL     OW10777   7.002   1.014   3.031
 3293SOL    HW110778   7.024   0.997   2.935
 3293SOL    HW210779   0.048   1.073   3.070
 3294SOL     OW10780   6.539   0.467   5.984
 3294SOL    HW110781   6.579   0.530   5.918
 3294SOL    HW210782   6.500   0.519   6.060
 3295SOL     OW10783   2.426   2.544   0.859
 3295SOL    HW110784   2.350   2.568   0.920
 3295SOL    HW210785   2.392   2.490   0.783
 3296SOL     OW10786   2.082   6.797   2.483
 3296SOL    HW110787   2.130   6.805   2.571
 3296SOL    HW210788   2.011   6.867   2.478
 3297SOL     OW10789   3.096   2.344   5.731
 3297SOL    HW110790   3.014   2.297   5.698
 3297SOL    HW210791   3.172   2.325   5.670
 3298SOL     OW10792   6.605   3.354   2.909
 3298SOL    HW110793   6.545   3.397   2.842
 3298SOL    HW210794   6.671   3.422   2.942
 3299SOL     OW10795   1.222   6.961   4.794
 3299SOL    HW110796   1.147   6.989   4.734
 3299SOL    HW210797   1.259   0.016   4.841
 3300SOL     OW10798   6.385   6.741   4.715
 3300SOL    HW110799   6.423   6.716   4.804
 3300SOL    HW210800   6.329   6.666   4.679
 3301SOL     OW10801   0.216   3.591   3.247
 3301SOL    HW110802   0.226   3.530   3.326
 3301SOL    HW210803   0.304   3.637   3.230
 3302SOL     OW10804   1.497   4.697   3.828
 3302SOL    HW110805   1.428   4.692   3.755
 3302SOL    HW210806   1.468   4.641   3.905
 3303SOL     OW10807   3.959   3.067   3.937
 3303SOL    HW110808   3.931   2.982   3.982
 3303SOL    HW210809   3.965   3.052   3.839
 3304SOL     OW10810   0.669   6.168   4.124
 3304SOL    HW110811   0.721   6.084   4.107
 3304SOL    HW210812   0.730   6.238   4.162
 3305SOL     OW10813   1.796   0.704   1.539
 3305SOL    HW110814   1.842   0.661   1.617
 3305SOL    HW210815   1.700   0.716   1.560
 3306SOL     OW10816   2.149   3.790   3.452
 3306SOL    HW110817   2.145   3.884   3.419
 3306SOL    HW210818   2.121   3.788   3.548
 3307SOL     OW10819   6.720   6.096   0.562
 3307SOL    HW110820   6.730   6.122   0.466
 3307SOL    HW210821   6.639   6.140   0.601
 3308SOL     OW10822   4.391   5.996   0.512
 3308SOL    HW110823   4.295   5.996   0.539
 3308SOL    HW210824   4.437   5.918   0.553
 3309SOL     OW10825   1.017   4.846   3.533
 3309SOL    HW110826   1.087   4.852   3.463
 3309SOL    HW210827   0.934   4.805   3.495
 3310SOL     OW10828   0.755   4.755   2.718
 3310SOL    HW110829   0.687   4.697   2.763
 3310SOL    HW210830   0.771   4.837   2.773
 3311SOL     OW10831   4.056   6.892   1.121
 3311SOL    HW110832   4.097   6.966   1.173
 3311SOL    HW210833   4.084   6.899   1.025
 3312SOL     OW10834   3.178   4.074   6.044
 3312SOL    HW110835   3.090   4.049   6.004
 3312SOL    HW210836   3.221   4.146   5.989
 3313SOL     OW10837   0.844   5.216   3.582
 3313SOL    HW110838   0.934   5.177   3.598
 3313SOL    HW210839   0.802   5.241   3.670
 3314SOL     OW10840   1.996   3.145   4.890
 3314SOL    HW110841   1.907   3.129   4.847
 3314SOL    HW210842   2.069   3.121   4.826
 3315SOL     OW10843   6.868   2.442   3.733
 3315SOL    HW110844   6.952   2.399   3.701
 3315SOL    HW210845   6.811   2.375   3.781
 3316SOL     OW10846   4.687   2.197   6.011
 3316SOL    HW110847   4.591   2.171   6.021
 3316SOL    HW210848   4.695   2.269   5.942
 3317SOL     OW10849   4.579   2.841   1.679
 3317SOL    HW110850   4.566   2.896   1.761
 3317SOL    HW210851   4.521   2.876   1.606
 3318SOL     OW10852   2.745   5.851   5.228
 3318SOL    HW110853   2.715   5.942   5.258
 3318SOL    HW210854   2.752   5.791   5.307
 3319SOL     OW10855   0.703   6.423   4.517
 3319SOL    HW110856   0.799   6.427   4.488
 3319SOL    HW210857   0.686   6.335   4.563
 3320SOL     OW10858   6.061   0.820   5.266
 3320SOL    HW110859   6.027   0.913   5.280
 3320SOL    HW210860   6.158   0.823   5.243
 3321SOL     OW10861   3.666   3.016   3.124
 3321SOL    HW110862   3.595   3.084   3.142
 3321SOL    HW210863   3.681   2.961   3.207
 3322SOL     OW10864   3.782   2.414   0.932
 3322SOL    HW110865   3.712   2.476   0.966
 3322SOL    HW210866   3.750   2.320   0.938
 3323SOL     OW10867   2.187   4.679   0.137
 3323SOL    HW110868   2.106   4.620   0.142
 3323SOL    HW210869   2.269   4.624   0.151
 3324SOL     OW10870   1.028   3.357   0.299
 3324SOL    HW110871   0.993   3.393   0.386
 3324SOL    HW210872   1.015   3.425   0.227
 3325SOL     OW10873   1.492   2.786   0.610
 3325SOL    HW110874   1.425   2.847   0.653
 3325SOL    HW210875   1.582   2.829   0.611
 3326SOL     OW10876   6.673   1.826   1.192
 3326SOL    HW110877   6.740   1.884   1.240
 3326SOL    HW210878   6.628   1.879   1.121
 3327SOL     OW10879   3.028   6.758   2.117
 3327SOL    HW110880   3.105   6.709   2.158
 3327SOL    HW210881   2.943   6.728   2.160
 3328SOL     OW10882   4.905   1.340   2.387
 3328SOL    HW110883   4.874   1.283   2.311
 3328SOL    HW210884   4.920   1.433   2.354
 3329SOL     OW10885   4.138   0.827   5.370
 3329SOL    HW110886   4.137   0.727   5.370
 3329SOL    HW210887   4.202   0.860   5.301
 3330SOL     OW10888   5.735   6.928   2.121
 3330SOL    HW110889   5.781   6.845   2.087
 3330SOL    HW210890   5.668   6.902   2.191
 3331SOL     OW10891   2.137   3.433   3.150
 3331SOL    HW110892   2.189   3.358   3.110
 3331SOL    HW210893   2.060   3.456   3.090
 3332SOL     OW10894   4.414   5.362   0.398
 3332SOL    HW110895   4.466   5.285   0.434
 3332SOL    HW210896   4.376   5.336   0.309
 3333SOL     OW10897   3.465   3.665   1.633
 3333SOL    HW110898   3.465   3.744   1.571
 3333SOL    HW210899   3.371   3.634   1.646
 3334SOL     OW10900   1.964   2.183   2.496
 3334SOL    HW110901   2.058   2.150   2.488
 3334SOL    HW210902   1.962   2.282   2.480
 3335SOL     OW10903   3.836   4.419   5.276
 3335SOL    HW110904   3.807   4.514   5.292
 3335SOL    HW210905   3.788   4.382   5.197
 3336SOL     OW10906   3.877   6.928   3.963
 3336SOL    HW110907   3.919   6.900   4.050
 3336SOL    HW210908   3.807   6.997   3.981
 3337SOL     OW10909   3.605   4.094   2.955
 3337SOL    HW110910   3.676   4.096   3.025
 3337SOL    HW210911   3.515   4.100   2.998
 3338SOL     OW10912   2.218   1.298   1.181
 3338SOL    HW110913   2.294   1.303   1.246
 3338SOL    HW210914   2.137   1.262   1.228
 3339SOL     OW10915   2.381   0.530   5.706
 3339SOL    HW110916   2.307   0.548   5.770
 3339SOL    HW210917   2.464   0.578   5.736
 3340SOL     OW10918   4.205   1.237   3.990
 3340SOL    HW110919   4.186   1.234   3.892
 3340SOL    HW210920   4.273   1.168   4.013
 3341SOL     OW10921   2.545   4.924   2.574
 3341SOL    HW110922   2.503   4.866   2.644
 3341SOL    HW210923   2.581   5.008   2.617
 3342SOL     OW10924   6.311   0.454   2.746
 3342SOL    HW110925   6.313   0.490   2.839
 3342SOL    HW210926   6.260   0.368   2.745
 3343SOL     OW10927   4.930   5.597   6.414
 3343SOL    HW110928   4.984   5.538   6.474
 3343SOL    HW210929   4.960   5.584   6.319
 3344SOL     OW10930   0.456   3.145   1.668
 3344SOL    HW110931   0.525   3.109   1.731
 3344SOL    HW210932   0.381   3.186   1.719
 3345SOL     OW10933   0.502   4.396   0.918
 3345SOL    HW110934   0.465   4.340   0.992
 3345SOL    HW210935   0.434   4.405   0.845
 3346SOL     OW10936   2.166   0.938   6.974
 3346SOL    HW110937   2.127   0.916   6.885
 3346SOL    HW210938   2.183   0.853   7.025
 3347SOL     OW10939   0.821   3.131   6.311
 3347SOL    HW110940   0.780   3.069   6.377
 3347SOL    HW210941   0.912   3.157   6.343
 3348SOL     OW10942   3.951   3.984   6.175
 3348SOL    HW110943   4.010   4.063   6.155
 3348SOL    HW210944   3.985   3.904   6.127
 3349SOL     OW10945   2.749   4.806   3.850
 3349SOL    HW110946   2.746   4.896   3.894
 3349SOL    HW210947   2.662   4.759   3.865
 3350SOL     OW10948   0.182   4.122   5.638
 3350SOL    HW110949   0.115   4.048   5.629
 3350SOL    HW210950   0.238   4.125   5.555
 3351SOL     OW10951   5.089   0.832   0.751
 3351SOL    HW110952   5.065   0.785   0.836
 3351SOL    HW210953   5.074   0.771   0.674
 3352SOL     OW10954   5.267   2.678   6.510
 3352SOL    HW110955   5.182   2.679   6.563
 3352SOL    HW210956   5.264   2.749   6.440
 3353SOL     OW10957   2.158   0.825   1.725
 3353SOL    HW110958   2.118   0.884   1.654
 3353SOL    HW210959   2.248   0.793   1.694
 3354SOL     OW10960   3.752   2.805   5.731
 3354SOL    HW110961   3.776   2.896   5.696
 3354SOL    HW210962   3.727   2.813   5.828
 3355SOL     OW10963   1.866   1.059   4.759
 3355SOL    HW110964   1.819   1.140   4.793
 3355SOL    HW210965   1.952   1.086   4.716
 3356SOL     OW10966   1.597   6.716   5.351
 3356SOL    HW110967   1.520   6.711   5.414
 3356SOL    HW210968   1.647   6.630   5.353
 3357SOL     OW10969   3.067   3.216   2.194
 3357SOL    HW110970   3.123   3.281   2.143
 3357SOL    HW210971   3.100   3.123   2.175
 3358SOL     OW10972   6.392   0.974   2.732
 3358SOL    HW110973   6.393   0.876   2.710
 3358SOL    HW210974   6.313   0.994   2.790
 3359SOL     OW10975   6.864   5.727   4.163
 3359SOL    HW110976   6.945   5.697   4.114
 3359SOL    HW210977   6.841   5.660   4.234
 3360SOL     OW10978   0.045   3.012   5.604
 3360SOL    HW110979   6.999   3.079   5.583
 3360SOL    HW210980   0.006   2.939   5.661
 3361SOL     OW10981   0.403   0.944   4.673
 3361SOL    HW110982   0.438   1.037   4.676
 3361SOL    HW210983   0.457   0.886   4.735
 3362SOL     OW10984   3.833   1.968   3.732
 3362SOL    HW110985   3.773   2.018   3.669
 3362SOL    HW210986   3.841   2.020   3.817
 3363SOL     OW10987   5.670   3.436   1.266
 3363SOL    HW110988   5.654   3.354   1.320
 3363SOL    HW210989   5.696   3.511   1.327
 3364SOL     OW10990   2.492   4.450   2.845
 3364SOL    HW110991   2.519   4.451   2.749
 3364SOL    HW210992   2.433   4.371   2.862
 3365SOL     OW10993   1.817   3.004   4.472
 3365SOL    HW110994   1.757   3.052   4.408
 3365SOL    HW210995   1.911   3.038   4.461
 3366SOL     OW10996   6.446   3.475   4.307
 3366SOL    HW110997   6.382   3.467   4.384
 3366SOL    HW210998   6.408   3.430   4.227
 3367SOL     OW10999   3.474   3.532   4.513
 3367SOL    HW111000   3.437   3.543   4.606
 3367SOL    HW211001   3.573   3.547   4.515
 3368SOL     OW11002   1.732   5.797   6.823
 3368SOL    HW111003   1.690   5.790   6.732
 3368SOL    HW211004   1.827   5.769   6.817
 3369SOL     OW11005   4.538   2.282   1.161
 3369SOL    HW111006   4.553   2.343   1.238
 3369SOL    HW211007   4.463   2.317   1.105
 3370SOL     OW11008   0.236   5.554   1.916
 3370SOL    HW111009   0.177   5.598   1.984
 3370SOL    HW211010   0.309   5.504   1.963
 3371SOL     OW11011   2.284   2.880   3.155
 3371SOL    HW111012   2.351   2.830   3.212
 3371SOL    HW211013   2.286   2.977   3.180
 3372SOL     OW11014   6.479   3.148   1.349
 3372SOL    HW111015   6.475   3.048   1.348
 3372SOL    HW211016   6.525   3.179   1.432
 3373SOL     OW11017   0.167   2.334   1.795
 3373SOL    HW111018   0.154   2.433   1.796
 3373SOL    HW211019   0.078   2.289   1.801
 3374SOL     OW11020   1.026   0.341   3.509
 3374SOL    HW111021   1.076   0.265   3.467
 3374SOL    HW211022   1.082   0.382   3.581
 3375SOL     OW11023   6.990   4.910   6.837
 3375SOL    HW111024   7.019   4.899   6.742
 3375SOL    HW211025   0.043   4.896   6.898
 3376SOL     OW11026   2.435   3.702   5.701
 3376SOL    HW111027   2.462   3.646   5.623
 3376SOL    HW211028   2.336   3.696   5.714
 3377SOL     OW11029   5.751   4.471   3.292
 3377SOL    HW111030   5.832   4.501   3.241
 3377SOL    HW211031   5.673   4.530   3.270
 3378SOL     OW11032   1.365   6.423   6.644
 3378SOL    HW111033   1.366   6.522   6.661
 3378SOL    HW211034   1.423   6.403   6.565
 3379SOL     OW11035   0.772   3.901   3.972
 3379SOL    HW111036   0.753   3.929   4.066
 3379SOL    HW211037   0.738   3.971   3.909
 3380SOL     OW11038   3.956   4.111   5.878
 3380SOL    HW111039   3.971   4.024   5.832
 3380SOL    HW211040   3.920   4.178   5.814
 3381SOL     OW11041   1.621   3.016   1.365
 3381SOL    HW111042   1.551   3.014   1.294
 3381SOL    HW211043   1.635   3.110   1.395
 3382SOL     OW11044   6.927   2.593   0.864
 3382SOL    HW111045   6.848   2.552   0.910
 3382SOL    HW211046   6.934   2.689   0.890
 3383SOL     OW11047   4.540   4.929   6.799
 3383SOL    HW111048   4.615   4.992   6.820
 3383SOL    HW211049   4.457   4.959   6.845
 3384SOL     OW11050   3.206   4.329   0.729
 3384SOL    HW111051   3.176   4.305   0.822
 3384SOL    HW211052   3.219   4.245   0.676
 3385SOL     OW11053   0.430   2.307   3.124
 3385SOL    HW111054   0.461   2.213   3.115
 3385SOL    HW211055   0.505   2.369   3.100
 3386SOL     OW11056   6.669   4.835   6.936
 3386SOL    HW111057   6.592   4.776   6.914
 3386SOL    HW211058   6.656   4.874   0.002
 3387SOL     OW11059   6.355   0.549   3.004
 3387SOL    HW111060   6.262   0.525   3.035
 3387SOL    HW211061   6.421   0.486   3.045
 3388SOL     OW11062   5.608   3.187   1.382
 3388SOL    HW111063   5.535   3.126   1.412
 3388SOL    HW211064   5.652   3.228   1.462
 3389SOL     OW11065   6.046   6.259   0.800
 3389SOL    HW111066   5.980   6.190   0.827
 3389SOL    HW211067   5.997   6.340   0.765
 3390SOL     OW11068   3.858   6.591   6.140
 3390SOL    HW111069   3.784   6.651   6.168
 3390SOL    HW211070   3.821   6.511   6.093
 3391SOL     OW11071   5.565   2.939   3.294
 3391SOL    HW111072   5.608   2.996   3.365
 3391SOL    HW211073   5.608   2.849   3.293
 3392SOL     OW11074   4.300   7.018   5.782
 3392SOL    HW111075   4.377   0.026   5.837
 3392SOL    HW211076   4.286   0.053   5.704
 3393SOL     OW11077   5.148   6.811   1.076
 3393SOL    HW111078   5.195   6.768   1.153
 3393SOL    HW211079   5.160   6.755   0.994
 3394SOL     OW11080   3.042   5.665   1.614
 3394SOL    HW111081   3.075   5.752   1.577
 3394SOL    HW211082   2.946   5.674   1.641
 3395SOL     OW11083   3.772   0.470   3.068
 3395SOL    HW111084   3.807   0.556   3.032
 3395SOL    HW211085   3.740   0.413   2.992
 3396SOL     OW11086   4.411   2.147   3.936
 3396SOL    HW111087   4.389   2.054   3.964
 3396SOL    HW211088   4.472   2.188   4.004
 3397SOL     OW11089   2.131   5.539   6.377
 3397SOL    HW111090   2.183   5.618   6.342
 3397SOL    HW211091   2.076   5.501   6.302
 3398SOL     OW11092   7.004   2.192   5.073
 3398SOL    HW111093   0.017   2.103   5.050
 3398SOL    HW211094   6.926   2.211   5.013
 3399SOL     OW11095   6.955   4.918   3.304
 3399SOL    HW111096   6.931   4.975   3.225
 3399SOL    HW211097   6.890   4.842   3.310
 3400SOL     OW11098   5.724   2.156   5.379
 3400SOL    HW111099   5.650   2.160   5.445
 3400SOL    HW211100   5.728   2.065   5.338
 3401SOL     OW11101   6.795   3.657   6.118
 3401SOL    HW111102   6.716   3.671   6.058
 3401SOL    HW211103   6.866   3.722   6.094
 3402SOL     OW11104   6.881   5.089   1.278
 3402SOL    HW111105   6.830   5.008   1.306
 3402SOL    HW211106   6.902   5.145   1.359
 3403SOL     OW11107   4.908   6.313   6.467
 3403SOL    HW111108   4.924   6.404   6.505
 3403SOL    HW211109   4.980   6.290   6.403
 3404SOL     OW11110   5.262   3.311   5.278
 3404SOL    HW111111   5.344   3.320   5.335
 3404SOL    HW211112   5.249   3.395   5.224
 3405SOL     OW11113   5.364   6.362   5.669
 3405SOL    HW111114   5.463   6.379   5.664
 3405SOL    HW211115   5.315   6.447   5.652
 3406SOL     OW11116   2.029   3.838   2.229
 3406SOL    HW111117   2.088   3.759   2.211
 3406SOL    HW211118   2.060   3.916   2.175
 3407SOL     OW11119   1.726   3.729   0.470
 3407SOL    HW111120   1.820   3.721   0.436
 3407SOL    HW211121   1.721   3.691   0.563
 3408SOL     OW11122   5.032   2.232   3.624
 3408SOL    HW111123   4.952   2.172   3.620
 3408SOL    HW211124   5.064   2.252   3.531
 3409SOL     OW11125   4.556   1.090   0.542
 3409SOL    HW111126   4.550   1.168   0.604
 3409SOL    HW211127   4.513   1.010   0.584
 3410SOL     OW11128   5.503   6.959   1.957
 3410SOL    HW111129   5.521   6.906   2.041
 3410SOL    HW211130   5.518   0.031   1.975
 3411SOL     OW11131   6.769   2.085   0.909
 3411SOL    HW111132   6.818   2.002   0.881
 3411SOL    HW211133   6.819   2.165   0.875
 3412SOL     OW11134   5.228   3.097   1.221
 3412SOL    HW111135   5.239   3.142   1.132
 3412SOL    HW211136   5.293   3.135   1.286
 3413SOL     OW11137   7.020   2.185   5.960
 3413SOL    HW111138   7.021   2.285   5.954
 3413SOL    HW211139   0.082   2.152   5.998
 3414SOL     OW11140   4.115   3.168   1.029
 3414SOL    HW111141   4.131   3.134   0.936
 3414SOL    HW211142   4.043   3.113   1.073
 3415SOL     OW11143   2.312   2.751   4.870
 3415SOL    HW111144   2.358   2.830   4.912
 3415SOL    HW211145   2.215   2.772   4.858
 3416SOL     OW11146   6.394   6.684   6.818
 3416SOL    HW111147   6.484   6.682   6.775
 3416SOL    HW211148   6.368   6.591   6.845
 3417SOL     OW11149   6.931   0.017   2.829
 3417SOL    HW111150   7.010   6.982   2.839
 3417SOL    HW211151   6.884   0.026   2.917
 3418SOL     OW11152   4.458   4.651   1.907
 3418SOL    HW111153   4.392   4.721   1.935
 3418SOL    HW211154   4.418   4.592   1.837
 3419SOL     OW11155   3.119   6.011   6.238
 3419SOL    HW111156   3.048   6.075   6.208
 3419SOL    HW211157   3.208   6.056   6.235
 3420SOL     OW11158   4.582   2.535   3.824
 3420SOL    HW111159   4.485   2.529   3.800
 3420SOL    HW211160   4.622   2.443   3.821
 3421SOL     OW11161   5.851   2.462   3.717
 3421SOL    HW111162   5.890   2.505   3.798
 3421SOL    HW211163   5.922   2.408   3.671
 3422SOL     OW11164   2.248   6.559   1.127
 3422SOL    HW111165   2.180   6.492   1.098
 3422SOL    HW211166   2.331   6.548   1.073
 3423SOL     OW11167   1.003   4.462   5.603
 3423SOL    HW111168   0.932   4.525   5.573
 3423SOL    HW211169   0.960   4.378   5.638
 3424SOL     OW11170   4.639   0.077   1.636
 3424SOL    HW111171   4.729   0.112   1.611
 3424SOL    HW211172   4.637   0.058   1.735
 3425SOL     OW11173   5.863   4.367   1.372
 3425SOL    HW111174   5.882   4.384   1.468
 3425SOL    HW211175   5.933   4.412   1.316
 3426SOL     OW11176   5.157   3.567   0.391
 3426SOL    HW111177   5.187   3.612   0.307
 3426SOL    HW211178   5.227   3.502   0.420
 3427SOL     OW11179   1.352   2.321   0.490
 3427SOL    HW111180   1.374   2.226   0.512
 3427SOL    HW211181   1.272   2.324   0.429
 3428SOL     OW11182   5.220   5.936   5.349
 3428SOL    HW111183   5.276   5.965   5.427
 3428SOL    HW211184   5.134   5.898   5.383
 3429SOL     OW11185   6.976   0.457   1.249
 3429SOL    HW111186   6.998   0.520   1.323
 3429SOL    HW211187   6.950   0.509   1.168
 3430SOL     OW11188   2.192   4.575   5.587
 3430SOL    HW111189   2.204   4.518   5.506
 3430SOL    HW211190   2.279   4.617   5.611
 3431SOL     OW11191   2.390   5.907   2.475
 3431SOL    HW111192   2.395   6.006   2.486
 3431SOL    HW211193   2.465   5.864   2.525
 3432SOL     OW11194   2.668   4.249   0.523
 3432SOL    HW111195   2.755   4.296   0.537
 3432SOL    HW211196   2.657   4.177   0.591
 3433SOL     OW11197   2.668   1.416   6.141
 3433SOL    HW111198   2.598   1.468   6.092
 3433SOL    HW211199   2.631   1.326   6.166
 3434SOL     OW11200   2.981   2.002   1.542
 3434SOL    HW111201   3.060   1.974   1.596
 3434SOL    HW211202   2.951   2.093   1.571
 3435SOL     OW11203   1.905   0.604   0.454
 3435SOL    HW111204   1.828   0.547   0.428
 3435SOL    HW211205   1.987   0.548   0.464
 3436SOL     OW11206   3.627   5.732   1.131
 3436SOL    HW111207   3.714   5.684   1.118
 3436SOL    HW211208   3.630   5.820   1.084
 3437SOL     OW11209   1.221   6.585   6.087
 3437SOL    HW111210   1.157   6.589   6.010
 3437SOL    HW211211   1.170   6.569   6.172
 3438SOL     OW11212   1.471   3.928   1.209
 3438SOL    HW111213   1.391   3.897   1.260
 3438SOL    HW211214   1.535   3.973   1.272
 3439SOL     OW11215   2.013   5.717   2.420
 3439SOL    HW111216   2.056   5.803   2.392
 3439SOL    HW211217   1.949   5.687   2.350
 3440SOL     OW11218   3.822   3.496   4.389
 3440SOL    HW111219   3.919   3.471   4.384
 3440SOL    HW211220   3.810   3.587   4.348
 3441SOL     OW11221   5.685   5.820   5.451
 3441SOL    HW111222   5.670   5.767   5.367
 3441SOL    HW211223   5.694   5.758   5.528
 3442SOL     OW11224   3.522   2.851   1.606
 3442SOL    HW111225   3.582   2.780   1.568
 3442SOL    HW211226   3.573   2.936   1.615
 3443SOL     OW11227   2.156   5.937   2.377
 3443SOL    HW111228   2.248   5.932   2.414
 3443SOL    HW211229   2.116   6.027   2.396
 3444SOL     OW11230   5.959   4.077   1.362
 3444SOL    HW111231   5.896   4.153   1.345
 3444SOL    HW211232   5.913   4.008   1.418
 3445SOL     OW11233   6.307   4.538   3.817
 3445SOL    HW111234   6.385   4.476   3.812
 3445SOL    HW211235   6.330   4.625   3.774
 3446SOL     OW11236   5.062   1.118   1.344
 3446SOL    HW111237   4.995   1.118   1.418
 3446SOL    HW211238   5.123   1.197   1.353
 3447SOL     OW11239   4.732   0.826   0.438
 3447SOL    HW111240   4.753   0.924   0.435
 3447SOL    HW211241   4.732   0.795   0.533
 3448SOL     OW11242   1.583   6.323   4.861
 3448SOL    HW111243   1.666   6.354   4.815
 3448SOL    HW211244   1.518   6.289   4.793
 3449SOL     OW11245   6.727   4.269   5.220
 3449SOL    HW111246   6.690   4.192   5.169
 3449SOL    HW211247   6.738   4.244   5.316
 3450SOL     OW11248   1.420   6.607   0.194
 3450SOL    HW111249   1.425   6.571   0.101
 3450SOL    HW211250   1.505   6.587   0.242
 3451SOL     OW11251   2.027   5.989   0.459
 3451SOL    HW111252   2.014   5.906   0.514
 3451SOL    HW211253   1.957   6.056   0.482
 3452SOL     OW11254   4.858   0.373   5.624
 3452SOL    HW111255   4.803   0.325   5.555
 3452SOL    HW211256   4.947   0.329   5.631
 3453SOL     OW11257   5.184   6.583   5.710
 3453SOL    HW111258   5.218   6.591   5.804
 3453SOL    HW211259   5.156   6.674   5.677
 3454SOL     OW11260   1.131   2.150   2.620
 3454SOL    HW111261   1.110   2.053   2.611
 3454SOL    HW211262   1.214   2.171   2.568
 3455SOL     OW11263   1.545   3.340   5.525
 3455SOL    HW111264   1.452   3.368   5.550
 3455SOL    HW211265   1.604   3.421   5.521
 3456SOL     OW11266   5.057   4.352   2.397
 3456SOL    HW111267   4.992   4.414   2.353
 3456SOL    HW211268   5.010   4.297   2.465
 3457SOL     OW11269   3.795   5.653   5.336
 3457SOL    HW111270   3.786   5.748   5.305
 3457SOL    HW211271   3.876   5.612   5.295
 3458SOL     OW11272   4.397   1.962   2.964
 3458SOL    HW111273   4.460   1.922   2.897
 3458SOL    HW211274   4.371   1.892   3.031
 3459SOL     OW11275   4.079   0.520   3.122
 3459SOL    HW111276   4.011   0.544   3.053
 3459SOL    HW211277   4.151   0.464   3.080
 3460SOL     OW11278   4.015   1.979   5.496
 3460SOL    HW111279   3.916   1.978   5.484
 3460SOL    HW211280   4.037   1.990   5.593
 3461SOL     OW11281   5.318   4.669   6.421
 3461SOL    HW111282   5.370   4.615   6.355
 3461SOL    HW211283   5.349   4.645   6.514
 3462SOL     OW11284   2.600   3.550   6.565
 3462SOL    HW111285   2.509   3.557   6.606
 3462SOL    HW211286   2.591   3.515   6.471
 3463SOL     OW11287   6.392   4.215   1.155
 3463SOL    HW111288   6.375   4.292   1.093
 3463SOL    HW211289   6.462   4.240   1.221
 3464SOL     OW11290   0.011   4.840   6.089
 3464SOL    HW111291   0.054   4.930   6.094
 3464SOL    HW211292   0.077   4.770   6.117
 3465SOL     OW11293   2.032   0.332   1.922
 3465SOL    HW111294   2.127   0.302   1.918
 3465SOL    HW211295   1.975   0.269   1.870
 3466SOL     OW11296   6.716   3.856   5.249
 3466SOL    HW111297   6.797   3.904   5.217
 3466SOL    HW211298   6.711   3.766   5.206
 3467SOL     OW11299   1.753   2.263   6.304
 3467SOL    HW111300   1.830   2.304   6.255
 3467SOL    HW211301   1.669   2.274   6.250
 3468SOL     OW11302   3.314   0.459   4.047
 3468SOL    HW111303   3.398   0.509   4.067
 3468SOL    HW211304   3.244   0.522   4.013
 3469SOL     OW11305   5.879   2.393   3.209
 3469SOL    HW111306   5.820   2.372   3.287
 3469SOL    HW211307   5.966   2.430   3.241
 3470SOL     OW11308   0.385   5.844   1.101
 3470SOL    HW111309   0.438   5.760   1.108
 3470SOL    HW211310   0.297   5.824   1.058
 3471SOL     OW11311   4.194   5.941   4.766
 3471SOL    HW111312   4.133   5.912   4.691
 3471SOL    HW211313   4.144   5.937   4.853
 3472SOL     OW11314   3.218   0.915   4.928
 3472SOL    HW111315   3.282   0.839   4.932
 3472SOL    HW211316   3.259   0.996   4.970
 3473SOL     OW11317   5.710   0.898   6.380
 3473SOL    HW111318   5.776   0.931   6.447
 3473SOL    HW211319   5.676   0.808   6.408
 3474SOL     OW11320   3.895   5.143   1.957
 3474SOL    HW111321   3.879   5.059   2.009
 3474SOL    HW211322   3.911   5.121   1.861
 3475SOL     OW11323   1.528   5.538   4.382
 3475SOL    HW111324   1.475   5.564   4.462
 3475SOL    HW211325   1.513   5.604   4.309
 3476SOL     OW11326   4.396   0.654   4.236
 3476SOL    HW111327   4.350   0.611   4.158
 3476SOL    HW211328   4.473   0.709   4.203
 3477SOL     OW11329   3.856   6.124   1.295
 3477SOL    HW111330   3.907   6.072   1.227
 3477SOL    HW211331   3.919   6.155   1.367
 3478SOL     OW11332   3.906   5.577   6.709
 3478SOL    HW111333   3.839   5.505   6.729
 3478SOL    HW211334   3.961   5.549   6.630
 3479SOL     OW11335   1.049   0.496   1.569
 3479SOL    HW111336   1.068   0.436   1.491
 3479SOL    HW211337   1.011   0.441   1.644
 3480SOL     OW11338   0.394   1.339   3.142
 3480SOL    HW111339   0.321   1.385   3.193
 3480SOL    HW211340   0.452   1.288   3.205
 3481SOL     OW11341   2.555   6.718   6.851
 3481SOL    HW111342   2.479   6.692   6.911
 3481SOL    HW211343   2.531   6.802   6.801
 3482SOL     OW11344   0.150   2.421   0.737
 3482SOL    HW111345   0.187   2.443   0.647
 3482SOL    HW211346   0.120   2.506   0.782
 3483SOL     OW11347   2.004   0.437   1.216
 3483SOL    HW111348   1.918   0.455   1.264
 3483SOL    HW211349   2.076   0.414   1.282
 3484SOL     OW11350   3.690   2.892   3.700
 3484SOL    HW111351   3.777   2.932   3.670
 3484SOL    HW211352   3.685   2.894   3.799
 3485SOL     OW11353   1.150   3.213   5.091
 3485SOL    HW111354   1.196   3.126   5.106
 3485SOL    HW211355   1.217   3.284   5.070
 3486SOL     OW11356   4.421   2.132   1.696
 3486SOL    HW111357   4.331   2.090   1.708
 3486SOL    HW211358   4.454   2.167   1.783
 3487SOL     OW11359   6.044   1.849   6.392
 3487SOL    HW111360   6.090   1.861   6.480
 3487SOL    HW211361   6.074   1.921   6.329
 3488SOL     OW11362   5.779   3.397   3.710
 3488SOL    HW111363   5.862   3.343   3.726
 3488SOL    HW211364   5.772   3.418   3.612
 3489SOL     OW11365   3.216   0.281   1.357
 3489SOL    HW111366   3.206   0.328   1.445
 3489SOL    HW211367   3.126   0.268   1.316
 3490SOL     OW11368   4.528   3.748   0.309
 3490SOL    HW111369   4.610   3.806   0.311
 3490SOL    HW211370   4.549   3.660   0.351
 3491SOL     OW11371   0.241   3.236   5.688
 3491SOL    HW111372   0.330   3.193   5.707
 3491SOL    HW211373   0.184   3.172   5.637
 3492SOL     OW11374   0.209   4.584   6.483
 3492SOL    HW111375   0.128   4.642   6.489
 3492SOL    HW211376   0.198   4.505   6.544
 3493SOL     OW11377   6.616   4.381   0.866
 3493SOL    HW111378   6.673   4.433   0.803
 3493SOL    HW211379   6.600   4.289   0.830
 3494SOL     OW11380   3.192   0.354   1.610
 3494SOL    HW111381   3.259   0.301   1.661
 3494SOL    HW211382   3.167   0.436   1.663
 3495SOL     OW11383   4.735   5.043   1.366
 3495SOL    HW111384   4.661   4.988   1.404
 3495SOL    HW211385   4.719   5.139   1.387
 3496SOL     OW11386   1.843   2.878   0.317
 3496SOL    HW111387   1.849   2.815   0.239
 3496SOL    HW211388   1.921   2.864   0.377
 3497SOL     OW11389   4.468   0.619   3.828
 3497SOL    HW111390   4.500   0.525   3.838
 3497SOL    HW211391   4.523   0.679   3.887
 3498SOL     OW11392   2.462   1.540   1.577
 3498SOL    HW111393   2.559   1.542   1.603
 3498SOL    HW211394   2.429   1.446   1.578
 3499SOL     OW11395   6.621   2.796   4.650
 3499SOL    HW111396   6.570   2.882   4.646
 3499SOL    HW211397   6.566   2.727   4.698
 3500SOL     OW11398   6.177   4.275   6.908
 3500SOL    HW111399   6.255   4.213   6.899
 3500SOL    HW211400   6.163   4.298   7.004
 3501SOL     OW11401   1.914   4.425   4.723
 3501SOL    HW111402   1.995   4.483   4.713
 3501SOL    HW211403   1.935   4.346   4.779
 3502SOL     OW11404   0.865   2.269   0.612
 3502SOL    HW111405   0.931   2.225   0.551
 3502SOL    HW211406   0.801   2.324   0.558
 3503SOL     OW11407   4.960   5.703   5.405
 3503SOL    HW111408   5.009   5.659   5.329
 3503SOL    HW211409   4.914   5.785   5.371
 3504SOL     OW11410   2.321   3.140   1.534
 3504SOL    HW111411   2.407   3.183   1.562
 3504SOL    HW211412   2.340   3.051   1.492
 3505SOL     OW11413   5.414   5.579   5.575
 3505SOL    HW111414   5.412   5.615   5.481
 3505SOL    HW211415   5.461   5.645   5.634
 3506SOL     OW11416   4.764   5.314   3.266
 3506SOL    HW111417   4.838   5.261   3.309
 3506SOL    HW211418   4.779   5.319   3.168
 3507SOL     OW11419   1.081   7.009   6.514
 3507SOL    HW111420   1.160   0.026   6.558
 3507SOL    HW211421   0.999   0.004   6.567
 3508SOL     OW11422   5.307   3.645   6.898
 3508SOL    HW111423   5.241   3.711   6.934
 3508SOL    HW211424   5.287   3.627   6.802
 3509SOL     OW11425   6.669   6.104   6.704
 3509SOL    HW111426   6.643   6.146   6.791
 3509SOL    HW211427   6.687   6.006   6.719
 3510SOL     OW11428   2.283   2.188   1.870
 3510SOL    HW111429   2.210   2.200   1.804
 3510SOL    HW211430   2.367   2.229   1.835
 3511SOL     OW11431   0.363   2.750   6.883
 3511SOL    HW111432   0.376   2.673   6.820
 3511SOL    HW211433   0.277   2.796   6.863
 3512SOL     OW11434   2.702   2.710   0.554
 3512SOL    HW111435   2.720   2.702   0.653
 3512SOL    HW211436   2.787   2.695   0.504
 3513SOL     OW11437   6.553   4.319   1.410
 3513SOL    HW111438   6.567   4.224   1.437
 3513SOL    HW211439   6.507   4.369   1.484
 3514SOL     OW11440   0.762   6.440   1.188
 3514SOL    HW111441   0.824   6.476   1.119
 3514SOL    HW211442   0.686   6.503   1.201
 3515SOL     OW11443   3.059   6.368   3.345
 3515SOL    HW111444   3.155   6.348   3.326
 3515SOL    HW211445   3.029   6.314   3.424
 3516SOL     OW11446   2.976   0.904   0.775
 3516SOL    HW111447   2.928   0.990   0.789
 3516SOL    HW211448   3.065   0.907   0.821
 3517SOL     OW11449   1.016   1.270   6.372
 3517SOL    HW111450   1.045   1.311   6.285
 3517SOL    HW211451   1.029   1.171   6.368
 3518SOL     OW11452   4.495   3.334   6.179
 3518SOL    HW111453   4.523   3.428   6.200
 3518SOL    HW211454   4.474   3.285   6.264
 3519SOL     OW11455   2.201   6.601   6.309
 3519SOL    HW111456   2.159   6.671   6.367
 3519SOL    HW211457   2.215   6.638   6.217
 3520SOL     OW11458   3.871   5.514   1.153
 3520SOL    HW111459   3.834   5.455   1.225
 3520SOL    HW211460   3.823   5.496   1.067
 3521SOL     OW11461   5.515   2.163   1.827
 3521SOL    HW111462   5.462   2.184   1.745
 3521SOL    HW211463   5.479   2.214   1.905
 3522SOL     OW11464   3.369   4.913   2.611
 3522SOL    HW111465   3.369   4.877   2.705
 3522SOL    HW211466   3.278   4.903   2.572
 3523SOL     OW11467   2.881   4.835   4.807
 3523SOL    HW111468   2.857   4.748   4.850
 3523SOL    HW211469   2.800   4.874   4.763
 3524SOL     OW11470   2.748   7.005   0.727
 3524SOL    HW111471   2.773   7.001   0.630
 3524SOL    HW211472   2.765   0.072   0.762
 3525SOL     OW11473   0.798   3.004   2.292
 3525SOL    HW111474   0.886   3.016   2.246
 3525SOL    HW211475   0.735   3.075   2.260
 3526SOL     OW11476   1.211   0.516   2.647
 3526SOL    HW111477   1.119   0.497   2.683
 3526SOL    HW211478   1.210   0.508   2.548
 3527SOL     OW11479   5.464   3.207   6.284
 3527SOL    HW111480   5.415   3.223   6.198
 3527SOL    HW211481   5.505   3.292   6.315
 3528SOL     OW11482   0.527   6.553   3.325
 3528SOL    HW111483   0.469   6.587   3.251
 3528SOL    HW211484   0.603   6.617   3.339
 3529SOL     OW11485   4.305   6.573   5.948
 3529SOL    HW111486   4.208   6.583   5.925
 3529SOL    HW211487   4.344   6.663   5.965
 3530SOL     OW11488   2.537   5.575   2.593
 3530SOL    HW111489   2.533   5.498   2.529
 3530SOL    HW211490   2.566   5.657   2.545
 3531SOL     OW11491   6.033   4.802   0.606
 3531SOL    HW111492   6.021   4.714   0.559
 3531SOL    HW211493   6.128   4.811   0.635
 3532SOL     OW11494   2.644   0.065   6.865
 3532SOL    HW111495   2.600   0.001   6.802
 3532SOL    HW211496   2.740   0.038   6.878
 3533SOL     OW11497   1.242   1.296   3.338
 3533SOL    HW111498   1.265   1.200   3.321
 3533SOL    HW211499   1.146   1.311   3.314
 3534SOL     OW11500   5.189   1.083   4.777
 3534SOL    HW111501   5.131   1.165   4.777
 3534SOL    HW211502   5.264   1.096   4.841
 3535SOL     OW11503   5.593   5.363   6.122
 3535SOL    HW111504   5.639   5.281   6.088
 3535SOL    HW211505   5.624   5.443   6.071
 3536SOL     OW11506   1.847   3.469   3.154
 3536SOL    HW111507   1.792   3.436   3.077
 3536SOL    HW211508   1.864   3.567   3.144
 3537SOL     OW11509   1.999   5.599   0.877
 3537SOL    HW111510   2.059   5.532   0.831
 3537SOL    HW211511   2.013   5.594   0.976
 3538SOL     OW11512   2.593   0.420   3.388
 3538SOL    HW111513   2.549   0.339   3.350
 3538SOL    HW211514   2.618   0.483   3.314
 3539SOL     OW11515   5.011   4.625   6.400
 3539SOL    HW111516   4.989   4.677   6.483
 3539SOL    HW211517   5.082   4.673   6.349
 3540SOL     OW11518   3.223   3.380   6.854
 3540SOL    HW111519   3.316   3.409   6.835
 3540SOL    HW211520   3.159   3.449   6.819
 3541SOL     OW11521   2.893   2.307   0.914
 3541SOL    HW111522   2.898   2.211   0.886
 3541SOL    HW211523   2.875   2.365   0.835
 3542SOL     OW11524   5.479   2.080   5.983
 3542SOL    HW111525   5.549   2.147   6.010
 3542SOL    HW211526   5.517   1.988   5.989
 3543SOL     OW11527   2.336   2.621   3.321
 3543SOL    HW111528   2.257   2.669   3.283
 3543SOL    HW211529   2.306   2.555   3.389
 3544SOL     OW11530   2.674   4.432   6.075
 3544SOL    HW111531   2.605   4.450   6.004
 3544SOL    HW211532   2.764   4.456   6.041
 3545SOL     OW11533   3.248   6.801   1.224
 3545SOL    HW111534   3.247   6.867   1.149
 3545SOL    HW211535   3.155   6.767   1.239
 3546SOL     OW11536   6.574   3.606   3.193
 3546SOL    HW111537   6.559   3.705   3.184
 3546SOL    HW211538   6.650   3.579   3.134
 3547SOL     OW11539   0.202   3.405   5.952
 3547SOL    HW111540   0.142   3.485   5.943
 3547SOL    HW211541   0.182   3.341   5.878
 3548SOL     OW11542   5.766   0.824   5.553
 3548SOL    HW111543   5.699   0.776   5.495
 3548SOL    HW211544   5.772   0.777   5.641
 3549SOL     OW11545   2.472   5.538   6.556
 3549SOL    HW111546   2.471   5.458   6.617
 3549SOL    HW211547   2.480   5.621   6.610
 3550SOL     OW11548   5.129   1.417   4.953
 3550SOL    HW111549   5.181   1.365   5.021
 3550SOL    HW211550   5.031   1.397   4.964
 3551SOL     OW11551   3.905   2.116   4.636
 3551SOL    HW111552   3.932   2.089   4.544
 3551SOL    HW211553   3.985   2.148   4.687
 3552SOL     OW11554   0.162   6.185   2.921
 3552SOL    HW111555   0.205   6.165   2.833
 3552SOL    HW211556   0.227   6.166   2.995
 3553SOL     OW11557   4.056   5.219   6.485
 3553SOL    HW111558   3.986   5.151   6.462
 3553SOL    HW211559   4.064   5.285   6.411
 3554SOL     OW11560   4.549   3.596   1.573
 3554SOL    HW111561   4.639   3.615   1.534
 3554SOL    HW211562   4.507   3.682   1.603
 3555SOL     OW11563   2.433   2.343   3.831
 3555SOL    HW111564   2.516   2.290   3.815
 3555SOL    HW211565   2.449   2.409   3.905
 3556SOL     OW11566   4.428   1.083   5.539
 3556SOL    HW111567   4.437   1.067   5.637
 3556SOL    HW211568   4.333   1.100   5.517
 3557SOL     OW11569   6.594   1.710   1.412
 3557SOL    HW111570   6.557   1.621   1.387
 3557SOL    HW211571   6.622   1.759   1.329
 3558SOL     OW11572   2.997   6.697   1.224
 3558SOL    HW111573   2.915   6.738   1.185
 3558SOL    HW211574   2.994   6.705   1.324
 3559SOL     OW11575   4.111   6.479   4.663
 3559SOL    HW111576   4.069   6.439   4.582
 3559SOL    HW211577   4.062   6.562   4.689
 3560SOL     OW11578   1.764   5.988   4.928
 3560SOL    HW111579   1.856   5.957   4.954
 3560SOL    HW211580   1.700   5.911   4.935
 3561SOL     OW11581   5.124   4.138   5.212
 3561SOL    HW111582   5.120   4.186   5.124
 3561SOL    HW211583   5.116   4.040   5.197
 3562SOL     OW11584   2.661   1.569   5.245
 3562SOL    HW111585   2.746   1.621   5.246
 3562SOL    HW211586   2.620   1.572   5.154
 3563SOL     OW11587   5.793   2.442   5.535
 3563SOL    HW111588   5.871   2.402   5.584
 3563SOL    HW211589   5.776   2.392   5.451
 3564SOL     OW11590   6.821   4.660   2.539
 3564SOL    HW111591   6.845   4.714   2.457
 3564SOL    HW211592   6.736   4.611   2.522
 3565SOL     OW11593   3.683   6.054   3.647
 3565SOL    HW111594   3.641   6.018   3.564
 3565SOL    HW211595   3.768   6.005   3.667
 3566SOL     OW11596   0.070   1.534   5.370
 3566SOL    HW111597   7.020   1.569   5.313
 3566SOL    HW211598   0.146   1.599   5.369
 3567SOL     OW11599   0.332   4.712   6.824
 3567SOL    HW111600   0.318   4.632   6.882
 3567SOL    HW211601   0.429   4.716   6.797
 3568SOL     OW11602   6.144   3.887   6.339
 3568SOL    HW111603   6.208   3.810   6.328
 3568SOL    HW211604   6.187   3.958   6.395
 3569SOL     OW11605   2.536   2.376   5.352
 3569SOL    HW111606   2.615   2.314   5.346
 3569SOL    HW211607   2.563   2.459   5.400
 3570SOL     OW11608   6.654   1.454   4.048
 3570SOL    HW111609   6.682   1.358   4.045
 3570SOL    HW211610   6.559   1.461   4.016
 3571SOL     OW11611   6.435   5.680   6.407
 3571SOL    HW111612   6.363   5.616   6.432
 3571SOL    HW211613   6.517   5.659   6.461
 3572SOL     OW11614   5.745   3.796   4.595
 3572SOL    HW111615   5.778   3.722   4.653
 3572SOL    HW211616   5.699   3.865   4.652
 3573SOL     OW11617   1.555   3.760   3.074
 3573SOL    HW111618   1.557   3.706   3.159
 3573SOL    HW211619   1.464   3.798   3.060
 3574SOL     OW11620   0.191   4.122   0.379
 3574SOL    HW111621   0.157   4.167   0.462
 3574SOL    HW211622   0.290   4.107   0.389
 3575SOL     OW11623   6.388   5.454   2.687
 3575SOL    HW111624   6.387   5.508   2.770
 3575SOL    HW211625   6.366   5.512   2.609
 3576SOL     OW11626   0.565   1.553   6.190
 3576SOL    HW111627   0.549   1.501   6.273
 3576SOL    HW211628   0.495   1.624   6.181
 3577SOL     OW11629   0.737   2.747   6.305
 3577SOL    HW111630   0.806   2.780   6.240
 3577SOL    HW211631   0.766   2.659   6.343
 3578SOL     OW11632   3.239   4.622   6.990
 3578SOL    HW111633   3.149   4.585   6.967
 3578SOL    HW211634   3.236   4.665   0.056
 3579SOL     OW11635   6.692   3.246   4.947
 3579SOL    HW111636   6.720   3.332   4.904
 3579SOL    HW211637   6.739   3.169   4.904
 3580SOL     OW11638   5.991   1.727   2.013
 3580SOL    HW111639   5.968   1.777   1.930
 3580SOL    HW211640   6.087   1.744   2.037
 3581SOL     OW11641   0.018   0.396   2.271
 3581SOL    HW111642   0.078   0.368   2.346
 3581SOL    HW211643   6.949   0.401   2.305
 3582SOL     OW11644   1.003   0.483   6.016
 3582SOL    HW111645   1.037   0.554   6.077
 3582SOL    HW211646   1.053   0.398   6.033
 3583SOL     OW11647   1.205   4.404   0.009
 3583SOL    HW111648   1.278   4.471   0.021
 3583SOL    HW211649   1.184   4.362   0.098
 3584SOL     OW11650   5.334   6.575   6.706
 3584SOL    HW111651   5.311   6.655   6.651
 3584SOL    HW211652   5.281   6.496   6.675
 3585SOL     OW11653   3.818   4.962   4.375
 3585SOL    HW111654   3.896   4.900   4.371
 3585SOL    HW211655   3.766   4.945   4.458
 3586SOL     OW11656   6.550   3.158   5.862
 3586SOL    HW111657   6.620   3.209   5.911
 3586SOL    HW211658   6.461   3.202   5.876
 3587SOL     OW11659   3.462   6.822   0.622
 3587SOL    HW111660   3.533   6.800   0.689
 3587SOL    HW211661   3.472   6.764   0.542
 3588SOL     OW11662   1.962   2.206   5.637
 3588SOL    HW111663   1.939   2.283   5.578
 3588SOL    HW211664   1.888   2.190   5.702
 3589SOL     OW11665   3.060   0.749   5.249
 3589SOL    HW111666   2.964   0.751   5.221
 3589SOL    HW211667   3.088   0.842   5.275
 3590SOL     OW11668   1.501   5.204   6.096
 3590SOL    HW111669   1.531   5.110   6.079
 3590SOL    HW211670   1.577   5.257   6.133
 3591SOL     OW11671   5.362   2.784   5.615
 3591SOL    HW111672   5.425   2.734   5.674
 3591SOL    HW211673   5.375   2.883   5.628
 3592SOL     OW11674   5.265   3.461   2.685
 3592SOL    HW111675   5.213   3.507   2.613
 3592SOL    HW211676   5.231   3.367   2.696
 3593SOL     OW11677   2.167   6.858   4.195
 3593SOL    HW111678   2.145   6.952   4.170
 3593SOL    HW211679   2.261   6.837   4.166
 3594SOL     OW11680   2.274   0.904   3.074
 3594SOL    HW111681   2.257   1.002   3.074
 3594SOL    HW211682   2.227   0.862   2.996
 3595SOL     OW11683   2.027   6.280   5.976
 3595SOL    HW111684   1.994   6.191   6.009
 3595SOL    HW211685   2.111   6.304   6.024
 3596SOL     OW11686   6.420   0.809   2.356
 3596SOL    HW111687   6.359   0.843   2.285
 3596SOL    HW211688   6.416   0.709   2.360
 3597SOL     OW11689   4.163   6.322   4.405
 3597SOL    HW111690   4.082   6.268   4.380
 3597SOL    HW211691   4.214   6.274   4.477
 3598SOL     OW11692   0.880   0.053   5.895
 3598SOL    HW111693   0.872   0.134   5.836
 3598SOL    HW211694   0.789   0.026   5.926
 3599SOL     OW11695   6.801   2.363   4.860
 3599SOL    HW111696   6.858   2.398   4.785
 3599SOL    HW211697   6.729   2.305   4.822
 3600SOL     OW11698   6.276   2.991   1.657
 3600SOL    HW111699   6.296   3.085   1.628
 3600SOL    HW211700   6.265   2.933   1.576
 3601SOL     OW11701   0.412   3.648   0.102
 3601SOL    HW111702   0.466   3.572   0.139
 3601SOL    HW211703   0.339   3.612   0.045
 3602SOL     OW11704   1.753   0.853   0.107
 3602SOL    HW111705   1.814   0.809   0.041
 3602SOL    HW211706   1.673   0.890   0.059
 3603SOL     OW11707   3.915   4.900   4.043
 3603SOL    HW111708   3.901   4.972   4.110
 3603SOL    HW211709   3.985   4.837   4.075
 3604SOL     OW11710   6.732   2.302   2.649
 3604SOL    HW111711   6.642   2.290   2.690
 3604SOL    HW211712   6.780   2.215   2.647
 3605SOL     OW11713   5.985   4.260   6.415
 3605SOL    HW111714   6.060   4.260   6.481
 3605SOL    HW211715   5.918   4.330   6.439
 3606SOL     OW11716   6.648   4.434   5.626
 3606SOL    HW111717   6.655   4.479   5.537
 3606SOL    HW211718   6.587   4.486   5.685
 3607SOL     OW11719   5.219   1.066   0.739
 3607SOL    HW111720   5.184   0.972   0.738
 3607SOL    HW211721   5.143   1.130   0.729
 3608SOL     OW11722   0.616   1.883   1.349
 3608SOL    HW111723   0.586   1.867   1.443
 3608SOL    HW211724   0.577   1.969   1.316
 3609SOL     OW11725   6.734   0.592   4.503
 3609SOL    HW111726   6.741   0.515   4.567
 3609SOL    HW211727   6.688   0.669   4.548
 3610SOL     OW11728   0.479   6.621   5.348
 3610SOL    HW111729   0.536   6.541   5.327
 3610SOL    HW211730   0.383   6.595   5.341
 3611SOL     OW11731   3.731   5.225   5.590
 3611SOL    HW111732   3.820   5.253   5.627
 3611SOL    HW211733   3.743   5.142   5.535
 3612SOL     OW11734   1.243   6.199   6.728
 3612SOL    HW111735   1.286   6.287   6.710
 3612SOL    HW211736   1.144   6.209   6.728
 3613SOL     OW11737   4.758   5.017   0.580
 3613SOL    HW111738   4.737   5.027   0.677
 3613SOL    HW211739   4.769   4.920   0.558
 3614SOL     OW11740   4.108   3.267   3.683
 3614SOL    HW111741   4.131   3.328   3.607
 3614SOL    HW211742   4.085   3.321   3.764
 3615SOL     OW11743   5.937   5.139   5.730
 3615SOL    HW111744   5.964   5.056   5.778
 3615SOL    HW211745   5.857   5.120   5.673
 3616SOL     OW11746   6.641   2.129   6.563
 3616SOL    HW111747   6.584   2.054   6.597
 3616SOL    HW211748   6.610   2.156   6.472
 3617SOL     OW11749   5.997   2.444   6.537
 3617SOL    HW111750   6.028   2.412   6.626
 3617SOL    HW211751   5.901   2.420   6.524
 3618SOL     OW11752   1.393   1.658   5.601
 3618SOL    HW111753   1.451   1.583   5.571
 3618SOL    HW211754   1.450   1.732   5.638
 3619SOL     OW11755   6.146   2.265   4.117
 3619SOL    HW111756   6.059   2.250   4.165
 3619SOL    HW211757   6.204   2.325   4.172
 3620SOL     OW11758   5.671   0.214   5.765
 3620SOL    HW111759   5.739   0.236   5.694
 3620SOL    HW211760   5.644   0.118   5.756
 3621SOL     OW11761   2.969   2.822   5.792
 3621SOL    HW111762   3.045   2.784   5.739
 3621SOL    HW211763   2.939   2.754   5.859
 3622SOL     OW11764   0.722   1.085   2.910
 3622SOL    HW111765   0.666   1.091   2.828
 3622SOL    HW211766   0.766   1.173   2.928
 3623SOL     OW11767   5.705   5.245   3.961
 3623SOL    HW111768   5.640   5.273   3.891
 3623SOL    HW211769   5.665   5.173   4.018
 3624SOL     OW11770   2.132   6.356   3.313
 3624SOL    HW111771   2.204   6.399   3.258
 3624SOL    HW211772   2.052   6.416   3.316
 3625SOL     OW11773   6.264   3.326   5.881
 3625SOL    HW111774   6.175   3.327   5.927
 3625SOL    HW211775   6.254   3.283   5.791
 3626SOL     OW11776   2.169   3.406   4.822
 3626SOL    HW111777   2.075   3.378   4.842
 3626SOL    HW211778   2.229   3.375   4.896
 3627SOL     OW11779   4.055   3.831   3.463
 3627SOL    HW111780   4.062   3.774   3.545
 3627SOL    HW211781   3.972   3.887   3.468
 3628SOL     OW11782   2.227   5.858   1.741
 3628SOL    HW111783   2.213   5.863   1.642
 3628SOL    HW211784   2.165   5.790   1.780
 3629SOL     OW11785   6.279   2.353   5.519
 3629SOL    HW111786   6.223   2.314   5.446
 3629SOL    HW211787   6.233   2.434   5.555
 3630SOL     OW11788   5.735   2.028   4.487
 3630SOL    HW111789   5.791   1.985   4.417
 3630SOL    HW211790   5.774   2.117   4.511
 3631SOL     OW11791   2.351   0.022   4.831
 3631SOL    HW111792   2.439   0.042   4.874
 3631SOL    HW211793   2.351   6.951   4.801
 3632SOL     OW11794   5.381   0.856   1.120
 3632SOL    HW111795   5.289   0.817   1.122
 3632SOL    HW211796   5.377   0.951   1.152
 3633SOL     OW11797   2.826   2.545   5.705
 3633SOL    HW111798   2.866   2.453   5.699
 3633SOL    HW211799   2.769   2.562   5.625
 3634SOL     OW11800   0.382   6.579   4.820
 3634SOL    HW111801   0.402   6.549   4.726
 3634SOL    HW211802   0.459   6.633   4.854
 3635SOL     OW11803   3.129   1.344   5.122
 3635SOL    HW111804   3.041   1.307   5.093
 3635SOL    HW211805   3.165   1.404   5.051
 3636SOL     OW11806   0.227   5.896   6.011
 3636SOL    HW111807   0.263   5.805   5.989
 3636SOL    HW211808   0.199   5.899   6.107
 3637SOL     OW11809   6.203   2.157   0.707
 3637SOL    HW111810   6.195   2.232   0.772
 3637SOL    HW211811   6.154   2.077   0.741
 3638SOL     OW11812   6.523   4.466   4.327
 3638SOL    HW111813   6.512   4.544   4.266
 3638SOL    HW211814   6.433   4.427   4.348
 3639SOL     OW11815   3.720   3.533   1.221
 3639SOL    HW111816   3.714   3.451   1.164
 3639SOL    HW211817   3.758   3.509   1.310
 3640SOL     OW11818   3.722   6.304   7.019
 3640SOL    HW111819   3.799   6.243   7.001
 3640SOL    HW211820   3.637   6.253   7.014
 3641SOL     OW11821   3.630   1.496   4.489
 3641SOL    HW111822   3.716   1.540   4.462
 3641SOL    HW211823   3.553   1.549   4.454
 3642SOL     OW11824   5.015   1.061   5.709
 3642SOL    HW111825   4.949   0.999   5.667
 3642SOL    HW211826   5.108   1.029   5.689
 3643SOL     OW11827   3.362   5.741   4.346
 3643SOL    HW111828   3.279   5.758   4.294
 3643SOL    HW211829   3.348   5.766   4.442
 3644SOL     OW11830   6.961   1.486   1.025
 3644SOL    HW111831   6.862   1.491   1.039
 3644SOL    HW211832   6.980   1.439   0.939
 3645SOL     OW11833   5.598   1.604   3.792
 3645SOL    HW111834   5.581   1.681   3.854
 3645SOL    HW211835   5.546   1.525   3.823
 3646SOL     OW11836   6.682   4.534   5.335
 3646SOL    HW111837   6.621   4.604   5.299
 3646SOL    HW211838   6.665   4.447   5.288
 3647SOL     OW11839   1.750   3.118   0.101
 3647SOL    HW111840   1.724   3.050   0.033
 3647SOL    HW211841   1.769   3.072   0.188
 3648SOL     OW11842   4.303   5.638   2.909
 3648SOL    HW111843   4.242   5.593   2.843
 3648SOL    HW211844   4.359   5.706   2.862
 3649SOL     OW11845   4.097   3.072   0.760
 3649SOL    HW111846   4.003   3.079   0.728
 3649SOL    HW211847   4.136   2.985   0.731
 3650SOL     OW11848   6.796   5.947   0.905
 3650SOL    HW111849   6.746   6.029   0.876
 3650SOL    HW211850   6.747   5.866   0.872
 3651SOL     OW11851   0.826   6.035   2.256
 3651SOL    HW111852   0.878   6.017   2.173
 3651SOL    HW211853   0.729   6.018   2.239
 3652SOL     OW11854   4.762   6.603   3.413
 3652SOL    HW111855   4.844   6.570   3.365
 3652SOL    HW211856   4.680   6.573   3.364
 3653SOL     OW11857   6.558   1.077   3.071
 3653SOL    HW111858   6.647   1.078   3.117
 3653SOL    HW211859   6.521   0.984   3.073
 3654SOL     OW11860   2.013   6.574   0.754
 3654SOL    HW111861   1.934   6.513   0.742
 3654SOL    HW211862   2.097   6.520   0.749
 3655SOL     OW11863   1.368   6.719   4.044
 3655SOL    HW111864   1.297   6.780   4.079
 3655SOL    HW211865   1.325   6.643   3.994
 3656SOL     OW11866   1.483   2.390   1.525
 3656SOL    HW111867   1.561   2.448   1.501
 3656SOL    HW211868   1.470   2.321   1.454
 3657SOL     OW11869   4.368   5.586   6.535
 3657SOL    HW111870   4.455   5.537   6.526
 3657SOL    HW211871   4.336   5.616   6.445
 3658SOL     OW11872   1.052   5.998   5.319
 3658SOL    HW111873   1.095   6.002   5.409
 3658SOL    HW211874   1.078   5.913   5.273
 3659SOL     OW11875   2.566   4.332   6.952
 3659SOL    HW111876   2.473   4.365   6.940
 3659SOL    HW211877   2.579   4.301   0.021
 3660SOL     OW11878   4.723   6.176   2.237
 3660SOL    HW111879   4.750   6.273   2.243
 3660SOL    HW211880   4.759   6.137   2.153
 3661SOL     OW11881   4.777   2.421   6.520
 3661SOL    HW111882   4.757   2.365   6.440
 3661SOL    HW211883   4.876   2.423   6.536
 3662SOL     OW11884   3.622   6.896   4.838
 3662SOL    HW111885   3.562   6.834   4.787
 3662SOL    HW211886   3.568   6.952   4.900
 3663SOL     OW11887   1.343   1.336   0.275
 3663SOL    HW111888   1.365   1.301   0.366
 3663SOL    HW211889   1.428   1.347   0.223
 3664SOL     OW11890   5.225   1.672   0.720
 3664SOL    HW111891   5.237   1.770   0.730
 3664SOL    HW211892   5.127   1.650   0.722
 3665SOL     OW11893   0.020   5.872   5.514
 3665SOL    HW111894   0.054   5.852   5.606
 3665SOL    HW211895   6.954   5.912   5.520
 3666SOL     OW11896   1.896   4.469   3.924
 3666SOL    HW111897   1.918   4.560   3.959
 3666SOL    HW211898   1.926   4.463   3.829
 3667SOL     OW11899   5.986   0.526   0.195
 3667SOL    HW111900   5.894   0.511   0.231
 3667SOL    HW211901   6.046   0.453   0.227
 3668SOL     OW11902   1.695   6.822   2.335
 3668SOL    HW111903   1.711   6.920   2.341
 3668SOL    HW211904   1.715   6.779   2.423
 3669SOL     OW11905   5.905   1.508   4.382
 3669SOL    HW111906   5.995   1.467   4.365
 3669SOL    HW211907   5.907   1.603   4.353
 3670SOL     OW11908   2.546   5.822   0.410
 3670SOL    HW111909   2.461   5.868   0.436
 3670SOL    HW211910   2.543   5.799   0.313
 3671SOL     OW11911   6.609   0.463   3.230
 3671SOL    HW111912   6.696   0.487   3.186
 3671SOL    HW211913   6.584   0.535   3.295
 3672SOL     OW11914   6.011   1.700   0.577
 3672SOL    HW111915   5.974   1.676   0.667
 3672SOL    HW211916   5.959   1.777   0.539
 3673SOL     OW11917   4.017   1.117   6.328
 3673SOL    HW111918   3.943   1.118   6.396
 3673SOL    HW211919   4.103   1.096   6.374
 3674SOL     OW11920   0.411   6.654   6.366
 3674SOL    HW111921   0.408   6.662   6.465
 3674SOL    HW211922   0.445   6.563   6.341
 3675SOL     OW11923   1.756   2.412   5.186
 3675SOL    HW111924   1.705   2.341   5.139
 3675SOL    HW211925   1.820   2.456   5.122
 3676SOL     OW11926   4.125   5.162   4.062
 3676SOL    HW111927   4.134   5.121   3.971
 3676SOL    HW211928   4.029   5.190   4.076
 3677SOL     OW11929   0.807   5.708   3.090
 3677SOL    HW111930   0.738   5.780   3.098
 3677SOL    HW211931   0.898   5.749   3.085
 3678SOL     OW11932   0.549   3.087   3.952
 3678SOL    HW111933   0.641   3.122   3.932
 3678SOL    HW211934   0.556   2.993   3.983
 3679SOL     OW11935   0.241   0.745   2.505
 3679SOL    HW111936   0.301   0.825   2.502
 3679SOL    HW211937   0.153   0.767   2.463
 3680SOL     OW11938   6.187   2.968   3.929
 3680SOL    HW111939   6.119   2.978   3.856
 3680SOL    HW211940   6.148   2.916   4.004
 3681SOL     OW11941   0.748   1.013   6.366
 3681SOL    HW111942   0.811   0.939   6.391
 3681SOL    HW211943   0.769   1.044   6.273
 3682SOL     OW11944   5.996   2.415   5.749
 3682SOL    HW111945   6.064   2.484   5.725
 3682SOL    HW211946   6.034   2.324   5.735
 3683SOL     OW11947   6.756   0.535   4.841
 3683SOL    HW111948   6.765   0.446   4.797
 3683SOL    HW211949   6.665   0.573   4.822
 3684SOL     OW11950   1.838   2.899   1.381
 3684SOL    HW111951   1.749   2.942   1.397
 3684SOL    HW211952   1.906   2.970   1.364
 3685SOL     OW11953   6.303   6.293   5.777
 3685SOL    HW111954   6.244   6.257   5.849
 3685SOL    HW211955   6.335   6.384   5.803
 3686SOL     OW11956   6.244   5.136   3.003
 3686SOL    HW111957   6.274   5.216   3.055
 3686SOL    HW211958   6.153   5.154   2.965
 3687SOL     OW11959   3.245   6.183   5.854
 3687SOL    HW111960   3.217   6.212   5.763
 3687SOL    HW211961   3.166   6.146   5.903
 3688SOL     OW11962   1.079   3.926   0.010
 3688SOL    HW111963   1.007   3.953   0.074
 3688SOL    HW211964   1.169   3.938   0.054
 3689SOL     OW11965   0.842   0.517   5.243
 3689SOL    HW111966   0.800   0.570   5.170
 3689SOL    HW211967   0.776   0.503   5.317
 3690SOL     OW11968   4.650   0.694   6.240
 3690SOL    HW111969   4.703   0.677   6.157
 3690SOL    HW211970   4.638   0.792   6.252
 3691SOL     OW11971   2.689   2.812   6.689
 3691SOL    HW111972   2.721   2.732   6.639
 3691SOL    HW211973   2.695   2.893   6.631
 3692SOL     OW11974   0.858   5.592   4.869
 3692SOL    HW111975   0.795   5.519   4.896
 3692SOL    HW211976   0.878   5.650   4.948
 3693SOL     OW11977   1.447   2.754   2.936
 3693SOL    HW111978   1.380   2.739   2.863
 3693SOL    HW211979   1.521   2.688   2.927
 3694SOL     OW11980   0.533   5.330   3.509
 3694SOL    HW111981   0.459   5.271   3.542
 3694SOL    HW211982   0.599   5.346   3.582
 3695SOL     OW11983   0.467   2.083   2.389
 3695SOL    HW111984   0.483   1.996   2.343
 3695SOL    HW211985   0.485   2.073   2.487
 3696SOL     OW11986   4.569   6.300   5.597
 3696SOL    HW111987   4.666   6.285   5.576
 3696SOL    HW211988   4.548   6.398   5.591
 3697SOL     OW11989   6.871   6.285   3.395
 3697SOL    HW111990   6.774   6.290   3.373
 3697SOL    HW211991   6.897   6.362   3.453
 3698SOL     OW11992   3.373   0.217   5.767
 3698SOL    HW111993   3.402   0.204   5.861
 3698SOL    HW211994   3.395   0.310   5.738
 3699SOL     OW11995   6.606   3.872   3.170
 3699SOL    HW111996   6.533   3.932   3.202
 3699SOL    HW211997   6.680   3.871   3.238
 3700SOL     OW11998   5.957   0.624   3.294
 3700SOL    HW111999   5.867   0.583   3.305
 3700SOL    HW212000   5.976   0.685   3.371
 3701SOL     OW12001   0.481   0.925   3.889
 3701SOL    HW112002   0.391   0.966   3.899
 3701SOL    HW212003   0.530   0.930   3.976
 3702SOL     OW12004   4.405   0.170   1.792
 3702SOL    HW112005   4.450   0.146   1.878
 3702SOL    HW212006   4.462   0.235   1.742
 3703SOL     OW12007   4.101   3.940   5.733
 3703SOL    HW112008   4.126   3.984   5.647
 3703SOL    HW212009   4.182   3.929   5.790
 3704SOL     OW12010   2.805   0.815   2.098
 3704SOL    HW112011   2.805   0.909   2.132
 3704SOL    HW212012   2.712   0.789   2.072
 3705SOL     OW12013   4.767   6.852   3.955
 3705SOL    HW112014   4.701   6.921   3.926
 3705SOL    HW212015   4.860   6.887   3.940
 3706SOL     OW12016   1.363   2.526   4.376
 3706SOL    HW112017   1.273   2.539   4.420
 3706SOL    HW212018   1.368   2.582   4.294
 3707SOL     OW12019   5.528   3.073   5.310
 3707SOL    HW112020   5.445   3.053   5.362
 3707SOL    HW212021   5.507   3.072   5.213
 3708SOL     OW12022   5.851   0.188   6.614
 3708SOL    HW112023   5.922   0.200   6.545
 3708SOL    HW212024   5.764   0.218   6.577
 3709SOL     OW12025   3.493   1.089   6.433
 3709SOL    HW112026   3.535   1.155   6.370
 3709SOL    HW212027   3.460   1.138   6.514
 3710SOL     OW12028   6.573   5.866   0.214
 3710SOL    HW112029   6.567   5.923   0.295
 3710SOL    HW212030   6.496   5.885   0.154
 3711SOL     OW12031   0.397   5.586   2.661
 3711SOL    HW112032   0.299   5.566   2.661
 3711SOL    HW212033   0.416   5.660   2.726
 3712SOL     OW12034   0.038   6.292   6.548
 3712SOL    HW112035   0.062   6.293   6.645
 3712SOL    HW212036   6.969   6.257   6.538
 3713SOL     OW12037   2.269   6.408   4.899
 3713SOL    HW112038   2.261   6.477   4.970
 3713SOL    HW212039   2.191   6.345   4.905
 3714SOL     OW12040   5.341   6.327   4.815
 3714SOL    HW112041   5.267   6.391   4.793
 3714SOL    HW212042   5.364   6.334   4.912
 3715SOL     OW12043   5.842   4.248   5.155
 3715SOL    HW112044   5.761   4.252   5.213
 3715SOL    HW212045   5.819   4.204   5.068
 3716SOL     OW12046   6.912   6.376   4.264
 3716SOL    HW112047   6.920   6.280   4.239
 3716SOL    HW212048   6.842   6.386   4.335
 3717SOL     OW12049   5.863   5.566   0.207
 3717SOL    HW112050   5.800   5.633   0.169
 3717SOL    HW212051   5.918   5.526   0.133
 3718SOL     OW12052   1.731   6.517   6.321
 3718SOL    HW112053   1.768   6.554   6.236
 3718SOL    HW212054   1.733   6.588   6.392
 3719SOL     OW12055   4.663   4.214   1.179
 3719SOL    HW112056   4.716   4.291   1.212
 3719SOL    HW212057   4.609   4.175   1.254
 3720SOL     OW12058   6.491   2.616   6.903
 3720SOL    HW112059   6.544   2.564   6.836
 3720SOL    HW212060   6.397   2.584   6.903
 3721SOL     OW12061   5.121   4.829   0.115
 3721SOL    HW112062   5.051   4.779   0.166
 3721SOL    HW212063   5.211   4.793   0.137
 3722SOL     OW12064   6.718   6.407   2.348
 3722SOL    HW112065   6.784   6.332   2.342
 3722SOL    HW212066   6.626   6.372   2.327
 3723SOL     OW12067   5.800   6.887   1.835
 3723SOL    HW112068   5.720   6.924   1.881
 3723SOL    HW212069   5.883   6.922   1.880
 3724SOL     OW12070   1.977   5.137   6.814
 3724SOL    HW112071   1.957   5.115   6.718
 3724SOL    HW212072   1.923   5.077   6.874
 3725SOL     OW12073   5.826   5.988   0.001
 3725SOL    HW112074   5.848   6.062   0.064
 3725SOL    HW212075   5.728   5.992   7.004
 3726SOL     OW12076   6.945   4.101   1.403
 3726SOL    HW112077   6.926   4.104   1.305
 3726SOL    HW212078   6.910   4.015   1.441
 3727SOL     OW12079   0.515   3.337   5.940
 3727SOL    HW112080   0.569   3.397   5.999
 3727SOL    HW212081   0.419   3.344   5.964
 3728SOL     OW12082   1.939   3.475   0.268
 3728SOL    HW112083   1.856   3.454   0.321
 3728SOL    HW212084   1.972   3.391   0.224
 3729SOL     OW12085   0.621   2.487   3.090
 3729SOL    HW112086   0.717   2.461   3.084
 3729SOL    HW212087   0.607   2.575   3.046
 3730SOL     OW12088   2.571   6.270   0.410
 3730SOL    HW112089   2.550   6.265   0.313
 3730SOL    HW212090   2.495   6.232   0.463
 3731SOL     OW12091   4.725   1.628   0.433
 3731SOL    HW112092   4.657   1.586   0.493
 3731SOL    HW212093   4.699   1.723   0.416
 3732SOL     OW12094   2.234   3.297   5.719
 3732SOL    HW112095   2.136   3.298   5.739
 3732SOL    HW212096   2.249   3.250   5.631
 3733SOL     OW12097   2.222   3.885   1.752
 3733SOL    HW112098   2.279   3.809   1.720
 3733SOL    HW212099   2.178   3.860   1.837
 3734SOL     OW12100   4.211   1.502   1.661
 3734SOL    HW112101   4.282   1.521   1.729
 3734SOL    HW212102   4.207   1.403   1.643
 3735SOL     OW12103   0.862   1.905   2.752
 3735SOL    HW112104   0.833   1.832   2.812
 3735SOL    HW212105   0.860   1.992   2.801
 3736SOL     OW12106   0.112   3.012   0.789
 3736SOL    HW112107   0.133   3.091   0.846
 3736SOL    HW212108   0.084   3.043   0.698
 3737SOL     OW12109   4.748   0.259   3.337
 3737SOL    HW112110   4.828   0.318   3.328
 3737SOL    HW212111   4.771   0.180   3.395
 3738SOL     OW12112   6.216   5.696   3.167
 3738SOL    HW112113   6.315   5.705   3.176
 3738SOL    HW212114   6.192   5.696   3.070
 3739SOL     OW12115   1.961   4.112   2.719
 3739SOL    HW112116   1.984   4.152   2.631
 3739SOL    HW212117   2.005   4.022   2.727
 3740SOL     OW12118   4.160   0.772   6.879
 3740SOL    HW112119   4.071   0.728   6.876
 3740SOL    HW212120   4.219   0.735   6.807
 3741SOL     OW12121   4.693   3.945   1.124
 3741SOL    HW112122   4.685   4.042   1.145
 3741SOL    HW212123   4.614   3.916   1.070
 3742SOL     OW12124   2.796   2.262   5.700
 3742SOL    HW112125   2.699   2.280   5.719
 3742SOL    HW212126   2.829   2.192   5.764
 3743SOL     OW12127   6.134   5.155   0.880
 3743SOL    HW112128   6.130   5.128   0.784
 3743SOL    HW212129   6.213   5.215   0.895
 3744SOL     OW12130   0.928   5.700   4.474
 3744SOL    HW112131   0.933   5.608   4.438
 3744SOL    HW212132   0.833   5.728   4.484
 3745SOL     OW12133   3.356   5.322   2.896
 3745SOL    HW112134   3.335   5.225   2.888
 3745SOL    HW212135   3.271   5.375   2.896
 3746SOL     OW12136   4.409   1.328   1.333
 3746SOL    HW112137   4.407   1.323   1.233
 3746SOL    HW212138   4.380   1.419   1.363
 3747SOL     OW12139   2.896   6.593   6.227
 3747SOL    HW112140   2.960   6.565   6.299
 3747SOL    HW212141   2.808   6.617   6.268
 3748SOL     OW12142   5.828   1.165   1.617
 3748SOL    HW112143   5.881   1.240   1.657
 3748SOL    HW212144   5.749   1.146   1.676
 3749SOL     OW12145   1.966   6.789   4.598
 3749SOL    HW112146   1.918   6.707   4.566
 3749SOL    HW212147   2.055   6.763   4.634
 3750SOL     OW12148   1.390   3.909   0.520
 3750SOL    HW112149   1.458   3.881   0.452
 3750SOL    HW212150   1.401   3.854   0.603
 3751SOL     OW12151   0.031   3.779   2.896
 3751SOL    HW112152   7.025   3.862   2.851
 3751SOL    HW212153   7.020   3.776   2.990
 3752SOL     OW12154   5.135   0.668   5.826
 3752SOL    HW112155   5.049   0.667   5.777
 3752SOL    HW212156   5.146   0.756   5.873
 3753SOL     OW12157   6.242   0.606   4.464
 3753SOL    HW112158   6.242   0.507   4.482
 3753SOL    HW212159   6.306   0.651   4.526
 3754SOL     OW12160   2.082   0.557   2.110
 3754SOL    HW112161   2.046   0.470   2.075
 3754SOL    HW212162   2.048   0.632   2.054
 3755SOL     OW12163   3.230   4.875   4.718
 3755SOL    HW112164   3.302   4.901   4.653
 3755SOL    HW212165   3.153   4.836   4.667
 3756SOL     OW12166   2.911   5.780   6.993
 3756SOL    HW112167   2.987   5.794   0.032
 3756SOL    HW212168   2.859   5.865   6.984
 3757SOL     OW12169   6.432   4.981   2.185
 3757SOL    HW112170   6.451   4.949   2.092
 3757SOL    HW212171   6.424   5.081   2.186
 3758SOL     OW12172   2.037   0.964   4.222
 3758SOL    HW112173   1.949   0.918   4.215
 3758SOL    HW212174   2.039   1.043   4.161
 3759SOL     OW12175   5.597   0.906   4.608
 3759SOL    HW112176   5.590   0.808   4.629
 3759SOL    HW212177   5.505   0.945   4.600
 3760SOL     OW12178   0.403   0.473   3.880
 3760SOL    HW112179   0.411   0.519   3.968
 3760SOL    HW212180   0.323   0.413   3.880
 3761SOL     OW12181   5.970   1.440   4.787
 3761SOL    HW112182   5.998   1.531   4.754
 3761SOL    HW212183   5.914   1.396   4.717
 3762SOL     OW12184   1.859   3.837   2.576
 3762SOL    HW112185   1.803   3.898   2.633
 3762SOL    HW212186   1.854   3.744   2.613
 3763SOL     OW12187   7.016   3.917   0.438
 3763SOL    HW112188   0.064   3.850   0.424
 3763SOL    HW212189   0.028   4.009   0.427
 3764SOL     OW12190   1.746   6.834   3.163
 3764SOL    HW112191   1.737   6.845   3.262
 3764SOL    HW212192   1.683   6.763   3.131
 3765SOL     OW12193   6.257   1.946   1.436
 3765SOL    HW112194   6.249   2.015   1.508
 3765SOL    HW212195   6.241   1.988   1.347
 3766SOL     OW12196   1.853   2.756   3.876
 3766SOL    HW112197   1.769   2.751   3.822
 3766SOL    HW212198   1.887   2.664   3.894
 3767SOL     OW12199   3.026   4.377   6.210
 3767SOL    HW112200   2.995   4.444   6.142
 3767SOL    HW212201   3.052   4.424   6.294
 3768SOL     OW12202   1.438   0.645   4.378
 3768SOL    HW112203   1.512   0.709   4.354
 3768SOL    HW212204   1.473   0.552   4.374
 3769SOL     OW12205   5.799   5.685   4.993
 3769SOL    HW112206   5.859   5.605   4.996
 3769SOL    HW212207   5.761   5.703   5.084
 3770SOL     OW12208   1.015   1.344   0.339
 3770SOL    HW112209   0.955   1.308   0.411
 3770SOL    HW212210   1.016   1.280   0.262
 3771SOL     OW12211   0.019   4.935   0.918
 3771SOL    HW112212   0.056   5.002   0.855
 3771SOL    HW212213   6.977   4.878   0.870
 3772SOL     OW12214   1.089   6.851   0.305
 3772SOL    HW112215   1.144   6.832   0.387
 3772SOL    HW212216   1.127   6.930   0.257
 3773SOL     OW12217   5.686   4.085   5.802
 3773SOL    HW112218   5.604   4.101   5.856
 3773SOL    HW212219   5.668   4.016   5.733
 3774SOL     OW12220   5.336   5.649   1.772
 3774SOL    HW112221   5.399   5.698   1.711
 3774SOL    HW212222   5.324   5.700   1.856
 3775SOL     OW12223   4.200   4.977   3.101
 3775SOL    HW112224   4.123   5.038   3.082
 3775SOL    HW212225   4.176   4.884   3.071
 3776SOL     OW12226   3.961   3.004   6.009
 3776SOL    HW112227   3.970   3.100   6.035
 3776SOL    HW212228   4.051   2.960   6.010
 3777SOL     OW12229   2.854   6.530   4.051
 3777SOL    HW112230   2.816   6.477   4.126
 3777SOL    HW212231   2.892   6.468   3.982
 3778SOL     OW12232   3.160   6.136   4.570
 3778SOL    HW112233   3.151   6.084   4.485
 3778SOL    HW212234   3.091   6.106   4.635
 3779SOL     OW12235   0.238   5.327   0.977
 3779SOL    HW112236   0.237   5.312   0.878
 3779SOL    HW212237   0.282   5.249   1.022
 3780SOL     OW12238   0.203   2.162   2.306
 3780SOL    HW112239   0.294   2.130   2.332
 3780SOL    HW212240   0.211   2.233   2.236
 3781SOL     OW12241   0.957   6.653   5.112
 3781SOL    HW112242   0.967   6.663   5.211
 3781SOL    HW212243   1.031   6.703   5.067
 3782SOL     OW12244   3.960   6.291   2.325
 3782SOL    HW112245   4.030   6.224   2.300
 3782SOL    HW212246   3.870   6.260   2.294
 3783SOL     OW12247   5.445   4.732   5.296
 3783SOL    HW112248   5.392   4.715   5.379
 3783SOL    HW212249   5.511   4.658   5.283
 3784SOL     OW12250   5.295   2.532   2.161
 3784SOL    HW112251   5.244   2.573   2.085
 3784SOL    HW212252   5.348   2.602   2.208
 3785SOL     OW12253   0.479   3.170   5.116
 3785SOL    HW112254   0.516   3.166   5.023
 3785SOL    HW212255   0.550   3.146   5.181
 3786SOL     OW12256   2.604   2.242   3.491
 3786SOL    HW112257   2.606   2.322   3.551
 3786SOL    HW212258   2.511   2.225   3.460
 3787SOL     OW12259   4.219   0.494   2.776
 3787SOL    HW112260   4.127   0.468   2.748
 3787SOL    HW212261   4.287   0.438   2.728
 3788SOL     OW12262   6.954   3.737   4.799
 3788SOL    HW112263   6.896   3.658   4.818
 3788SOL    HW212264   6.927   3.814   4.858
 3789SOL     OW12265   1.076   2.535   2.957
 3789SOL    HW112266   1.011   2.465   2.987
 3789SOL    HW212267   1.168   2.497   2.957
 3790SOL     OW12268   1.209   5.789   0.168
 3790SOL    HW112269   1.229   5.770   0.072
 3790SOL    HW212270   1.287   5.837   0.209
 3791SOL     OW12271   5.267   1.654   5.845
 3791SOL    HW112272   5.311   1.710   5.914
 3791SOL    HW212273   5.191   1.603   5.886
 3792SOL     OW12274   0.709   0.835   4.539
 3792SOL    HW112275   0.767   0.915   4.525
 3792SOL    HW212276   0.755   0.753   4.504
 3793SOL     OW12277   6.147   5.842   0.785
 3793SOL    HW112278   6.154   5.937   0.815
 3793SOL    HW212279   6.124   5.784   0.863
 3794SOL     OW12280   1.857   3.529   1.208
 3794SOL    HW112281   1.763   3.560   1.192
 3794SOL    HW212282   1.863   3.489   1.300
 3795SOL     OW12283   2.984   6.021   0.894
 3795SOL    HW112284   2.943   6.089   0.833
 3795SOL    HW212285   3.069   5.986   0.854
 3796SOL     OW12286   4.222   2.415   1.028
 3796SOL    HW112287   4.302   2.471   1.003
 3796SOL    HW212288   4.181   2.377   0.946
 3797SOL     OW12289   1.277   4.022   2.651
 3797SOL    HW112290   1.374   4.005   2.631
 3797SOL    HW212291   1.220   3.957   2.600
 3798SOL     OW12292   2.447   6.773   3.253
 3798SOL    HW112293   2.437   6.674   3.244
 3798SOL    HW212294   2.510   6.807   3.183
 3799SOL     OW12295   6.318   2.446   2.795
 3799SOL    HW112296   6.260   2.501   2.856
 3799SOL    HW212297   6.410   2.486   2.792
 3800SOL     OW12298   5.085   1.582   3.173
 3800SOL    HW112299   5.155   1.539   3.115
 3800SOL    HW212300   5.002   1.597   3.119
 3801SOL     OW12301   5.197   6.704   1.760
 3801SOL    HW112302   5.142   6.758   1.825
 3801SOL    HW212303   5.253   6.639   1.811
 3802SOL     OW12304   0.336   1.512   2.171
 3802SOL    HW112305   0.371   1.418   2.173
 3802SOL    HW212306   0.412   1.576   2.157
 3803SOL     OW12307   3.255   4.039   3.671
 3803SOL    HW112308   3.299   4.020   3.583
 3803SOL    HW212309   3.317   4.016   3.745
 3804SOL     OW12310   3.679   0.615   4.642
 3804SOL    HW112311   3.732   0.664   4.573
 3804SOL    HW212312   3.587   0.597   4.607
 3805SOL     OW12313   2.646   2.552   1.135
 3805SOL    HW112314   2.600   2.512   1.056
 3805SOL    HW212315   2.597   2.526   1.219
 3806SOL     OW12316   4.011   4.579   6.347
 3806SOL    HW112317   3.961   4.503   6.304
 3806SOL    HW212318   4.109   4.562   6.338
 3807SOL     OW12319   1.476   5.119   4.202
 3807SOL    HW112320   1.445   5.026   4.218
 3807SOL    HW212321   1.496   5.132   4.105
 3808SOL     OW12322   4.843   0.399   5.912
 3808SOL    HW112323   4.868   0.486   5.954
 3808SOL    HW212324   4.851   0.406   5.813
 3809SOL     OW12325   6.169   2.088   1.202
 3809SOL    HW112326   6.181   2.186   1.187
 3809SOL    HW212327   6.077   2.070   1.238
 3810SOL     OW12328   6.580   2.482   3.120
 3810SOL    HW112329   6.549   2.505   3.212
 3810SOL    HW212330   6.598   2.565   3.068
 3811SOL     OW12331   0.163   5.483   4.407
 3811SOL    HW112332   0.245   5.494   4.350
 3811SOL    HW212333   0.175   5.533   4.493
 3812SOL     OW12334   3.398   5.884   6.657
 3812SOL    HW112335   3.321   5.820   6.663
 3812SOL    HW212336   3.382   5.962   6.717
 3813SOL     OW12337   6.068   3.944   1.044
 3813SOL    HW112338   6.154   3.928   0.997
 3813SOL    HW212339   6.020   3.857   1.057
 3814SOL     OW12340   0.162   6.937   3.933
 3814SOL    HW112341   0.118   6.857   3.974
 3814SOL    HW212342   0.225   6.977   4.000
 3815SOL     OW12343   5.135   2.984   0.674
 3815SOL    HW112344   5.114   2.905   0.616
 3815SOL    HW212345   5.189   2.953   0.753
 3816SOL     OW12346   0.467   6.935   5.316
 3816SOL    HW112347   0.519   6.850   5.307
 3816SOL    HW212348   0.369   6.914   5.322
 3817SOL     OW12349   5.099   3.255   2.385
 3817SOL    HW112350   5.048   3.259   2.299
 3817SOL    HW212351   5.037   3.227   2.459
 3818SOL     OW12352   0.178   0.439   0.984
 3818SOL    HW112353   0.184   0.516   1.048
 3818SOL    HW212354   0.087   0.435   0.944
 3819SOL     OW12355   6.354   4.168   2.903
 3819SOL    HW112356   6.440   4.219   2.896
 3819SOL    HW212357   6.357   4.091   2.840
 3820SOL     OW12358   5.634   6.591   3.793
 3820SOL    HW112359   5.604   6.660   3.859
 3820SOL    HW212360   5.656   6.636   3.706
 3821SOL     OW12361   0.637   0.173   0.430
 3821SOL    HW112362   0.711   0.239   0.439
 3821SOL    HW212363   0.667   0.097   0.372
 3822SOL     OW12364   3.469   0.325   6.831
 3822SOL    HW112365   3.489   0.288   6.741
 3822SOL    HW212366   3.546   0.309   6.892
 3823SOL     OW12367   4.713   4.820   6.629
 3823SOL    HW112368   4.648   4.854   6.696
 3823SOL    HW212369   4.765   4.896   6.591
 3824SOL     OW12370   1.099   2.826   0.538
 3824SOL    HW112371   1.052   2.896   0.485
 3824SOL    HW212372   1.113   2.744   0.481
 3825SOL     OW12373   1.328   4.483   0.879
 3825SOL    HW112374   1.231   4.499   0.861
 3825SOL    HW212375   1.369   4.565   0.919
 3826SOL     OW12376   6.935   4.055   2.722
 3826SOL    HW112377   6.885   4.023   2.642
 3826SOL    HW212378   6.882   4.036   2.804
 3827SOL     OW12379   0.769   0.859   1.346
 3827SOL    HW112380   0.772   0.910   1.260
 3827SOL    HW212381   0.861   0.849   1.382
 3828SOL     OW12382   3.734   4.231   5.054
 3828SOL    HW112383   3.651   4.195   5.010
 3828SOL    HW212384   3.814   4.181   5.021
 3829SOL     OW12385   0.681   5.261   2.328
 3829SOL    HW112386   0.682   5.341   2.388
 3829SOL    HW212387   0.768   5.255   2.279
 3830SOL     OW12388   0.370   0.675   5.429
 3830SOL    HW112389   0.402   0.769   5.415
 3830SOL    HW212390   0.359   0.658   5.527
 3831SOL     OW12391   4.190   2.275   2.801
 3831SOL    HW112392   4.122   2.207   2.826
 3831SOL    HW212393   4.226   2.319   2.884
 3832SOL     OW12394   0.348   0.555   1.611
 3832SOL    HW112395   0.410   0.478   1.627
 3832SOL    HW212396   0.388   0.616   1.543
 3833SOL     OW12397   1.854   6.416   6.600
 3833SOL    HW112398   1.922   6.358   6.555
 3833SOL    HW212399   1.797   6.361   6.661
 3834SOL     OW12400   4.125   4.191   1.261
 3834SOL    HW112401   4.134   4.153   1.169
 3834SOL    HW212402   4.048   4.255   1.264
 3835SOL     OW12403   3.727   5.940   5.301
 3835SOL    HW112404   3.686   6.010   5.242
 3835SOL    HW212405   3.827   5.944   5.291
 3836SOL     OW12406   0.389   4.846   5.732
 3836SOL    HW112407   0.475   4.832   5.683
 3836SOL    HW212408   0.347   4.932   5.704
 3837SOL     OW12409   4.280   5.174   5.309
 3837SOL    HW112410   4.271   5.234   5.229
 3837SOL    HW212411   4.306   5.082   5.279
 3838SOL     OW12412   1.490   1.210   3.097
 3838SOL    HW112413   1.439   1.223   3.012
 3838SOL    HW212414   1.548   1.290   3.114
 3839SOL     OW12415   4.470   0.810   2.855
 3839SOL    HW112416   4.504   0.899   2.886
 3839SOL    HW212417   4.412   0.770   2.925
 3840SOL     OW12418   2.611   1.946   6.028
 3840SOL    HW112419   2.678   1.995   5.973
 3840SOL    HW212420   2.658   1.888   6.094
 3841SOL     OW12421   0.819   4.350   3.854
 3841SOL    HW112422   0.915   4.347   3.882
 3841SOL    HW212423   0.765   4.397   3.924
 3842SOL     OW12424   2.488   2.503   4.084
 3842SOL    HW112425   2.420   2.506   4.157
 3842SOL    HW212426   2.567   2.449   4.113
 3843SOL     OW12427   5.578   3.382   1.012
 3843SOL    HW112428   5.588   3.465   0.957
 3843SOL    HW212429   5.626   3.394   1.099
 3844SOL     OW12430   1.452   4.594   6.929
 3844SOL    HW112431   1.420   4.635   7.015
 3844SOL    HW212432   1.383   4.609   6.858
 3845SOL     OW12433   2.439   6.119   6.979
 3845SOL    HW112434   2.347   6.094   7.010
 3845SOL    HW212435   2.443   6.112   6.880
 3846SOL     OW12436   0.535   3.504   4.512
 3846SOL    HW112437   0.440   3.533   4.501
 3846SOL    HW212438   0.562   3.516   4.607
 3847SOL     OW12439   5.593   1.975   4.177
 3847SOL    HW112440   5.512   2.007   4.227
 3847SOL    HW212441   5.602   2.027   4.092
 3848SOL     OW12442   4.991   3.514   2.999
 3848SOL    HW112443   5.084   3.512   3.038
 3848SOL    HW212444   4.935   3.578   3.051
 3849SOL     OW12445   0.613   0.034   6.789
 3849SOL    HW112446   0.520   0.067   6.808
 3849SOL    HW212447   0.623   6.965   6.822
 3850SOL     OW12448   3.066   3.033   1.036
 3850SOL    HW112449   3.129   3.011   1.110
 3850SOL    HW212450   2.978   2.989   1.053
 3851SOL     OW12451   6.608   4.969   3.739
 3851SOL    HW112452   6.561   4.891   3.781
 3851SOL    HW212453   6.640   4.943   3.648
 3852SOL     OW12454   3.522   6.720   4.400
 3852SOL    HW112455   3.568   6.806   4.380
 3852SOL    HW212456   3.477   6.686   4.317
 3853SOL     OW12457   1.544   2.062   3.469
 3853SOL    HW112458   1.639   2.090   3.482
 3853SOL    HW212459   1.524   1.982   3.526
 3854SOL     OW12460   1.104   3.264   3.174
 3854SOL    HW112461   1.042   3.303   3.106
 3854SOL    HW212462   1.120   3.167   3.154
 3855SOL     OW12463   4.077   6.403   0.359
 3855SOL    HW112464   4.041   6.322   0.404
 3855SOL    HW212465   4.090   6.476   0.427
 3856SOL     OW12466   0.632   1.566   5.691
 3856SOL    HW112467   0.666   1.510   5.767
 3856SOL    HW212468   0.658   1.662   5.706
 3857SOL     OW12469   1.296   6.505   5.620
 3857SOL    HW112470   1.362   6.477   5.689
 3857SOL    HW212471   1.295   6.439   5.545
 3858SOL     OW12472   3.329   1.357   5.639
 3858SOL    HW112473   3.273   1.307   5.573
 3858SOL    HW212474   3.373   1.291   5.701
 3859SOL     OW12475   6.245   0.976   1.074
 3859SOL    HW112476   6.271   1.013   1.163
 3859SOL    HW212477   6.258   1.046   1.004
 3860SOL     OW12478   1.587   1.098   4.285
 3860SOL    HW112479   1.664   1.156   4.259
 3860SOL    HW212480   1.554   1.126   4.375
 3861SOL     OW12481   4.538   6.168   2.763
 3861SOL    HW112482   4.624   6.180   2.714
 3861SOL    HW212483   4.537   6.228   2.843
 3862SOL     OW12484   0.828   0.635   4.377
 3862SOL    HW112485   0.871   0.703   4.318
 3862SOL    HW212486   0.813   0.550   4.325
 3863SOL     OW12487   6.022   1.525   6.645
 3863SOL    HW112488   5.972   1.488   6.567
 3863SOL    HW212489   5.966   1.594   6.690
 3864SOL     OW12490   2.558   0.632   5.230
 3864SOL    HW112491   2.502   0.638   5.313
 3864SOL    HW212492   2.500   0.608   5.153
 3865SOL     OW12493   4.187   1.937   0.506
 3865SOL    HW112494   4.163   1.898   0.417
 3865SOL    HW212495   4.285   1.927   0.522
 3866SOL     OW12496   3.737   1.458   6.641
 3866SOL    HW112497   3.807   1.401   6.684
 3866SOL    HW212498   3.730   1.545   6.690
 3867SOL     OW12499   1.220   4.014   3.587
 3867SOL    HW112500   1.225   4.038   3.684
 3867SOL    HW212501   1.267   4.084   3.533
 3868SOL     OW12502   4.231   0.368   6.936
 3868SOL    HW112503   4.282   0.356   7.021
 3868SOL    HW212504   4.294   0.361   6.859
 3869SOL     OW12505   6.436   3.003   3.521
 3869SOL    HW112506   6.459   2.964   3.611
 3869SOL    HW212507   6.509   2.982   3.456
 3870SOL     OW12508   6.590   6.636   1.721
 3870SOL    HW112509   6.534   6.704   1.674
 3870SOL    HW212510   6.590   6.551   1.669
 3871SOL     OW12511   3.215   0.017   2.986
 3871SOL    HW112512   3.315   0.024   2.985
 3871SOL    HW212513   3.175   0.108   2.978
 3872SOL     OW12514   2.996   3.391   4.231
 3872SOL    HW112515   2.955   3.410   4.142
 3872SOL    HW212516   3.049   3.471   4.261
 3873SOL     OW12517   5.374   4.045   0.905
 3873SOL    HW112518   5.371   3.963   0.963
 3873SOL    HW212519   5.380   4.126   0.962
 3874SOL     OW12520   4.222   0.950   0.479
 3874SOL    HW112521   4.232   0.905   0.391
 3874SOL    HW212522   4.246   1.047   0.470
 3875SOL     OW12523   1.846   2.579   3.527
 3875SOL    HW112524   1.902   2.644   3.475
 3875SOL    HW212525   1.904   2.504   3.560
 3876SOL     OW12526   3.435   5.204   1.336
 3876SOL    HW112527   3.460   5.209   1.433
 3876SOL    HW212528   3.355   5.145   1.326
 3877SOL     OW12529   6.564   2.584   1.208
 3877SOL    HW112530   6.607   2.635   1.282
 3877SOL    HW212531   6.549   2.489   1.236
 3878SOL     OW12532   4.794   6.252   4.404
 3878SOL    HW112533   4.860   6.298   4.464
 3878SOL    HW212534   4.829   6.160   4.382
 3879SOL     OW12535   5.876   5.304   0.911
 3879SOL    HW112536   5.940   5.344   0.977
 3879SOL    HW212537   5.925   5.240   0.852
 3880SOL     OW12538   5.136   4.159   4.654
 3880SOL    HW112539   5.063   4.227   4.645
 3880SOL    HW212540   5.100   4.078   4.701
 3881SOL     OW12541   1.328   3.651   1.847
 3881SOL    HW112542   1.406   3.691   1.800
 3881SOL    HW212543   1.335   3.668   1.945
 3882SOL     OW12544   0.026   1.135   6.478
 3882SOL    HW112545   0.070   1.225   6.476
 3882SOL    HW212546   0.096   1.064   6.475
 3883SOL     OW12547   4.131   1.294   2.433
 3883SOL    HW112548   4.184   1.273   2.351
 3883SOL    HW212549   4.041   1.326   2.407
 3884SOL     OW12550   0.528   5.811   2.487
 3884SOL    HW112551   0.500   5.781   2.578
 3884SOL    HW212552   0.467   5.771   2.419
 3885SOL     OW12553   6.709   5.596   2.715
 3885SOL    HW112554   6.753   5.523   2.768
 3885SOL    HW212555   6.653   5.652   2.776
 3886SOL     OW12556   4.425   5.768   5.331
 3886SOL    HW112557   4.346   5.778   5.391
 3886SOL    HW212558   4.466   5.677   5.345
 3887SOL     OW12559   0.731   6.897   0.148
 3887SOL    HW112560   0.710   6.869   0.054
 3887SOL    HW212561   0.656   6.953   0.183
 3888SOL     OW12562   6.791   0.003   5.086
 3888SOL    HW112563   6.771   0.053   5.170
 3888SOL    HW212564   6.796   6.930   5.105
 3889SOL     OW12565   6.933   3.338   0.449
 3889SOL    HW112566   7.023   3.378   0.434
 3889SOL    HW212567   6.932   3.244   0.416
 3890SOL     OW12568   5.947   4.673   3.520
 3890SOL    HW112569   5.885   4.711   3.588
 3890SOL    HW212570   5.901   4.670   3.431
 3891SOL     OW12571   5.176   3.937   4.296
 3891SOL    HW112572   5.224   3.991   4.365
 3891SOL    HW212573   5.092   3.899   4.335
 3892SOL     OW12574   0.405   2.562   0.968
 3892SOL    HW112575   0.374   2.562   1.063
 3892SOL    HW212576   0.326   2.566   0.906
 3893SOL     OW12577   4.159   3.800   0.459
 3893SOL    HW112578   4.191   3.807   0.553
 3893SOL    HW212579   4.060   3.817   0.457
 3894SOL     OW12580   4.766   1.080   0.106
 3894SOL    HW112581   4.860   1.093   0.137
 3894SOL    HW212582   4.703   1.125   0.170
 3895SOL     OW12583   0.877   0.406   5.767
 3895SOL    HW112584   0.914   0.426   5.857
 3895SOL    HW212585   0.934   0.448   5.696
 3896SOL     OW12586   0.647   1.226   6.019
 3896SOL    HW112587   0.730   1.181   6.052
 3896SOL    HW212588   0.635   1.207   5.921
 3897SOL     OW12589   4.071   5.461   2.785
 3897SOL    HW112590   4.061   5.398   2.707
 3897SOL    HW212591   3.980   5.487   2.818
 3898SOL     OW12592   2.606   2.904   5.954
 3898SOL    HW112593   2.645   2.812   5.946
 3898SOL    HW212594   2.653   2.965   5.890
 3899SOL     OW12595   4.743   6.647   5.711
 3899SOL    HW112596   4.768   6.741   5.687
 3899SOL    HW212597   4.816   6.585   5.684
 3900SOL     OW12598   4.736   2.929   3.736
 3900SOL    HW112599   4.759   3.011   3.682
 3900SOL    HW212600   4.659   2.882   3.694
 3901SOL     OW12601   3.265   0.687   6.298
 3901SOL    HW112602   3.293   0.598   6.334
 3901SOL    HW212603   3.205   0.733   6.363
 3902SOL     OW12604   6.440   2.908   1.865
 3902SOL    HW112605   6.383   2.941   1.789
 3902SOL    HW212606   6.496   2.831   1.833
 3903SOL     OW12607   3.705   5.951   0.497
 3903SOL    HW112608   3.614   5.922   0.527
 3903SOL    HW212609   3.763   5.964   0.577
 3904SOL     OW12610   2.292   1.402   6.211
 3904SOL    HW112611   2.346   1.367   6.135
 3904SOL    HW212612   2.351   1.452   6.274
 3905SOL     OW12613   0.144   6.793   6.709
 3905SOL    HW112614   0.136   6.879   6.658
 3905SOL    HW212615   0.101   6.802   6.798
 3906SOL     OW12616   5.566   6.031   5.155
 3906SOL    HW112617   5.536   5.977   5.077
 3906SOL    HW212618   5.663   6.016   5.172
 3907SOL     OW12619   5.932   1.084   3.413
 3907SOL    HW112620   5.958   1.082   3.316
 3907SOL    HW212621   5.839   1.050   3.424
 3908SOL     OW12622   0.921   2.451   0.068
 3908SOL    HW112623   0.970   2.365   0.052
 3908SOL    HW212624   0.958   2.497   0.149
 3909SOL     OW12625   6.376   5.928   5.401
 3909SOL    HW112626   6.419   5.861   5.462
 3909SOL    HW212627   6.417   5.923   5.311
 3910SOL     OW12628   3.124   4.054   2.849
 3910SOL    HW112629   3.051   4.122   2.841
 3910SOL    HW212630   3.091   3.975   2.901
 3911SOL     OW12631   5.332   1.637   5.200
 3911SOL    HW112632   5.399   1.678   5.138
 3911SOL    HW212633   5.240   1.664   5.171
 3912SOL     OW12634   5.268   0.758   5.249
 3912SOL    HW112635   5.248   0.746   5.346
 3912SOL    HW212636   5.364   0.738   5.232
 3913SOL     OW12637   2.539   6.330   6.041
 3913SOL    HW112638   2.458   6.299   6.091
 3913SOL    HW212639   2.549   6.429   6.054
 3914SOL     OW12640   2.580   0.971   1.667
 3914SOL    HW112641   2.678   0.978   1.686
 3914SOL    HW212642   2.564   0.988   1.570
 3915SOL     OW12643   4.900   5.527   1.440
 3915SOL    HW112644   4.854   5.612   1.413
 3915SOL    HW212645   4.999   5.542   1.441
 3916SOL     OW12646   1.011   0.048   4.075
 3916SOL    HW112647   1.053   0.126   4.122
 3916SOL    HW212648   0.916   0.039   4.104
 3917SOL     OW12649   6.917   6.185   6.887
 3917SOL    HW112650   6.822   6.202   6.911
 3917SOL    HW212651   6.921   6.134   6.800
 3918SOL     OW12652   5.328   5.982   1.507
 3918SOL    HW112653   5.410   5.953   1.555
 3918SOL    HW212654   5.307   6.077   1.531
 3919SOL     OW12655   3.759   6.673   0.061
 3919SOL    HW112656   3.842   6.625   0.034
 3919SOL    HW212657   3.778   6.770   0.074
 3920SOL     OW12658   3.370   3.149   0.849
 3920SOL    HW112659   3.290   3.119   0.796
 3920SOL    HW212660   3.419   3.069   0.883
 3921SOL     OW12661   0.567   3.675   1.690
 3921SOL    HW112662   0.487   3.639   1.643
 3921SOL    HW212663   0.560   3.775   1.697
 3922SOL     OW12664   6.705   3.575   1.930
 3922SOL    HW112665   6.749   3.649   1.981
 3922SOL    HW212666   6.661   3.512   1.994
 3923SOL     OW12667   6.777   0.663   6.843
 3923SOL    HW112668   6.798   0.702   6.753
 3923SOL    HW212669   6.860   0.625   6.883
 3924SOL     OW12670   6.109   4.930   3.277
 3924SOL    HW112671   6.055   4.857   3.234
 3924SOL    HW212672   6.193   4.945   3.225
 3925SOL     OW12673   2.822   5.284   1.174
 3925SOL    HW112674   2.905   5.318   1.218
 3925SOL    HW212675   2.804   5.190   1.205
 3926SOL     OW12676   6.615   5.233   2.922
 3926SOL    HW112677   6.574   5.162   2.980
 3926SOL    HW212678   6.592   5.323   2.958
 3927SOL     OW12679   6.416   2.736   4.068
 3927SOL    HW112680   6.466   2.783   3.995
 3927SOL    HW212681   6.395   2.802   4.141
 3928SOL     OW12682   4.126   5.990   6.269
 3928SOL    HW112683   4.077   5.908   6.300
 3928SOL    HW212684   4.200   6.010   6.333
 3929SOL     OW12685   6.916   0.712   5.374
 3929SOL    HW112686   6.892   0.750   5.285
 3929SOL    HW212687   6.968   0.779   5.426
 3930SOL     OW12688   2.755   1.886   3.600
 3930SOL    HW112689   2.845   1.928   3.596
 3930SOL    HW212690   2.694   1.942   3.656
 3931SOL     OW12691   1.346   0.513   1.468
 3931SOL    HW112692   1.398   0.429   1.479
 3931SOL    HW212693   1.249   0.491   1.454
 3932SOL     OW12694   1.762   4.749   3.415
 3932SOL    HW112695   1.797   4.694   3.491
 3932SOL    HW212696   1.781   4.701   3.329
 3933SOL     OW12697   2.039   6.586   6.776
 3933SOL    HW112698   1.954   6.543   6.806
 3933SOL    HW212699   2.105   6.515   6.751
 3934SOL     OW12700   6.804   1.129   6.922
 3934SOL    HW112701   6.856   1.159   6.842
 3934SOL    HW212702   6.716   1.176   6.924
 3935SOL     OW12703   2.945   6.404   0.087
 3935SOL    HW112704   2.892   6.485   0.062
 3935SOL    HW212705   3.016   6.430   0.152
 3936SOL     OW12706   6.860   5.371   5.388
 3936SOL    HW112707   6.885   5.351   5.483
 3936SOL    HW212708   6.915   5.447   5.354
 3937SOL     OW12709   6.891   2.101   3.719
 3937SOL    HW112710   6.850   2.010   3.711
 3937SOL    HW212711   6.834   2.158   3.778
 3938SOL     OW12712   0.571   1.976   3.828
 3938SOL    HW112713   0.487   2.031   3.827
 3938SOL    HW212714   0.570   1.912   3.751
 3939SOL     OW12715   2.578   2.472   2.572
 3939SOL    HW112716   2.618   2.492   2.483
 3939SOL    HW212717   2.479   2.470   2.565
 3940SOL     OW12718   5.112   4.769   1.107
 3940SOL    HW112719   5.055   4.767   1.189
 3940SOL    HW212720   5.169   4.851   1.108
 3941SOL     OW12721   5.071   3.272   5.828
 3941SOL    HW112722   5.066   3.220   5.913
 3941SOL    HW212723   5.040   3.216   5.752
 3942SOL     OW12724   0.645   6.808   6.900
 3942SOL    HW112725   0.547   6.823   6.892
 3942SOL    HW212726   0.668   6.717   6.866
 3943SOL     OW12727   0.052   3.192   3.023
 3943SOL    HW112728   0.023   3.258   3.093
 3943SOL    HW212729   6.999   3.171   2.963
 3944SOL     OW12730   4.462   2.606   5.084
 3944SOL    HW112731   4.391   2.598   5.154
 3944SOL    HW212732   4.455   2.529   5.020
 3945SOL     OW12733   0.372   1.770   0.369
 3945SOL    HW112734   0.298   1.817   0.417
 3945SOL    HW212735   0.422   1.835   0.313
 3946SOL     OW12736   5.805   5.247   5.296
 3946SOL    HW112737   5.780   5.344   5.302
 3946SOL    HW212738   5.774   5.199   5.378
 3947SOL     OW12739   5.422   6.182   0.773
 3947SOL    HW112740   5.345   6.239   0.802
 3947SOL    HW212741   5.398   6.134   0.688
 3948SOL     OW12742   1.259   5.197   2.290
 3948SOL    HW112743   1.180   5.182   2.349
 3948SOL    HW212744   1.297   5.288   2.306
 3949SOL     OW12745   4.746   0.572   3.029
 3949SOL    HW112746   4.694   0.487   3.040
 3949SOL    HW212747   4.699   0.646   3.078
 3950SOL     OW12748   1.979   4.101   0.799
 3950SOL    HW112749   1.975   4.001   0.794
 3950SOL    HW212750   1.907   4.140   0.742
 3951SOL     OW12751   5.533   0.176   1.314
 3951SOL    HW112752   5.563   0.271   1.321
 3951SOL    HW212753   5.548   0.130   1.402
 3952SOL     OW12754   6.296   2.810   2.549
 3952SOL    HW112755   6.238   2.741   2.507
 3952SOL    HW212756   6.285   2.807   2.649
 3953SOL     OW12757   3.741   4.866   1.582
 3953SOL    HW112758   3.813   4.798   1.565
 3953SOL    HW212759   3.704   4.898   1.495
 3954SOL     OW12760   4.022   5.331   4.840
 3954SOL    HW112761   3.939   5.355   4.790
 3954SOL    HW212762   4.098   5.322   4.776
 3955SOL     OW12763   3.096   6.223   6.704
 3955SOL    HW112764   3.014   6.228   6.647
 3955SOL    HW212765   3.074   6.179   6.791
 3956SOL     OW12766   0.588   0.799   2.928
 3956SOL    HW112767   0.558   0.870   2.992
 3956SOL    HW212768   0.585   0.836   2.835
 3957SOL     OW12769   5.011   6.350   4.094
 3957SOL    HW112770   4.950   6.424   4.070
 3957SOL    HW212771   4.998   6.273   4.031
 3958SOL     OW12772   6.142   1.252   4.892
 3958SOL    HW112773   6.228   1.300   4.909
 3958SOL    HW212774   6.070   1.319   4.875
 3959SOL     OW12775   3.864   0.405   0.832
 3959SOL    HW112776   3.905   0.491   0.860
 3959SOL    HW212777   3.820   0.361   0.911
 3960SOL     OW12778   4.864   2.141   6.500
 3960SOL    HW112779   4.810   2.060   6.477
 3960SOL    HW212780   4.948   2.142   6.445
 3961SOL     OW12781   5.397   1.615   2.695
 3961SOL    HW112782   5.331   1.690   2.701
 3961SOL    HW212783   5.477   1.645   2.644
 3962SOL     OW12784   3.008   4.050   0.061
 3962SOL    HW112785   2.939   4.114   0.094
 3962SOL    HW212786   3.039   3.993   0.137
 3963SOL     OW12787   4.971   5.509   3.743
 3963SOL    HW112788   4.896   5.498   3.808
 3963SOL    HW212789   5.059   5.500   3.790
 3964SOL     OW12790   4.897   5.251   4.146
 3964SOL    HW112791   4.831   5.215   4.212
 3964SOL    HW212792   4.969   5.300   4.193
 3965SOL     OW12793   4.908   2.502   4.745
 3965SOL    HW112794   4.808   2.509   4.748
 3965SOL    HW212795   4.944   2.494   4.838
 3966SOL     OW12796   5.144   6.310   6.272
 3966SOL    HW112797   5.234   6.307   6.318
 3966SOL    HW212798   5.131   6.399   6.230
 3967SOL     OW12799   2.090   3.652   2.915
 3967SOL    HW112800   2.139   3.677   2.998
 3967SOL    HW212801   2.106   3.556   2.895
 3968SOL     OW12802   4.549   0.235   1.086
 3968SOL    HW112803   4.586   0.142   1.090
 3968SOL    HW212804   4.455   0.235   1.120
 3969SOL     OW12805   1.397   4.090   2.342
 3969SOL    HW112806   1.437   4.018   2.285
 3969SOL    HW212807   1.341   4.050   2.414
 3970SOL     OW12808   6.083   6.257   3.009
 3970SOL    HW112809   6.019   6.333   3.023
 3970SOL    HW212810   6.176   6.291   3.020
 3971SOL     OW12811   2.971   5.471   3.206
 3971SOL    HW112812   3.035   5.504   3.276
 3971SOL    HW212813   2.928   5.387   3.238
 3972SOL     OW12814   1.340   4.267   1.058
 3972SOL    HW112815   1.347   4.339   0.988
 3972SOL    HW212816   1.429   4.222   1.069
 3973SOL     OW12817   1.612   5.547   6.371
 3973SOL    HW112818   1.617   5.595   6.283
 3973SOL    HW212819   1.517   5.523   6.391
 3974SOL     OW12820   2.038   0.247   5.398
 3974SOL    HW112821   2.043   0.161   5.448
 3974SOL    HW212822   1.980   0.236   5.317
 3975SOL     OW12823   5.239   1.256   5.127
 3975SOL    HW112824   5.272   1.276   5.219
 3975SOL    HW212825   5.263   1.162   5.103
 3976SOL     OW12826   1.329   5.768   1.795
 3976SOL    HW112827   1.377   5.711   1.862
 3976SOL    HW212828   1.395   5.801   1.727
 3977SOL     OW12829   2.631   3.882   5.825
 3977SOL    HW112830   2.575   3.803   5.803
 3977SOL    HW212831   2.573   3.959   5.850
 3978SOL     OW12832   5.772   5.345   4.559
 3978SOL    HW112833   5.858   5.377   4.518
 3978SOL    HW212834   5.792   5.274   4.626
 3979SOL     OW12835   3.339   0.098   0.163
 3979SOL    HW112836   3.328   0.061   0.256
 3979SOL    HW212837   3.365   0.194   0.168
 3980SOL     OW12838   5.654   6.026   0.654
 3980SOL    HW112839   5.663   6.112   0.705
 3980SOL    HW212840   5.717   6.026   0.577
 3981SOL     OW12841   3.512   0.377   0.458
 3981SOL    HW112842   3.605   0.412   0.468
 3981SOL    HW212843   3.492   0.365   0.360
 3982SOL     OW12844   2.368   6.930   3.473
 3982SOL    HW112845   2.422   6.889   3.398
 3982SOL    HW212846   2.415   6.914   3.560
 3983SOL     OW12847   5.161   4.879   4.174
 3983SOL    HW112848   5.194   4.790   4.206
 3983SOL    HW212849   5.209   4.952   4.222
 3984SOL     OW12850   6.465   1.438   2.473
 3984SOL    HW112851   6.414   1.354   2.489
 3984SOL    HW212852   6.537   1.448   2.542
 3985SOL     OW12853   2.742   4.472   6.433
 3985SOL    HW112854   2.674   4.505   6.368
 3985SOL    HW212855   2.721   4.377   6.457
 3986SOL     OW12856   5.160   1.846   2.400
 3986SOL    HW112857   5.250   1.865   2.361
 3986SOL    HW212858   5.117   1.931   2.428
 3987SOL     OW12859   3.799   4.995   3.295
 3987SOL    HW112860   3.888   5.035   3.270
 3987SOL    HW212861   3.791   4.994   3.395
 3988SOL     OW12862   3.438   4.511   6.728
 3988SOL    HW112863   3.426   4.609   6.744
 3988SOL    HW212864   3.535   4.490   6.721
 3989SOL     OW12865   6.843   2.944   6.944
 3989SOL    HW112866   6.823   2.901   0.008
 3989SOL    HW212867   6.871   2.873   6.879
 3990SOL     OW12868   4.473   2.200   3.066
 3990SOL    HW112869   4.466   2.105   3.033
 3990SOL    HW212870   4.386   2.246   3.051
 3991SOL     OW12871   6.202   0.760   2.581
 3991SOL    HW112872   6.247   0.817   2.511
 3991SOL    HW212873   6.271   0.723   2.643
 3992SOL     OW12874   3.001   1.489   0.365
 3992SOL    HW112875   3.032   1.394   0.362
 3992SOL    HW212876   3.031   1.536   0.282
 3993SOL     OW12877   1.362   1.867   2.367
 3993SOL    HW112878   1.273   1.824   2.350
 3993SOL    HW212879   1.355   1.965   2.352
 3994SOL     OW12880   1.560   0.078   6.113
 3994SOL    HW112881   1.640   0.059   6.169
 3994SOL    HW212882   1.530   7.019   6.067
 3995SOL     OW12883   2.607   3.424   5.975
 3995SOL    HW112884   2.571   3.438   5.883
 3995SOL    HW212885   2.698   3.465   5.981
 3996SOL     OW12886   0.777   6.737   4.628
 3996SOL    HW112887   0.854   6.682   4.660
 3996SOL    HW212888   0.704   6.735   4.696
 3997SOL     OW12889   5.342   1.546   3.584
 3997SOL    HW112890   5.424   1.492   3.596
 3997SOL    HW212891   5.366   1.637   3.550
 3998SOL     OW12892   4.428   1.260   3.607
 3998SOL    HW112893   4.401   1.205   3.528
 3998SOL    HW212894   4.457   1.201   3.681
 3999SOL     OW12895   5.414   3.332   4.118
 3999SOL    HW112896   5.458   3.341   4.028
 3999SOL    HW212897   5.426   3.239   4.151
 4000SOL     OW12898   3.472   6.962   3.241
 4000SOL    HW112899   3.499   6.866   3.236
 4000SOL    HW212900   3.546   7.019   3.203
 4001SOL     OW12901   2.336   1.457   3.270
 4001SOL    HW112902   2.255   1.481   3.217
 4001SOL    HW212903   2.321   1.370   3.317
 4002SOL     OW12904   3.046   4.229   0.388
 4002SOL    HW112905   3.014   4.293   0.458
 4002SOL    HW212906   3.125   4.268   0.340
 4003SOL     OW12907   3.762   0.222   4.265
 4003SOL    HW112908   3.703   0.281   4.319
 4003SOL    HW212909   3.802   0.275   4.190
 4004SOL     OW12910   5.323   1.791   3.834
 4004SOL    HW112911   5.254   1.724   3.809
 4004SOL    HW212912   5.327   1.863   3.765
 4005SOL     OW12913   4.856   5.386   6.994
 4005SOL    HW112914   4.796   5.342   0.035
 4005SOL    HW212915   4.921   5.319   6.958
 4006SOL     OW12916   4.526   5.706   2.572
 4006SOL    HW112917   4.541   5.608   2.575
 4006SOL    HW212918   4.438   5.726   2.529
 4007SOL     OW12919   0.134   2.874   6.824
 4007SOL    HW112920   0.118   2.923   6.738
 4007SOL    HW212921   0.049   2.829   6.853
 4008SOL     OW12922   2.805   1.919   4.353
 4008SOL    HW112923   2.843   2.011   4.365
 4008SOL    HW212924   2.821   1.889   4.259
 4009SOL     OW12925   4.225   3.435   1.321
 4009SOL    HW112926   4.276   3.374   1.382
 4009SOL    HW212927   4.284   3.511   1.294
 4010SOL     OW12928   2.435   3.160   1.150
 4010SOL    HW112929   2.347   3.151   1.197
 4010SOL    HW212930   2.506   3.182   1.216
 4011SOL     OW12931   0.499   1.166   1.947
 4011SOL    HW112932   0.437   1.203   2.016
 4011SOL    HW212933   0.454   1.168   1.857
 4012SOL     OW12934   6.183   4.602   1.827
 4012SOL    HW112935   6.148   4.644   1.910
 4012SOL    HW212936   6.244   4.526   1.851
 4013SOL     OW12937   3.245   1.565   4.995
 4013SOL    HW112938   3.161   1.581   4.943
 4013SOL    HW212939   3.288   1.652   5.018
 4014SOL     OW12940   5.272   6.307   2.580
 4014SOL    HW112941   5.326   6.364   2.517
 4014SOL    HW212942   5.312   6.312   2.672
 4015SOL     OW12943   5.014   5.018   6.144
 4015SOL    HW112944   5.092   5.009   6.206
 4015SOL    HW212945   5.047   5.046   6.054
 4016SOL     OW12946   2.715   6.066   6.066
 4016SOL    HW112947   2.658   6.140   6.029
 4016SOL    HW212948   2.657   5.987   6.086
 4017SOL     OW12949   0.071   5.967   0.825
 4017SOL    HW112950   7.002   5.979   0.856
 4017SOL    HW212951   0.112   5.889   0.872
 4018SOL     OW12952   3.710   6.125   2.745
 4018SOL    HW112953   3.763   6.143   2.828
 4018SOL    HW212954   3.749   6.177   2.669
 4019SOL     OW12955   5.279   4.551   3.523
 4019SOL    HW112956   5.357   4.601   3.561
 4019SOL    HW212957   5.206   4.546   3.591
 4020SOL     OW12958   4.803   1.625   4.901
 4020SOL    HW112959   4.881   1.686   4.888
 4020SOL    HW212960   4.835   1.535   4.930
 4021SOL     OW12961   3.967   4.894   5.851
 4021SOL    HW112962   3.909   4.836   5.909
 4021SOL    HW212963   4.028   4.836   5.797
 4022SOL     OW12964   5.161   1.566   6.668
 4022SOL    HW112965   5.224   1.582   6.593
 4022SOL    HW212966   5.189   1.483   6.718
 4023SOL     OW12967   6.292   1.673   4.858
 4023SOL    HW112968   6.219   1.644   4.796
 4023SOL    HW212969   6.364   1.718   4.805
 4024SOL     OW12970   3.624   6.660   3.674
 4024SOL    HW112971   3.639   6.722   3.597
 4024SOL    HW212972   3.696   6.673   3.742
 4025SOL     OW12973   0.360   4.142   2.709
 4025SOL    HW112974   0.402   4.098   2.630
 4025SOL    HW212975   0.419   4.131   2.789
 4026SOL     OW12976   5.767   5.954   4.055
 4026SOL    HW112977   5.859   5.972   4.090
 4026SOL    HW212978   5.729   5.874   4.101
 4027SOL     OW12979   3.639   4.171   1.948
 4027SOL    HW112980   3.582   4.245   1.985
 4027SOL    HW212981   3.679   4.200   1.862
 4028SOL     OW12982   1.909   2.033   4.388
 4028SOL    HW112983   1.814   2.031   4.357
 4028SOL    HW212984   1.955   1.948   4.363
 4029SOL     OW12985   2.927   4.059   5.921
 4029SOL    HW112986   2.839   4.096   5.950
 4029SOL    HW212987   2.919   3.960   5.907
 4030SOL     OW12988   0.954   2.362   5.669
 4030SOL    HW112989   0.933   2.301   5.593
 4030SOL    HW212990   0.954   2.310   5.755
 4031SOL     OW12991   4.816   5.294   3.887
 4031SOL    HW112992   4.869   5.288   3.971
 4031SOL    HW212993   4.763   5.379   3.887
 4032SOL     OW12994   6.331   6.522   4.079
 4032SOL    HW112995   6.313   6.618   4.057
 4032SOL    HW212996   6.406   6.488   4.023
 4033SOL     OW12997   3.152   3.736   4.634
 4033SOL    HW112998   3.152   3.834   4.653
 4033SOL    HW212999   3.214   3.690   4.698
 4034SOL     OW13000   6.290   1.335   4.483
 4034SOL    HW113001   6.380   1.310   4.519
 4034SOL    HW213002   6.219   1.284   4.531
 4035SOL     OW13003   0.613   4.698   6.923
 4035SOL    HW113004   0.706   4.665   6.907
 4035SOL    HW213005   0.591   4.689   7.020
 4036SOL     OW13006   6.066   6.135   2.688
 4036SOL    HW113007   6.036   6.222   2.651
 4036SOL    HW213008   6.163   6.140   2.711
 4037SOL     OW13009   1.410   3.582   6.142
 4037SOL    HW113010   1.387   3.649   6.072
 4037SOL    HW213011   1.380   3.616   6.232
 4038SOL     OW13012   4.948   4.396   2.860
 4038SOL    HW113013   5.040   4.415   2.893
 4038SOL    HW213014   4.897   4.345   2.930
 4039SOL     OW13015   5.233   5.768   0.361
 4039SOL    HW113016   5.218   5.734   0.454
 4039SOL    HW213017   5.316   5.727   0.324
 4040SOL     OW13018   2.972   0.547   1.295
 4040SOL    HW113019   2.997   0.455   1.326
 4040SOL    HW213020   2.873   0.552   1.283
 4041SOL     OW13021   0.923   5.988   2.970
 4041SOL    HW113022   0.954   6.075   2.931
 4041SOL    HW213023   0.963   5.976   3.061
 4042SOL     OW13024   6.079   5.514   2.287
 4042SOL    HW113025   6.038   5.605   2.292
 4042SOL    HW213026   6.008   5.445   2.300
 4043SOL     OW13027   4.985   2.071   2.426
 4043SOL    HW113028   5.014   2.117   2.342
 4043SOL    HW213029   4.885   2.066   2.429
 4044SOL     OW13030   6.106   0.491   3.116
 4044SOL    HW113031   6.117   0.398   3.150
 4044SOL    HW213032   6.039   0.540   3.172
 4045SOL     OW13033   2.166   4.887   6.683
 4045SOL    HW113034   2.188   4.978   6.717
 4045SOL    HW213035   2.136   4.830   6.760
 4046SOL     OW13036   0.892   2.000   1.903
 4046SOL    HW113037   0.797   1.997   1.935
 4046SOL    HW213038   0.894   2.024   1.806
 4047SOL     OW13039   3.202   3.573   1.681
 4047SOL    HW113040   3.192   3.581   1.582
 4047SOL    HW213041   3.133   3.509   1.716
 4048SOL     OW13042   5.372   1.102   1.254
 4048SOL    HW113043   5.380   1.125   1.351
 4048SOL    HW213044   5.458   1.125   1.207
 4049SOL     OW13045   6.011   6.937   5.722
 4049SOL    HW113046   6.061   6.851   5.715
 4049SOL    HW213047   5.973   6.962   5.633
 4050SOL     OW13048   1.652   6.346   0.299
 4050SOL    HW113049   1.650   6.444   0.275
 4050SOL    HW213050   1.679   6.293   0.219
 4051SOL     OW13051   3.004   4.944   0.431
 4051SOL    HW113052   2.979   4.963   0.336
 4051SOL    HW213053   2.950   5.002   0.492
 4052SOL     OW13054   0.441   0.686   0.222
 4052SOL    HW113055   0.396   0.761   0.173
 4052SOL    HW213056   0.403   0.599   0.192
 4053SOL     OW13057   3.327   5.090   3.963
 4053SOL    HW113058   3.335   5.092   4.063
 4053SOL    HW213059   3.401   5.035   3.925
 4054SOL     OW13060   3.232   2.600   0.886
 4054SOL    HW113061   3.154   2.603   0.948
 4054SOL    HW213062   3.282   2.686   0.890
 4055SOL     OW13063   2.971   2.732   6.360
 4055SOL    HW113064   3.004   2.755   6.268
 4055SOL    HW213065   2.990   2.636   6.379
 4056SOL     OW13066   3.756   2.897   6.751
 4056SOL    HW113067   3.784   2.807   6.785
 4056SOL    HW213068   3.694   2.885   6.674
 4057SOL     OW13069   4.808   3.353   6.807
 4057SOL    HW113070   4.776   3.432   6.861
 4057SOL    HW213071   4.897   3.374   6.767
 4058SOL     OW13072   2.295   1.055   5.110
 4058SOL    HW113073   2.326   0.973   5.157
 4058SOL    HW213074   2.329   1.136   5.158
 4059SOL     OW13075   2.068   1.963   4.816
 4059SOL    HW113076   2.045   1.961   4.719
 4059SOL    HW213077   1.985   1.954   4.871
 4060SOL     OW13078   4.214   4.773   4.070
 4060SOL    HW113079   4.194   4.721   3.987
 4060SOL    HW213080   4.269   4.853   4.047
 4061SOL     OW13081   3.546   4.476   1.674
 4061SOL    HW113082   3.518   4.556   1.726
 4061SOL    HW213083   3.476   4.405   1.680
 4062SOL     OW13084   3.258   1.079   2.646
 4062SOL    HW113085   3.211   1.167   2.631
 4062SOL    HW213086   3.251   1.053   2.742
 4063SOL     OW13087   3.081   5.536   5.884
 4063SOL    HW113088   3.037   5.626   5.889
 4063SOL    HW213089   3.026   5.475   5.826
 4064SOL     OW13090   0.678   0.170   2.906
 4064SOL    HW113091   0.690   0.077   2.870
 4064SOL    HW213092   0.755   0.227   2.879
 4065SOL     OW13093   6.912   6.765   1.046
 4065SOL    HW113094   6.933   6.841   1.107
 4065SOL    HW213095   6.997   6.726   1.010
 4066SOL     OW13096   5.585   4.007   1.768
 4066SOL    HW113097   5.631   4.080   1.718
 4066SOL    HW213098   5.528   4.046   1.840
 4067SOL     OW13099   5.538   1.385   2.966
 4067SOL    HW113100   5.568   1.410   2.874
 4067SOL    HW213101   5.566   1.456   3.031
 4068SOL     OW13102   5.547   0.606   4.224
 4068SOL    HW113103   5.458   0.619   4.267
 4068SOL    HW213104   5.575   0.511   4.232
 4069SOL     OW13105   5.479   4.972   0.921
 4069SOL    HW113106   5.474   4.976   0.821
 4069SOL    HW213107   5.526   5.054   0.954
 4070SOL     OW13108   2.176   3.777   3.147
 4070SOL    HW113109   2.223   3.728   3.221
 4070SOL    HW213110   2.223   3.863   3.130
 4071SOL     OW13111   1.581   0.367   4.359
 4071SOL    HW113112   1.636   0.302   4.413
 4071SOL    HW213113   1.532   0.318   4.287
 4072SOL     OW13114   1.301   0.054   4.272
 4072SOL    HW113115   1.333   6.990   4.303
 4072SOL    HW213116   1.374   0.100   4.223
 4073SOL     OW13117   2.658   5.710   6.286
 4073SOL    HW113118   2.715   5.792   6.283
 4073SOL    HW213119   2.702   5.637   6.233
 4074SOL     OW13120   1.113   2.707   1.162
 4074SOL    HW113121   1.030   2.714   1.106
 4074SOL    HW213122   1.106   2.627   1.222
 4075SOL     OW13123   4.473   1.255   3.140
 4075SOL    HW113124   4.432   1.210   3.219
 4075SOL    HW213125   4.544   1.319   3.171
 4076SOL     OW13126   2.141   3.384   4.438
 4076SOL    HW113127   2.151   3.454   4.509
 4076SOL    HW213128   2.151   3.427   4.348
 4077SOL     OW13129   3.717   0.877   6.960
 4077SOL    HW113130   3.772   0.867   0.018
 4077SOL    HW213131   3.677   0.789   6.936
 4078SOL     OW13132   6.234   4.050   1.344
 4078SOL    HW113133   6.136   4.070   1.344
 4078SOL    HW213134   6.277   4.092   1.264
 4079SOL     OW13135   0.871   1.016   3.425
 4079SOL    HW113136   0.836   0.964   3.347
 4079SOL    HW213137   0.812   1.002   3.504
 4080SOL     OW13138   3.156   3.560   1.409
 4080SOL    HW113139   3.072   3.612   1.392
 4080SOL    HW213140   3.157   3.480   1.348
 4081SOL     OW13141   2.100   1.755   5.418
 4081SOL    HW113142   2.193   1.791   5.416
 4081SOL    HW213143   2.093   1.685   5.489
 4082SOL     OW13144   1.055   2.620   4.933
 4082SOL    HW113145   1.130   2.553   4.928
 4082SOL    HW213146   1.085   2.705   4.890
 4083SOL     OW13147   5.621   4.961   3.291
 4083SOL    HW113148   5.653   4.915   3.208
 4083SOL    HW213149   5.522   4.974   3.285
 4084SOL     OW13150   4.572   1.852   3.694
 4084SOL    HW113151   4.658   1.882   3.735
 4084SOL    HW213152   4.585   1.839   3.595
 4085SOL     OW13153   2.670   5.611   2.093
 4085SOL    HW113154   2.734   5.562   2.035
 4085SOL    HW213155   2.580   5.613   2.050
 4086SOL     OW13156   6.703   5.654   6.586
 4086SOL    HW113157   6.761   5.682   6.662
 4086SOL    HW213158   6.759   5.607   6.517
 4087SOL     OW13159   2.341   6.948   2.622
 4087SOL    HW113160   2.313   6.951   2.718
 4087SOL    HW213161   2.363   6.853   2.596
 4088SOL     OW13162   0.258   1.321   5.473
 4088SOL    HW113163   0.326   1.313   5.399
 4088SOL    HW213164   0.177   1.367   5.438
 4089SOL     OW13165   0.164   6.618   3.200
 4089SOL    HW113166   0.237   6.638   3.135
 4089SOL    HW213167   0.190   6.653   3.290
 4090SOL     OW13168   2.329   6.829   5.368
 4090SOL    HW113169   2.406   6.792   5.315
 4090SOL    HW213170   2.252   6.846   5.307
 4091SOL     OW13171   2.258   5.653   1.202
 4091SOL    HW113172   2.316   5.697   1.271
 4091SOL    HW213173   2.314   5.595   1.143
 4092SOL     OW13174   4.916   3.532   4.502
 4092SOL    HW113175   4.841   3.595   4.487
 4092SOL    HW213176   4.913   3.498   4.596
 4093SOL     OW13177   5.020   5.842   2.995
 4093SOL    HW113178   5.007   5.761   3.051
 4093SOL    HW213179   4.962   5.837   2.914
 4094SOL     OW13180   0.087   5.585   6.796
 4094SOL    HW113181   0.144   5.509   6.828
 4094SOL    HW213182   7.022   5.551   6.771
 4095SOL     OW13183   0.283   4.805   0.227
 4095SOL    HW113184   0.238   4.838   0.310
 4095SOL    HW213185   0.227   4.828   0.147
 4096SOL     OW13186   1.618   1.784   6.528
 4096SOL    HW113187   1.614   1.878   6.492
 4096SOL    HW213188   1.601   1.786   6.627
 4097SOL     OW13189   0.396   4.502   5.235
 4097SOL    HW113190   0.486   4.538   5.207
 4097SOL    HW213191   0.392   4.496   5.335
 4098SOL     OW13192   2.388   5.322   2.926
 4098SOL    HW113193   2.374   5.402   2.867
 4098SOL    HW213194   2.369   5.346   3.021
 4099SOL     OW13195   4.396   4.473   5.667
 4099SOL    HW113196   4.381   4.567   5.697
 4099SOL    HW213197   4.336   4.412   5.720
 4100SOL     OW13198   1.808   0.811   3.693
 4100SOL    HW113199   1.768   0.833   3.604
 4100SOL    HW213200   1.904   0.787   3.683
 4101SOL     OW13201   6.162   0.757   0.131
 4101SOL    HW113202   6.097   0.681   0.127
 4101SOL    HW213203   6.252   0.725   0.102
 4102SOL     OW13204   1.899   0.682   6.955
 4102SOL    HW113205   1.945   0.712   6.871
 4102SOL    HW213206   1.967   0.652   7.021
 4103SOL     OW13207   1.288   6.956   1.879
 4103SOL    HW113208   1.371   7.000   1.912
 4103SOL    HW213209   1.304   6.857   1.870
 4104SOL     OW13210   0.261   5.506   3.701
 4104SOL    HW113211   0.224   5.576   3.761
 4104SOL    HW213212   0.357   5.489   3.724
 4105SOL     OW13213   4.483   1.401   1.055
 4105SOL    HW113214   4.427   1.363   0.982
 4105SOL    HW213215   4.578   1.371   1.045
 4106SOL     OW13216   0.198   1.772   3.887
 4106SOL    HW113217   0.178   1.866   3.913
 4106SOL    HW213218   0.171   1.756   3.792
 4107SOL     OW13219   0.372   6.298   6.458
 4107SOL    HW113220   0.451   6.337   6.410
 4107SOL    HW213221   0.310   6.257   6.392
 4108SOL     OW13222   7.005   5.323   4.057
 4108SOL    HW113223   6.910   5.353   4.069
 4108SOL    HW213224   7.013   5.227   4.084
 4109SOL     OW13225   6.050   5.944   3.365
 4109SOL    HW113226   6.072   6.033   3.324
 4109SOL    HW213227   6.133   5.889   3.369
 4110SOL     OW13228   4.941   3.455   0.086
 4110SOL    HW113229   4.893   3.369   0.103
 4110SOL    HW213230   5.026   3.437   0.037
 4111SOL     OW13231   6.930   4.207   5.424
 4111SOL    HW113232   6.939   4.218   5.523
 4111SOL    HW213233   6.984   4.277   5.377
 4112SOL     OW13234   4.382   0.337   5.276
 4112SOL    HW113235   4.396   0.315   5.179
 4112SOL    HW213236   4.444   0.411   5.302
 4113SOL     OW13237   4.931   4.318   4.862
 4113SOL    HW113238   5.019   4.304   4.908
 4113SOL    HW213239   4.916   4.415   4.848
 4114SOL     OW13240   6.510   1.341   2.934
 4114SOL    HW113241   6.505   1.419   2.996
 4114SOL    HW213242   6.536   1.259   2.985
 4115SOL     OW13243   3.090   4.890   3.585
 4115SOL    HW113244   3.029   4.811   3.589
 4115SOL    HW213245   3.075   4.947   3.666
 4116SOL     OW13246   5.300   2.845   3.249
 4116SOL    HW113247   5.398   2.853   3.232
 4116SOL    HW213248   5.263   2.768   3.197
 4117SOL     OW13249   1.325   2.639   2.341
 4117SOL    HW113250   1.319   2.589   2.427
 4117SOL    HW213251   1.418   2.633   2.305
 4118SOL     OW13252   6.892   6.284   6.171
 4118SOL    HW113253   6.929   6.192   6.156
 4118SOL    HW213254   6.792   6.279   6.171
 4119SOL     OW13255   1.939   1.040   3.086
 4119SOL    HW113256   1.871   1.036   3.159
 4119SOL    HW213257   1.894   1.058   2.998
 4120SOL     OW13258   2.028   1.164   6.380
 4120SOL    HW113259   1.971   1.093   6.338
 4120SOL    HW213260   1.999   1.254   6.346
 4121SOL     OW13261   6.876   6.886   2.031
 4121SOL    HW113262   6.792   6.886   1.977
 4121SOL    HW213263   6.861   6.835   2.116
 4122SOL     OW13264   0.609   5.021   4.316
 4122SOL    HW113265   0.615   4.923   4.333
 4122SOL    HW213266   0.642   5.071   4.396
 4123SOL     OW13267   3.738   4.934   2.788
 4123SOL    HW113268   3.639   4.922   2.792
 4123SOL    HW213269   3.768   4.935   2.692
 4124SOL     OW13270   6.395   5.770   0.691
 4124SOL    HW113271   6.381   5.785   0.593
 4124SOL    HW213272   6.313   5.799   0.741
 4125SOL     OW13273   5.317   2.441   1.808
 4125SOL    HW113274   5.307   2.475   1.901
 4125SOL    HW213275   5.277   2.507   1.744
 4126SOL     OW13276   1.204   2.278   2.097
 4126SOL    HW113277   1.191   2.374   2.120
 4126SOL    HW213278   1.280   2.269   2.033
 4127SOL     OW13279   3.839   2.177   4.375
 4127SOL    HW113280   3.790   2.104   4.328
 4127SOL    HW213281   3.795   2.196   4.463
 4128SOL     OW13282   0.754   3.558   1.096
 4128SOL    HW113283   0.732   3.627   1.164
 4128SOL    HW213284   0.831   3.502   1.129
 4129SOL     OW13285   2.770   3.033   0.664
 4129SOL    HW113286   2.833   2.961   0.693
 4129SOL    HW213287   2.760   3.032   0.565
 4130SOL     OW13288   6.189   3.003   1.223
 4130SOL    HW113289   6.273   2.962   1.258
 4130SOL    HW213290   6.112   2.973   1.280
 4131SOL     OW13291   4.966   0.810   2.106
 4131SOL    HW113292   5.047   0.868   2.115
 4131SOL    HW213293   4.994   0.719   2.075
 4132SOL     OW13294   6.662   3.959   4.816
 4132SOL    HW113295   6.577   4.012   4.823
 4132SOL    HW213296   6.731   3.999   4.876
 4133SOL     OW13297   6.057   6.701   1.850
 4133SOL    HW113298   6.077   6.796   1.874
 4133SOL    HW213299   6.108   6.675   1.769
 4134SOL     OW13300   2.361   2.711   1.334
 4134SOL    HW113301   2.381   2.631   1.276
 4134SOL    HW213302   2.446   2.762   1.350
 4135SOL     OW13303   6.828   1.442   2.352
 4135SOL    HW113304   6.836   1.350   2.391
 4135SOL    HW213305   6.736   1.455   2.315
 4136SOL     OW13306   0.996   4.188   1.937
 4136SOL    HW113307   1.027   4.264   1.994
 4136SOL    HW213308   0.897   4.176   1.949
 4137SOL     OW13309   1.618   3.007   0.376
 4137SOL    HW113310   1.696   2.945   0.372
 4137SOL    HW213311   1.533   2.954   0.385
 4138SOL     OW13312   4.183   6.334   1.093
 4138SOL    HW113313   4.182   6.416   1.037
 4138SOL    HW213314   4.158   6.357   1.187
 4139SOL     OW13315   1.573   1.751   3.028
 4139SOL    HW113316   1.659   1.773   2.981
 4139SOL    HW213317   1.506   1.823   3.009
 4140SOL     OW13318   2.314   2.608   4.368
 4140SOL    HW113319   2.269   2.673   4.306
 4140SOL    HW213320   2.325   2.650   4.458
 4141SOL     OW13321   4.403   0.229   0.094
 4141SOL    HW113322   4.369   0.136   0.099
 4141SOL    HW213323   4.462   0.248   0.173
 4142SOL     OW13324   6.639   4.320   2.907
 4142SOL    HW113325   6.685   4.312   2.818
 4142SOL    HW213326   6.651   4.413   2.942
 4143SOL     OW13327   5.837   3.224   0.768
 4143SOL    HW113328   5.836   3.127   0.741
 4143SOL    HW213329   5.851   3.230   0.867
 4144SOL     OW13330   5.873   2.022   0.586
 4144SOL    HW113331   5.892   2.061   0.496
 4144SOL    HW213332   5.776   2.035   0.608
 4145SOL     OW13333   0.204   6.583   0.741
 4145SOL    HW113334   0.255   6.497   0.730
 4145SOL    HW213335   0.144   6.575   0.820
 4146SOL     OW13336   5.652   6.455   3.352
 4146SOL    HW113337   5.562   6.430   3.316
 4146SOL    HW213338   5.701   6.372   3.381
 4147SOL     OW13339   4.869   4.145   5.375
 4147SOL    HW113340   4.801   4.121   5.306
 4147SOL    HW213341   4.960   4.130   5.338
 4148SOL     OW13342   2.759   0.736   5.466
 4148SOL    HW113343   2.667   0.721   5.502
 4148SOL    HW213344   2.826   0.724   5.539
 4149SOL     OW13345   1.906   3.092   0.842
 4149SOL    HW113346   1.903   3.192   0.848
 4149SOL    HW213347   1.861   3.052   0.921
 4150SOL     OW13348   6.096   2.338   6.301
 4150SOL    HW113349   6.116   2.394   6.221
 4150SOL    HW213350   6.048   2.394   6.369
 4151SOL     OW13351   2.391   6.817   4.724
 4151SOL    HW113352   2.486   6.810   4.755
 4151SOL    HW213353   2.373   6.747   4.655
 4152SOL     OW13354   3.163   5.663   1.880
 4152SOL    HW113355   3.111   5.633   1.800
 4152SOL    HW213356   3.241   5.718   1.851
 4153SOL     OW13357   6.642   5.036   1.588
 4153SOL    HW113358   6.670   5.131   1.602
 4153SOL    HW213359   6.588   5.029   1.504
 4154SOL     OW13360   0.464   5.819   5.249
 4154SOL    HW113361   0.493   5.725   5.264
 4154SOL    HW213362   0.509   5.856   5.168
 4155SOL     OW13363   1.095   2.054   1.402
 4155SOL    HW113364   1.093   2.111   1.319
 4155SOL    HW213365   1.012   2.000   1.407
 4156SOL     OW13366   6.865   4.654   5.133
 4156SOL    HW113367   6.803   4.610   5.198
 4156SOL    HW213368   6.813   4.682   5.052
 4157SOL     OW13369   6.775   6.242   1.967
 4157SOL    HW113370   6.707   6.313   1.990
 4157SOL    HW213371   6.862   6.265   2.009
 4158SOL     OW13372   2.005   2.609   1.850
 4158SOL    HW113373   2.025   2.702   1.881
 4158SOL    HW213374   2.072   2.546   1.887
 4159SOL     OW13375   2.670   1.288   3.145
 4159SOL    HW113376   2.593   1.344   3.115
 4159SOL    HW213377   2.649   1.191   3.133
 4160SOL     OW13378   6.596   0.248   0.158
 4160SOL    HW113379   6.682   0.197   0.154
 4160SOL    HW213380   6.604   0.321   0.226
 4161SOL     OW13381   2.095   1.733   1.375
 4161SOL    HW113382   2.055   1.818   1.339
 4161SOL    HW213383   2.074   1.658   1.312
 4162SOL     OW13384   6.555   5.955   1.164
 4162SOL    HW113385   6.651   5.931   1.183
 4162SOL    HW213386   6.516   5.887   1.102
 4163SOL     OW13387   4.256   6.969   1.307
 4163SOL    HW113388   4.294   6.879   1.282
 4163SOL    HW213389   4.328   7.023   1.350
 4164SOL     OW13390   6.832   6.495   5.016
 4164SOL    HW113391   6.777   6.415   4.994
 4164SOL    HW213392   6.869   6.487   5.109
 4165SOL     OW13393   3.652   1.292   5.930
 4165SOL    HW113394   3.615   1.218   5.874
 4165SOL    HW213395   3.737   1.263   5.973
 4166SOL     OW13396   5.720   0.455   2.723
 4166SOL    HW113397   5.740   0.535   2.780
 4166SOL    HW213398   5.622   0.452   2.703
 4167SOL     OW13399   3.373   4.968   5.822
 4167SOL    HW113400   3.370   4.877   5.780
 4167SOL    HW213401   3.361   4.959   5.921
 4168SOL     OW13402   6.610   4.628   0.432
 4168SOL    HW113403   6.660   4.605   0.348
 4168SOL    HW213404   6.676   4.655   0.503
 4169SOL     OW13405   5.179   4.226   4.955
 4169SOL    HW113406   5.238   4.146   4.949
 4169SOL    HW213407   5.232   4.309   4.937
 4170SOL     OW13408   4.816   3.094   4.609
 4170SOL    HW113409   4.830   3.130   4.701
 4170SOL    HW213410   4.721   3.064   4.599
 4171SOL     OW13411   1.719   4.039   1.308
 4171SOL    HW113412   1.720   4.072   1.403
 4171SOL    HW213413   1.795   3.975   1.294
 4172SOL     OW13414   3.469   3.845   0.885
 4172SOL    HW113415   3.397   3.777   0.899
 4172SOL    HW213416   3.547   3.824   0.942
 4173SOL     OW13417   4.448   2.911   5.267
 4173SOL    HW113418   4.396   2.826   5.274
 4173SOL    HW213419   4.545   2.891   5.258
 4174SOL     OW13420   4.852   0.319   4.287
 4174SOL    HW113421   4.914   0.350   4.360
 4174SOL    HW213422   4.902   0.318   4.201
 4175SOL     OW13423   1.602   4.308   6.296
 4175SOL    HW113424   1.601   4.208   6.308
 4175SOL    HW213425   1.655   4.331   6.215
 4176SOL     OW13426   5.028   6.767   0.219
 4176SOL    HW113427   5.007   6.698   0.289
 4176SOL    HW213428   5.076   6.723   0.143
 4177SOL     OW13429   4.683   4.900   4.885
 4177SOL    HW113430   4.782   4.898   4.896
 4177SOL    HW213431   4.660   4.923   4.790
 4178SOL     OW13432   3.507   5.961   2.364
 4178SOL    HW113433   3.462   6.026   2.425
 4178SOL    HW213434   3.568   6.010   2.302
 4179SOL     OW13435   5.039   3.305   4.344
 4179SOL    HW113436   5.086   3.333   4.260
 4179SOL    HW213437   4.981   3.379   4.377
 4180SOL     OW13438   5.724   3.481   0.704
 4180SOL    HW113439   5.757   3.395   0.744
 4180SOL    HW213440   5.677   3.535   0.774
 4181SOL     OW13441   5.190   0.418   5.913
 4181SOL    HW113442   5.282   0.433   5.949
 4181SOL    HW213443   5.152   0.505   5.880
 4182SOL     OW13444   0.833   5.967   4.107
 4182SOL    HW113445   0.786   5.923   4.184
 4182SOL    HW213446   0.927   5.988   4.133
 4183SOL     OW13447   2.345   1.032   1.879
 4183SOL    HW113448   2.332   0.987   1.967
 4183SOL    HW213449   2.389   0.969   1.815
 4184SOL     OW13450   3.560   6.937   2.318
 4184SOL    HW113451   3.463   6.915   2.334
 4184SOL    HW213452   3.570   6.977   2.228
 4185SOL     OW13453   0.110   3.676   3.542
 4185SOL    HW113454   0.186   3.723   3.496
 4185SOL    HW213455   0.122   3.577   3.534
 4186SOL     OW13456   2.112   5.677   6.609
 4186SOL    HW113457   2.195   5.684   6.664
 4186SOL    HW213458   2.109   5.588   6.564
 4187SOL     OW13459   2.287   3.213   0.086
 4187SOL    HW113460   2.283   3.279   0.011
 4187SOL    HW213461   2.301   3.121   0.050
 4188SOL     OW13462   5.595   0.605   5.891
 4188SOL    HW113463   5.548   0.542   5.828
 4188SOL    HW213464   5.551   0.694   5.888
 4189SOL     OW13465   4.958   5.485   3.464
 4189SOL    HW113466   4.988   5.483   3.559
 4189SOL    HW213467   4.858   5.490   3.461
 4190SOL     OW13468   6.996   6.383   1.022
 4190SOL    HW113469   6.990   6.397   0.923
 4190SOL    HW213470   0.066   6.396   1.052
 4191SOL     OW13471   4.795   3.854   5.960
 4191SOL    HW113472   4.757   3.845   6.052
 4191SOL    HW213473   4.750   3.929   5.913
 4192SOL     OW13474   1.245   1.349   2.345
 4192SOL    HW113475   1.300   1.395   2.415
 4192SOL    HW213476   1.186   1.282   2.389
 4193SOL     OW13477   5.625   0.641   0.439
 4193SOL    HW113478   5.668   0.686   0.517
 4193SOL    HW213479   5.686   0.571   0.403
 4194SOL     OW13480   3.727   0.560   5.491
 4194SOL    HW113481   3.706   0.590   5.585
 4194SOL    HW213482   3.648   0.509   5.455
 4195SOL     OW13483   4.704   6.537   1.729
 4195SOL    HW113484   4.800   6.541   1.700
 4195SOL    HW213485   4.692   6.461   1.793
 4196SOL     OW13486   6.761   2.908   3.637
 4196SOL    HW113487   6.797   2.815   3.636
 4196SOL    HW213488   6.681   2.913   3.576
 4197SOL     OW13489   3.899   6.256   5.850
 4197SOL    HW113490   3.837   6.317   5.899
 4197SOL    HW213491   3.852   6.170   5.830
 4198SOL     OW13492   6.562   0.441   2.100
 4198SOL    HW113493   6.552   0.358   2.045
 4198SOL    HW213494   6.504   0.514   2.062
 4199SOL     OW13495   1.633   3.673   6.291
 4199SOL    HW113496   1.580   3.755   6.312
 4199SOL    HW213497   1.594   3.628   6.211
 4200SOL     OW13498   3.698   1.146   5.084
 4200SOL    HW113499   3.755   1.227   5.068
 4200SOL    HW213500   3.636   1.133   5.007
 4201SOL     OW13501   6.297   6.841   3.429
 4201SOL    HW113502   6.285   6.859   3.331
 4201SOL    HW213503   6.381   6.884   3.461
 4202SOL     OW13504   3.678   5.508   6.527
 4202SOL    HW113505   3.702   5.456   6.609
 4202SOL    HW213506   3.760   5.522   6.471
 4203SOL     OW13507   5.030   4.911   0.462
 4203SOL    HW113508   5.089   4.921   0.542
 4203SOL    HW213509   4.944   4.960   0.477
 4204SOL     OW13510   3.823   3.395   5.761
 4204SOL    HW113511   3.829   3.454   5.842
 4204SOL    HW213512   3.817   3.452   5.680
 4205SOL     OW13513   3.723   5.825   4.954
 4205SOL    HW113514   3.640   5.828   5.010
 4205SOL    HW213515   3.770   5.739   4.970
 4206SOL     OW13516   0.957   1.221   5.089
 4206SOL    HW113517   0.904   1.137   5.087
 4206SOL    HW213518   1.012   1.228   5.006
 4207SOL     OW13519   1.927   2.281   1.290
 4207SOL    HW113520   1.966   2.281   1.382
 4207SOL    HW213521   1.831   2.310   1.295
 4208SOL     OW13522   1.421   4.598   5.415
 4208SOL    HW113523   1.410   4.690   5.376
 4208SOL    HW213524   1.437   4.532   5.341
 4209SOL     OW13525   6.838   5.858   2.885
 4209SOL    HW113526   6.833   5.759   2.884
 4209SOL    HW213527   6.784   5.894   2.961
 4210SOL     OW13528   3.899   3.241   4.596
 4210SOL    HW113529   3.947   3.186   4.528
 4210SOL    HW213530   3.808   3.264   4.562
 4211SOL     OW13531   3.392   1.753   5.157
 4211SOL    HW113532   3.440   1.804   5.228
 4211SOL    HW213533   3.457   1.694   5.109
 4212SOL     OW13534   0.142   0.977   3.555
 4212SOL    HW113535   0.221   0.916   3.561
 4212SOL    HW213536   0.074   0.937   3.493
 4213SOL     OW13537   2.893   0.962   3.247
 4213SOL    HW113538   2.943   1.048   3.251
 4213SOL    HW213539   2.928   0.899   3.318
 4214SOL     OW13540   0.607   5.693   4.676
 4214SOL    HW113541   0.661   5.610   4.663
 4214SOL    HW213542   0.631   5.735   4.764
 4215SOL     OW13543   5.083   6.599   5.405
 4215SOL    HW113544   5.090   6.699   5.399
 4215SOL    HW213545   5.173   6.558   5.393
 4216SOL     OW13546   1.641   0.839   2.508
 4216SOL    HW113547   1.700   0.760   2.488
 4216SOL    HW213548   1.679   0.889   2.586
 4217SOL     OW13549   1.186   0.096   1.685
 4217SOL    HW113550   1.228   0.032   1.750
 4217SOL    HW213551   1.242   0.178   1.678
 4218SOL     OW13552   3.272   1.071   1.250
 4218SOL    HW113553   3.174   1.074   1.268
 4218SOL    HW213554   3.307   0.980   1.270
 4219SOL     OW13555   4.601   6.280   4.650
 4219SOL    HW113556   4.578   6.342   4.575
 4219SOL    HW213557   4.677   6.221   4.622
 4220SOL     OW13558   5.314   2.187   1.586
 4220SOL    HW113559   5.264   2.106   1.618
 4220SOL    HW213560   5.276   2.269   1.630
 4221SOL     OW13561   6.385   5.157   0.012
 4221SOL    HW113562   6.343   5.096   0.079
 4221SOL    HW213563   6.406   5.244   0.056
 4222SOL     OW13564   5.385   1.923   3.362
 4222SOL    HW113565   5.452   1.965   3.301
 4222SOL    HW213566   5.310   1.886   3.308
 4223SOL     OW13567   4.234   4.033   1.047
 4223SOL    HW113568   4.311   4.040   0.983
 4223SOL    HW213569   4.153   4.001   0.998
 4224SOL     OW13570   5.869   4.511   5.066
 4224SOL    HW113571   5.781   4.545   5.100
 4224SOL    HW213572   5.871   4.412   5.073
 4225SOL     OW13573   1.716   2.200   5.760
 4225SOL    HW113574   1.725   2.139   5.838
 4225SOL    HW213575   1.635   2.175   5.707
 4226SOL     OW13576   1.145   5.861   4.633
 4226SOL    HW113577   1.207   5.913   4.574
 4226SOL    HW213578   1.056   5.853   4.588
 4227SOL     OW13579   5.116   5.924   1.706
 4227SOL    HW113580   5.177   5.940   1.629
 4227SOL    HW213581   5.072   6.010   1.732
 4228SOL     OW13582   0.579   6.171   5.140
 4228SOL    HW113583   0.533   6.184   5.052
 4228SOL    HW213584   0.659   6.112   5.127
 4229SOL     OW13585   5.064   6.096   5.625
 4229SOL    HW113586   5.053   5.997   5.617
 4229SOL    HW213587   5.110   6.118   5.711
 4230SOL     OW13588   0.948   6.954   2.876
 4230SOL    HW113589   1.011   6.953   2.798
 4230SOL    HW213590   0.977   0.001   2.940
 4231SOL     OW13591   4.944   0.636   5.633
 4231SOL    HW113592   4.918   0.539   5.634
 4231SOL    HW213593   4.861   0.692   5.629
 4232SOL     OW13594   2.304   5.581   3.474
 4232SOL    HW113595   2.360   5.592   3.392
 4232SOL    HW213596   2.364   5.566   3.553
 4233SOL     OW13597   0.376   6.996   4.122
 4233SOL    HW113598   0.353   7.019   4.217
 4233SOL    HW213599   0.451   0.029   4.091
 4234SOL     OW13600   1.687   5.532   5.247
 4234SOL    HW113601   1.779   5.495   5.255
 4234SOL    HW213602   1.649   5.550   5.338
 4235SOL     OW13603   6.420   5.054   5.592
 4235SOL    HW113604   6.507   5.058   5.641
 4235SOL    HW213605   6.417   4.971   5.536
 4236SOL     OW13606   0.518   4.987   2.048
 4236SOL    HW113607   0.453   4.931   1.997
 4236SOL    HW213608   0.531   4.949   2.139
 4237SOL     OW13609   6.280   4.449   4.490
 4237SOL    HW113610   6.240   4.528   4.442
 4237SOL    HW213611   6.268   4.367   4.434
 4238SOL     OW13612   1.194   0.812   3.258
 4238SOL    HW113613   1.141   0.831   3.175
 4238SOL    HW213614   1.131   0.797   3.334
 4239SOL     OW13615   4.176   1.058   2.550
 4239SOL    HW113616   4.165   1.156   2.532
 4239SOL    HW213617   4.262   1.044   2.599
 4240SOL     OW13618   2.106   5.221   7.021
 4240SOL    HW113619   2.077   5.190   6.931
 4240SOL    HW213620   2.088   5.150   0.064
 4241SOL     OW13621   5.989   1.664   0.204
 4241SOL    HW113622   6.001   1.640   0.108
 4241SOL    HW213623   5.935   1.748   0.211
 4242SOL     OW13624   2.206   2.461   3.745
 4242SOL    HW113625   2.280   2.402   3.778
 4242SOL    HW213626   2.230   2.557   3.759
 4243SOL     OW13627   4.893   1.649   2.589
 4243SOL    HW113628   4.905   1.638   2.688
 4243SOL    HW213629   4.862   1.742   2.570
 4244SOL     OW13630   3.667   3.712   1.833
 4244SOL    HW113631   3.591   3.705   1.767
 4244SOL    HW213632   3.719   3.627   1.831
 4245SOL     OW13633   6.456   1.943   6.659
 4245SOL    HW113634   6.495   1.867   6.711
 4245SOL    HW213635   6.457   1.921   6.561
 4246SOL     OW13636   6.292   4.373   3.319
 4246SOL    HW113637   6.269   4.311   3.394
 4246SOL    HW213638   6.244   4.345   3.236
 4247SOL     OW13639   0.476   6.094   4.298
 4247SOL    HW113640   0.405   6.033   4.263
 4247SOL    HW213641   0.531   6.129   4.222
 4248SOL     OW13642   2.369   1.940   4.625
 4248SOL    HW113643   2.286   1.886   4.639
 4248SOL    HW213644   2.351   2.035   4.651
 4249SOL     OW13645   6.571   3.061   5.401
 4249SOL    HW113646   6.518   3.084   5.483
 4249SOL    HW213647   6.508   3.033   5.328
 4250SOL     OW13648   6.648   4.566   3.033
 4250SOL    HW113649   6.678   4.658   3.055
 4250SOL    HW213650   6.600   4.526   3.111
 4251SOL     OW13651   6.044   4.916   0.336
 4251SOL    HW113652   6.059   4.868   0.423
 4251SOL    HW213653   5.949   4.946   0.330
 4252SOL     OW13654   6.495   6.099   4.781
 4252SOL    HW113655   6.504   6.014   4.729
 4252SOL    HW213656   6.556   6.168   4.744
 4253SOL     OW13657   3.083   0.373   2.256
 4253SOL    HW113658   3.027   0.444   2.214
 4253SOL    HW213659   3.174   0.409   2.274
 4254SOL     OW13660   1.136   3.065   1.626
 4254SOL    HW113661   1.122   3.090   1.721
 4254SOL    HW213662   1.054   3.088   1.573
 4255SOL     OW13663   6.297   2.342   3.484
 4255SOL    HW113664   6.381   2.290   3.468
 4255SOL    HW213665   6.238   2.292   3.547
 4256SOL     OW13666   1.269   6.429   0.727
 4256SOL    HW113667   1.290   6.487   0.806
 4256SOL    HW213668   1.321   6.344   0.733
 4257SOL     OW13669   3.287   0.578   5.480
 4257SOL    HW113670   3.288   0.549   5.385
 4257SOL    HW213671   3.319   0.672   5.488
 4258SOL     OW13672   6.203   6.996   1.612
 4258SOL    HW113673   6.256   6.934   1.670
 4258SOL    HW213674   6.113   6.957   1.594
 4259SOL     OW13675   2.580   0.834   6.810
 4259SOL    HW113676   2.512   0.904   6.831
 4259SOL    HW213677   2.538   0.763   6.753
 4260SOL     OW13678   4.748   5.943   3.951
 4260SOL    HW113679   4.700   5.881   4.013
 4260SOL    HW213680   4.835   5.903   3.923
 4261SOL     OW13681   2.568   0.147   2.017
 4261SOL    HW113682   2.537   0.224   2.072
 4261SOL    HW213683   2.522   0.063   2.047
 4262SOL     OW13684   1.346   4.965   5.637
 4262SOL    HW113685   1.428   4.912   5.656
 4262SOL    HW213686   1.350   5.002   5.544
 4263SOL     OW13687   2.686   6.633   4.438
 4263SOL    HW113688   2.721   6.541   4.422
 4263SOL    HW213689   2.590   6.638   4.410
 4264SOL     OW13690   6.901   1.622   1.894
 4264SOL    HW113691   6.936   1.596   1.984
 4264SOL    HW213692   6.837   1.552   1.863
 4265SOL     OW13693   6.075   1.814   6.881
 4265SOL    HW113694   6.171   1.789   6.894
 4265SOL    HW213695   6.052   1.889   6.944
 4266SOL     OW13696   2.526   5.470   0.234
 4266SOL    HW113697   2.537   5.569   0.239
 4266SOL    HW213698   2.517   5.432   0.326
 4267SOL     OW13699   2.071   3.955   5.001
 4267SOL    HW113700   2.156   4.001   4.976
 4267SOL    HW213701   2.025   4.005   5.074
 4268SOL     OW13702   1.697   6.606   0.222
 4268SOL    HW113703   1.792   6.582   0.243
 4268SOL    HW213704   1.695   6.683   0.159
 4269SOL     OW13705   1.902   1.424   0.523
 4269SOL    HW113706   1.961   1.370   0.464
 4269SOL    HW213707   1.829   1.467   0.469
 4270SOL     OW13708   3.150   3.030   3.888
 4270SOL    HW113709   3.136   3.096   3.962
 4270SOL    HW213710   3.076   3.039   3.822
 4271SOL     OW13711   0.417   0.562   5.867
 4271SOL    HW113712   0.490   0.507   5.825
 4271SOL    HW213713   0.356   0.502   5.918
 4272SOL     OW13714   0.395   4.966   4.555
 4272SOL    HW113715   0.384   4.940   4.459
 4272SOL    HW213716   0.307   4.958   4.602
 4273SOL     OW13717   4.643   6.716   4.160
 4273SOL    HW113718   4.719   6.666   4.202
 4273SOL    HW213719   4.678   6.776   4.088
 4274SOL     OW13720   0.723   6.835   3.192
 4274SOL    HW113721   0.678   6.772   3.128
 4274SOL    HW213722   0.730   6.791   3.282
 4275SOL     OW13723   6.845   1.490   6.054
 4275SOL    HW113724   6.758   1.524   6.018
 4275SOL    HW213725   6.826   1.431   6.133
 4276SOL     OW13726   1.237   5.179   2.926
 4276SOL    HW113727   1.142   5.202   2.904
 4276SOL    HW213728   1.240   5.132   3.014
 4277SOL     OW13729   6.793   4.627   4.147
 4277SOL    HW113730   6.845   4.614   4.232
 4277SOL    HW213731   6.824   4.712   4.103
 4278SOL     OW13732   6.977   0.859   5.110
 4278SOL    HW113733   0.014   0.859   5.031
 4278SOL    HW213734   7.018   0.910   5.185
 4279SOL     OW13735   3.741   6.553   5.251
 4279SOL    HW113736   3.814   6.493   5.284
 4279SOL    HW213737   3.653   6.506   5.256
 4280SOL     OW13738   5.277   1.412   5.717
 4280SOL    HW113739   5.303   1.477   5.789
 4280SOL    HW213740   5.178   1.396   5.721
 4281SOL     OW13741   2.034   4.627   4.501
 4281SOL    HW113742   2.027   4.727   4.502
 4281SOL    HW213743   2.060   4.596   4.409
 4282SOL     OW13744   2.432   2.162   7.018
 4282SOL    HW113745   2.464   2.174   0.087
 4282SOL    HW213746   2.392   2.248   6.985
 4283SOL     OW13747   1.912   0.198   4.115
 4283SOL    HW113748   1.930   0.287   4.073
 4283SOL    HW213749   1.995   0.163   4.157
 4284SOL     OW13750   5.506   6.685   2.116
 4284SOL    HW113751   5.546   6.594   2.105
 4284SOL    HW213752   5.520   6.717   2.210
 4285SOL     OW13753   0.536   6.969   6.409
 4285SOL    HW113754   0.459   0.008   6.410
 4285SOL    HW213755   0.518   6.897   6.341
 4286SOL     OW13756   5.068   5.750   6.777
 4286SOL    HW113757   5.106   5.782   6.690
 4286SOL    HW213758   5.040   5.829   6.832
 4287SOL     OW13759   5.987   0.566   5.572
 4287SOL    HW113760   5.940   0.616   5.644
 4287SOL    HW213761   6.082   0.599   5.566
 4288SOL     OW13762   0.610   6.166   3.597
 4288SOL    HW113763   0.645   6.247   3.551
 4288SOL    HW213764   0.523   6.188   3.641
 4289SOL     OW13765   5.732   2.936   1.506
 4289SOL    HW113766   5.790   2.866   1.547
 4289SOL    HW213767   5.780   2.976   1.427
 4290SOL     OW13768   2.300   6.289   1.225
 4290SOL    HW113769   2.272   6.291   1.129
 4290SOL    HW213770   2.219   6.299   1.283
 4291SOL     OW13771   4.871   3.335   1.801
 4291SOL    HW113772   4.921   3.412   1.840
 4291SOL    HW213773   4.789   3.318   1.856
 4292SOL     OW13774   6.395   4.580   5.643
 4292SOL    HW113775   6.382   4.581   5.742
 4292SOL    HW213776   6.340   4.507   5.602
 4293SOL     OW13777   6.656   4.162   6.527
 4293SOL    HW113778   6.641   4.084   6.588
 4293SOL    HW213779   6.622   4.141   6.436
 4294SOL     OW13780   4.621   3.031   0.208
 4294SOL    HW113781   4.584   2.952   0.256
 4294SOL    HW213782   4.614   3.016   0.109
 4295SOL     OW13783   3.797   6.833   5.024
 4295SOL    HW113784   3.822   6.737   5.008
 4295SOL    HW213785   3.724   6.859   4.960
 4296SOL     OW13786   2.778   1.534   0.515
 4296SOL    HW113787   2.799   1.538   0.613
 4296SOL    HW213788   2.863   1.528   0.463
 4297SOL     OW13789   5.253   0.031   5.313
 4297SOL    HW113790   5.306   0.069   5.390
 4297SOL    HW213791   5.289   0.068   5.227
 4298SOL     OW13792   1.667   5.424   6.770
 4298SOL    HW113793   1.633   5.341   6.727
 4298SOL    HW213794   1.605   5.500   6.748
 4299SOL     OW13795   1.150   2.739   6.791
 4299SOL    HW113796   1.145   2.645   6.825
 4299SOL    HW213797   1.196   2.739   6.702
 4300SOL     OW13798   2.772   1.887   6.353
 4300SOL    HW113799   2.841   1.937   6.406
 4300SOL    HW213800   2.813   1.805   6.313
 4301SOL     OW13801   2.857   1.178   0.752
 4301SOL    HW113802   2.869   1.272   0.783
 4301SOL    HW213803   2.772   1.171   0.699
 4302SOL     OW13804   1.010   6.522   5.598
 4302SOL    HW113805   1.096   6.531   5.647
 4302SOL    HW213806   0.996   6.426   5.573
 4303SOL     OW13807   5.754   4.355   3.536
 4303SOL    HW113808   5.739   4.257   3.541
 4303SOL    HW213809   5.724   4.389   3.447
 4304SOL     OW13810   3.483   3.736   4.073
 4304SOL    HW113811   3.414   3.668   4.047
 4304SOL    HW213812   3.495   3.734   4.172
 4305SOL     OW13813   6.378   1.836   4.058
 4305SOL    HW113814   6.378   1.744   4.096
 4305SOL    HW213815   6.467   1.857   4.019
 4306SOL     OW13816   0.240   3.915   6.704
 4306SOL    HW113817   0.282   3.951   6.787
 4306SOL    HW213818   0.249   3.816   6.703
 4307SOL     OW13819   4.986   4.792   5.792
 4307SOL    HW113820   4.892   4.817   5.814
 4307SOL    HW213821   4.993   4.776   5.693
 4308SOL     OW13822   5.469   5.679   6.261
 4308SOL    HW113823   5.439   5.654   6.353
 4308SOL    HW213824   5.455   5.777   6.247
 4309SOL     OW13825   0.431   6.784   0.454
 4309SOL    HW113826   0.454   6.825   0.366
 4309SOL    HW213827   0.346   6.732   0.445
 4310SOL     OW13828   1.799   2.375   3.719
 4310SOL    HW113829   1.771   2.387   3.814
 4310SOL    HW213830   1.767   2.452   3.665
 4311SOL     OW13831   1.185   5.489   3.108
 4311SOL    HW113832   1.158   5.439   3.190
 4311SOL    HW213833   1.281   5.468   3.086
 4312SOL     OW13834   1.259   5.492   1.400
 4312SOL    HW113835   1.202   5.415   1.372
 4312SOL    HW213836   1.301   5.472   1.488
 4313SOL     OW13837   5.649   1.492   1.844
 4313SOL    HW113838   5.656   1.418   1.910
 4313SOL    HW213839   5.655   1.580   1.891
 4314SOL     OW13840   5.174   3.068   3.649
 4314SOL    HW113841   5.153   3.159   3.686
 4314SOL    HW213842   5.216   3.078   3.559
 4315SOL     OW13843   1.721   0.555   2.227
 4315SOL    HW113844   1.786   0.565   2.302
 4315SOL    HW213845   1.692   0.645   2.195
 4316SOL     OW13846   5.054   0.073   1.301
 4316SOL    HW113847   5.127   0.105   1.362
 4316SOL    HW213848   4.966   0.090   1.344
 4317SOL     OW13849   3.059   1.160   4.783
 4317SOL    HW113850   2.982   1.211   4.821
 4317SOL    HW213851   3.045   1.062   4.799
 4318SOL     OW13852   0.945   3.639   3.290
 4318SOL    HW113853   0.858   3.607   3.251
 4318SOL    HW213854   0.927   3.685   3.377
 4319SOL     OW13855   2.776   3.061   0.379
 4319SOL    HW113856   2.817   3.152   0.386
 4319SOL    HW213857   2.788   3.026   0.286
 4320SOL     OW13858   1.490   5.961   1.675
 4320SOL    HW113859   1.495   6.057   1.702
 4320SOL    HW213860   1.507   5.953   1.577
 4321SOL     OW13861   6.666   0.630   4.247
 4321SOL    HW113862   6.723   0.574   4.188
 4321SOL    HW213863   6.671   0.596   4.341
 4322SOL     OW13864   6.118   1.292   6.817
 4322SOL    HW113865   6.091   1.360   6.750
 4322SOL    HW213866   6.144   1.337   6.902
 4323SOL     OW13867   5.799   3.475   2.103
 4323SOL    HW113868   5.709   3.457   2.065
 4323SOL    HW213869   5.795   3.557   2.161
 4324SOL     OW13870   5.408   4.821   6.892
 4324SOL    HW113871   5.498   4.862   6.905
 4324SOL    HW213872   5.419   4.724   6.868
 4325SOL     OW13873   0.884   1.014   6.672
 4325SOL    HW113874   0.912   1.107   6.694
 4325SOL    HW213875   0.935   0.982   6.592
 4326SOL     OW13876   0.062   2.939   5.298
 4326SOL    HW113877   0.057   2.969   5.394
 4326SOL    HW213878   0.157   2.940   5.268
 4327SOL     OW13879   6.002   5.544   2.635
 4327SOL    HW113880   6.039   5.637   2.639
 4327SOL    HW213881   5.917   5.545   2.583
 4328SOL     OW13882   4.548   4.792   6.165
 4328SOL    HW113883   4.587   4.864   6.108
 4328SOL    HW213884   4.469   4.753   6.119
 4329SOL     OW13885   3.155   2.019   6.169
 4329SOL    HW113886   3.243   1.973   6.178
 4329SOL    HW213887   3.109   1.989   6.086
 4330SOL     OW13888   3.014   0.454   5.384
 4330SOL    HW113889   3.015   0.476   5.482
 4330SOL    HW213890   3.037   0.535   5.331
 4331SOL     OW13891   5.021   3.433   1.444
 4331SOL    HW113892   4.929   3.421   1.481
 4331SOL    HW213893   5.066   3.344   1.436
 4332SOL     OW13894   5.454   4.085   2.261
 4332SOL    HW113895   5.437   3.987   2.256
 4332SOL    HW213896   5.371   4.135   2.236
 4333SOL     OW13897   4.557   1.486   5.011
 4333SOL    HW113898   4.621   1.537   4.954
 4333SOL    HW213899   4.567   1.388   4.993
 4334SOL     OW13900   2.732   1.933   2.169
 4334SOL    HW113901   2.829   1.958   2.176
 4334SOL    HW213902   2.691   1.982   2.092
 4335SOL     OW13903   2.931   3.746   3.226
 4335SOL    HW113904   2.993   3.667   3.225
 4335SOL    HW213905   2.876   3.744   3.309
 4336SOL     OW13906   1.013   0.013   5.340
 4336SOL    HW113907   0.985   0.027   5.435
 4336SOL    HW213908   1.019   0.101   5.294
 4337SOL     OW13909   1.357   4.610   0.153
 4337SOL    HW113910   1.296   4.655   0.218
 4337SOL    HW213911   1.434   4.570   0.203
 4338SOL     OW13912   4.730   5.982   4.701
 4338SOL    HW113913   4.667   5.935   4.763
 4338SOL    HW213914   4.809   6.015   4.752
 4339SOL     OW13915   5.618   3.084   5.614
 4339SOL    HW113916   5.638   3.036   5.528
 4339SOL    HW213917   5.534   3.046   5.654
 4340SOL     OW13918   6.060   4.029   3.261
 4340SOL    HW113919   5.990   3.987   3.204
 4340SOL    HW213920   6.129   3.961   3.286
 4341SOL     OW13921   1.345   4.186   1.673
 4341SOL    HW113922   1.259   4.138   1.690
 4341SOL    HW213923   1.361   4.253   1.745
 4342SOL     OW13924   6.634   2.975   4.032
 4342SOL    HW113925   6.594   3.049   4.086
 4342SOL    HW213926   6.707   2.931   4.084
 4343SOL     OW13927   2.857   6.633   6.993
 4343SOL    HW113928   2.775   6.681   6.964
 4343SOL    HW213929   2.932   6.698   7.004
 4344SOL     OW13930   2.017   5.214   3.191
 4344SOL    HW113931   2.050   5.175   3.277
 4344SOL    HW213932   2.052   5.307   3.182
 4345SOL     OW13933   1.821   3.005   5.653
 4345SOL    HW113934   1.774   3.004   5.565
 4345SOL    HW213935   1.767   2.954   5.720
 4346SOL     OW13936   2.255   2.812   1.582
 4346SOL    HW113937   2.290   2.749   1.513
 4346SOL    HW213938   2.155   2.804   1.586
 4347SOL     OW13939   6.794   1.094   1.472
 4347SOL    HW113940   6.892   1.104   1.452
 4347SOL    HW213941   6.782   1.022   1.541
 4348SOL     OW13942   0.019   3.081   2.355
 4348SOL    HW113943   0.043   3.142   2.279
 4348SOL    HW213944   0.090   3.085   2.425
 4349SOL     OW13945   6.880   1.759   2.892
 4349SOL    HW113946   6.875   1.728   2.797
 4349SOL    HW213947   6.962   1.814   2.904
 4350SOL     OW13948   4.867   2.010   4.128
 4350SOL    HW113949   4.804   1.996   4.204
 4350SOL    HW213950   4.922   2.092   4.143
 4351SOL     OW13951   2.079   6.209   0.778
 4351SOL    HW113952   2.177   6.188   0.770
 4351SOL    HW213953   2.027   6.123   0.779
 4352SOL     OW13954   0.855   2.090   1.665
 4352SOL    HW113955   0.846   2.008   1.608
 4352SOL    HW213956   0.803   2.165   1.624
 4353SOL     OW13957   3.175   4.863   0.866
 4353SOL    HW113958   3.086   4.818   0.864
 4353SOL    HW213959   3.225   4.842   0.782
 4354SOL     OW13960   1.850   6.399   5.807
 4354SOL    HW113961   1.916   6.380   5.880
 4354SOL    HW213962   1.831   6.498   5.804
 4355SOL     OW13963   3.498   0.079   2.083
 4355SOL    HW113964   3.447   0.157   2.046
 4355SOL    HW213965   3.504   0.007   2.014
 4356SOL     OW13966   4.779   3.902   1.925
 4356SOL    HW113967   4.861   3.960   1.922
 4356SOL    HW213968   4.714   3.933   1.856
 4357SOL     OW13969   6.311   6.959   6.889
 4357SOL    HW113970   6.301   0.005   6.819
 4357SOL    HW213971   6.321   6.870   6.845
 4358SOL     OW13972   6.474   6.176   0.357
 4358SOL    HW113973   6.429   6.087   0.351
 4358SOL    HW213974   6.438   6.226   0.436
 4359SOL     OW13975   1.432   2.120   4.879
 4359SOL    HW113976   1.419   2.056   4.955
 4359SOL    HW213977   1.530   2.130   4.860
 4360SOL     OW13978   1.798   3.358   2.895
 4360SOL    HW113979   1.766   3.296   2.823
 4360SOL    HW213980   1.898   3.364   2.892
 4361SOL     OW13981   3.054   2.658   1.762
 4361SOL    HW113982   3.018   2.595   1.830
 4361SOL    HW213983   3.051   2.615   1.672
 4362SOL     OW13984   6.128   3.930   5.232
 4362SOL    HW113985   6.045   3.892   5.193
 4362SOL    HW213986   6.165   3.866   5.301
 4363SOL     OW13987   5.201   2.049   5.591
 4363SOL    HW113988   5.193   1.952   5.614
 4363SOL    HW213989   5.257   2.095   5.659
 4364SOL     OW13990   2.953   3.797   5.342
 4364SOL    HW113991   3.017   3.729   5.306
 4364SOL    HW213992   2.962   3.882   5.289
 4365SOL     OW13993   2.735   1.246   1.968
 4365SOL    HW113994   2.776   1.336   1.982
 4365SOL    HW213995   2.769   1.183   2.037
 4366SOL     OW13996   5.789   6.954   0.959
 4366SOL    HW113997   5.691   6.936   0.949
 4366SOL    HW213998   5.810   6.974   1.054
 4367SOL     OW13999   1.012   5.037   5.591
 4367SOL    HW114000   0.927   5.015   5.638
 4367SOL    HW214001   1.028   4.971   5.518
 4368SOL     OW14002   3.731   5.236   1.231
 4368SOL    HW114003   3.643   5.189   1.234
 4368SOL    HW214004   3.773   5.223   1.142
 4369SOL     OW14005   4.413   5.850   2.773
 4369SOL    HW114006   4.479   5.805   2.713
 4369SOL    HW214007   4.425   5.949   2.767
 4370SOL     OW14008   5.085   4.599   3.039
 4370SOL    HW114009   5.003   4.639   3.081
 4370SOL    HW214010   5.156   4.587   3.108
 4371SOL     OW14011   6.399   0.160   1.083
 4371SOL    HW114012   6.325   0.092   1.088
 4371SOL    HW214013   6.408   0.206   1.171
 4372SOL     OW14014   4.402   1.425   2.446
 4372SOL    HW114015   4.314   1.389   2.478
 4372SOL    HW214016   4.452   1.462   2.524
 4373SOL     OW14017   0.147   3.392   6.762
 4373SOL    HW114018   0.055   3.410   6.727
 4373SOL    HW214019   0.155   3.432   6.854
 4374SOL     OW14020   1.121   1.758   1.745
 4374SOL    HW114021   1.170   1.835   1.705
 4374SOL    HW214022   1.164   1.732   1.832
 4375SOL     OW14023   2.659   0.360   3.988
 4375SOL    HW114024   2.757   0.370   4.001
 4375SOL    HW214025   2.634   0.392   3.897
 4376SOL     OW14026   6.936   0.087   2.148
 4376SOL    HW114027   6.922   0.018   2.076
 4376SOL    HW214028   6.848   0.115   2.185
 4377SOL     OW14029   5.654   3.857   0.525
 4377SOL    HW114030   5.601   3.940   0.543
 4377SOL    HW214031   5.712   3.838   0.604
 4378SOL     OW14032   1.798   0.911   2.725
 4378SOL    HW114033   1.795   0.992   2.785
 4378SOL    HW214034   1.881   0.913   2.670
 4379SOL     OW14035   2.850   1.602   4.183
 4379SOL    HW114036   2.842   1.695   4.149
 4379SOL    HW214037   2.809   1.595   4.274
 4380SOL     OW14038   1.200   0.678   1.776
 4380SOL    HW114039   1.152   0.628   1.704
 4380SOL    HW214040   1.150   0.762   1.796
 4381SOL     OW14041   1.534   5.456   4.806
 4381SOL    HW114042   1.499   5.393   4.875
 4381SOL    HW214043   1.463   5.523   4.783
 4382SOL     OW14044   6.684   3.338   5.976
 4382SOL    HW114045   6.765   3.367   6.028
 4382SOL    HW214046   6.616   3.412   5.975
 4383SOL     OW14047   6.336   4.024   6.541
 4383SOL    HW114048   6.378   4.022   6.451
 4383SOL    HW214049   6.378   3.955   6.600
 4384SOL     OW14050   6.386   0.833   3.366
 4384SOL    HW114051   6.415   0.827   3.271
 4384SOL    HW214052   6.332   0.752   3.389
 4385SOL     OW14053   4.465   2.387   4.912
 4385SOL    HW114054   4.368   2.400   4.927
 4385SOL    HW214055   4.489   2.290   4.924
 4386SOL     OW14056   1.272   3.690   4.817
 4386SOL    HW114057   1.179   3.671   4.785
 4386SOL    HW214058   1.275   3.780   4.860
 4387SOL     OW14059   6.500   2.588   1.542
 4387SOL    HW114060   6.591   2.580   1.499
 4387SOL    HW214061   6.511   2.594   1.641
 4388SOL     OW14062   4.944   2.102   6.016
 4388SOL    HW114063   4.990   2.179   5.971
 4388SOL    HW214064   4.845   2.111   6.007
 4389SOL     OW14065   6.807   3.701   1.239
 4389SOL    HW114066   6.889   3.711   1.184
 4389SOL    HW214067   6.772   3.607   1.230
 4390SOL     OW14068   4.865   6.857   1.178
 4390SOL    HW114069   4.885   6.912   1.259
 4390SOL    HW214070   4.946   6.804   1.153
 4391SOL     OW14071   2.504   4.975   6.312
 4391SOL    HW114072   2.497   5.034   6.392
 4391SOL    HW214073   2.545   4.888   6.338
 4392SOL     OW14074   0.756   1.652   4.320
 4392SOL    HW114075   0.668   1.609   4.341
 4392SOL    HW214076   0.830   1.592   4.351
 4393SOL     OW14077   6.019   0.566   1.980
 4393SOL    HW114078   6.086   0.550   1.908
 4393SOL    HW214079   5.999   0.480   2.028
 4394SOL     OW14080   1.017   6.723   1.655
 4394SOL    HW114081   1.050   6.784   1.583
 4394SOL    HW214082   1.034   6.764   1.744
 4395SOL     OW14083   1.956   0.149   1.459
 4395SOL    HW114084   1.899   0.224   1.494
 4395SOL    HW214085   2.004   0.107   1.536
 4396SOL     OW14086   1.456   1.585   3.640
 4396SOL    HW114087   1.539   1.575   3.695
 4396SOL    HW214088   1.405   1.499   3.641
 4397SOL     OW14089   1.828   2.925   4.084
 4397SOL    HW114090   1.834   2.869   4.001
 4397SOL    HW214091   1.796   2.868   4.160
 4398SOL     OW14092   2.042   3.820   5.969
 4398SOL    HW114093   2.001   3.806   6.059
 4398SOL    HW214094   2.097   3.903   5.969
 4399SOL     OW14095   1.935   5.977   1.827
 4399SOL    HW114096   1.986   5.891   1.832
 4399SOL    HW214097   1.982   6.047   1.881
 4400SOL     OW14098   2.301   6.917   3.853
 4400SOL    HW114099   2.213   6.922   3.807
 4400SOL    HW214100   2.347   6.831   3.831
 4401SOL     OW14101   4.069   6.665   4.985
 4401SOL    HW114102   3.995   6.598   4.989
 4401SOL    HW214103   4.048   6.735   4.917
 4402SOL     OW14104   0.765   0.546   2.257
 4402SOL    HW114105   0.823   0.609   2.205
 4402SOL    HW214106   0.696   0.506   2.197
 4403SOL     OW14107   1.093   6.132   1.240
 4403SOL    HW114108   1.139   6.097   1.158
 4403SOL    HW214109   0.995   6.112   1.234
 4404SOL     OW14110   1.208   5.883   5.521
 4404SOL    HW114111   1.298   5.866   5.483
 4404SOL    HW214112   1.214   5.955   5.590
 4405SOL     OW14113   2.662   5.020   3.273
 4405SOL    HW114114   2.739   4.991   3.216
 4405SOL    HW214115   2.684   5.004   3.369
 4406SOL     OW14116   6.708   3.408   1.312
 4406SOL    HW114117   6.655   3.359   1.381
 4406SOL    HW214118   6.647   3.444   1.242
 4407SOL     OW14119   0.273   5.495   1.235
 4407SOL    HW114120   0.365   5.534   1.233
 4407SOL    HW214121   0.270   5.413   1.177
 4408SOL     OW14122   3.239   6.042   7.003
 4408SOL    HW114123   3.145   6.075   7.011
 4408SOL    HW214124   3.277   6.070   6.915
 4409SOL     OW14125   4.087   1.083   1.440
 4409SOL    HW114126   4.036   1.048   1.519
 4409SOL    HW214127   4.092   1.012   1.369
 4410SOL     OW14128   0.133   5.868   0.557
 4410SOL    HW114129   0.164   5.786   0.605
 4410SOL    HW214130   0.096   5.933   0.624
 4411SOL     OW14131   3.918   4.871   5.566
 4411SOL    HW114132   3.929   4.904   5.660
 4411SOL    HW214133   3.898   4.948   5.506
 4412SOL     OW14134   5.005   6.389   4.530
 4412SOL    HW114135   5.031   6.435   4.616
 4412SOL    HW214136   5.035   6.294   4.533
 4413SOL     OW14137   4.248   6.494   4.193
 4413SOL    HW114138   4.340   6.462   4.171
 4413SOL    HW214139   4.220   6.458   4.282
 4414SOL     OW14140   4.419   5.534   1.887
 4414SOL    HW114141   4.425   5.558   1.790
 4414SOL    HW214142   4.340   5.475   1.903
 4415SOL     OW14143   3.572   4.080   0.740
 4415SOL    HW114144   3.586   4.152   0.809
 4415SOL    HW214145   3.511   4.010   0.776
 4416SOL     OW14146   3.971   1.697   4.064
 4416SOL    HW114147   4.041   1.633   4.095
 4416SOL    HW214148   3.880   1.660   4.085
 4417SOL     OW14149   6.337   2.945   4.239
 4417SOL    HW114150   6.284   2.943   4.324
 4417SOL    HW214151   6.374   3.036   4.224
 4418SOL     OW14152   5.939   2.077   2.113
 4418SOL    HW114153   5.967   2.053   2.206
 4418SOL    HW214154   5.896   1.998   2.069
 4419SOL     OW14155   6.355   6.641   6.050
 4419SOL    HW114156   6.340   6.713   6.117
 4419SOL    HW214157   6.268   6.615   6.009
 4420SOL     OW14158   3.436   1.832   1.283
 4420SOL    HW114159   3.360   1.767   1.275
 4420SOL    HW214160   3.455   1.849   1.380
 4421SOL     OW14161   1.448   2.987   5.482
 4421SOL    HW114162   1.426   2.893   5.456
 4421SOL    HW214163   1.470   3.040   5.400
 4422SOL     OW14164   1.019   5.173   6.846
 4422SOL    HW114165   1.012   5.084   6.893
 4422SOL    HW214166   1.101   5.175   6.790
 4423SOL     OW14167   6.325   4.555   5.893
 4423SOL    HW114168   6.389   4.629   5.915
 4423SOL    HW214169   6.346   4.475   5.949
 4424SOL     OW14170   5.380   5.972   4.168
 4424SOL    HW114171   5.422   5.971   4.077
 4424SOL    HW214172   5.406   6.056   4.216
 4425SOL     OW14173   1.770   5.462   0.825
 4425SOL    HW114174   1.773   5.380   0.882
 4425SOL    HW214175   1.851   5.518   0.844
 4426SOL     OW14176   1.151   0.339   3.998
 4426SOL    HW114177   1.052   0.356   4.000
 4426SOL    HW214178   1.197   0.402   4.061
 4427SOL     OW14179   3.923   6.185   2.918
 4427SOL    HW114180   4.018   6.176   2.887
 4427SOL    HW214181   3.917   6.155   3.013
 4428SOL     OW14182   5.264   0.939   4.554
 4428SOL    HW114183   5.233   0.980   4.640
 4428SOL    HW214184   5.219   0.984   4.478
 4429SOL     OW14185   2.877   6.601   2.995
 4429SOL    HW114186   2.888   6.582   3.093
 4429SOL    HW214187   2.879   6.699   2.979
 4430SOL     OW14188   5.628   5.182   4.363
 4430SOL    HW114189   5.658   5.234   4.442
 4430SOL    HW214190   5.536   5.211   4.336
 4431SOL     OW14191   3.401   0.603   3.551
 4431SOL    HW114192   3.331   0.616   3.621
 4431SOL    HW214193   3.492   0.601   3.594
 4432SOL     OW14194   2.357   3.235   6.407
 4432SOL    HW114195   2.261   3.213   6.386
 4432SOL    HW214196   2.407   3.247   6.321
 4433SOL     OW14197   0.492   2.295   4.229
 4433SOL    HW114198   0.400   2.299   4.270
 4433SOL    HW214199   0.518   2.200   4.217
 4434SOL     OW14200   5.969   1.374   1.698
 4434SOL    HW114201   5.921   1.446   1.647
 4434SOL    HW214202   6.065   1.400   1.708
 4435SOL     OW14203   4.036   3.977   0.867
 4435SOL    HW114204   3.990   3.899   0.826
 4435SOL    HW214205   4.040   4.052   0.801
 4436SOL     OW14206   4.092   1.780   1.314
 4436SOL    HW114207   4.072   1.694   1.266
 4436SOL    HW214208   4.008   1.835   1.320
 4437SOL     OW14209   0.442   3.255   2.730
 4437SOL    HW114210   0.370   3.292   2.788
 4437SOL    HW214211   0.490   3.182   2.779
 4438SOL     OW14212   4.683   0.120   5.674
 4438SOL    HW114213   4.599   0.173   5.685
 4438SOL    HW214214   4.716   0.130   5.580
 4439SOL     OW14215   0.875   5.223   3.010
 4439SOL    HW114216   0.924   5.207   3.096
 4439SOL    HW214217   0.884   5.319   2.984
 4440SOL     OW14218   2.813   4.413   1.053
 4440SOL    HW114219   2.879   4.347   1.089
 4440SOL    HW214220   2.745   4.365   0.997
 4441SOL     OW14221   0.524   1.677   0.559
 4441SOL    HW114222   0.480   1.701   0.473
 4441SOL    HW214223   0.491   1.589   0.591
 4442SOL     OW14224   1.056   5.297   5.951
 4442SOL    HW114225   1.103   5.226   5.897
 4442SOL    HW214226   1.022   5.368   5.889
 4443SOL     OW14227   0.896   4.839   6.363
 4443SOL    HW114228   0.843   4.756   6.384
 4443SOL    HW214229   0.900   4.897   6.445
 4444SOL     OW14230   4.559   4.028   0.622
 4444SOL    HW114231   4.633   4.093   0.640
 4444SOL    HW214232   4.592   3.935   0.642
 4445SOL     OW14233   1.371   5.346   7.014
 4445SOL    HW114234   1.459   5.388   0.011
 4445SOL    HW214235   1.302   5.417   7.002
 4446SOL     OW14236   5.601   1.772   0.181
 4446SOL    HW114237   5.595   1.678   0.212
 4446SOL    HW214238   5.533   1.828   0.229
 4447SOL     OW14239   6.071   4.822   5.546
 4447SOL    HW114240   6.019   4.751   5.499
 4447SOL    HW214241   6.110   4.885   5.479
 4448SOL     OW14242   2.831   6.942   1.264
 4448SOL    HW114243   2.917   6.987   1.240
 4448SOL    HW214244   2.759   6.972   1.201
 4449SOL     OW14245   4.578   1.193   6.474
 4449SOL    HW114246   4.579   1.127   6.549
 4449SOL    HW214247   4.502   1.257   6.487
 4450SOL     OW14248   3.353   1.685   0.438
 4450SOL    HW114249   3.432   1.742   0.459
 4450SOL    HW214250   3.311   1.653   0.524
 4451SOL     OW14251   4.564   4.784   4.059
 4451SOL    HW114252   4.520   4.823   4.140
 4451SOL    HW214253   4.663   4.793   4.067
 4452SOL     OW14254   5.765   6.042   4.408
 4452SOL    HW114255   5.843   6.019   4.349
 4452SOL    HW214256   5.799   6.072   4.497
 4453SOL     OW14257   1.029   2.779   1.745
 4453SOL    HW114258   1.006   2.695   1.794
 4453SOL    HW214259   0.989   2.776   1.654
 4454SOL     OW14260   0.147   1.429   6.547
 4454SOL    HW114261   0.064   1.413   6.600
 4454SOL    HW214262   0.226   1.393   6.596
 4455SOL     OW14263   6.053   5.475   5.244
 4455SOL    HW114264   6.106   5.535   5.304
 4455SOL    HW214265   6.088   5.381   5.252
 4456SOL     OW14266   2.180   6.043   3.713
 4456SOL    HW114267   2.120   5.997   3.779
 4456SOL    HW214268   2.132   6.122   3.675
 4457SOL     OW14269   2.059   2.392   5.021
 4457SOL    HW114270   2.147   2.439   5.024
 4457SOL    HW214271   2.054   2.327   5.097
 4458SOL     OW14272   2.102   3.561   1.568
 4458SOL    HW114273   2.076   3.615   1.488
 4458SOL    HW214274   2.197   3.578   1.591
 4459SOL     OW14275   2.272   1.546   4.427
 4459SOL    HW114276   2.320   1.591   4.351
 4459SOL    HW214277   2.288   1.448   4.422
 4460SOL     OW14278   0.613   3.667   4.143
 4460SOL    HW114279   0.681   3.707   4.081
 4460SOL    HW214280   0.597   3.572   4.119
 4461SOL     OW14281   1.555   0.514   1.172
 4461SOL    HW114282   1.455   0.514   1.174
 4461SOL    HW214283   1.587   0.575   1.099
 4462SOL     OW14284   5.988   3.873   2.331
 4462SOL    HW114285   5.949   3.909   2.416
 4462SOL    HW214286   6.054   3.938   2.294
 4463SOL     OW14287   5.190   1.234   1.074
 4463SOL    HW114288   5.234   1.174   1.141
 4463SOL    HW214289   5.190   1.328   1.109
 4464SOL     OW14290   0.706   5.278   0.193
 4464SOL    HW114291   0.634   5.235   0.249
 4464SOL    HW214292   0.794   5.270   0.240
 4465SOL     OW14293   2.852   5.606   0.287
 4465SOL    HW114294   2.794   5.536   0.329
 4465SOL    HW214295   2.938   5.564   0.256
 4466SOL     OW14296   2.251   1.973   3.288
 4466SOL    HW114297   2.182   1.908   3.318
 4466SOL    HW214298   2.330   1.924   3.251
 4467SOL     OW14299   2.612   5.580   4.014
 4467SOL    HW114300   2.707   5.558   3.991
 4467SOL    HW214301   2.610   5.648   4.086
 4468SOL     OW14302   0.927   3.443   0.587
 4468SOL    HW114303   1.005   3.491   0.628
 4468SOL    HW214304   0.894   3.372   0.649
 4469SOL     OW14305   2.429   0.610   1.282
 4469SOL    HW114306   2.462   0.661   1.203
 4469SOL    HW214307   2.371   0.670   1.338
 4470SOL     OW14308   0.505   0.723   2.317
 4470SOL    HW114309   0.446   0.644   2.298
 4470SOL    HW214310   0.539   0.761   2.231
 4471SOL     OW14311   2.233   2.998   6.686
 4471SOL    HW114312   2.255   2.952   6.600
 4471SOL    HW214313   2.243   2.933   6.762
 4472SOL     OW14314   1.399   2.452   1.140
 4472SOL    HW114315   1.425   2.512   1.216
 4472SOL    HW214316   1.407   2.503   1.054
 4473SOL     OW14317   6.428   2.885   3.803
 4473SOL    HW114318   6.479   2.948   3.861
 4473SOL    HW214319   6.331   2.887   3.828
 4474SOL     OW14320   3.047   0.659   1.685
 4474SOL    HW114321   2.982   0.583   1.692
 4474SOL    HW214322   3.015   0.736   1.741
 4475SOL     OW14323   0.855   3.598   2.110
 4475SOL    HW114324   0.842   3.563   2.017
 4475SOL    HW214325   0.773   3.581   2.164
 4476SOL     OW14326   5.779   1.288   4.463
 4476SOL    HW114327   5.731   1.223   4.404
 4476SOL    HW214328   5.814   1.363   4.408
 4477SOL     OW14329   1.645   0.495   5.189
 4477SOL    HW114330   1.704   0.481   5.268
 4477SOL    HW214331   1.603   0.586   5.194
 4478SOL     OW14332   1.123   0.311   1.370
 4478SOL    HW114333   1.195   0.301   1.302
 4478SOL    HW214334   1.095   0.220   1.403
 4479SOL     OW14335   1.119   1.621   0.034
 4479SOL    HW114336   1.208   1.609   0.077
 4479SOL    HW214337   1.052   1.648   0.103
 4480SOL     OW14338   0.889   4.482   4.670
 4480SOL    HW114339   0.831   4.417   4.621
 4480SOL    HW214340   0.836   4.565   4.690
 4481SOL     OW14341   2.277   5.363   5.346
 4481SOL    HW114342   2.205   5.423   5.379
 4481SOL    HW214343   2.325   5.322   5.424
 4482SOL     OW14344   2.839   3.927   6.259
 4482SOL    HW114345   2.864   3.836   6.291
 4482SOL    HW214346   2.916   3.989   6.275
 4483SOL     OW14347   0.604   2.488   1.761
 4483SOL    HW114348   0.571   2.398   1.789
 4483SOL    HW214349   0.652   2.480   1.673
 4484SOL     OW14350   2.512   3.016   0.347
 4484SOL    HW114351   2.611   3.015   0.361
 4484SOL    HW214352   2.481   3.111   0.338
 4485SOL     OW14353   4.901   2.131   4.963
 4485SOL    HW114354   4.848   2.139   5.047
 4485SOL    HW214355   4.905   2.220   4.917
 4486SOL     OW14356   5.794   4.832   5.395
 4486SOL    HW114357   5.854   4.771   5.345
 4486SOL    HW214358   5.701   4.794   5.397
 4487SOL     OW14359   1.944   2.668   6.581
 4487SOL    HW114360   1.986   2.659   6.491
 4487SOL    HW214361   1.900   2.758   6.588
 4488SOL     OW14362   1.168   3.733   3.586
 4488SOL    HW114363   1.198   3.828   3.581
 4488SOL    HW214364   1.165   3.694   3.494
 4489SOL     OW14365   4.991   5.218   5.055
 4489SOL    HW114366   5.056   5.145   5.032
 4489SOL    HW214367   4.922   5.225   4.984
 4490SOL     OW14368   5.563   2.221   1.184
 4490SOL    HW114369   5.626   2.160   1.232
 4490SOL    HW214370   5.501   2.264   1.249
 4491SOL     OW14371   0.490   3.667   3.143
 4491SOL    HW114372   0.495   3.567   3.145
 4491SOL    HW214373   0.443   3.696   3.059
 4492SOL     OW14374   5.973   0.991   1.467
 4492SOL    HW114375   5.922   1.036   1.540
 4492SOL    HW214376   5.986   0.895   1.489
 4493SOL     OW14377   5.395   6.621   4.639
 4493SOL    HW114378   5.430   6.649   4.728
 4493SOL    HW214379   5.429   6.530   4.616
 4494SOL     OW14380   0.736   0.809   5.898
 4494SOL    HW114381   0.665   0.866   5.939
 4494SOL    HW214382   0.823   0.824   5.946
 4495SOL     OW14383   3.366   6.129   2.509
 4495SOL    HW114384   3.382   6.136   2.608
 4495SOL    HW214385   3.269   6.144   2.490
 4496SOL     OW14386   4.588   5.881   6.603
 4496SOL    HW114387   4.608   5.785   6.623
 4496SOL    HW214388   4.629   5.907   6.516
 4497SOL     OW14389   3.771   2.442   0.125
 4497SOL    HW114390   3.834   2.381   0.174
 4497SOL    HW214391   3.790   2.438   0.027
 4498SOL     OW14392   6.988   5.237   6.420
 4498SOL    HW114393   6.986   5.150   6.371
 4498SOL    HW214394   7.011   5.221   6.516
 4499SOL     OW14395   6.468   1.581   3.061
 4499SOL    HW114396   6.384   1.620   3.100
 4499SOL    HW214397   6.480   1.615   2.968
 4500SOL     OW14398   4.212   4.746   6.761
 4500SOL    HW114399   4.142   4.678   6.780
 4500SOL    HW214400   4.200   4.824   6.823
 4501SOL     OW14401   5.675   2.336   2.080
 4501SOL    HW114402   5.767   2.322   2.115
 4501SOL    HW214403   5.673   2.419   2.023
 4502SOL     OW14404   0.760   3.641   6.880
 4502SOL    HW114405   0.678   3.697   6.869
 4502SOL    HW214406   0.811   3.640   6.794
 4503SOL     OW14407   3.041   0.279   2.013
 4503SOL    HW114408   3.080   0.193   1.980
 4503SOL    HW214409   3.068   0.294   2.108
 4504SOL     OW14410   6.890   1.858   3.985
 4504SOL    HW114411   6.898   1.758   3.996
 4504SOL    HW214412   6.976   1.894   3.949
 4505SOL     OW14413   6.685   4.492   2.303
 4505SOL    HW114414   6.754   4.427   2.269
 4505SOL    HW214415   6.640   4.453   2.383
 4506SOL     OW14416   5.161   3.092   4.001
 4506SOL    HW114417   5.182   3.048   4.088
 4506SOL    HW214418   5.183   3.189   4.006
 4507SOL     OW14419   6.694   3.200   3.369
 4507SOL    HW114420   6.610   3.247   3.342
 4507SOL    HW214421   6.722   3.231   3.460
 4508SOL     OW14422   0.873   4.314   0.424
 4508SOL    HW114423   0.834   4.223   0.436
 4508SOL    HW214424   0.829   4.378   0.487
 4509SOL     OW14425   5.202   2.167   2.615
 4509SOL    HW114426   5.199   2.238   2.685
 4509SOL    HW214427   5.109   2.146   2.585
 4510SOL     OW14428   4.394   1.516   3.949
 4510SOL    HW114429   4.307   1.478   3.919
 4510SOL    HW214430   4.407   1.497   4.047
 4511SOL     OW14431   0.017   3.712   1.102
 4511SOL    HW114432   0.008   3.750   1.011
 4511SOL    HW214433   0.017   3.612   1.097
 4512SOL     OW14434   3.227   2.312   6.127
 4512SOL    HW114435   3.196   2.227   6.170
 4512SOL    HW214436   3.301   2.351   6.181
 4513SOL     OW14437   0.598   5.805   6.482
 4513SOL    HW114438   0.531   5.832   6.552
 4513SOL    HW214439   0.603   5.877   6.413
 4514SOL     OW14440   3.500   3.407   6.812
 4514SOL    HW114441   3.522   3.330   6.752
 4514SOL    HW214442   3.566   3.410   6.887
 4515SOL     OW14443   5.761   0.999   4.807
 4515SOL    HW114444   5.711   0.982   4.722
 4515SOL    HW214445   5.857   1.016   4.786
 4516SOL     OW14446   3.252   1.029   5.940
 4516SOL    HW114447   3.174   1.089   5.961
 4516SOL    HW214448   3.228   0.935   5.961
 4517SOL     OW14449   4.512   0.009   6.672
 4517SOL    HW114450   4.499   0.094   6.723
 4517SOL    HW214451   4.604   0.008   6.631
 4518SOL     OW14452   1.243   6.804   0.899
 4518SOL    HW114453   1.332   6.759   0.902
 4518SOL    HW214454   1.198   6.795   0.988
 4519SOL     OW14455   4.950   7.021   0.167
 4519SOL    HW114456   4.850   7.013   0.168
 4519SOL    HW214457   4.990   6.930   0.181
 4520SOL     OW14458   4.014   5.901   5.303
 4520SOL    HW114459   4.043   5.893   5.208
 4520SOL    HW214460   4.062   5.977   5.346
 4521SOL     OW14461   4.990   1.715   4.603
 4521SOL    HW114462   5.072   1.713   4.660
 4521SOL    HW214463   4.993   1.794   4.542
 4522SOL     OW14464   5.728   3.634   3.938
 4522SOL    HW114465   5.792   3.561   3.919
 4522SOL    HW214466   5.733   3.659   4.035
 4523SOL     OW14467   0.890   3.687   6.667
 4523SOL    HW114468   0.907   3.767   6.724
 4523SOL    HW214469   0.876   3.715   6.572
 4524SOL     OW14470   0.285   3.917   2.417
 4524SOL    HW114471   0.379   3.950   2.411
 4524SOL    HW214472   0.237   3.967   2.489
 4525SOL     OW14473   2.205   2.545   5.617
 4525SOL    HW114474   2.152   2.581   5.541
 4525SOL    HW214475   2.275   2.612   5.643
 4526SOL     OW14476   0.397   0.617   6.620
 4526SOL    HW114477   0.354   0.528   6.610
 4526SOL    HW214478   0.449   0.639   6.538
 4527SOL     OW14479   6.786   6.961   2.595
 4527SOL    HW114480   6.841   6.991   2.673
 4527SOL    HW214481   6.712   6.901   2.626
 4528SOL     OW14482   4.151   0.675   6.147
 4528SOL    HW114483   4.068   0.706   6.192
 4528SOL    HW214484   4.216   0.641   6.215
 4529SOL     OW14485   2.743   1.053   6.378
 4529SOL    HW114486   2.718   1.087   6.468
 4529SOL    HW214487   2.824   1.103   6.345
 4530SOL     OW14488   2.290   6.060   5.197
 4530SOL    HW114489   2.349   6.140   5.200
 4530SOL    HW214490   2.195   6.088   5.183
 4531SOL     OW14491   1.482   4.080   6.594
 4531SOL    HW114492   1.558   4.019   6.613
 4531SOL    HW214493   1.488   4.160   6.653
 4532SOL     OW14494   4.772   0.900   2.552
 4532SOL    HW114495   4.754   0.880   2.456
 4532SOL    HW214496   4.727   0.831   2.609
 4533SOL     OW14497   1.493   1.194   2.700
 4533SOL    HW114498   1.449   1.145   2.625
 4533SOL    HW214499   1.423   1.234   2.759
 4534SOL     OW14500   4.521   1.722   5.160
 4534SOL    HW114501   4.535   1.624   5.145
 4534SOL    HW214502   4.511   1.768   5.072
 4535SOL     OW14503   3.632   1.699   1.063
 4535SOL    HW114504   3.691   1.775   1.037
 4535SOL    HW214505   3.561   1.732   1.126
 4536SOL     OW14506   2.522   1.913   5.675
 4536SOL    HW114507   2.599   1.919   5.612
 4536SOL    HW214508   2.461   1.992   5.660
 4537SOL     OW14509   3.624   3.918   3.380
 4537SOL    HW114510   3.592   3.898   3.473
 4537SOL    HW214511   3.595   3.844   3.319
 4538SOL     OW14512   1.077   2.294   1.710
 4538SOL    HW114513   1.021   2.233   1.654
 4538SOL    HW214514   1.050   2.285   1.806
 4539SOL     OW14515   2.749   5.235   4.810
 4539SOL    HW114516   2.722   5.268   4.720
 4539SOL    HW214517   2.673   5.245   4.874
 4540SOL     OW14518   0.833   0.901   0.826
 4540SOL    HW114519   0.833   0.809   0.787
 4540SOL    HW214520   0.802   0.967   0.757
 4541SOL     OW14521   4.539   1.849   6.508
 4541SOL    HW114522   4.492   1.812   6.588
 4541SOL    HW214523   4.637   1.856   6.527
 4542SOL     OW14524   6.466   2.885   1.258
 4542SOL    HW114525   6.468   2.890   1.158
 4542SOL    HW214526   6.557   2.863   1.291
 4543SOL     OW14527   4.390   2.183   0.858
 4543SOL    HW114528   4.469   2.219   0.809
 4543SOL    HW214529   4.419   2.109   0.919
 4544SOL     OW14530   4.780   4.473   1.180
 4544SOL    HW114531   4.816   4.490   1.272
 4544SOL    HW214532   4.833   4.525   1.113
 4545SOL     OW14533   0.958   4.506   5.005
 4545SOL    HW114534   0.903   4.439   5.056
 4545SOL    HW214535   0.901   4.583   4.977
 4546SOL     OW14536   3.219   0.769   6.022
 4546SOL    HW114537   3.229   0.728   6.112
 4546SOL    HW214538   3.298   0.745   5.966
 4547SOL     OW14539   6.584   0.487   6.881
 4547SOL    HW114540   6.663   0.546   6.867
 4547SOL    HW214541   6.596   0.402   6.830
 4548SOL     OW14542   2.575   2.518   3.257
 4548SOL    HW114543   2.557   2.532   3.159
 4548SOL    HW214544   2.488   2.523   3.307
 4549SOL     OW14545   4.936   4.236   2.611
 4549SOL    HW114546   4.848   4.264   2.572
 4549SOL    HW214547   4.944   4.273   2.704
 4550SOL     OW14548   0.382   4.688   3.461
 4550SOL    HW114549   0.464   4.633   3.443
 4550SOL    HW214550   0.364   4.689   3.559
 4551SOL     OW14551   0.738   4.075   5.010
 4551SOL    HW114552   0.781   4.149   4.958
 4551SOL    HW214553   0.721   3.997   4.950
 4552SOL     OW14554   6.207   1.532   1.656
 4552SOL    HW114555   6.273   1.590   1.704
 4552SOL    HW214556   6.195   1.565   1.562
 4553SOL     OW14557   5.041   4.524   6.734
 4553SOL    HW114558   4.977   4.597   6.710
 4553SOL    HW214559   5.123   4.532   6.678
 4554SOL     OW14560   0.283   6.326   1.081
 4554SOL    HW114561   0.288   6.258   1.154
 4554SOL    HW214562   0.348   6.400   1.100
 4555SOL     OW14563   1.101   0.848   6.513
 4555SOL    HW114564   1.093   0.776   6.445
 4555SOL    HW214565   1.139   0.931   6.471
 4556SOL     OW14566   6.115   3.164   5.701
 4556SOL    HW114567   6.036   3.170   5.762
 4556SOL    HW214568   6.106   3.234   5.629
 4557SOL     OW14569   6.139   5.042   4.671
 4557SOL    HW114570   6.095   4.985   4.740
 4557SOL    HW214571   6.228   5.002   4.646
 4558SOL     OW14572   6.592   3.008   5.092
 4558SOL    HW114573   6.663   3.074   5.069
 4558SOL    HW214574   6.634   2.922   5.122
 4559SOL     OW14575   0.213   2.938   2.729
 4559SOL    HW114576   0.253   2.987   2.806
 4559SOL    HW214577   0.116   2.920   2.747
 4560SOL     OW14578   6.163   3.989   2.146
 4560SOL    HW114579   6.260   4.015   2.149
 4560SOL    HW214580   6.155   3.891   2.129
 4561SOL     OW14581   3.130   2.208   3.904
 4561SOL    HW114582   3.199   2.226   3.974
 4561SOL    HW214583   3.174   2.173   3.821
 4562SOL     OW14584   2.103   6.368   0.492
 4562SOL    HW114585   2.160   6.388   0.571
 4562SOL    HW214586   2.084   6.454   0.443
 4563SOL     OW14587   6.759   3.444   1.676
 4563SOL    HW114588   6.729   3.466   1.769
 4563SOL    HW214589   6.783   3.528   1.628
 4564SOL     OW14590   6.708   4.387   1.797
 4564SOL    HW114591   6.736   4.428   1.710
 4564SOL    HW214592   6.645   4.448   1.844
 4565SOL     OW14593   1.929   0.615   4.854
 4565SOL    HW114594   1.859   0.546   4.872
 4565SOL    HW214595   2.020   0.573   4.858
 4566SOL     OW14596   0.714   4.124   1.142
 4566SOL    HW114597   0.627   4.074   1.138
 4566SOL    HW214598   0.768   4.105   1.060
 4567SOL     OW14599   6.764   0.235   6.509
 4567SOL    HW114600   6.702   0.191   6.444
 4567SOL    HW214601   6.824   0.297   6.459
 4568SOL     OW14602   0.715   3.992   4.228
 4568SOL    HW114603   0.762   4.011   4.314
 4568SOL    HW214604   0.647   3.920   4.243
 4569SOL     OW14605   3.173   0.814   3.075
 4569SOL    HW114606   3.249   0.799   3.011
 4569SOL    HW214607   3.202   0.788   3.167
 4570SOL     OW14608   6.359   5.571   1.727
 4570SOL    HW114609   6.325   5.658   1.690
 4570SOL    HW214610   6.450   5.584   1.766
 4571SOL     OW14611   4.741   2.996   6.248
 4571SOL    HW114612   4.788   3.084   6.252
 4571SOL    HW214613   4.792   2.929   6.302
 4572SOL     OW14614   2.564   2.399   6.527
 4572SOL    HW114615   2.632   2.451   6.579
 4572SOL    HW214616   2.569   2.303   6.552
 4573SOL     OW14617   0.905   6.149   0.755
 4573SOL    HW114618   0.934   6.225   0.697
 4573SOL    HW214619   0.860   6.185   0.836
 4574SOL     OW14620   5.961   4.069   6.933
 4574SOL    HW114621   6.051   4.114   6.929
 4574SOL    HW214622   5.958   3.996   6.865
 4575SOL     OW14623   6.185   0.974   4.340
 4575SOL    HW114624   6.176   0.966   4.439
 4575SOL    HW214625   6.204   0.884   4.300
 4576SOL     OW14626   2.794   4.903   5.087
 4576SOL    HW114627   2.840   4.842   5.022
 4576SOL    HW214628   2.794   4.861   5.177
 4577SOL     OW14629   1.259   2.315   2.936
 4577SOL    HW114630   1.306   2.303   2.849
 4577SOL    HW214631   1.181   2.254   2.941
 4578SOL     OW14632   0.220   0.446   3.035
 4578SOL    HW114633   0.134   0.420   3.078
 4578SOL    HW214634   0.215   0.427   2.937
 4579SOL     OW14635   4.744   0.445   2.014
 4579SOL    HW114636   4.831   0.485   2.042
 4579SOL    HW214637   4.678   0.517   1.995
 4580SOL     OW14638   5.337   3.906   0.154
 4580SOL    HW114639   5.336   3.807   0.168
 4580SOL    HW214640   5.386   3.950   0.230
 4581SOL     OW14641   2.851   6.644   2.365
 4581SOL    HW114642   2.872   6.548   2.380
 4581SOL    HW214643   2.762   6.652   2.321
 4582SOL     OW14644   4.988   0.423   2.991
 4582SOL    HW114645   4.955   0.334   3.021
 4582SOL    HW214646   4.929   0.495   3.028
 4583SOL     OW14647   2.246   1.100   6.189
 4583SOL    HW114648   2.213   1.035   6.121
 4583SOL    HW214649   2.175   1.168   6.207
 4584SOL     OW14650   1.912   0.103   5.865
 4584SOL    HW114651   1.939   0.196   5.889
 4584SOL    HW214652   1.987   0.040   5.886
 4585SOL     OW14653   1.794   3.610   3.424
 4585SOL    HW114654   1.891   3.621   3.399
 4585SOL    HW214655   1.787   3.599   3.523
 4586SOL     OW14656   4.735   4.166   0.428
 4586SOL    HW114657   4.647   4.211   0.411
 4586SOL    HW214658   4.762   4.182   0.523
 4587SOL     OW14659   3.070   3.629   4.968
 4587SOL    HW114660   2.986   3.675   4.995
 4587SOL    HW214661   3.141   3.645   5.037
 4588SOL     OW14662   3.117   3.435   5.757
 4588SOL    HW114663   3.116   3.521   5.707
 4588SOL    HW214664   3.202   3.427   5.809
 4589SOL     OW14665   5.385   5.525   2.178
 4589SOL    HW114666   5.371   5.583   2.098
 4589SOL    HW214667   5.394   5.430   2.148
 4590SOL     OW14668   3.526   5.717   2.504
 4590SOL    HW114669   3.517   5.637   2.444
 4590SOL    HW214670   3.526   5.800   2.448
 4591SOL     OW14671   2.502   0.814   5.587
 4591SOL    HW114672   2.536   0.760   5.665
 4591SOL    HW214673   2.514   0.911   5.606
 4592SOL     OW14674   2.870   1.654   3.579
 4592SOL    HW114675   2.806   1.578   3.570
 4592SOL    HW214676   2.820   1.736   3.609
 4593SOL     OW14677   0.086   5.913   2.791
 4593SOL    HW114678   0.137   5.971   2.854
 4593SOL    HW214679   7.023   5.889   2.831
 4594SOL     OW14680   2.700   6.955   3.271
 4594SOL    HW114681   2.633   0.004   3.277
 4594SOL    HW214682   2.777   6.984   3.213
 4595SOL     OW14683   4.808   2.126   5.604
 4595SOL    HW114684   4.846   2.047   5.651
 4595SOL    HW214685   4.708   2.126   5.614
 4596SOL     OW14686   0.429   0.734   1.870
 4596SOL    HW114687   0.438   0.727   1.771
 4596SOL    HW214688   0.338   0.768   1.893
 4597SOL     OW14689   2.321   5.107   6.822
 4597SOL    HW114690   2.307   5.201   6.793
 4597SOL    HW214691   2.382   5.104   6.901
 4598SOL     OW14692   2.380   5.339   0.026
 4598SOL    HW114693   2.417   5.399   0.096
 4598SOL    HW214694   2.308   5.282   0.065
 4599SOL     OW14695   2.065   3.245   2.351
 4599SOL    HW114696   1.998   3.315   2.373
 4599SOL    HW214697   2.080   3.244   2.252
 4600SOL     OW14698   0.218   6.788   6.086
 4600SOL    HW114699   0.195   6.787   6.183
 4600SOL    HW214700   0.233   6.883   6.057
 4601SOL     OW14701   0.908   0.994   4.460
 4601SOL    HW114702   0.933   0.936   4.383
 4601SOL    HW214703   0.980   1.063   4.475
 4602SOL     OW14704   2.691   0.300   6.234
 4602SOL    HW114705   2.690   0.326   6.330
 4602SOL    HW214706   2.772   0.245   6.214
 4603SOL     OW14707   4.242   6.189   1.390
 4603SOL    HW114708   4.341   6.200   1.399
 4603SOL    HW214709   4.213   6.107   1.439
 4604SOL     OW14710   4.741   6.738   5.992
 4604SOL    HW114711   4.750   6.689   5.905
 4604SOL    HW214712   4.787   6.826   5.985
 4605SOL     OW14713   2.153   0.088   1.662
 4605SOL    HW114714   2.180   0.042   1.578
 4605SOL    HW214715   2.173   0.029   1.740
 4606SOL     OW14716   0.424   6.788   2.570
 4606SOL    HW114717   0.437   6.877   2.613
 4606SOL    HW214718   0.333   6.783   2.530
 4607SOL     OW14719   1.905   3.733   3.144
 4607SOL    HW114720   1.998   3.757   3.117
 4607SOL    HW214721   1.842   3.755   3.069
 4608SOL     OW14722   0.266   3.554   4.516
 4608SOL    HW114723   0.193   3.540   4.450
 4608SOL    HW214724   0.256   3.643   4.559
 4609SOL     OW14725   4.393   5.776   6.752
 4609SOL    HW114726   4.453   5.847   6.714
 4609SOL    HW214727   4.378   5.705   6.683
 4610SOL     OW14728   5.246   2.235   6.942
 4610SOL    HW114729   5.307   2.169   6.898
 4610SOL    HW214730   5.158   2.237   6.894
 4611SOL     OW14731   0.247   0.946   5.892
 4611SOL    HW114732   0.168   0.954   5.953
 4611SOL    HW214733   0.267   1.036   5.852
 4612SOL     OW14734   2.442   6.160   2.383
 4612SOL    HW114735   2.496   6.096   2.329
 4612SOL    HW214736   2.384   6.215   2.323
 4613SOL     OW14737   1.995   4.641   2.857
 4613SOL    HW114738   1.947   4.598   2.781
 4613SOL    HW214739   1.935   4.709   2.900
 4614SOL     OW14740   6.315   3.729   3.915
 4614SOL    HW114741   6.298   3.725   3.817
 4614SOL    HW214742   6.413   3.740   3.932
 4615SOL     OW14743   1.014   0.774   1.413
 4615SOL    HW114744   0.980   0.684   1.386
 4615SOL    HW214745   1.108   0.785   1.382
 4616SOL     OW14746   6.495   2.561   5.131
 4616SOL    HW114747   6.502   2.482   5.192
 4616SOL    HW214748   6.412   2.612   5.152
 4617SOL     OW14749   0.971   2.589   1.949
 4617SOL    HW114750   0.936   2.504   1.988
 4617SOL    HW214751   1.054   2.617   1.998
 4618SOL     OW14752   2.719   3.678   5.454
 4618SOL    HW114753   2.786   3.748   5.431
 4618SOL    HW214754   2.747   3.630   5.537
 4619SOL     OW14755   3.421   6.174   3.916
 4619SOL    HW114756   3.407   6.185   3.818
 4619SOL    HW214757   3.487   6.101   3.932
 4620SOL     OW14758   0.846   5.574   1.208
 4620SOL    HW114759   0.940   5.592   1.179
 4620SOL    HW214760   0.824   5.478   1.190
 4621SOL     OW14761   5.002   0.537   2.025
 4621SOL    HW114762   5.063   0.538   1.946
 4621SOL    HW214763   5.043   0.485   2.100
 4622SOL     OW14764   4.473   4.967   0.968
 4622SOL    HW114765   4.467   5.020   1.053
 4622SOL    HW214766   4.389   4.914   0.956
 4623SOL     OW14767   3.787   5.162   1.477
 4623SOL    HW114768   3.790   5.179   1.378
 4623SOL    HW214769   3.711   5.101   1.498
 4624SOL     OW14770   3.859   1.574   3.495
 4624SOL    HW114771   3.853   1.637   3.572
 4624SOL    HW214772   3.955   1.555   3.475
 4625SOL     OW14773   2.013   5.725   1.874
 4625SOL    HW114774   1.984   5.637   1.836
 4625SOL    HW214775   2.064   5.710   1.958
 4626SOL     OW14776   4.211   3.784   1.798
 4626SOL    HW114777   4.197   3.714   1.729
 4626SOL    HW214778   4.133   3.786   1.860
 4627SOL     OW14779   0.370   5.972   4.704
 4627SOL    HW114780   0.400   5.924   4.621
 4627SOL    HW214781   0.432   5.950   4.779
 4628SOL     OW14782   4.429   4.802   3.231
 4628SOL    HW114783   4.388   4.881   3.185
 4628SOL    HW214784   4.371   4.721   3.216
 4629SOL     OW14785   2.332   5.906   6.403
 4629SOL    HW114786   2.328   5.836   6.332
 4629SOL    HW214787   2.414   5.962   6.390
 4630SOL     OW14788   1.048   5.107   2.106
 4630SOL    HW114789   1.105   5.169   2.160
 4630SOL    HW214790   1.036   5.144   2.014
 4631SOL     OW14791   0.835   0.431   3.671
 4631SOL    HW114792   0.789   0.513   3.636
 4631SOL    HW214793   0.892   0.392   3.599
 4632SOL     OW14794   2.667   5.687   2.874
 4632SOL    HW114795   2.720   5.708   2.792
 4632SOL    HW214796   2.605   5.610   2.855
 4633SOL     OW14797   4.991   1.442   4.403
 4633SOL    HW114798   5.065   1.385   4.439
 4633SOL    HW214799   5.028   1.529   4.371
 4634SOL     OW14800   2.978   3.930   4.951
 4634SOL    HW114801   2.982   3.960   5.046
 4634SOL    HW214802   2.911   3.986   4.902
 4635SOL     OW14803   4.433   5.102   1.212
 4635SOL    HW114804   4.448   5.141   1.303
 4635SOL    HW214805   4.336   5.084   1.199
 4636SOL     OW14806   1.373   5.212   0.699
 4636SOL    HW114807   1.284   5.256   0.685
 4636SOL    HW214808   1.364   5.139   0.766
 4637SOL     OW14809   1.429   6.598   0.940
 4637SOL    HW114810   1.488   6.547   0.877
 4637SOL    HW214811   1.458   6.579   1.034
 4638SOL     OW14812   3.733   5.325   6.738
 4638SOL    HW114813   3.674   5.344   6.817
 4638SOL    HW214814   3.738   5.227   6.723
 4639SOL     OW14815   2.688   2.242   0.188
 4639SOL    HW114816   2.678   2.236   0.287
 4639SOL    HW214817   2.765   2.185   0.159
 4640SOL     OW14818   6.037   2.794   5.401
 4640SOL    HW114819   5.968   2.853   5.441
 4640SOL    HW214820   5.994   2.729   5.339
 4641SOL     OW14821   2.011   6.649   3.679
 4641SOL    HW114822   1.959   6.579   3.727
 4641SOL    HW214823   1.974   6.661   3.587
 4642SOL     OW14824   1.735   1.546   3.723
 4642SOL    HW114825   1.808   1.614   3.721
 4642SOL    HW214826   1.768   1.462   3.766
 4643SOL     OW14827   6.615   2.136   0.317
 4643SOL    HW114828   6.700   2.134   0.265
 4643SOL    HW214829   6.539   2.153   0.254
 4644SOL     OW14830   0.242   0.787   6.378
 4644SOL    HW114831   0.317   0.800   6.313
 4644SOL    HW214832   0.252   0.851   6.454
 4645SOL     OW14833   1.837   0.808   4.071
 4645SOL    HW114834   1.839   0.892   4.017
 4645SOL    HW214835   1.777   0.741   4.027
 4646SOL     OW14836   2.428   5.138   4.262
 4646SOL    HW114837   2.451   5.137   4.359
 4646SOL    HW214838   2.399   5.230   4.235
 4647SOL     OW14839   1.767   6.291   3.319
 4647SOL    HW114840   1.739   6.291   3.223
 4647SOL    HW214841   1.815   6.377   3.340
 4648SOL     OW14842   2.901   0.945   4.025
 4648SOL    HW114843   2.860   0.854   4.037
 4648SOL    HW214844   2.948   0.971   4.110
 4649SOL     OW14845   5.926   1.047   1.037
 4649SOL    HW114846   5.978   1.070   1.120
 4649SOL    HW214847   5.860   0.975   1.058
 4650SOL     OW14848   4.759   5.690   1.077
 4650SOL    HW114849   4.765   5.689   1.177
 4650SOL    HW214850   4.682   5.748   1.049
 4651SOL     OW14851   6.087   3.866   6.032
 4651SOL    HW114852   6.121   3.882   6.124
 4651SOL    HW214853   6.055   3.772   6.023
 4652SOL     OW14854   0.032   5.577   4.043
 4652SOL    HW114855   0.032   5.481   4.015
 4652SOL    HW214856   0.126   5.604   4.067
 4653SOL     OW14857   4.599   5.693   0.362
 4653SOL    HW114858   4.676   5.694   0.299
 4653SOL    HW214859   4.581   5.599   0.391
 4654SOL     OW14860   6.827   6.752   5.161
 4654SOL    HW114861   6.832   6.667   5.109
 4654SOL    HW214862   6.893   6.749   5.237
 4655SOL     OW14863   5.479   3.282   1.823
 4655SOL    HW114864   5.522   3.193   1.839
 4655SOL    HW214865   5.441   3.283   1.730
 4656SOL     OW14866   0.439   0.752   1.457
 4656SOL    HW114867   0.445   0.766   1.358
 4656SOL    HW214868   0.422   0.839   1.502
 4657SOL     OW14869   5.650   6.697   1.694
 4657SOL    HW114870   5.576   6.760   1.674
 4657SOL    HW214871   5.723   6.745   1.744
 4658SOL     OW14872   2.712   2.858   5.633
 4658SOL    HW114873   2.693   2.955   5.644
 4658SOL    HW214874   2.787   2.831   5.693
 4659SOL     OW14875   3.773   4.122   1.399
 4659SOL    HW114876   3.861   4.167   1.380
 4659SOL    HW214877   3.702   4.162   1.342
 4660SOL     OW14878   1.566   6.907   4.020
 4660SOL    HW114879   1.487   6.847   4.030
 4660SOL    HW214880   1.621   6.904   4.103
 4661SOL     OW14881   2.693   4.029   5.577
 4661SOL    HW114882   2.694   4.047   5.676
 4661SOL    HW214883   2.614   3.971   5.554
 4662SOL     OW14884   2.895   0.078   5.469
 4662SOL    HW114885   2.895   0.151   5.401
 4662SOL    HW214886   2.942   0.108   5.551
 4663SOL     OW14887   1.054   6.502   6.994
 4663SOL    HW114888   1.110   6.451   6.929
 4663SOL    HW214889   1.082   6.481   0.062
 4664SOL     OW14890   6.676   6.533   0.668
 4664SOL    HW114891   6.677   6.562   0.572
 4664SOL    HW214892   6.605   6.582   0.718
 4665SOL     OW14893   1.960   0.931   5.656
 4665SOL    HW114894   1.875   0.977   5.683
 4665SOL    HW214895   1.973   0.942   5.557
 4666SOL     OW14896   1.998   2.332   0.035
 4666SOL    HW114897   2.022   2.378   6.974
 4666SOL    HW214898   1.959   2.243   0.014
 4667SOL     OW14899   6.608   4.070   1.506
 4667SOL    HW114900   6.665   4.004   1.456
 4667SOL    HW214901   6.644   4.080   1.599
 4668SOL     OW14902   4.270   2.068   5.145
 4668SOL    HW114903   4.202   1.999   5.168
 4668SOL    HW214904   4.287   2.067   5.047
 4669SOL     OW14905   5.020   0.485   0.244
 4669SOL    HW114906   4.979   0.453   0.330
 4669SOL    HW214907   5.037   0.583   0.250
 4670SOL     OW14908   1.434   3.312   0.030
 4670SOL    HW114909   1.369   3.255   0.079
 4670SOL    HW214910   1.466   3.264   6.973
 4671SOL     OW14911   0.815   3.393   7.001
 4671SOL    HW114912   0.787   3.472   6.946
 4671SOL    HW214913   0.890   3.419   0.037
 4672SOL     OW14914   4.315   4.739   5.802
 4672SOL    HW114915   4.270   4.749   5.891
 4672SOL    HW214916   4.369   4.821   5.783
 4673SOL     OW14917   5.245   0.591   6.880
 4673SOL    HW114918   5.244   0.491   6.876
 4673SOL    HW214919   5.166   0.624   6.932
 4674SOL     OW14920   6.864   1.371   0.531
 4674SOL    HW114921   6.900   1.394   0.440
 4674SOL    HW214922   6.785   1.310   0.521
 4675SOL     OW14923   3.576   6.498   6.655
 4675SOL    HW114924   3.567   6.402   6.629
 4675SOL    HW214925   3.529   6.513   6.742
 4676SOL     OW14926   0.769   6.374   4.846
 4676SOL    HW114927   0.728   6.427   4.920
 4676SOL    HW214928   0.800   6.437   4.774
 4677SOL     OW14929   3.195   0.117   6.954
 4677SOL    HW114930   3.176   0.215   6.944
 4677SOL    HW214931   3.258   0.103   0.006
 4678SOL     OW14932   1.884   5.326   1.636
 4678SOL    HW114933   1.930   5.363   1.717
 4678SOL    HW214934   1.942   5.340   1.556
 4679SOL     OW14935   2.846   1.627   6.212
 4679SOL    HW114936   2.838   1.674   6.124
 4679SOL    HW214937   2.807   1.535   6.204
 4680SOL     OW14938   2.108   5.237   1.221
 4680SOL    HW114939   2.065   5.315   1.266
 4680SOL    HW214940   2.038   5.181   1.176
 4681SOL     OW14941   6.855   6.034   4.797
 4681SOL    HW114942   6.952   6.015   4.783
 4681SOL    HW214943   6.813   6.055   4.709
 4682SOL     OW14944   3.945   5.909   6.853
 4682SOL    HW114945   4.000   5.900   6.770
 4682SOL    HW214946   3.935   5.819   6.896
 4683SOL     OW14947   5.860   3.926   2.568
 4683SOL    HW114948   5.926   3.981   2.618
 4683SOL    HW214949   5.770   3.970   2.572
 4684SOL     OW14950   1.284   2.130   3.953
 4684SOL    HW114951   1.215   2.058   3.960
 4684SOL    HW214952   1.298   2.172   4.043
 4685SOL     OW14953   6.272   5.450   4.683
 4685SOL    HW114954   6.220   5.534   4.667
 4685SOL    HW214955   6.320   5.424   4.599
 4686SOL     OW14956   5.000   5.465   0.259
 4686SOL    HW114957   4.958   5.425   0.178
 4686SOL    HW214958   4.982   5.563   0.262
 4687SOL     OW14959   6.545   4.163   4.579
 4687SOL    HW114960   6.632   4.117   4.562
 4687SOL    HW214961   6.548   4.212   4.666
 4688SOL     OW14962   0.583   3.503   6.136
 4688SOL    HW114963   0.651   3.456   6.192
 4688SOL    HW214964   0.491   3.479   6.168
 4689SOL     OW14965   6.203   0.243   5.538
 4689SOL    HW114966   6.240   0.188   5.613
 4689SOL    HW214967   6.261   0.323   5.524
 4690SOL     OW14968   1.267   0.875   6.803
 4690SOL    HW114969   1.255   0.967   6.841
 4690SOL    HW214970   1.197   0.859   6.733
 4691SOL     OW14971   2.624   4.299   0.849
 4691SOL    HW114972   2.533   4.283   0.887
 4691SOL    HW214973   2.673   4.212   0.842
 4692SOL     OW14974   0.058   5.224   3.049
 4692SOL    HW114975   0.078   5.235   2.951
 4692SOL    HW214976   0.116   5.151   3.086
 4693SOL     OW14977   0.320   1.235   4.466
 4693SOL    HW114978   0.294   1.147   4.429
 4693SOL    HW214979   0.389   1.277   4.407
 4694SOL     OW14980   3.166   0.457   0.257
 4694SOL    HW114981   3.123   0.533   0.305
 4694SOL    HW214982   3.110   0.431   0.179
 4695SOL     OW14983   4.207   3.151   1.794
 4695SOL    HW114984   4.158   3.076   1.750
 4695SOL    HW214985   4.301   3.154   1.760
 4696SOL     OW14986   1.258   3.717   6.340
 4696SOL    HW114987   1.171   3.667   6.346
 4696SOL    HW214988   1.267   3.778   6.418
 4697SOL     OW14989   1.937   3.476   0.581
 4697SOL    HW114990   1.950   3.435   0.491
 4697SOL    HW214991   2.026   3.485   0.626
 4698SOL     OW14992   5.326   4.547   1.797
 4698SOL    HW114993   5.277   4.535   1.710
 4698SOL    HW214994   5.276   4.501   1.870
 4699SOL     OW14995   0.119   6.820   2.046
 4699SOL    HW114996   0.113   6.730   2.088
 4699SOL    HW214997   0.027   6.856   2.032
 4700SOL     OW14998   5.001   2.216   1.386
 4700SOL    HW114999   5.055   2.293   1.421
 4700SOL    HW215000   4.915   2.211   1.436
 4701SOL     OW15001   0.925   1.664   6.652
 4701SOL    HW115002   0.935   1.749   6.600
 4701SOL    HW215003   0.889   1.592   6.592
 4702SOL     OW15004   4.495   4.082   6.823
 4702SOL    HW115005   4.412   4.028   6.831
 4702SOL    HW215006   4.551   4.069   6.905
 4703SOL     OW15007   1.042   1.831   3.157
 4703SOL    HW115008   0.987   1.780   3.223
 4703SOL    HW215009   1.130   1.785   3.143
 4704SOL     OW15010   0.128   5.883   1.321
 4704SOL    HW115011   0.120   5.974   1.281
 4704SOL    HW215012   0.196   5.884   1.394
 4705SOL     OW15013   3.510   2.921   4.249
 4705SOL    HW115014   3.536   2.895   4.343
 4705SOL    HW215015   3.452   3.002   4.252
 4706SOL     OW15016   3.828   5.947   6.483
 4706SOL    HW115017   3.829   5.986   6.391
 4706SOL    HW215018   3.743   5.897   6.498
 4707SOL     OW15019   1.991   5.630   1.158
 4707SOL    HW115020   2.064   5.593   1.216
 4707SOL    HW215021   1.903   5.623   1.205
 4708SOL     OW15022   3.028   2.656   0.553
 4708SOL    HW115023   3.005   2.661   0.456
 4708SOL    HW215024   3.113   2.704   0.571
 4709SOL     OW15025   3.961   5.008   5.196
 4709SOL    HW115026   3.960   5.010   5.096
 4709SOL    HW215027   4.044   4.962   5.227
 4710SOL     OW15028   4.885   1.600   6.615
 4710SOL    HW115029   4.977   1.591   6.655
 4710SOL    HW215030   4.859   1.514   6.572
 4711SOL     OW15031   3.505   0.059   2.780
 4711SOL    HW115032   3.470   0.153   2.779
 4711SOL    HW215033   3.605   0.062   2.777
 4712SOL     OW15034   1.963   4.657   1.306
 4712SOL    HW115035   2.042   4.603   1.337
 4712SOL    HW215036   1.884   4.634   1.362
 4713SOL     OW15037   3.168   4.806   1.435
 4713SOL    HW115038   3.069   4.815   1.444
 4713SOL    HW215039   3.199   4.727   1.489
 4714SOL     OW15040   1.978   1.416   1.005
 4714SOL    HW115041   1.951   1.348   0.936
 4714SOL    HW215042   2.078   1.417   1.012
 4715SOL     OW15043   6.837   2.920   2.421
 4715SOL    HW115044   6.905   2.992   2.407
 4715SOL    HW215045   6.767   2.926   2.349
 4716SOL     OW15046   3.597   4.812   6.549
 4716SOL    HW115047   3.693   4.787   6.563
 4716SOL    HW215048   3.539   4.758   6.611
 4717SOL     OW15049   1.163   6.023   2.214
 4717SOL    HW115050   1.109   5.981   2.287
 4717SOL    HW215051   1.188   6.117   2.241
 4718SOL     OW15052   5.298   1.810   6.324
 4718SOL    HW115053   5.320   1.732   6.382
 4718SOL    HW215054   5.206   1.842   6.345
 4719SOL     OW15055   5.360   3.847   3.096
 4719SOL    HW115056   5.449   3.811   3.125
 4719SOL    HW215057   5.358   3.853   2.996
 4720SOL     OW15058   2.290   6.702   5.826
 4720SOL    HW115059   2.232   6.679   5.748
 4720SOL    HW215060   2.234   6.715   5.907
 4721SOL     OW15061   0.779   1.987   0.653
 4721SOL    HW115062   0.814   2.058   0.715
 4721SOL    HW215063   0.684   1.967   0.675
 4722SOL     OW15064   1.393   6.197   0.359
 4722SOL    HW115065   1.325   6.263   0.328
 4722SOL    HW215066   1.484   6.230   0.339
 4723SOL     OW15067   2.339   6.094   5.989
 4723SOL    HW115068   2.382   6.010   6.021
 4723SOL    HW215069   2.317   6.152   6.067
 4724SOL     OW15070   3.970   6.565   2.385
 4724SOL    HW115071   4.046   6.587   2.325
 4724SOL    HW215072   3.960   6.466   2.391
 4725SOL     OW15073   4.984   6.466   3.297
 4725SOL    HW115074   5.020   6.463   3.390
 4725SOL    HW215075   5.053   6.504   3.235
 4726SOL     OW15076   1.077   4.194   6.602
 4726SOL    HW115077   0.991   4.144   6.606
 4726SOL    HW215078   1.115   4.204   6.694
 4727SOL     OW15079   6.643   5.688   0.401
 4727SOL    HW115080   6.618   5.743   0.322
 4727SOL    HW215081   6.737   5.711   0.430
 4728SOL     OW15082   5.854   1.435   0.618
 4728SOL    HW115083   5.868   1.404   0.712
 4728SOL    HW215084   5.771   1.491   0.615
 4729SOL     OW15085   1.816   0.581   2.485
 4729SOL    HW115086   1.911   0.595   2.514
 4729SOL    HW215087   1.761   0.550   2.562
 4730SOL     OW15088   2.694   6.105   5.355
 4730SOL    HW115089   2.788   6.112   5.389
 4730SOL    HW215090   2.631   6.142   5.424
 4731SOL     OW15091   5.919   0.600   5.310
 4731SOL    HW115092   5.983   0.675   5.292
 4731SOL    HW215093   5.926   0.573   5.406
 4732SOL     OW15094   6.879   3.812   6.718
 4732SOL    HW115095   6.958   3.872   6.705
 4732SOL    HW215096   6.906   3.733   6.774
 4733SOL     OW15097   0.286   3.688   2.939
 4733SOL    HW115098   0.200   3.729   2.908
 4733SOL    HW215099   0.274   3.590   2.951
 4734SOL     OW15100   5.277   3.020   6.720
 4734SOL    HW115101   5.203   2.960   6.750
 4734SOL    HW215102   5.365   2.975   6.734
 4735SOL     OW15103   1.201   4.130   4.019
 4735SOL    HW115104   1.138   4.204   3.996
 4735SOL    HW215105   1.198   4.060   3.948
 4736SOL     OW15106   6.668   0.944   6.433
 4736SOL    HW115107   6.712   1.020   6.385
 4736SOL    HW215108   6.691   0.858   6.388
 4737SOL     OW15109   2.512   4.597   1.997
 4737SOL    HW115110   2.599   4.583   2.044
 4737SOL    HW215111   2.508   4.537   1.917
 4738SOL     OW15112   6.617   5.938   1.731
 4738SOL    HW115113   6.663   6.026   1.725
 4738SOL    HW215114   6.642   5.881   1.652
 4739SOL     OW15115   3.871   0.472   2.278
 4739SOL    HW115116   3.971   0.470   2.274
 4739SOL    HW215117   3.834   0.393   2.229
 4740SOL     OW15118   0.661   1.503   2.516
 4740SOL    HW115119   0.739   1.531   2.460
 4740SOL    HW215120   0.605   1.583   2.537
 4741SOL     OW15121   3.885   2.464   1.425
 4741SOL    HW115122   3.952   2.515   1.371
 4741SOL    HW215123   3.932   2.419   1.501
 4742SOL     OW15124   2.469   6.952   0.342
 4742SOL    HW115125   2.451   6.880   0.409
 4742SOL    HW215126   2.525   6.916   0.268
 4743SOL     OW15127   1.768   3.815   2.325
 4743SOL    HW115128   1.862   3.806   2.291
 4743SOL    HW215129   1.770   3.833   2.423
 4744SOL     OW15130   1.930   5.990   0.745
 4744SOL    HW115131   1.937   5.900   0.701
 4744SOL    HW215132   1.853   6.040   0.706
 4745SOL     OW15133   2.499   3.766   0.342
 4745SOL    HW115134   2.455   3.727   0.423
 4745SOL    HW215135   2.436   3.762   0.264
 4746SOL     OW15136   4.490   5.247   4.551
 4746SOL    HW115137   4.458   5.168   4.603
 4746SOL    HW215138   4.489   5.225   4.453
 4747SOL     OW15139   1.564   2.988   0.923
 4747SOL    HW115140   1.565   2.928   1.003
 4747SOL    HW215141   1.470   3.008   0.897
 4748SOL     OW15142   1.690   6.214   2.140
 4748SOL    HW115143   1.643   6.287   2.191
 4748SOL    HW215144   1.742   6.254   2.065
 4749SOL     OW15145   2.195   6.803   0.678
 4749SOL    HW115146   2.140   6.748   0.741
 4749SOL    HW215147   2.135   6.865   0.627
 4750SOL     OW15148   6.158   3.626   5.006
 4750SOL    HW115149   6.209   3.707   5.035
 4750SOL    HW215150   6.180   3.604   4.911
 4751SOL     OW15151   4.295   1.650   2.346
 4751SOL    HW115152   4.199   1.663   2.320
 4751SOL    HW215153   4.308   1.558   2.383
 4752SOL     OW15154   4.688   1.821   0.090
 4752SOL    HW115155   4.669   1.723   0.081
 4752SOL    HW215156   4.670   1.866   0.002
 4753SOL     OW15157   1.913   6.586   4.995
 4753SOL    HW115158   1.981   6.564   5.065
 4753SOL    HW215159   1.895   6.505   4.939
 4754SOL     OW15160   4.339   3.995   6.354
 4754SOL    HW115161   4.257   4.048   6.332
 4754SOL    HW215162   4.401   4.050   6.410
 4755SOL     OW15163   1.264   0.449   1.917
 4755SOL    HW115164   1.285   0.392   1.838
 4755SOL    HW215165   1.251   0.544   1.888
 4756SOL     OW15166   6.134   4.531   0.226
 4756SOL    HW115167   6.141   4.438   0.190
 4756SOL    HW215168   6.224   4.563   0.254
 4757SOL     OW15169   1.472   2.872   1.609
 4757SOL    HW115170   1.558   2.828   1.636
 4757SOL    HW215171   1.491   2.942   1.540
 4758SOL     OW15172   1.559   6.933   3.400
 4758SOL    HW115173   1.544   7.014   3.344
 4758SOL    HW215174   1.548   6.956   3.497
 4759SOL     OW15175   0.737   4.995   0.167
 4759SOL    HW115176   0.797   5.060   0.213
 4759SOL    HW215177   0.786   4.908   0.156
 4760SOL     OW15178   1.262   0.134   0.561
 4760SOL    HW115179   1.358   0.133   0.531
 4760SOL    HW215180   1.227   0.040   0.563
 4761SOL     OW15181   0.274   6.861   0.699
 4761SOL    HW115182   0.276   6.768   0.736
 4761SOL    HW215183   0.318   6.862   0.609
 4762SOL     OW15184   1.728   5.343   2.535
 4762SOL    HW115185   1.822   5.341   2.500
 4762SOL    HW215186   1.679   5.262   2.503
 4763SOL     OW15187   4.937   5.762   1.864
 4763SOL    HW115188   4.888   5.698   1.804
 4763SOL    HW215189   5.016   5.800   1.815
 4764SOL     OW15190   4.821   3.879   5.454
 4764SOL    HW115191   4.814   3.978   5.470
 4764SOL    HW215192   4.733   3.845   5.421
 4765SOL     OW15193   2.998   1.853   4.797
 4765SOL    HW115194   3.007   1.754   4.809
 4765SOL    HW215195   2.925   1.873   4.732
 4766SOL     OW15196   5.839   6.578   4.313
 4766SOL    HW115197   5.873   6.623   4.231
 4766SOL    HW215198   5.838   6.479   4.300
 4767SOL     OW15199   2.334   5.190   5.149
 4767SOL    HW115200   2.298   5.251   5.220
 4767SOL    HW215201   2.390   5.119   5.192
 4768SOL     OW15202   4.582   2.606   6.443
 4768SOL    HW115203   4.614   2.697   6.471
 4768SOL    HW215204   4.646   2.537   6.476
 4769SOL     OW15205   3.367   5.908   1.586
 4769SOL    HW115206   3.330   5.872   1.500
 4769SOL    HW215207   3.328   5.998   1.605
 4770SOL     OW15208   6.261   1.837   5.568
 4770SOL    HW115209   6.254   1.896   5.648
 4770SOL    HW215210   6.175   1.786   5.557
 4771SOL     OW15211   2.572   0.145   5.802
 4771SOL    HW115212   2.597   0.099   5.717
 4771SOL    HW215213   2.473   0.139   5.815
 4772SOL     OW15214   2.845   5.184   0.905
 4772SOL    HW115215   2.840   5.231   0.816
 4772SOL    HW215216   2.800   5.240   0.975
 4773SOL     OW15217   2.546   5.535   4.979
 4773SOL    HW115218   2.644   5.552   4.977
 4773SOL    HW215219   2.505   5.581   5.058
 4774SOL     OW15220   1.905   4.130   0.317
 4774SOL    HW115221   1.829   4.132   0.382
 4774SOL    HW215222   1.991   4.145   0.365
 4775SOL     OW15223   5.526   6.375   4.607
 4775SOL    HW115224   5.607   6.397   4.663
 4775SOL    HW215225   5.451   6.348   4.668
 4776SOL     OW15226   1.249   0.649   5.651
 4776SOL    HW115227   1.268   0.562   5.697
 4776SOL    HW215228   1.294   0.650   5.561
 4777SOL     OW15229   0.876   5.645   0.630
 4777SOL    HW115230   0.954   5.637   0.692
 4777SOL    HW215231   0.839   5.738   0.635
 4778SOL     OW15232   0.726   2.449   4.296
 4778SOL    HW115233   0.651   2.408   4.244
 4778SOL    HW215234   0.690   2.490   4.380
 4779SOL     OW15235   6.467   0.877   3.930
 4779SOL    HW115236   6.548   0.858   3.985
 4779SOL    HW215237   6.423   0.961   3.962
 4780SOL     OW15238   5.154   2.589   5.689
 4780SOL    HW115239   5.126   2.613   5.782
 4780SOL    HW215240   5.218   2.658   5.655
 4781SOL     OW15241   1.799   5.639   2.211
 4781SOL    HW115242   1.782   5.735   2.193
 4781SOL    HW215243   1.738   5.608   2.285
 4782SOL     OW15244   5.574   5.355   5.666
 4782SOL    HW115245   5.556   5.449   5.638
 4782SOL    HW215246   5.673   5.341   5.670
 4783SOL     OW15247   5.591   3.628   0.885
 4783SOL    HW115248   5.529   3.677   0.946
 4783SOL    HW215249   5.660   3.691   0.850
 4784SOL     OW15250   5.522   2.792   6.604
 4784SOL    HW115251   5.523   2.819   6.700
 4784SOL    HW215252   5.427   2.791   6.571
 4785SOL     OW15253   0.462   5.929   3.545
 4785SOL    HW115254   0.379   5.956   3.495
 4785SOL    HW215255   0.529   6.003   3.541
 4786SOL     OW15256   2.606   7.012   1.111
 4786SOL    HW115257   2.523   7.011   1.167
 4786SOL    HW215258   2.595   6.951   1.033
 4787SOL     OW15259   4.163   1.995   4.277
 4787SOL    HW115260   4.218   1.983   4.194
 4787SOL    HW215261   4.140   2.091   4.288
 4788SOL     OW15262   6.357   5.953   0.079
 4788SOL    HW115263   6.329   5.965   7.009
 4788SOL    HW215264   6.311   6.021   0.136
 4789SOL     OW15265   4.826   1.213   1.800
 4789SOL    HW115266   4.882   1.296   1.808
 4789SOL    HW215267   4.757   1.213   1.872
 4790SOL     OW15268   5.542   1.399   5.205
 4790SOL    HW115269   5.587   1.357   5.126
 4790SOL    HW215270   5.490   1.479   5.176
 4791SOL     OW15271   0.266   2.911   1.210
 4791SOL    HW115272   0.291   3.004   1.182
 4791SOL    HW215273   0.184   2.914   1.267
 4792SOL     OW15274   1.904   3.991   4.461
 4792SOL    HW115275   1.835   3.919   4.460
 4792SOL    HW215276   1.860   4.080   4.454
 4793SOL     OW15277   1.350   3.978   6.094
 4793SOL    HW115278   1.266   3.948   6.139
 4793SOL    HW215279   1.425   3.978   6.160
 4794SOL     OW15280   4.974   0.733   3.976
 4794SOL    HW115281   4.890   0.680   3.987
 4794SOL    HW215282   5.052   0.678   4.005
 4795SOL     OW15283   0.787   0.700   4.017
 4795SOL    HW115284   0.798   0.747   3.930
 4795SOL    HW215285   0.731   0.757   4.078
 4796SOL     OW15286   3.640   1.262   6.213
 4796SOL    HW115287   3.714   1.223   6.159
 4796SOL    HW215288   3.552   1.230   6.178
 4797SOL     OW15289   0.443   5.316   4.504
 4797SOL    HW115290   0.363   5.334   4.562
 4797SOL    HW215291   0.448   5.219   4.483
 4798SOL     OW15292   5.241   5.220   6.804
 4798SOL    HW115293   5.152   5.214   6.849
 4798SOL    HW215294   5.241   5.164   6.721
 4799SOL     OW15295   3.395   2.579   6.293
 4799SOL    HW115296   3.469   2.520   6.260
 4799SOL    HW215297   3.374   2.648   6.224
 4800SOL     OW15298   2.004   5.041   0.233
 4800SOL    HW115299   1.950   5.014   0.313
 4800SOL    HW215300   2.097   5.005   0.242
 4801SOL     OW15301   4.667   2.447   1.386
 4801SOL    HW115302   4.709   2.366   1.428
 4801SOL    HW215303   4.671   2.523   1.450
 4802SOL     OW15304   0.328   6.092   2.698
 4802SOL    HW115305   0.340   6.189   2.680
 4802SOL    HW215306   0.288   6.048   2.617
 4803SOL     OW15307   5.385   4.774   0.139
 4803SOL    HW115308   5.410   4.678   0.150
 4803SOL    HW215309   5.385   4.798   0.043
 4804SOL     OW15310   4.933   1.895   0.170
 4804SOL    HW115311   4.841   1.875   0.138
 4804SOL    HW215312   4.931   1.912   0.268
 4805SOL     OW15313   6.433   2.297   1.230
 4805SOL    HW115314   6.515   2.260   1.187
 4805SOL    HW215315   6.429   2.267   1.325
 4806SOL     OW15316   1.508   3.136   3.119
 4806SOL    HW115317   1.409   3.143   3.107
 4806SOL    HW215318   1.540   3.212   3.175
 4807SOL     OW15319   1.093   3.288   6.623
 4807SOL    HW115320   1.122   3.355   6.691
 4807SOL    HW215321   0.993   3.278   6.626
 4808SOL     OW15322   3.979   5.962   1.110
 4808SOL    HW115323   4.018   5.921   1.192
 4808SOL    HW215324   4.051   6.003   1.055
 4809SOL     OW15325   3.331   4.923   1.665
 4809SOL    HW115326   3.277   4.902   1.584
 4809SOL    HW215327   3.278   4.902   1.747
 4810SOL     OW15328   0.900   4.515   3.620
 4810SOL    HW115329   0.821   4.469   3.660
 4810SOL    HW215330   0.971   4.527   3.690
 4811SOL     OW15331   3.496   4.219   4.790
 4811SOL    HW115332   3.570   4.195   4.727
 4811SOL    HW215333   3.411   4.234   4.738
 4812SOL     OW15334   0.503   6.462   2.028
 4812SOL    HW115335   0.494   6.484   2.126
 4812SOL    HW215336   0.514   6.546   1.976
 4813SOL     OW15337   6.174   1.422   0.029
 4813SOL    HW115338   6.142   1.345   0.085
 4813SOL    HW215339   6.095   1.476   7.023
 4814SOL     OW15340   6.754   4.111   1.750
 4814SOL    HW115341   6.714   4.200   1.770
 4814SOL    HW215342   6.853   4.115   1.762
 4815SOL     OW15343   5.667   5.226   2.491
 4815SOL    HW115344   5.612   5.162   2.437
 4815SOL    HW215345   5.630   5.318   2.480
 4816SOL     OW15346   1.588   6.466   2.285
 4816SOL    HW115347   1.619   6.549   2.330
 4816SOL    HW215348   1.506   6.486   2.231
 4817SOL     OW15349   3.649   1.275   1.449
 4817SOL    HW115350   3.558   1.280   1.490
 4817SOL    HW215351   3.713   1.235   1.515
 4818SOL     OW15352   2.611   0.242   4.969
 4818SOL    HW115353   2.704   0.217   4.941
 4818SOL    HW215354   2.564   0.287   4.893
 4819SOL     OW15355   2.725   1.808   1.225
 4819SOL    HW115356   2.768   1.880   1.171
 4819SOL    HW215357   2.669   1.849   1.297
 4820SOL     OW15358   0.013   3.887   2.310
 4820SOL    HW115359   0.106   3.878   2.346
 4820SOL    HW215360   7.018   3.810   2.249
 4821SOL     OW15361   6.618   5.545   1.863
 4821SOL    HW115362   6.701   5.571   1.813
 4821SOL    HW215363   6.619   5.587   1.953
 4822SOL     OW15364   1.802   3.856   3.788
 4822SOL    HW115365   1.766   3.931   3.733
 4822SOL    HW215366   1.734   3.829   3.856
 4823SOL     OW15367   1.101   0.175   4.432
 4823SOL    HW115368   1.022   0.186   4.372
 4823SOL    HW215369   1.166   0.113   4.389
 4824SOL     OW15370   5.453   2.456   2.990
 4824SOL    HW115371   5.491   2.369   2.959
 4824SOL    HW215372   5.359   2.464   2.960
 4825SOL     OW15373   1.650   3.180   4.326
 4825SOL    HW115374   1.575   3.242   4.349
 4825SOL    HW215375   1.661   3.177   4.227
 4826SOL     OW15376   0.275   6.309   0.503
 4826SOL    HW115377   0.296   6.292   0.599
 4826SOL    HW215378   0.357   6.291   0.448
 4827SOL     OW15379   4.772   1.406   1.017
 4827SOL    HW115380   4.816   1.406   1.108
 4827SOL    HW215381   4.804   1.326   0.965
 4828SOL     OW15382   5.715   3.344   1.564
 4828SOL    HW115383   5.807   3.369   1.596
 4828SOL    HW215384   5.656   3.425   1.565
 4829SOL     OW15385   3.329   0.436   6.398
 4829SOL    HW115386   3.407   0.378   6.374
 4829SOL    HW215387   3.248   0.405   6.349
 4830SOL     OW15388   5.144   6.104   3.481
 4830SOL    HW115389   5.188   6.039   3.419
 4830SOL    HW215390   5.075   6.057   3.536
 4831SOL     OW15391   6.406   5.059   5.140
 4831SOL    HW115392   6.483   5.091   5.084
 4831SOL    HW215393   6.323   5.108   5.115
 4832SOL     OW15394   3.458   2.983   5.771
 4832SOL    HW115395   3.484   2.920   5.844
 4832SOL    HW215396   3.412   2.932   5.697
 4833SOL     OW15397   4.635   1.452   3.261
 4833SOL    HW115398   4.634   1.519   3.335
 4833SOL    HW215399   4.692   1.375   3.286
 4834SOL     OW15400   4.131   0.991   0.856
 4834SOL    HW115401   4.132   0.930   0.934
 4834SOL    HW215402   4.097   0.942   0.775
 4835SOL     OW15403   2.054   0.040   6.414
 4835SOL    HW115404   2.033   0.061   6.510
 4835SOL    HW215405   2.029   0.118   6.357
 4836SOL     OW15406   5.069   1.658   4.249
 4836SOL    HW115407   5.021   1.678   4.164
 4836SOL    HW215408   5.141   1.726   4.263
 4837SOL     OW15409   2.871   3.168   1.189
 4837SOL    HW115410   2.847   3.220   1.107
 4837SOL    HW215411   2.936   3.096   1.165
 4838SOL     OW15412   3.830   4.926   2.094
 4838SOL    HW115413   3.772   4.870   2.034
 4838SOL    HW215414   3.867   4.869   2.167
 4839SOL     OW15415   0.048   5.102   5.195
 4839SOL    HW115416   0.076   5.192   5.161
 4839SOL    HW215417   6.976   5.104   5.220
 4840SOL     OW15418   5.640   6.522   0.264
 4840SOL    HW115419   5.585   6.463   0.204
 4840SOL    HW215420   5.627   6.494   0.359
 4841SOL     OW15421   3.402   5.780   1.815
 4841SOL    HW115422   3.421   5.857   1.876
 4841SOL    HW215423   3.403   5.811   1.720
 4842SOL     OW15424   3.643   5.248   2.030
 4842SOL    HW115425   3.727   5.232   1.978
 4842SOL    HW215426   3.616   5.344   2.022
 4843SOL     OW15427   6.910   3.677   6.973
 4843SOL    HW115428   6.832   3.614   6.984
 4843SOL    HW215429   6.876   3.771   6.972
 4844SOL     OW15430   6.487   3.986   0.053
 4844SOL    HW115431   6.562   4.050   0.069
 4844SOL    HW215432   6.522   3.903   0.010
 4845SOL     OW15433   6.161   5.780   4.248
 4845SOL    HW115434   6.140   5.684   4.235
 4845SOL    HW215435   6.248   5.790   4.297
 4846SOL     OW15436   0.801   3.151   0.725
 4846SOL    HW115437   0.839   3.196   0.806
 4846SOL    HW215438   0.867   3.086   0.688
 4847SOL     OW15439   3.700   2.092   5.471
 4847SOL    HW115440   3.666   2.186   5.472
 4847SOL    HW215441   3.639   2.034   5.524
 4848SOL     OW15442   1.737   1.802   3.502
 4848SOL    HW115443   1.738   1.714   3.456
 4848SOL    HW215444   1.645   1.821   3.537
 4849SOL     OW15445   1.616   6.908   6.802
 4849SOL    HW115446   1.649   6.854   6.880
 4849SOL    HW215447   1.670   6.993   6.796
 4850SOL     OW15448   3.247   0.916   2.185
 4850SOL    HW115449   3.334   0.878   2.215
 4850SOL    HW215450   3.196   0.949   2.264
 4851SOL     OW15451   4.312   6.323   5.838
 4851SOL    HW115452   4.403   6.280   5.842
 4851SOL    HW215453   4.319   6.417   5.872
 4852SOL     OW15454   1.637   0.609   6.937
 4852SOL    HW115455   1.636   0.626   6.839
 4852SOL    HW215456   1.731   0.617   6.971
 4853SOL     OW15457   3.555   1.634   2.549
 4853SOL    HW115458   3.559   1.549   2.602
 4853SOL    HW215459   3.518   1.707   2.606
 4854SOL     OW15460   4.702   5.868   2.337
 4854SOL    HW115461   4.754   5.806   2.279
 4854SOL    HW215462   4.615   5.890   2.293
 4855SOL     OW15463   5.699   1.675   2.272
 4855SOL    HW115464   5.641   1.660   2.192
 4855SOL    HW215465   5.708   1.773   2.289
 4856SOL     OW15466   2.830   4.732   3.593
 4856SOL    HW115467   2.785   4.752   3.680
 4856SOL    HW215468   2.797   4.644   3.558
 4857SOL     OW15469   1.173   1.748   5.437
 4857SOL    HW115470   1.239   1.741   5.512
 4857SOL    HW215471   1.174   1.664   5.383
 4858SOL     OW15472   2.038   1.567   4.169
 4858SOL    HW115473   2.070   1.650   4.123
 4858SOL    HW215474   2.083   1.487   4.130
 4859SOL     OW15475   1.321   5.634   4.549
 4859SOL    HW115476   1.353   5.696   4.620
 4859SOL    HW215477   1.221   5.632   4.548
 4860SOL     OW15478   4.174   5.138   2.054
 4860SOL    HW115479   4.087   5.132   2.006
 4860SOL    HW215480   4.176   5.071   2.128
 4861SOL     OW15481   5.231   5.515   6.782
 4861SOL    HW115482   5.206   5.582   6.852
 4861SOL    HW215483   5.246   5.426   6.824
 4862SOL     OW15484   2.066   5.305   3.909
 4862SOL    HW115485   2.070   5.325   3.811
 4862SOL    HW215486   1.971   5.312   3.940
 4863SOL     OW15487   5.908   4.560   0.792
 4863SOL    HW115488   5.882   4.488   0.857
 4863SOL    HW215489   5.997   4.597   0.818
 4864SOL     OW15490   3.399   0.985   3.702
 4864SOL    HW115491   3.478   1.021   3.652
 4864SOL    HW215492   3.431   0.942   3.786
 4865SOL     OW15493   2.429   0.124   5.247
 4865SOL    HW115494   2.337   0.142   5.211
 4865SOL    HW215495   2.463   0.038   5.209
 4866SOL     OW15496   6.477   3.705   1.106
 4866SOL    HW115497   6.566   3.658   1.107
 4866SOL    HW215498   6.429   3.687   1.192
 4867SOL     OW15499   4.470   5.281   2.327
 4867SOL    HW115500   4.440   5.344   2.255
 4867SOL    HW215501   4.535   5.216   2.289
 4868SOL     OW15502   6.744   4.730   2.164
 4868SOL    HW115503   6.660   4.784   2.171
 4868SOL    HW215504   6.732   4.644   2.216
 4869SOL     OW15505   1.323   1.700   0.732
 4869SOL    HW115506   1.247   1.698   0.797
 4869SOL    HW215507   1.297   1.653   0.648
 4870SOL     OW15508   0.776   6.434   2.058
 4870SOL    HW115509   0.817   6.420   1.968
 4870SOL    HW215510   0.678   6.417   2.054
 4871SOL     OW15511   1.190   0.655   4.807
 4871SOL    HW115512   1.272   0.598   4.819
 4871SOL    HW215513   1.153   0.639   4.715
 4872SOL     OW15514   6.605   6.802   2.944
 4872SOL    HW115515   6.511   6.820   2.914
 4872SOL    HW215516   6.608   6.798   3.044
 4873SOL     OW15517   6.709   5.254   4.685
 4873SOL    HW115518   6.701   5.283   4.590
 4873SOL    HW215519   6.663   5.320   4.744
 4874SOL     OW15520   4.901   2.228   2.803
 4874SOL    HW115521   4.856   2.144   2.835
 4874SOL    HW215522   4.845   2.271   2.732
 4875SOL     OW15523   5.019   0.112   6.922
 4875SOL    HW115524   5.020   0.049   6.999
 4875SOL    HW215525   4.999   0.204   6.954
 4876SOL     OW15526   0.241   1.229   3.668
 4876SOL    HW115527   0.175   1.157   3.649
 4876SOL    HW215528   0.333   1.198   3.643
 4877SOL     OW15529   0.415   2.284   5.276
 4877SOL    HW115530   0.321   2.276   5.307
 4877SOL    HW215531   0.461   2.359   5.324
 4878SOL     OW15532   0.130   1.745   1.850
 4878SOL    HW115533   0.047   1.695   1.874
 4878SOL    HW215534   0.113   1.802   1.770
 4879SOL     OW15535   4.921   1.904   2.150
 4879SOL    HW115536   4.996   1.897   2.216
 4879SOL    HW215537   4.854   1.833   2.169
 4880SOL     OW15538   6.557   3.606   0.480
 4880SOL    HW115539   6.587   3.543   0.409
 4880SOL    HW215540   6.461   3.588   0.502
 4881SOL     OW15541   1.784   2.285   0.831
 4881SOL    HW115542   1.693   2.313   0.802
 4881SOL    HW215543   1.842   2.270   0.751
 4882SOL     OW15544   4.432   2.316   5.216
 4882SOL    HW115545   4.463   2.319   5.121
 4882SOL    HW215546   4.510   2.327   5.277
 4883SOL     OW15547   5.232   3.869   1.659
 4883SOL    HW115548   5.141   3.877   1.619
 4883SOL    HW215549   5.240   3.928   1.739
 4884SOL     OW15550   2.870   5.436   0.562
 4884SOL    HW115551   2.912   5.526   0.572
 4884SOL    HW215552   2.784   5.434   0.612
 4885SOL     OW15553   2.450   4.268   1.861
 4885SOL    HW115554   2.410   4.260   1.952
 4885SOL    HW215555   2.399   4.210   1.797
 4886SOL     OW15556   2.919   6.776   1.487
 4886SOL    HW115557   2.871   6.715   1.550
 4886SOL    HW215558   2.852   6.831   1.436
 4887SOL     OW15559   1.032   6.433   1.608
 4887SOL    HW115560   1.026   6.429   1.508
 4887SOL    HW215561   1.055   6.526   1.636
 4888SOL     OW15562   2.544   6.770   2.878
 4888SOL    HW115563   2.510   6.718   2.800
 4888SOL    HW215564   2.474   6.835   2.909
 4889SOL     OW15565   6.662   1.962   4.876
 4889SOL    HW115566   6.602   2.041   4.865
 4889SOL    HW215567   6.688   1.953   4.972
 4890SOL     OW15568   0.930   2.145   5.471
 4890SOL    HW115569   1.006   2.084   5.447
 4890SOL    HW215570   0.850   2.090   5.497
 4891SOL     OW15571   2.414   5.105   6.553
 4891SOL    HW115572   2.369   5.181   6.507
 4891SOL    HW215573   2.384   5.102   6.649
 4892SOL     OW15574   5.410   6.270   2.217
 4892SOL    HW115575   5.357   6.336   2.269
 4892SOL    HW215576   5.468   6.318   2.151
 4893SOL     OW15577   0.082   3.275   2.158
 4893SOL    HW115578   0.012   3.296   2.090
 4893SOL    HW215579   0.151   3.215   2.117
 4894SOL     OW15580   3.165   7.013   2.410
 4894SOL    HW115581   3.221   6.934   2.434
 4894SOL    HW215582   3.081   7.012   2.465
 4895SOL     OW15583   0.763   5.005   3.441
 4895SOL    HW115584   0.792   5.086   3.493
 4895SOL    HW215585   0.673   4.975   3.475
 4896SOL     OW15586   2.463   4.751   2.766
 4896SOL    HW115587   2.371   4.783   2.787
 4896SOL    HW215588   2.481   4.665   2.814
 4897SOL     OW15589   1.589   6.158   5.285
 4897SOL    HW115590   1.644   6.202   5.214
 4897SOL    HW215591   1.627   6.182   5.375
 4898SOL     OW15592   4.043   1.113   4.888
 4898SOL    HW115593   4.069   1.080   4.798
 4898SOL    HW215594   4.029   1.035   4.949
 4899SOL     OW15595   5.674   5.317   2.770
 4899SOL    HW115596   5.674   5.247   2.699
 4899SOL    HW215597   5.595   5.303   2.831
 4900SOL     OW15598   4.551   6.193   5.835
 4900SOL    HW115599   4.550   6.236   5.744
 4900SOL    HW215600   4.597   6.104   5.828
 4901SOL     OW15601   1.810   1.907   4.967
 4901SOL    HW115602   1.851   1.892   5.057
 4901SOL    HW215603   1.769   1.822   4.934
 4902SOL     OW15604   1.878   0.636   6.374
 4902SOL    HW115605   1.796   0.610   6.323
 4902SOL    HW215606   1.855   0.706   6.441
 4903SOL     OW15607   4.325   5.482   1.109
 4903SOL    HW115608   4.343   5.445   1.018
 4903SOL    HW215609   4.258   5.556   1.102
 4904SOL     OW15610   2.164   0.619   5.253
 4904SOL    HW115611   2.168   0.522   5.227
 4904SOL    HW215612   2.256   0.649   5.280
 4905SOL     OW15613   2.482   0.189   3.266
 4905SOL    HW115614   2.401   0.226   3.220
 4905SOL    HW215615   2.453   0.125   3.338
 4906SOL     OW15616   4.772   2.883   5.224
 4906SOL    HW115617   4.827   2.944   5.165
 4906SOL    HW215618   4.828   2.852   5.300
 4907SOL     OW15619   4.949   1.599   0.760
 4907SOL    HW115620   4.872   1.537   0.773
 4907SOL    HW215621   4.959   1.620   0.663
 4908SOL     OW15622   4.794   0.308   0.711
 4908SOL    HW115623   4.702   0.323   0.745
 4908SOL    HW215624   4.852   0.272   0.784
 4909SOL     OW15625   6.793   4.382   4.039
 4909SOL    HW115626   6.801   4.481   4.045
 4909SOL    HW215627   6.746   4.347   4.119
 4910SOL     OW15628   5.916   1.046   4.146
 4910SOL    HW115629   5.990   0.982   4.165
 4910SOL    HW215630   5.834   1.018   4.196
 4911SOL     OW15631   1.750   3.042   3.065
 4911SOL    HW115632   1.777   3.019   3.159
 4911SOL    HW215633   1.666   3.095   3.067
 4912SOL     OW15634   5.267   2.301   5.378
 4912SOL    HW115635   5.253   2.202   5.379
 4912SOL    HW215636   5.193   2.344   5.327
 4913SOL     OW15637   5.591   3.280   5.994
 4913SOL    HW115638   5.618   3.370   6.026
 4913SOL    HW215639   5.495   3.263   6.020
 4914SOL     OW15640   4.463   0.280   5.710
 4914SOL    HW115641   4.410   0.292   5.626
 4914SOL    HW215642   4.459   0.364   5.764
 4915SOL     OW15643   2.961   6.103   5.446
 4915SOL    HW115644   2.959   6.159   5.528
 4915SOL    HW215645   2.991   6.010   5.469
 4916SOL     OW15646   0.053   0.628   4.141
 4916SOL    HW115647   0.123   0.621   4.070
 4916SOL    HW215648   0.003   0.713   4.130
 4917SOL     OW15649   4.117   5.657   1.138
 4917SOL    HW115650   4.033   5.604   1.150
 4917SOL    HW215651   4.125   5.723   1.213
 4918SOL     OW15652   6.224   5.784   2.073
 4918SOL    HW115653   6.135   5.764   2.032
 4918SOL    HW215654   6.280   5.835   2.007
 4919SOL     OW15655   3.402   2.892   2.197
 4919SOL    HW115656   3.413   2.868   2.294
 4919SOL    HW215657   3.311   2.930   2.182
 4920SOL     OW15658   5.385   0.163   5.105
 4920SOL    HW115659   5.424   0.253   5.125
 4920SOL    HW215660   5.446   0.115   5.042
 4921SOL     OW15661   1.320   5.298   0.259
 4921SOL    HW115662   1.403   5.286   0.315
 4921SOL    HW215663   1.347   5.313   0.164
 4922SOL     OW15664   3.385   2.191   5.281
 4922SOL    HW115665   3.411   2.138   5.200
 4922SOL    HW215666   3.323   2.265   5.255
 4923SOL     OW15667   2.724   1.954   2.914
 4923SOL    HW115668   2.771   2.031   2.958
 4923SOL    HW215669   2.754   1.947   2.819
 4924SOL     OW15670   2.347   1.848   5.450
 4924SOL    HW115671   2.394   1.891   5.372
 4924SOL    HW215672   2.384   1.884   5.535
 4925SOL     OW15673   4.399   0.297   2.677
 4925SOL    HW115674   4.467   0.299   2.750
 4925SOL    HW215675   4.410   0.213   2.624
 4926SOL     OW15676   5.522   1.938   1.505
 4926SOL    HW115677   5.454   1.939   1.433
 4926SOL    HW215678   5.478   1.920   1.593
 4927SOL     OW15679   3.102   2.948   6.177
 4927SOL    HW115680   3.150   3.034   6.160
 4927SOL    HW215681   3.008   2.966   6.202
 4928SOL     OW15682   1.104   1.104   0.168
 4928SOL    HW115683   1.131   1.026   0.112
 4928SOL    HW215684   1.151   1.186   0.135
 4929SOL     OW15685   6.916   6.930   3.483
 4929SOL    HW115686   7.000   6.943   3.535
 4929SOL    HW215687   6.866   6.851   3.517
 4930SOL     OW15688   6.433   6.810   2.129
 4930SOL    HW115689   6.482   6.849   2.206
 4930SOL    HW215690   6.336   6.805   2.150
 4931SOL     OW15691   6.072   5.993   1.752
 4931SOL    HW115692   6.103   6.088   1.751
 4931SOL    HW215693   6.102   5.947   1.669
 4932SOL     OW15694   3.597   3.732   3.615
 4932SOL    HW115695   3.589   3.669   3.537
 4932SOL    HW215696   3.509   3.736   3.663
 4933SOL     OW15697   2.457   6.451   4.077
 4933SOL    HW115698   2.393   6.467   4.002
 4933SOL    HW215699   2.459   6.354   4.100
 4934SOL     OW15700   3.524   6.011   3.249
 4934SOL    HW115701   3.487   5.956   3.175
 4934SOL    HW215702   3.455   6.078   3.279
 4935SOL     OW15703   1.582   2.284   7.008
 4935SOL    HW115704   1.558   2.211   0.046
 4935SOL    HW215705   1.625   2.245   6.926
 4936SOL     OW15706   2.297   4.619   0.824
 4936SOL    HW115707   2.332   4.669   0.744
 4936SOL    HW215708   2.201   4.643   0.838
 4937SOL     OW15709   5.419   3.078   5.032
 4937SOL    HW115710   5.326   3.059   5.062
 4937SOL    HW215711   5.443   3.016   4.957
 4938SOL     OW15712   3.220   5.463   5.442
 4938SOL    HW115713   3.298   5.456   5.380
 4938SOL    HW215714   3.252   5.458   5.537
 4939SOL     OW15715   4.967   2.482   5.013
 4939SOL    HW115716   5.009   2.403   5.058
 4939SOL    HW215717   4.876   2.497   5.050
 4940SOL     OW15718   1.567   0.745   4.647
 4940SOL    HW115719   1.478   0.758   4.604
 4940SOL    HW215720   1.573   0.803   4.729
 4941SOL     OW15721   3.971   1.773   6.914
 4941SOL    HW115722   4.068   1.783   6.893
 4941SOL    HW215723   3.935   1.861   6.945
 4942SOL     OW15724   5.050   3.550   5.104
 4942SOL    HW115725   5.003   3.497   5.174
 4942SOL    HW215726   4.982   3.591   5.043
 4943SOL     OW15727   4.626   2.208   0.072
 4943SOL    HW115728   4.629   2.150   0.153
 4943SOL    HW215729   4.554   2.175   0.010
 4944SOL     OW15730   2.197   4.093   3.007
 4944SOL    HW115731   2.259   4.164   2.975
 4944SOL    HW215732   2.106   4.131   3.021
 4945SOL     OW15733   1.219   0.035   3.877
 4945SOL    HW115734   1.250   0.130   3.877
 4945SOL    HW215735   1.152   0.021   3.950
 4946SOL     OW15736   0.888   2.741   1.479
 4946SOL    HW115737   0.847   2.667   1.426
 4946SOL    HW215738   0.817   2.804   1.509
 4947SOL     OW15739   0.859   6.959   0.606
 4947SOL    HW115740   0.840   6.871   0.651
 4947SOL    HW215741   0.874   0.004   0.676
 4948SOL     OW15742   2.601   0.567   2.455
 4948SOL    HW115743   2.536   0.625   2.406
 4948SOL    HW215744   2.600   0.591   2.552
 4949SOL     OW15745   4.465   0.658   5.698
 4949SOL    HW115746   4.372   0.669   5.662
 4949SOL    HW215747   4.462   0.604   5.782
 4950SOL     OW15748   3.020   6.299   4.257
 4950SOL    HW115749   3.081   6.374   4.230
 4950SOL    HW215750   3.069   6.212   4.246
 4951SOL     OW15751   4.638   1.665   4.432
 4951SOL    HW115752   4.630   1.572   4.466
 4951SOL    HW215753   4.669   1.664   4.337
 4952SOL     OW15754   0.154   6.087   4.569
 4952SOL    HW115755   0.126   5.998   4.533
 4952SOL    HW215756   0.248   6.081   4.604
 4953SOL     OW15757   2.392   5.263   1.155
 4953SOL    HW115758   2.431   5.208   1.080
 4953SOL    HW215759   2.303   5.225   1.181
 4954SOL     OW15760   4.888   4.762   0.249
 4954SOL    HW115761   4.936   4.795   0.331
 4954SOL    HW215762   4.829   4.686   0.274
 4955SOL     OW15763   1.665   6.195   0.084
 4955SOL    HW115764   1.694   6.114   0.136
 4955SOL    HW215765   1.647   6.168   7.014
 4956SOL     OW15766   4.129   6.940   6.003
 4956SOL    HW115767   4.172   6.963   5.916
 4956SOL    HW215768   4.083   6.852   5.996
 4957SOL     OW15769   6.890   1.213   4.304
 4957SOL    HW115770   6.932   1.129   4.336
 4957SOL    HW215771   6.951   1.258   4.238
 4958SOL     OW15772   0.753   6.228   5.959
 4958SOL    HW115773   0.770   6.324   5.982
 4958SOL    HW215774   0.783   6.211   5.866
 4959SOL     OW15775   1.185   0.498   6.747
 4959SOL    HW115776   1.093   0.527   6.772
 4959SOL    HW215777   1.234   0.470   6.830
 4960SOL     OW15778   3.908   6.856   4.386
 4960SOL    HW115779   3.823   6.831   4.340
 4960SOL    HW215780   3.913   6.956   4.393
 4961SOL     OW15781   5.892   0.514   4.555
 4961SOL    HW115782   5.927   0.441   4.497
 4961SOL    HW215783   5.904   0.602   4.509
 4962SOL     OW15784   5.765   2.833   1.973
 4962SOL    HW115785   5.818   2.878   1.901
 4962SOL    HW215786   5.744   2.900   2.045
 4963SOL     OW15787   0.447   5.534   1.497
 4963SOL    HW115788   0.484   5.557   1.587
 4963SOL    HW215789   0.417   5.439   1.496
 4964SOL     OW15790   3.512   5.726   3.513
 4964SOL    HW115791   3.579   5.780   3.462
 4964SOL    HW215792   3.532   5.629   3.502
 4965SOL     OW15793   0.346   6.941   4.872
 4965SOL    HW115794   0.283   6.894   4.811
 4965SOL    HW215795   0.346   0.014   4.851
 4966SOL     OW15796   2.966   6.009   4.720
 4966SOL    HW115797   2.981   6.031   4.816
 4966SOL    HW215798   2.868   5.995   4.704
 4967SOL     OW15799   3.980   2.578   6.300
 4967SOL    HW115800   3.898   2.633   6.311
 4967SOL    HW215801   4.016   2.552   6.390
 4968SOL     OW15802   4.870   3.079   3.554
 4968SOL    HW115803   4.902   3.054   3.463
 4968SOL    HW215804   4.940   3.058   3.622
 4969SOL     OW15805   1.613   0.920   1.695
 4969SOL    HW115806   1.536   0.866   1.661
 4969SOL    HW215807   1.595   1.017   1.680
 4970SOL     OW15808   1.103   2.203   4.843
 4970SOL    HW115809   1.160   2.268   4.894
 4970SOL    HW215810   1.153   2.118   4.831
 4971SOL     OW15811   6.322   6.062   3.232
 4971SOL    HW115812   6.270   6.080   3.315
 4971SOL    HW215813   6.353   6.149   3.192
 4972SOL     OW15814   2.330   3.770   0.827
 4972SOL    HW115815   2.316   3.811   0.918
 4972SOL    HW215816   2.396   3.696   0.834
 4973SOL     OW15817   5.909   6.288   2.073
 4973SOL    HW115818   6.007   6.269   2.069
 4973SOL    HW215819   5.859   6.202   2.085
 4974SOL     OW15820   5.450   5.992   2.638
 4974SOL    HW115821   5.419   5.948   2.554
 4974SOL    HW215822   5.530   5.943   2.674
 4975SOL     OW15823   5.867   5.763   0.961
 4975SOL    HW115824   5.802   5.696   0.926
 4975SOL    HW215825   5.956   5.719   0.973
 4976SOL     OW15826   3.299   0.442   4.774
 4976SOL    HW115827   3.246   0.389   4.840
 4976SOL    HW215828   3.240   0.473   4.700
 4977SOL     OW15829   4.531   3.750   0.723
 4977SOL    HW115830   4.542   3.710   0.814
 4977SOL    HW215831   4.434   3.769   0.707
 4978SOL     OW15832   5.957   4.144   5.725
 4978SOL    HW115833   5.864   4.122   5.754
 4978SOL    HW215834   5.956   4.174   5.629
 4979SOL     OW15835   0.478   1.642   4.913
 4979SOL    HW115836   0.445   1.586   4.837
 4979SOL    HW215837   0.566   1.683   4.889
 4980SOL     OW15838   3.745   5.475   2.581
 4980SOL    HW115839   3.767   5.558   2.631
 4980SOL    HW215840   3.668   5.429   2.626
 4981SOL     OW15841   4.489   0.083   5.990
 4981SOL    HW115842   4.454   0.172   6.021
 4981SOL    HW215843   4.584   0.092   5.962
 4982SOL     OW15844   1.926   1.857   6.606
 4982SOL    HW115845   1.900   1.852   6.702
 4982SOL    HW215846   1.847   1.835   6.549
 4983SOL     OW15847   5.247   2.753   3.991
 4983SOL    HW115848   5.193   2.674   4.018
 4983SOL    HW215849   5.278   2.801   4.073
 4984SOL     OW15850   5.149   3.708   4.608
 4984SOL    HW115851   5.180   3.614   4.618
 4984SOL    HW215852   5.056   3.709   4.572
 4985SOL     OW15853   5.304   5.266   3.603
 4985SOL    HW115854   5.268   5.360   3.604
 4985SOL    HW215855   5.353   5.250   3.517
 4986SOL     OW15856   6.045   4.343   2.502
 4986SOL    HW115857   5.945   4.341   2.503
 4986SOL    HW215858   6.080   4.364   2.593
 4987SOL     OW15859   0.318   3.192   1.147
 4987SOL    HW115860   0.350   3.215   1.239
 4987SOL    HW215861   0.350   3.261   1.083
 4988SOL     OW15862   0.114   1.798   4.194
 4988SOL    HW115863   0.094   1.777   4.098
 4988SOL    HW215864   0.115   1.897   4.206
 4989SOL     OW15865   6.010   1.471   1.045
 4989SOL    HW115866   6.068   1.547   1.073
 4989SOL    HW215867   5.971   1.427   1.127
 4990SOL     OW15868   0.872   2.632   5.363
 4990SOL    HW115869   0.851   2.694   5.287
 4990SOL    HW215870   0.882   2.684   5.447
 4991SOL     OW15871   0.597   3.485   3.914
 4991SOL    HW115872   0.584   3.430   3.831
 4991SOL    HW215873   0.657   3.562   3.893
 4992SOL     OW15874   3.368   0.687   4.937
 4992SOL    HW115875   3.367   0.591   4.909
 4992SOL    HW215876   3.462   0.721   4.934
 4993SOL     OW15877   3.077   5.704   3.649
 4993SOL    HW115878   2.988   5.662   3.627
 4993SOL    HW215879   3.140   5.633   3.679
 4994SOL     OW15880   0.993   6.551   2.540
 4994SOL    HW115881   0.915   6.609   2.516
 4994SOL    HW215882   1.039   6.520   2.457
 4995SOL     OW15883   6.743   3.181   6.358
 4995SOL    HW115884   6.757   3.275   6.324
 4995SOL    HW215885   6.801   3.165   6.437
 4996SOL     OW15886   0.570   1.809   1.607
 4996SOL    HW115887   0.508   1.823   1.684
 4996SOL    HW215888   0.614   1.720   1.615
 4997SOL     OW15889   6.567   2.101   3.014
 4997SOL    HW115890   6.497   2.165   2.982
 4997SOL    HW215891   6.629   2.148   3.076
 4998SOL     OW15892   1.763   4.765   5.074
 4998SOL    HW115893   1.861   4.743   5.063
 4998SOL    HW215894   1.747   4.803   5.165
 4999SOL     OW15895   4.842   5.219   1.019
 4999SOL    HW115896   4.893   5.265   1.092
 4999SOL    HW215897   4.862   5.263   0.932
 5000SOL     OW15898   0.878   0.326   4.943
 5000SOL    HW115899   0.818   0.395   4.900
 5000SOL    HW215900   0.971   0.361   4.946
 5001SOL     OW15901   2.235   4.008   6.127
 5001SOL    HW115902   2.164   4.002   6.198
 5001SOL    HW215903   2.198   4.057   6.048
 5002SOL     OW15904   2.219   1.878   2.661
 5002SOL    HW115905   2.153   1.828   2.605
 5002SOL    HW215906   2.303   1.824   2.670
 5003SOL     OW15907   0.185   6.607   2.856
 5003SOL    HW115908   0.254   6.587   2.786
 5003SOL    HW215909   0.210   6.562   2.942
 5004SOL     OW15910   2.344   5.679   6.277
 5004SOL    HW115911   2.392   5.659   6.363
 5004SOL    HW215912   2.374   5.616   6.206
 5005SOL     OW15913   3.694   2.737   0.555
 5005SOL    HW115914   3.639   2.812   0.518
 5005SOL    HW215915   3.733   2.684   0.479
 5006SOL     OW15916   5.373   6.783   5.460
 5006SOL    HW115917   5.374   6.711   5.390
 5006SOL    HW215918   5.462   6.828   5.463
 5007SOL     OW15919   4.222   1.054   5.956
 5007SOL    HW115920   4.149   1.105   6.001
 5007SOL    HW215921   4.194   1.028   5.863
 5008SOL     OW15922   6.341   1.176   3.211
 5008SOL    HW115923   6.419   1.141   3.159
 5008SOL    HW215924   6.366   1.263   3.255
 5009SOL     OW15925   0.936   5.829   1.561
 5009SOL    HW115926   0.958   5.904   1.623
 5009SOL    HW215927   0.983   5.746   1.591
 5010SOL     OW15928   3.859   4.023   4.153
 5010SOL    HW115929   3.945   3.983   4.186
 5010SOL    HW215930   3.850   4.007   4.055
 5011SOL     OW15931   1.612   3.137   1.975
 5011SOL    HW115932   1.650   3.053   1.937
 5011SOL    HW215933   1.682   3.183   2.029
 5012SOL     OW15934   6.803   3.025   5.940
 5012SOL    HW115935   6.719   3.076   5.921
 5012SOL    HW215936   6.879   3.068   5.892
 5013SOL     OW15937   4.214   0.957   6.504
 5013SOL    HW115938   4.307   0.979   6.475
 5013SOL    HW215939   4.203   0.857   6.509
 5014SOL     OW15940   6.034   5.692   0.548
 5014SOL    HW115941   5.952   5.719   0.498
 5014SOL    HW215942   6.067   5.770   0.602
 5015SOL     OW15943   4.312   2.002   3.647
 5015SOL    HW115944   4.391   1.970   3.699
 5015SOL    HW215945   4.342   2.065   3.575
 5016SOL     OW15946   1.664   0.492   2.687
 5016SOL    HW115947   1.647   0.418   2.621
 5016SOL    HW215948   1.591   0.492   2.755
 5017SOL     OW15949   2.663   2.003   0.531
 5017SOL    HW115950   2.675   1.997   0.630
 5017SOL    HW215951   2.565   2.010   0.510
 5018SOL     OW15952   0.038   4.297   2.466
 5018SOL    HW115953   0.069   4.209   2.502
 5018SOL    HW215954   7.008   4.345   2.535
 5019SOL     OW15955   2.698   3.895   0.525
 5019SOL    HW115956   2.609   3.885   0.480
 5019SOL    HW215957   2.771   3.866   0.462
 5020SOL     OW15958   5.353   5.482   6.089
 5020SOL    HW115959   5.445   5.442   6.084
 5020SOL    HW215960   5.342   5.528   6.177
 5021SOL     OW15961   1.750   4.936   5.614
 5021SOL    HW115962   1.761   4.864   5.682
 5021SOL    HW215963   1.840   4.959   5.575
 5022SOL     OW15964   1.876   6.211   0.430
 5022SOL    HW115965   1.941   6.274   0.474
 5022SOL    HW215966   1.822   6.262   0.363
 5023SOL     OW15967   6.244   3.230   0.735
 5023SOL    HW115968   6.213   3.306   0.678
 5023SOL    HW215969   6.191   3.149   0.713
 5024SOL     OW15970   6.933   4.114   3.621
 5024SOL    HW115971   6.977   4.135   3.534
 5024SOL    HW215972   6.926   4.015   3.633
 5025SOL     OW15973   4.937   1.270   2.927
 5025SOL    HW115974   5.013   1.270   2.992
 5025SOL    HW215975   4.894   1.180   2.926
 5026SOL     OW15976   5.970   5.468   4.954
 5026SOL    HW115977   5.998   5.474   5.050
 5026SOL    HW215978   5.998   5.380   4.916
 5027SOL     OW15979   0.622   6.534   2.967
 5027SOL    HW115980   0.615   6.435   2.959
 5027SOL    HW215981   0.715   6.563   2.942
 5028SOL     OW15982   0.558   6.243   1.794
 5028SOL    HW115983   0.630   6.187   1.754
 5028SOL    HW215984   0.596   6.298   1.869
 5029SOL     OW15985   6.582   2.687   1.821
 5029SOL    HW115986   6.626   2.692   1.910
 5029SOL    HW215987   6.638   2.631   1.759
 5030SOL     OW15988   6.562   0.263   6.733
 5030SOL    HW115989   6.606   0.254   6.644
 5030SOL    HW215990   6.466   0.236   6.726
 5031SOL     OW15991   5.923   1.307   4.083
 5031SOL    HW115992   5.846   1.356   4.125
 5031SOL    HW215993   5.911   1.209   4.096
 5032SOL     OW15994   1.676   5.223   0.616
 5032SOL    HW115995   1.732   5.238   0.698
 5032SOL    HW215996   1.644   5.128   0.614
 5033SOL     OW15997   2.892   4.512   5.607
 5033SOL    HW115998   2.892   4.429   5.662
 5033SOL    HW215999   2.849   4.494   5.519
 5034SOL     OW16000   6.470   2.226   2.425
 5034SOL    HW116001   6.463   2.231   2.524
 5034SOL    HW216002   6.442   2.314   2.385
 5035SOL     OW16003   4.339   4.983   0.727
 5035SOL    HW116004   4.392   4.962   0.809
 5035SOL    HW216005   4.300   5.075   0.735
 5036SOL     OW16006   1.140   6.253   0.214
 5036SOL    HW116007   1.123   6.352   0.218
 5036SOL    HW216008   1.082   6.207   0.281
 5037SOL     OW16009   4.157   1.550   3.448
 5037SOL    HW116010   4.225   1.520   3.381
 5037SOL    HW216011   4.198   1.619   3.508
 5038SOL     OW16012   1.251   6.130   5.647
 5038SOL    HW116013   1.230   6.190   5.724
 5038SOL    HW216014   1.335   6.161   5.602
 5039SOL     OW16015   2.339   2.895   5.370
 5039SOL    HW116016   2.347   2.917   5.467
 5039SOL    HW216017   2.393   2.960   5.317
 5040SOL     OW16018   2.814   3.642   6.725
 5040SOL    HW116019   2.782   3.697   6.802
 5040SOL    HW216020   2.737   3.618   6.667
 5041SOL     OW16021   1.001   3.468   1.540
 5041SOL    HW116022   0.908   3.504   1.551
 5041SOL    HW216023   1.054   3.529   1.481
 5042SOL     OW16024   5.963   3.891   6.726
 5042SOL    HW116025   5.918   3.940   6.652
 5042SOL    HW216026   5.991   3.800   6.694
 5043SOL     OW16027   3.606   1.107   4.076
 5043SOL    HW116028   3.557   1.186   4.040
 5043SOL    HW216029   3.690   1.093   4.023
 5044SOL     OW16030   6.182   5.916   3.666
 5044SOL    HW116031   6.119   5.971   3.610
 5044SOL    HW216032   6.129   5.860   3.730
 5045SOL     OW16033   6.046   3.525   0.332
 5045SOL    HW116034   6.000   3.581   0.262
 5045SOL    HW216035   6.008   3.546   0.422
 5046SOL     OW16036   3.668   2.920   5.002
 5046SOL    HW116037   3.750   2.971   5.027
 5046SOL    HW216038   3.598   2.934   5.072
 5047SOL     OW16039   5.937   0.675   2.625
 5047SOL    HW116040   5.909   0.627   2.708
 5047SOL    HW216041   6.033   0.702   2.633
 5048SOL     OW16042   6.849   2.253   2.085
 5048SOL    HW116043   6.824   2.296   2.171
 5048SOL    HW216044   6.830   2.155   2.090
 5049SOL     OW16045   0.942   1.707   1.994
 5049SOL    HW116046   1.042   1.703   1.998
 5049SOL    HW216047   0.913   1.792   1.949
 5050SOL     OW16048   0.444   2.278   1.796
 5050SOL    HW116049   0.450   2.216   1.718
 5050SOL    HW216050   0.349   2.303   1.813
 5051SOL     OW16051   2.749   4.004   1.129
 5051SOL    HW116052   2.829   3.948   1.150
 5051SOL    HW216053   2.738   4.012   1.030
 5052SOL     OW16054   4.201   4.848   0.971
 5052SOL    HW116055   4.134   4.800   0.915
 5052SOL    HW216056   4.239   4.785   1.039
 5053SOL     OW16057   2.353   4.100   1.662
 5053SOL    HW116058   2.302   4.178   1.626
 5053SOL    HW216059   2.291   4.022   1.674
 5054SOL     OW16060   3.464   6.152   4.989
 5054SOL    HW116061   3.533   6.140   4.917
 5054SOL    HW216062   3.380   6.103   4.964
 5055SOL     OW16063   0.829   1.971   4.687
 5055SOL    HW116064   0.895   1.915   4.638
 5055SOL    HW216065   0.789   2.039   4.625
 5056SOL     OW16066   0.211   3.742   6.009
 5056SOL    HW116067   0.310   3.757   6.005
 5056SOL    HW216068   0.189   3.656   5.963
 5057SOL     OW16069   0.999   5.867   3.532
 5057SOL    HW116070   0.919   5.885   3.476
 5057SOL    HW216071   0.971   5.831   3.621
 5058SOL     OW16072   4.089   4.236   7.002
 5058SOL    HW116073   4.178   4.271   0.009
 5058SOL    HW216074   4.023   4.241   0.052
 5059SOL     OW16075   3.628   1.948   4.984
 5059SOL    HW116076   3.685   1.971   5.063
 5059SOL    HW216077   3.540   1.996   4.991
 5060SOL     OW16078   0.195   3.824   5.007
 5060SOL    HW116079   0.165   3.864   4.921
 5060SOL    HW216080   0.281   3.866   5.035
 5061SOL     OW16081   3.482   3.777   4.353
 5061SOL    HW116082   3.574   3.812   4.371
 5061SOL    HW216083   3.469   3.690   4.401
 5062SOL     OW16084   4.680   1.056   2.786
 5062SOL    HW116085   4.754   1.010   2.835
 5062SOL    HW216086   4.673   1.017   2.694
 5063SOL     OW16087   1.511   6.164   2.459
 5063SOL    HW116088   1.531   6.070   2.487
 5063SOL    HW216089   1.598   6.212   2.442
 5064SOL     OW16090   4.408   5.354   0.854
 5064SOL    HW116091   4.483   5.327   0.914
 5064SOL    HW216092   4.445   5.396   0.771
 5065SOL     OW16093   2.194   0.014   3.099
 5065SOL    HW116094   2.113   7.000   3.055
 5065SOL    HW216095   2.183   0.010   3.198
 5066SOL     OW16096   2.001   4.849   1.943
 5066SOL    HW116097   1.915   4.800   1.932
 5066SOL    HW216098   2.033   4.841   2.037
 5067SOL     OW16099   4.023   2.135   1.578
 5067SOL    HW116100   4.026   2.145   1.478
 5067SOL    HW216101   3.998   2.222   1.619
 5068SOL     OW16102   4.036   5.657   0.868
 5068SOL    HW116103   4.099   5.650   0.791
 5068SOL    HW216104   4.084   5.695   0.947
 5069SOL     OW16105   2.921   4.082   6.578
 5069SOL    HW116106   2.953   4.034   6.496
 5069SOL    HW216107   2.986   4.068   6.652
 5070SOL     OW16108   5.707   3.345   4.178
 5070SOL    HW116109   5.737   3.393   4.261
 5070SOL    HW216110   5.609   3.328   4.184
 5071SOL     OW16111   4.070   1.178   3.562
 5071SOL    HW116112   4.033   1.203   3.472
 5071SOL    HW216113   4.098   1.260   3.611
 5072SOL     OW16114   1.058   0.855   1.062
 5072SOL    HW116115   0.975   0.908   1.076
 5072SOL    HW216116   1.133   0.916   1.036
 5073SOL     OW16117   2.632   6.497   2.604
 5073SOL    HW116118   2.580   6.412   2.609
 5073SOL    HW216119   2.724   6.478   2.571
 5074SOL     OW16120   3.512   1.962   1.553
 5074SOL    HW116121   3.583   2.031   1.570
 5074SOL    HW216122   3.550   1.871   1.568
 5075SOL     OW16123   1.476   2.752   6.878
 5075SOL    HW116124   1.532   2.773   6.958
 5075SOL    HW216125   1.498   2.660   6.845
 5076SOL     OW16126   5.246   1.242   0.235
 5076SOL    HW116127   5.307   1.298   0.291
 5076SOL    HW216128   5.293   1.158   0.208
 5077SOL     OW16129   1.401   4.040   4.622
 5077SOL    HW116130   1.357   3.961   4.579
 5077SOL    HW216131   1.469   4.079   4.559
 5078SOL     OW16132   0.501   1.168   3.565
 5078SOL    HW116133   0.540   1.088   3.613
 5078SOL    HW216134   0.557   1.248   3.583
 5079SOL     OW16135   1.911   2.397   6.013
 5079SOL    HW116136   1.934   2.396   5.915
 5079SOL    HW216137   1.924   2.305   6.051
 5080SOL     OW16138   5.851   5.386   5.797
 5080SOL    HW116139   5.819   5.359   5.888
 5080SOL    HW216140   5.886   5.305   5.749
 5081SOL     OW16141   3.708   6.151   5.109
 5081SOL    HW116142   3.626   6.207   5.102
 5081SOL    HW216143   3.788   6.203   5.079
 5082SOL     OW16144   4.829   6.499   0.710
 5082SOL    HW116145   4.781   6.458   0.632
 5082SOL    HW216146   4.898   6.435   0.743
 5083SOL     OW16147   2.761   0.925   2.465
 5083SOL    HW116148   2.741   0.843   2.410
 5083SOL    HW216149   2.824   0.900   2.539
 5084SOL     OW16150   0.755   5.327   5.289
 5084SOL    HW116151   0.850   5.354   5.301
 5084SOL    HW216152   0.697   5.408   5.288
 5085SOL     OW16153   1.390   3.645   5.794
 5085SOL    HW116154   1.307   3.658   5.740
 5085SOL    HW216155   1.453   3.721   5.778
 5086SOL     OW16156   1.216   4.665   3.060
 5086SOL    HW116157   1.190   4.606   2.984
 5086SOL    HW216158   1.304   4.709   3.040
 5087SOL     OW16159   6.771   5.358   2.239
 5087SOL    HW116160   6.683   5.310   2.251
 5087SOL    HW216161   6.757   5.456   2.245
 5088SOL     OW16162   4.427   6.066   2.297
 5088SOL    HW116163   4.526   6.053   2.293
 5088SOL    HW216164   4.403   6.106   2.386
 5089SOL     OW16165   5.363   3.876   4.694
 5089SOL    HW116166   5.392   3.937   4.620
 5089SOL    HW216167   5.273   3.838   4.673
 5090SOL     OW16168   1.636   6.854   3.687
 5090SOL    HW116169   1.536   6.861   3.695
 5090SOL    HW216170   1.668   6.773   3.736
 5091SOL     OW16171   6.812   0.211   0.464
 5091SOL    HW116172   6.769   0.294   0.429
 5091SOL    HW216173   6.899   0.234   0.507
 5092SOL     OW16174   3.752   3.791   4.344
 5092SOL    HW116175   3.797   3.847   4.274
 5092SOL    HW216176   3.792   3.812   4.433
 5093SOL     OW16177   2.289   1.423   2.425
 5093SOL    HW116178   2.313   1.369   2.344
 5093SOL    HW216179   2.324   1.378   2.507
 5094SOL     OW16180   2.489   5.390   6.793
 5094SOL    HW116181   2.582   5.353   6.799
 5094SOL    HW216182   2.453   5.404   6.885
 5095SOL     OW16183   0.545   1.173   3.303
 5095SOL    HW116184   0.633   1.220   3.308
 5095SOL    HW216185   0.505   1.165   3.394
 5096SOL     OW16186   5.042   3.950   6.236
 5096SOL    HW116187   5.022   3.971   6.141
 5096SOL    HW216188   4.957   3.937   6.286
 5097SOL     OW16189   6.222   6.630   6.578
 5097SOL    HW116190   6.281   6.569   6.525
 5097SOL    HW216191   6.277   6.677   6.647
 5098SOL     OW16192   3.995   2.160   2.002
 5098SOL    HW116193   4.032   2.142   2.093
 5098SOL    HW216194   3.898   2.185   2.010
 5099SOL     OW16195   0.456   5.975   1.897
 5099SOL    HW116196   0.507   5.902   1.851
 5099SOL    HW216197   0.483   6.063   1.861
 5100SOL     OW16198   4.698   4.636   2.571
 5100SOL    HW116199   4.640   4.581   2.632
 5100SOL    HW216200   4.656   4.725   2.557
 5101SOL     OW16201   3.966   0.147   5.746
 5101SOL    HW116202   3.898   0.179   5.680
 5101SOL    HW216203   3.948   0.051   5.769
 5102SOL     OW16204   4.675   5.517   3.915
 5102SOL    HW116205   4.646   5.609   3.941
 5102SOL    HW216206   4.603   5.474   3.859
 5103SOL     OW16207   0.493   0.707   5.005
 5103SOL    HW116208   0.523   0.714   4.910
 5103SOL    HW216209   0.562   0.746   5.065
 5104SOL     OW16210   3.342   6.263   1.990
 5104SOL    HW116211   3.427   6.314   1.975
 5104SOL    HW216212   3.317   6.267   2.087
 5105SOL     OW16213   3.202   3.392   0.091
 5105SOL    HW116214   3.135   3.326   0.125
 5105SOL    HW216215   3.212   3.381   7.017
 5106SOL     OW16216   4.039   2.315   0.854
 5106SOL    HW116217   3.940   2.314   0.871
 5106SOL    HW216218   4.061   2.246   0.785
 5107SOL     OW16219   5.654   2.804   1.184
 5107SOL    HW116220   5.603   2.765   1.108
 5107SOL    HW216221   5.744   2.835   1.152
 5108SOL     OW16222   4.524   4.286   5.946
 5108SOL    HW116223   4.523   4.314   6.042
 5108SOL    HW216224   4.433   4.295   5.907
 5109SOL     OW16225   1.930   3.403   1.425
 5109SOL    HW116226   1.966   3.440   1.511
 5109SOL    HW216227   1.994   3.334   1.390
 5110SOL     OW16228   6.466   6.559   6.406
 5110SOL    HW116229   6.566   6.553   6.413
 5110SOL    HW216230   6.434   6.502   6.330
 5111SOL     OW16231   1.154   6.207   4.649
 5111SOL    HW116232   1.084   6.174   4.713
 5111SOL    HW216233   1.195   6.290   4.685
 5112SOL     OW16234   0.697   6.981   2.580
 5112SOL    HW116235   0.707   0.054   2.599
 5112SOL    HW216236   0.599   6.958   2.576
 5113SOL     OW16237   1.992   5.261   0.550
 5113SOL    HW116238   2.011   5.321   0.473
 5113SOL    HW216239   1.951   5.175   0.517
 5114SOL     OW16240   3.706   0.244   0.664
 5114SOL    HW116241   3.774   0.286   0.724
 5114SOL    HW216242   3.664   0.314   0.607
 5115SOL     OW16243   2.120   3.938   1.504
 5115SOL    HW116244   2.175   3.872   1.452
 5115SOL    HW216245   2.145   3.934   1.600
 5116SOL     OW16246   2.671   6.516   6.741
 5116SOL    HW116247   2.755   6.543   6.695
 5116SOL    HW216248   2.621   6.597   6.771
 5117SOL     OW16249   0.592   3.341   4.313
 5117SOL    HW116250   0.527   3.349   4.237
 5117SOL    HW216251   0.569   3.408   4.383
 5118SOL     OW16252   5.905   0.202   0.597
 5118SOL    HW116253   5.810   0.212   0.627
 5118SOL    HW216254   5.965   0.248   0.662
 5119SOL     OW16255   5.416   1.860   0.358
 5119SOL    HW116256   5.375   1.939   0.403
 5119SOL    HW216257   5.345   1.806   0.314
 5120SOL     OW16258   5.142   0.624   5.051
 5120SOL    HW116259   5.107   0.690   4.985
 5120SOL    HW216260   5.186   0.672   5.126
 5121SOL     OW16261   3.217   3.800   7.006
 5121SOL    HW116262   3.296   3.861   6.998
 5121SOL    HW216263   3.148   3.842   0.040
 5122SOL     OW16264   4.012   5.406   3.179
 5122SOL    HW116265   3.936   5.409   3.244
 5122SOL    HW216266   4.087   5.462   3.213
 5123SOL     OW16267   5.060   2.236   2.225
 5123SOL    HW116268   5.083   2.221   2.129
 5123SOL    HW216269   5.004   2.319   2.233
 5124SOL     OW16270   1.861   6.377   3.709
 5124SOL    HW116271   1.770   6.418   3.710
 5124SOL    HW216272   1.902   6.383   3.800
 5125SOL     OW16273   0.359   1.450   4.042
 5125SOL    HW116274   0.358   1.360   3.998
 5125SOL    HW216275   0.367   1.522   3.973
 5126SOL     OW16276   1.476   6.563   0.595
 5126SOL    HW116277   1.566   6.524   0.611
 5126SOL    HW216278   1.406   6.492   0.602
 5127SOL     OW16279   1.807   5.966   0.217
 5127SOL    HW116280   1.817   5.888   0.154
 5127SOL    HW216281   1.897   5.991   0.252
 5128SOL     OW16282   0.306   5.896   1.523
 5128SOL    HW116283   0.395   5.905   1.479
 5128SOL    HW216284   0.314   5.838   1.603
 5129SOL     OW16285   4.499   6.186   1.454
 5129SOL    HW116286   4.590   6.171   1.495
 5129SOL    HW216287   4.457   6.267   1.495
 5130SOL     OW16288   6.442   4.854   2.612
 5130SOL    HW116289   6.504   4.880   2.539
 5130SOL    HW216290   6.453   4.757   2.634
 5131SOL     OW16291   0.902   3.212   3.364
 5131SOL    HW116292   0.815   3.202   3.314
 5131SOL    HW216293   0.976   3.226   3.299
 5132SOL     OW16294   3.377   3.826   6.143
 5132SOL    HW116295   3.308   3.870   6.085
 5132SOL    HW216296   3.464   3.824   6.096
 5133SOL     OW16297   3.421   5.578   0.013
 5133SOL    HW116298   3.345   5.520   0.041
 5133SOL    HW216299   3.441   5.561   6.941
 5134SOL     OW16300   0.721   2.926   1.559
 5134SOL    HW116301   0.636   2.961   1.519
 5134SOL    HW216302   0.728   2.955   1.654
 5135SOL     OW16303   6.992   2.044   5.615
 5135SOL    HW116304   6.901   2.055   5.574
 5135SOL    HW216305   6.993   1.962   5.672
 5136SOL     OW16306   5.201   0.687   4.647
 5136SOL    HW116307   5.260   0.638   4.583
 5136SOL    HW216308   5.225   0.784   4.646
 5137SOL     OW16309   5.811   3.361   6.396
 5137SOL    HW116310   5.846   3.280   6.349
 5137SOL    HW216311   5.767   3.334   6.481
 5138SOL     OW16312   3.968   3.026   6.621
 5138SOL    HW116313   3.975   3.118   6.659
 5138SOL    HW216314   3.875   2.992   6.635
 5139SOL     OW16315   1.820   6.520   4.222
 5139SOL    HW116316   1.821   6.570   4.309
 5139SOL    HW216317   1.906   6.534   4.174
 5140SOL     OW16318   2.627   1.693   0.744
 5140SOL    HW116319   2.540   1.709   0.698
 5140SOL    HW216320   2.685   1.774   0.734
 5141SOL     OW16321   5.675   3.866   1.153
 5141SOL    HW116322   5.742   3.795   1.131
 5141SOL    HW216323   5.665   3.927   1.074
 5142SOL     OW16324   6.167   2.826   4.431
 5142SOL    HW116325   6.082   2.850   4.478
 5142SOL    HW216326   6.147   2.807   4.335
 5143SOL     OW16327   1.167   4.777   4.418
 5143SOL    HW116328   1.140   4.730   4.503
 5143SOL    HW216329   1.262   4.808   4.427
 5144SOL     OW16330   1.811   6.643   6.041
 5144SOL    HW116331   1.713   6.662   6.047
 5144SOL    HW216332   1.844   6.665   5.949
 5145SOL     OW16333   2.292   5.300   6.392
 5145SOL    HW116334   2.287   5.398   6.412
 5145SOL    HW216335   2.241   5.281   6.308
 5146SOL     OW16336   4.289   3.923   6.884
 5146SOL    HW116337   4.250   3.833   6.903
 5146SOL    HW216338   4.226   3.994   6.916
 5147SOL     OW16339   0.208   4.368   1.350
 5147SOL    HW116340   0.117   4.407   1.363
 5147SOL    HW216341   0.273   4.412   1.412
 5148SOL     OW16342   0.843   6.244   0.991
 5148SOL    HW116343   0.793   6.182   1.050
 5148SOL    HW216344   0.871   6.325   1.043
 5149SOL     OW16345   6.247   0.616   3.463
 5149SOL    HW116346   6.207   0.622   3.554
 5149SOL    HW216347   6.185   0.566   3.403
 5150SOL     OW16348   2.376   6.081   4.387
 5150SOL    HW116349   2.426   6.147   4.332
 5150SOL    HW216350   2.386   5.990   4.347
 5151SOL     OW16351   5.396   1.169   6.716
 5151SOL    HW116352   5.414   1.219   6.631
 5151SOL    HW216353   5.416   1.229   6.794
 5152SOL     OW16354   2.293   4.945   0.177
 5152SOL    HW116355   2.364   4.950   0.107
 5152SOL    HW216356   2.240   4.861   0.165
 5153SOL     OW16357   2.073   2.209   0.368
 5153SOL    HW116358   2.113   2.239   0.281
 5153SOL    HW216359   2.035   2.117   0.357
 5154SOL     OW16360   2.103   3.441   6.038
 5154SOL    HW116361   2.151   3.501   6.102
 5154SOL    HW216362   2.005   3.439   6.061
 5155SOL     OW16363   3.961   5.975   2.130
 5155SOL    HW116364   3.949   5.928   2.217
 5155SOL    HW216365   3.871   5.995   2.091
 5156SOL     OW16366   6.577   2.451   6.417
 5156SOL    HW116367   6.533   2.488   6.335
 5156SOL    HW216368   6.650   2.513   6.445
 5157SOL     OW16369   4.830   2.861   3.976
 5157SOL    HW116370   4.780   2.878   3.891
 5157SOL    HW216371   4.923   2.831   3.954
 5158SOL     OW16372   3.110   2.019   1.309
 5158SOL    HW116373   3.064   1.983   1.390
 5158SOL    HW216374   3.205   2.039   1.331
 5159SOL     OW16375   0.819   3.796   4.579
 5159SOL    HW116376   0.771   3.717   4.540
 5159SOL    HW216377   0.900   3.816   4.524
 5160SOL     OW16378   1.493   3.675   4.339
 5160SOL    HW116379   1.487   3.658   4.241
 5160SOL    HW216380   1.403   3.658   4.381
 5161SOL     OW16381   1.314   4.422   5.591
 5161SOL    HW116382   1.220   4.421   5.627
 5161SOL    HW216383   1.330   4.507   5.542
 5162SOL     OW16384   7.016   5.007   4.275
 5162SOL    HW116385   0.016   4.940   4.345
 5162SOL    HW216386   0.052   5.087   4.283
 5163SOL     OW16387   4.870   4.941   1.135
 5163SOL    HW116388   4.920   5.012   1.085
 5163SOL    HW216389   4.821   4.982   1.212
 5164SOL     OW16390   5.768   2.383   5.246
 5164SOL    HW116391   5.736   2.296   5.282
 5164SOL    HW216392   5.690   2.438   5.217
 5165SOL     OW16393   5.896   4.780   5.110
 5165SOL    HW116394   5.898   4.688   5.070
 5165SOL    HW216395   5.967   4.786   5.180
 5166SOL     OW16396   1.673   4.963   1.959
 5166SOL    HW116397   1.767   4.973   1.926
 5166SOL    HW216398   1.671   4.900   2.037
 5167SOL     OW16399   6.396   0.009   5.255
 5167SOL    HW116400   6.463   6.970   5.217
 5167SOL    HW216401   6.305   7.014   5.217
 5168SOL     OW16402   4.532   2.569   3.193
 5168SOL    HW116403   4.589   2.635   3.242
 5168SOL    HW216404   4.562   2.562   3.098
 5169SOL     OW16405   3.255   3.783   6.402
 5169SOL    HW116406   3.282   3.783   6.306
 5169SOL    HW216407   3.310   3.849   6.452
 5170SOL     OW16408   6.846   4.714   5.494
 5170SOL    HW116409   6.928   4.658   5.483
 5170SOL    HW216410   6.772   4.678   5.438
 5171SOL     OW16411   2.675   4.669   4.467
 5171SOL    HW116412   2.614   4.652   4.390
 5171SOL    HW216413   2.679   4.589   4.527
 5172SOL     OW16414   0.500   3.427   1.904
 5172SOL    HW116415   0.422   3.441   1.964
 5172SOL    HW216416   0.514   3.509   1.848
 5173SOL     OW16417   5.680   3.900   6.580
 5173SOL    HW116418   5.763   3.926   6.532
 5173SOL    HW216419   5.673   3.952   6.665
 5174SOL     OW16420   2.076   4.716   5.095
 5174SOL    HW116421   2.068   4.804   5.049
 5174SOL    HW216422   2.173   4.698   5.114
 5175SOL     OW16423   1.760   3.916   6.983
 5175SOL    HW116424   1.675   3.922   0.010
 5175SOL    HW216425   1.749   3.852   6.907
 5176SOL     OW16426   4.142   3.239   0.341
 5176SOL    HW116427   4.238   3.233   0.370
 5176SOL    HW216428   4.136   3.220   0.243
 5177SOL     OW16429   4.767   0.233   5.420
 5177SOL    HW116430   4.681   0.186   5.402
 5177SOL    HW216431   4.781   0.305   5.353
 5178SOL     OW16432   2.256   2.463   1.573
 5178SOL    HW116433   2.318   2.536   1.603
 5178SOL    HW216434   2.162   2.497   1.573
 5179SOL     OW16435   4.625   6.546   5.293
 5179SOL    HW116436   4.677   6.614   5.241
 5179SOL    HW216437   4.594   6.586   5.379
 5180SOL     OW16438   3.603   2.602   6.955
 5180SOL    HW116439   3.518   2.648   6.934
 5180SOL    HW216440   3.588   2.503   6.957
 5181SOL     OW16441   3.577   0.792   2.830
 5181SOL    HW116442   3.538   0.829   2.745
 5181SOL    HW216443   3.506   0.742   2.880
 5182SOL     OW16444   5.996   5.040   1.503
 5182SOL    HW116445   6.008   5.077   1.595
 5182SOL    HW216446   5.990   4.941   1.507
 5183SOL     OW16447   4.498   6.890   1.835
 5183SOL    HW116448   4.559   6.825   1.881
 5183SOL    HW216449   4.495   6.870   1.737
 5184SOL     OW16450   1.059   1.018   3.631
 5184SOL    HW116451   1.156   1.038   3.615
 5184SOL    HW216452   1.007   1.040   3.549
 5185SOL     OW16453   3.816   6.581   2.707
 5185SOL    HW116454   3.794   6.512   2.638
 5185SOL    HW216455   3.760   6.662   2.692
 5186SOL     OW16456   6.386   3.630   0.875
 5186SOL    HW116457   6.421   3.671   0.959
 5186SOL    HW216458   6.370   3.533   0.890
 5187SOL     OW16459   7.006   1.499   3.249
 5187SOL    HW116460   6.949   1.472   3.327
 5187SOL    HW216461   6.948   1.534   3.176
 5188SOL     OW16462   0.398   5.147   6.836
 5188SOL    HW116463   0.405   5.074   6.767
 5188SOL    HW216464   0.413   5.108   6.927
 5189SOL     OW16465   4.826   4.797   6.974
 5189SOL    HW116466   4.831   4.820   0.047
 5189SOL    HW216467   4.797   4.878   6.923
 5190SOL     OW16468   0.825   1.920   3.899
 5190SOL    HW116469   0.746   1.981   3.900
 5190SOL    HW216470   0.800   1.834   3.853
 5191SOL     OW16471   3.118   1.340   1.850
 5191SOL    HW116472   3.149   1.285   1.927
 5191SOL    HW216473   3.152   1.300   1.765
 5192SOL     OW16474   5.012   5.570   2.644
 5192SOL    HW116475   5.105   5.598   2.621
 5192SOL    HW216476   5.001   5.472   2.623
 5193SOL     OW16477   4.612   4.352   3.825
 5193SOL    HW116478   4.553   4.414   3.773
 5193SOL    HW216479   4.679   4.309   3.764
 5194SOL     OW16480   4.910   0.856   5.936
 5194SOL    HW116481   4.971   0.935   5.935
 5194SOL    HW216482   4.821   0.884   5.972
 5195SOL     OW16483   6.621   6.915   4.593
 5195SOL    HW116484   6.672   6.964   4.663
 5195SOL    HW216485   6.541   6.871   4.635
 5196SOL     OW16486   0.796   4.532   1.842
 5196SOL    HW116487   0.855   4.571   1.913
 5196SOL    HW216488   0.782   4.435   1.859
 5197SOL     OW16489   1.694   6.342   4.528
 5197SOL    HW116490   1.616   6.306   4.579
 5197SOL    HW216491   1.706   6.290   4.444
 5198SOL     OW16492   2.635   6.544   5.084
 5198SOL    HW116493   2.636   6.521   4.986
 5198SOL    HW216494   2.685   6.474   5.135
 5199SOL     OW16495   1.977   5.446   1.412
 5199SOL    HW116496   1.885   5.485   1.413
 5199SOL    HW216497   2.035   5.498   1.474
 5200SOL     OW16498   1.208   1.918   4.822
 5200SOL    HW116499   1.304   1.891   4.816
 5200SOL    HW216500   1.162   1.862   4.891
 5201SOL     OW16501   5.223   4.645   4.353
 5201SOL    HW116502   5.317   4.619   4.374
 5201SOL    HW216503   5.162   4.568   4.369
 5202SOL     OW16504   4.821   3.074   6.843
 5202SOL    HW116505   4.730   3.041   6.817
 5202SOL    HW216506   4.822   3.174   6.840
 5203SOL     OW16507   1.521   0.171   7.020
 5203SOL    HW116508   1.479   0.099   0.050
 5203SOL    HW216509   1.450   0.223   6.973
 5204SOL     OW16510   3.614   6.830   6.846
 5204SOL    HW116511   3.589   6.735   6.865
 5204SOL    HW216512   3.533   6.878   6.812
 5205SOL     OW16513   6.813   5.922   1.161
 5205SOL    HW116514   6.819   5.935   1.062
 5205SOL    HW216515   6.864   5.994   1.208
 5206SOL     OW16516   0.652   4.344   4.625
 5206SOL    HW116517   0.585   4.276   4.594
 5206SOL    HW216518   0.652   4.348   4.725
 5207SOL     OW16519   0.255   6.681   4.417
 5207SOL    HW116520   0.239   6.761   4.475
 5207SOL    HW216521   0.343   6.640   4.441
 5208SOL     OW16522   5.039   2.331   0.303
 5208SOL    HW116523   4.990   2.256   0.257
 5208SOL    HW216524   5.051   2.407   0.238
 5209SOL     OW16525   4.618   0.327   3.107
 5209SOL    HW116526   4.548   0.388   3.143
 5209SOL    HW216527   4.678   0.297   3.181
 5210SOL     OW16528   5.396   4.508   1.305
 5210SOL    HW116529   5.310   4.473   1.269
 5210SOL    HW216530   5.470   4.445   1.281
 5211SOL     OW16531   5.040   1.821   4.019
 5211SOL    HW116532   5.036   1.832   3.920
 5211SOL    HW216533   4.996   1.898   4.063
 5212SOL     OW16534   1.436   2.402   0.733
 5212SOL    HW116535   1.341   2.392   0.761
 5212SOL    HW216536   1.441   2.407   0.633
 5213SOL     OW16537   4.147   3.530   2.457
 5213SOL    HW116538   4.242   3.521   2.426
 5213SOL    HW216539   4.099   3.443   2.441
 5214SOL     OW16540   5.770   4.445   6.468
 5214SOL    HW116541   5.680   4.404   6.480
 5214SOL    HW216542   5.794   4.500   6.548
 5215SOL     OW16543   6.823   3.042   4.845
 5215SOL    HW116544   6.802   2.967   4.783
 5215SOL    HW216545   6.917   3.032   4.879
 5216SOL     OW16546   5.600   4.733   1.197
 5216SOL    HW116547   5.512   4.716   1.152
 5216SOL    HW216548   5.590   4.720   1.296
 5217SOL     OW16549   3.883   5.565   4.230
 5217SOL    HW116550   3.825   5.577   4.311
 5217SOL    HW216551   3.894   5.653   4.184
 5218SOL     OW16552   0.554   0.685   0.691
 5218SOL    HW116553   0.518   0.667   0.782
 5218SOL    HW216554   0.652   0.664   0.689
 5219SOL     OW16555   2.492   2.008   5.250
 5219SOL    HW116556   2.550   1.976   5.175
 5219SOL    HW216557   2.432   2.081   5.217
 5220SOL     OW16558   2.400   5.438   3.202
 5220SOL    HW116559   2.486   5.465   3.158
 5220SOL    HW216560   2.419   5.371   3.274
 5221SOL     OW16561   6.735   0.367   1.415
 5221SOL    HW116562   6.829   0.352   1.381
 5221SOL    HW216563   6.731   0.452   1.467
 5222SOL     OW16564   4.305   4.892   1.419
 5222SOL    HW116565   4.230   4.946   1.457
 5222SOL    HW216566   4.273   4.844   1.337
 5223SOL     OW16567   0.389   3.240   0.542
 5223SOL    HW116568   0.458   3.285   0.598
 5223SOL    HW216569   0.431   3.165   0.491
 5224SOL     OW16570   1.047   1.635   4.116
 5224SOL    HW116571   0.988   1.713   4.140
 5224SOL    HW216572   1.141   1.666   4.107
 5225SOL     OW16573   6.653   1.087   4.757
 5225SOL    HW116574   6.703   1.087   4.844
 5225SOL    HW216575   6.556   1.103   4.775
 5226SOL     OW16576   0.242   5.818   3.832
 5226SOL    HW116577   0.183   5.808   3.752
 5226SOL    HW216578   0.315   5.883   3.811
 5227SOL     OW16579   0.032   3.615   5.843
 5227SOL    HW116580   0.039   3.648   5.749
 5227SOL    HW216581   7.004   3.680   5.897
 5228SOL     OW16582   1.409   3.109   5.754
 5228SOL    HW116583   1.472   3.104   5.677
 5228SOL    HW216584   1.370   3.019   5.771
 5229SOL     OW16585   3.684   0.128   6.798
 5229SOL    HW116586   3.659   0.032   6.811
 5229SOL    HW216587   3.779   0.134   6.769
 5230SOL     OW16588   6.639   0.170   2.018
 5230SOL    HW116589   6.630   0.076   1.984
 5230SOL    HW216590   6.710   0.217   1.967
 5231SOL     OW16591   5.613   1.683   3.307
 5231SOL    HW116592   5.678   1.755   3.282
 5231SOL    HW216593   5.572   1.706   3.396
 5232SOL     OW16594   1.864   3.852   5.791
 5232SOL    HW116595   1.934   3.836   5.860
 5232SOL    HW216596   1.906   3.887   5.708
 5233SOL     OW16597   2.904   0.432   2.717
 5233SOL    HW116598   2.873   0.451   2.624
 5233SOL    HW216599   2.824   0.419   2.776
 5234SOL     OW16600   1.606   2.560   0.880
 5234SOL    HW116601   1.547   2.506   0.821
 5234SOL    HW216602   1.667   2.616   0.825
 5235SOL     OW16603   2.383   1.486   1.053
 5235SOL    HW116604   2.343   1.402   1.090
 5235SOL    HW216605   2.455   1.518   1.115
 5236SOL     OW16606   3.549   5.136   2.567
 5236SOL    HW116607   3.595   5.127   2.478
 5236SOL    HW216608   3.498   5.052   2.586
 5237SOL     OW16609   1.679   2.312   4.309
 5237SOL    HW116610   1.754   2.296   4.245
 5237SOL    HW216611   1.715   2.357   4.391
 5238SOL     OW16612   1.084   4.924   3.073
 5238SOL    HW116613   1.087   4.853   3.002
 5238SOL    HW216614   0.996   4.917   3.122
 5239SOL     OW16615   3.149   3.929   1.619
 5239SOL    HW116616   3.239   3.963   1.647
 5239SOL    HW216617   3.086   3.933   1.697
 5240SOL     OW16618   2.826   2.991   6.261
 5240SOL    HW116619   2.729   2.987   6.239
 5240SOL    HW216620   2.851   2.912   6.318
 5241SOL     OW16621   1.225   5.693   2.311
 5241SOL    HW116622   1.176   5.644   2.240
 5241SOL    HW216623   1.165   5.762   2.352
 5242SOL     OW16624   4.804   0.978   0.909
 5242SOL    HW116625   4.853   1.022   0.984
 5242SOL    HW216626   4.870   0.938   0.845
 5243SOL     OW16627   1.914   5.985   1.543
 5243SOL    HW116628   1.919   5.989   1.643
 5243SOL    HW216629   1.885   6.074   1.508
 5244SOL     OW16630   4.824   3.323   0.649
 5244SOL    HW116631   4.765   3.396   0.682
 5244SOL    HW216632   4.871   3.353   0.566
 5245SOL     OW16633   4.366   3.985   0.189
 5245SOL    HW116634   4.438   4.044   0.152
 5245SOL    HW216635   4.390   3.957   0.282
 5246SOL     OW16636   6.644   2.722   2.079
 5246SOL    HW116637   6.619   2.801   2.134
 5246SOL    HW216638   6.693   2.656   2.136
 5247SOL     OW16639   3.635   1.437   5.693
 5247SOL    HW116640   3.572   1.508   5.724
 5247SOL    HW216641   3.646   1.368   5.765
 5248SOL     OW16642   6.887   1.705   2.619
 5248SOL    HW116643   6.799   1.721   2.576
 5248SOL    HW216644   6.948   1.782   2.600
 5249SOL     OW16645   1.165   4.784   0.242
 5249SOL    HW116646   1.089   4.760   0.183
 5249SOL    HW216647   1.196   4.877   0.221
 5250SOL     OW16648   2.029   5.668   0.184
 5250SOL    HW116649   2.104   5.734   0.181
 5250SOL    HW216650   2.054   5.592   0.243
 5251SOL     OW16651   1.279   4.152   1.406
 5251SOL    HW116652   1.235   4.067   1.379
 5251SOL    HW216653   1.288   4.155   1.505
 5252SOL     OW16654   3.241   6.521   2.165
 5252SOL    HW116655   3.219   6.539   2.069
 5252SOL    HW216656   3.203   6.432   2.191
 5253SOL     OW16657   5.489   4.799   4.833
 5253SOL    HW116658   5.574   4.747   4.835
 5253SOL    HW216659   5.507   4.895   4.856
 5254SOL     OW16660   5.836   0.106   2.965
 5254SOL    HW116661   5.887   0.113   3.051
 5254SOL    HW216662   5.739   0.096   2.985
 5255SOL     OW16663   5.812   2.010   4.773
 5255SOL    HW116664   5.805   2.038   4.678
 5255SOL    HW216665   5.764   1.923   4.786
 5256SOL     OW16666   4.624   0.775   3.139
 5256SOL    HW116667   4.529   0.747   3.121
 5256SOL    HW216668   4.632   0.809   3.233
 5257SOL     OW16669   4.074   0.465   6.675
 5257SOL    HW116670   4.081   0.463   6.774
 5257SOL    HW216671   4.132   0.538   6.639
 5258SOL     OW16672   5.281   1.422   2.537
 5258SOL    HW116673   5.188   1.409   2.571
 5258SOL    HW216674   5.331   1.480   2.601
 5259SOL     OW16675   4.970   5.607   3.140
 5259SOL    HW116676   5.008   5.600   3.232
 5259SOL    HW216677   4.964   5.517   3.098
 5260SOL     OW16678   2.841   6.067   0.151
 5260SOL    HW116679   2.936   6.079   0.180
 5260SOL    HW216680   2.790   6.151   0.170
 5261SOL     OW16681   6.934   4.656   0.860
 5261SOL    HW116682   6.928   4.561   0.829
 5261SOL    HW216683   6.858   4.675   0.922
 5262SOL     OW16684   1.963   0.244   2.592
 5262SOL    HW116685   2.045   0.283   2.549
 5262SOL    HW216686   1.984   0.214   2.685
 5263SOL     OW16687   1.673   0.777   3.457
 5263SOL    HW116688   1.660   0.870   3.424
 5263SOL    HW216689   1.624   0.713   3.397
 5264SOL     OW16690   6.713   2.139   1.682
 5264SOL    HW116691   6.764   2.063   1.722
 5264SOL    HW216692   6.648   2.104   1.615
 5265SOL     OW16693   5.532   2.654   4.525
 5265SOL    HW116694   5.440   2.649   4.565
 5265SOL    HW216695   5.542   2.583   4.456
 5266SOL     OW16696   2.287   6.452   0.702
 5266SOL    HW116697   2.334   6.371   0.735
 5266SOL    HW216698   2.334   6.534   0.735
 5267SOL     OW16699   4.479   2.497   4.365
 5267SOL    HW116700   4.415   2.452   4.303
 5267SOL    HW216701   4.515   2.579   4.322
 5268SOL     OW16702   5.372   0.962   6.894
 5268SOL    HW116703   5.377   1.042   6.834
 5268SOL    HW216704   5.387   0.879   6.839
 5269SOL     OW16705   0.454   6.536   2.288
 5269SOL    HW116706   0.366   6.582   2.295
 5269SOL    HW216707   0.487   6.513   2.380
 5270SOL     OW16708   6.333   1.950   0.235
 5270SOL    HW116709   6.334   1.858   0.198
 5270SOL    HW216710   6.325   1.947   0.334
 5271SOL     OW16711   6.052   5.325   4.496
 5271SOL    HW116712   6.122   5.334   4.566
 5271SOL    HW216713   6.079   5.254   4.431
 5272SOL     OW16714   3.728   6.791   0.799
 5272SOL    HW116715   3.781   6.866   0.761
 5272SOL    HW216716   3.763   6.704   0.764
 5273SOL     OW16717   0.975   3.205   2.773
 5273SOL    HW116718   1.066   3.224   2.736
 5273SOL    HW216719   0.921   3.157   2.704
 5274SOL     OW16720   4.674   6.760   2.498
 5274SOL    HW116721   4.754   6.714   2.460
 5274SOL    HW216722   4.618   6.693   2.548
 5275SOL     OW16723   2.809   0.220   0.847
 5275SOL    HW116724   2.868   0.295   0.875
 5275SOL    HW216725   2.716   0.254   0.833
 5276SOL     OW16726   2.187   6.425   1.787
 5276SOL    HW116727   2.256   6.491   1.760
 5276SOL    HW216728   2.096   6.466   1.780
 5277SOL     OW16729   2.609   1.135   2.400
 5277SOL    HW116730   2.630   1.155   2.304
 5277SOL    HW216731   2.673   1.067   2.435
 5278SOL     OW16732   4.088   4.992   2.738
 5278SOL    HW116733   4.026   5.019   2.665
 5278SOL    HW216734   4.125   5.073   2.783
 5279SOL     OW16735   2.676   5.662   1.463
 5279SOL    HW116736   2.742   5.676   1.537
 5279SOL    HW216737   2.722   5.628   1.382
 5280SOL     OW16738   3.241   6.317   5.149
 5280SOL    HW116739   3.175   6.242   5.155
 5280SOL    HW216740   3.209   6.393   5.206
 5281SOL     OW16741   0.278   1.557   2.449
 5281SOL    HW116742   0.356   1.609   2.483
 5281SOL    HW216743   0.284   1.548   2.349
 5282SOL     OW16744   2.631   2.047   3.209
 5282SOL    HW116745   2.722   2.067   3.246
 5282SOL    HW216746   2.595   2.129   3.164
 5283SOL     OW16747   5.269   5.523   0.919
 5283SOL    HW116748   5.341   5.592   0.927
 5283SOL    HW216749   5.181   5.569   0.906
 5284SOL     OW16750   5.291   4.083   3.269
 5284SOL    HW116751   5.326   4.177   3.265
 5284SOL    HW216752   5.355   4.023   3.221
 5285SOL     OW16753   3.064   5.020   3.855
 5285SOL    HW116754   3.030   4.937   3.899
 5285SOL    HW216755   3.160   5.034   3.881
 5286SOL     OW16756   1.972   4.410   0.941
 5286SOL    HW116757   1.992   4.362   0.855
 5286SOL    HW216758   1.986   4.347   1.017
 5287SOL     OW16759   2.631   1.309   0.629
 5287SOL    HW116760   2.536   1.321   0.657
 5287SOL    HW216761   2.679   1.396   0.631
 5288SOL     OW16762   2.948   0.279   1.272
 5288SOL    HW116763   2.850   0.274   1.288
 5288SOL    HW216764   2.969   0.252   1.178
 5289SOL     OW16765   0.823   5.291   1.124
 5289SOL    HW116766   0.895   5.288   1.054
 5289SOL    HW216767   0.757   5.217   1.107
 5290SOL     OW16768   3.488   5.824   0.084
 5290SOL    HW116769   3.519   5.868   7.025
 5290SOL    HW216770   3.436   5.742   0.061
 5291SOL     OW16771   2.020   5.001   5.651
 5291SOL    HW116772   2.068   4.928   5.602
 5291SOL    HW216773   2.024   4.983   5.749
 5292SOL     OW16774   5.127   3.165   6.322
 5292SOL    HW116775   5.184   3.247   6.317
 5292SOL    HW216776   5.102   3.147   6.417
 5293SOL     OW16777   0.618   0.136   4.140
 5293SOL    HW116778   0.698   0.099   4.186
 5293SOL    HW216779   0.575   0.206   4.198
 5294SOL     OW16780   6.055   3.235   6.038
 5294SOL    HW116781   6.130   3.193   6.089
 5294SOL    HW216782   5.981   3.168   6.028
 5295SOL     OW16783   5.784   0.933   2.934
 5295SOL    HW116784   5.765   0.848   2.984
 5295SOL    HW216785   5.726   1.006   2.970
 5296SOL     OW16786   1.237   4.542   0.455
 5296SOL    HW116787   1.324   4.539   0.506
 5296SOL    HW216788   1.172   4.599   0.505
 5297SOL     OW16789   2.020   1.090   1.060
 5297SOL    HW116790   2.086   1.150   1.015
 5297SOL    HW216791   1.934   1.140   1.073
 5298SOL     OW16792   6.753   4.746   1.023
 5298SOL    HW116793   6.661   4.756   0.986
 5298SOL    HW216794   6.758   4.790   1.113
 5299SOL     OW16795   3.175   0.854   1.552
 5299SOL    HW116796   3.115   0.783   1.590
 5299SOL    HW216797   3.162   0.860   1.454
 5300SOL     OW16798   0.208   6.471   3.924
 5300SOL    HW116799   0.164   6.432   4.005
 5300SOL    HW216800   0.307   6.462   3.931
 5301SOL     OW16801   4.353   1.529   6.649
 5301SOL    HW116802   4.284   1.456   6.646
 5301SOL    HW216803   4.418   1.516   6.574
 5302SOL     OW16804   6.148   4.357   2.777
 5302SOL    HW116805   6.111   4.424   2.841
 5302SOL    HW216806   6.232   4.318   2.815
 5303SOL     OW16807   6.513   4.360   3.826
 5303SOL    HW116808   6.524   4.287   3.759
 5303SOL    HW216809   6.512   4.320   3.918
 5304SOL     OW16810   4.781   1.944   5.358
 5304SOL    HW116811   4.782   2.009   5.434
 5304SOL    HW216812   4.704   1.881   5.369
 5305SOL     OW16813   2.442   0.906   3.305
 5305SOL    HW116814   2.439   0.824   3.362
 5305SOL    HW216815   2.381   0.894   3.226
 5306SOL     OW16816   2.994   6.211   6.452
 5306SOL    HW116817   2.960   6.256   6.369
 5306SOL    HW216818   3.034   6.123   6.428
 5307SOL     OW16819   4.806   6.976   6.677
 5307SOL    HW116820   4.811   6.913   6.600
 5307SOL    HW216821   4.862   0.032   6.659
 5308SOL     OW16822   0.039   1.230   3.339
 5308SOL    HW116823   0.078   1.265   3.254
 5308SOL    HW216824   6.993   1.163   3.318
 5309SOL     OW16825   3.856   4.002   3.881
 5309SOL    HW116826   3.907   4.029   3.799
 5309SOL    HW216827   3.813   3.913   3.865
 5310SOL     OW16828   5.216   1.933   1.674
 5310SOL    HW116829   5.298   1.906   1.725
 5310SOL    HW216830   5.187   1.858   1.614
 5311SOL     OW16831   1.861   5.406   6.968
 5311SOL    HW116832   1.807   5.413   6.883
 5311SOL    HW216833   1.930   5.335   6.957
 5312SOL     OW16834   0.909   4.030   3.085
 5312SOL    HW116835   0.990   4.016   3.028
 5312SOL    HW216836   0.933   4.015   3.181
 5313SOL     OW16837   1.051   5.847   6.619
 5313SOL    HW116838   1.006   5.876   6.535
 5313SOL    HW216839   1.011   5.896   6.697
 5314SOL     OW16840   4.041   5.219   0.108
 5314SOL    HW116841   4.102   5.288   0.069
 5314SOL    HW216842   4.091   5.166   0.177
 5315SOL     OW16843   5.901   3.182   1.985
 5315SOL    HW116844   5.877   3.146   1.895
 5315SOL    HW216845   5.895   3.282   1.983
 5316SOL     OW16846   6.947   4.550   4.397
 5316SOL    HW116847   6.967   4.456   4.423
 5316SOL    HW216848   0.007   4.600   4.385
 5317SOL     OW16849   5.195   0.131   2.624
 5317SOL    HW116850   5.145   0.079   2.554
 5317SOL    HW216851   5.137   0.205   2.658
 5318SOL     OW16852   0.364   2.690   4.260
 5318SOL    HW116853   0.380   2.633   4.341
 5318SOL    HW216854   0.273   2.669   4.223
 5319SOL     OW16855   4.914   0.527   0.583
 5319SOL    HW116856   4.851   0.469   0.634
 5319SOL    HW216857   5.003   0.528   0.629
 5320SOL     OW16858   5.898   4.015   6.456
 5320SOL    HW116859   5.983   3.971   6.426
 5320SOL    HW216860   5.918   4.109   6.484
 5321SOL     OW16861   1.575   5.551   5.507
 5321SOL    HW116862   1.546   5.626   5.567
 5321SOL    HW216863   1.531   5.466   5.537
 5322SOL     OW16864   3.460   5.491   6.338
 5322SOL    HW116865   3.417   5.401   6.341
 5322SOL    HW216866   3.549   5.487   6.383
 5323SOL     OW16867   4.467   2.140   0.454
 5323SOL    HW116868   4.409   2.077   0.505
 5323SOL    HW216869   4.411   2.212   0.413
 5324SOL     OW16870   4.039   2.977   1.645
 5324SOL    HW116871   4.076   2.968   1.553
 5324SOL    HW216872   4.026   2.886   1.685
 5325SOL     OW16873   5.490   6.464   2.422
 5325SOL    HW116874   5.434   6.546   2.431
 5325SOL    HW216875   5.574   6.475   2.476
 5326SOL     OW16876   6.878   5.808   1.481
 5326SOL    HW116877   6.898   5.904   1.500
 5326SOL    HW216878   6.923   5.781   1.396
 5327SOL     OW16879   6.428   6.998   4.129
 5327SOL    HW116880   6.375   7.023   4.210
 5327SOL    HW216881   6.503   6.937   4.156
 5328SOL     OW16882   3.691   4.073   0.337
 5328SOL    HW116883   3.749   4.125   0.274
 5328SOL    HW216884   3.724   4.086   0.430
 5329SOL     OW16885   0.412   4.322   0.636
 5329SOL    HW116886   0.355   4.401   0.613
 5329SOL    HW216887   0.353   4.247   0.666
 5330SOL     OW16888   3.798   3.962   1.054
 5330SOL    HW116889   3.767   4.051   1.021
 5330SOL    HW216890   3.880   3.935   1.005
 5331SOL     OW16891   4.648   2.562   0.304
 5331SOL    HW116892   4.662   2.541   0.207
 5331SOL    HW216893   4.596   2.647   0.312
 5332SOL     OW16894   5.809   4.344   0.385
 5332SOL    HW116895   5.833   4.374   0.293
 5332SOL    HW216896   5.790   4.245   0.384
 5333SOL     OW16897   1.853   1.248   3.356
 5333SOL    HW116898   1.913   1.202   3.422
 5333SOL    HW216899   1.812   1.329   3.398
 5334SOL     OW16900   4.427   4.534   2.938
 5334SOL    HW116901   4.516   4.573   2.960
 5334SOL    HW216902   4.375   4.601   2.884
 5335SOL     OW16903   6.970   4.810   1.506
 5335SOL    HW116904   6.997   4.761   1.589
 5335SOL    HW216905   6.987   4.908   1.518
 5336SOL     OW16906   1.769   2.051   4.030
 5336SOL    HW116907   1.686   2.054   3.974
 5336SOL    HW216908   1.771   1.967   4.083
 5337SOL     OW16909   7.023   4.524   1.348
 5337SOL    HW116910   6.966   4.476   1.281
 5337SOL    HW216911   6.965   4.556   1.424
 5338SOL     OW16912   6.868   3.455   0.802
 5338SOL    HW116913   6.909   3.518   0.736
 5338SOL    HW216914   6.865   3.363   0.762
 5339SOL     OW16915   5.956   2.751   2.618
 5339SOL    HW116916   6.046   2.740   2.576
 5339SOL    HW216917   5.929   2.666   2.662
 5340SOL     OW16918   5.346   2.678   2.652
 5340SOL    HW116919   5.386   2.765   2.625
 5340SOL    HW216920   5.308   2.632   2.572
 5341SOL     OW16921   4.581   5.329   3.471
 5341SOL    HW116922   4.527   5.413   3.467
 5341SOL    HW216923   4.649   5.330   3.398
 5342SOL     OW16924   5.982   0.012   4.521
 5342SOL    HW116925   5.990   0.104   4.483
 5342SOL    HW216926   5.886   7.013   4.531
 5343SOL     OW16927   4.023   3.660   5.675
 5343SOL    HW116928   4.051   3.751   5.702
 5343SOL    HW216929   4.050   3.644   5.580
 5344SOL     OW16930   0.741   1.914   6.077
 5344SOL    HW116931   0.813   1.857   6.037
 5344SOL    HW216932   0.652   1.882   6.046
 5345SOL     OW16933   5.682   2.157   6.830
 5345SOL    HW116934   5.593   2.113   6.813
 5345SOL    HW216935   5.743   2.139   6.753
 5346SOL     OW16936   2.982   5.338   3.734
 5346SOL    HW116937   3.012   5.270   3.801
 5346SOL    HW216938   3.023   5.318   3.645
 5347SOL     OW16939   6.415   2.054   4.257
 5347SOL    HW116940   6.464   2.133   4.221
 5347SOL    HW216941   6.401   1.987   4.183
 5348SOL     OW16942   5.352   1.998   3.641
 5348SOL    HW116943   5.321   1.984   3.547
 5348SOL    HW216944   5.419   2.072   3.644
 5349SOL     OW16945   0.354   3.264   2.450
 5349SOL    HW116946   0.388   3.254   2.543
 5349SOL    HW216947   0.429   3.252   2.385
 5350SOL     OW16948   2.117   6.308   6.448
 5350SOL    HW116949   2.107   6.385   6.385
 5350SOL    HW216950   2.123   6.222   6.396
 5351SOL     OW16951   0.442   5.265   1.823
 5351SOL    HW116952   0.483   5.186   1.776
 5351SOL    HW216953   0.354   5.239   1.862
 5352SOL     OW16954   2.116   3.652   4.308
 5352SOL    HW116955   2.057   3.715   4.359
 5352SOL    HW216956   2.206   3.649   4.350
 5353SOL     OW16957   4.519   5.828   3.083
 5353SOL    HW116958   4.465   5.908   3.109
 5353SOL    HW216959   4.533   5.828   2.984
 5354SOL     OW16960   3.787   5.653   0.534
 5354SOL    HW116961   3.837   5.725   0.581
 5354SOL    HW216962   3.710   5.693   0.484
 5355SOL     OW16963   4.889   4.856   5.228
 5355SOL    HW116964   4.860   4.947   5.199
 5355SOL    HW216965   4.809   4.802   5.254
 5356SOL     OW16966   0.163   5.088   1.528
 5356SOL    HW116967   0.070   5.115   1.551
 5356SOL    HW216968   0.220   5.170   1.520
 5357SOL     OW16969   4.954   4.565   2.239
 5357SOL    HW116970   4.855   4.580   2.240
 5357SOL    HW216971   4.992   4.596   2.152
 5358SOL     OW16972   4.692   1.921   0.457
 5358SOL    HW116973   4.789   1.929   0.477
 5358SOL    HW216974   4.654   2.012   0.437
 5359SOL     OW16975   1.605   2.015   6.370
 5359SOL    HW116976   1.686   1.994   6.314
 5359SOL    HW216977   1.619   2.101   6.417
 5360SOL     OW16978   4.876   4.690   3.207
 5360SOL    HW116979   4.815   4.741   3.268
 5360SOL    HW216980   4.868   4.592   3.226
 5361SOL     OW16981   2.646   5.855   2.619
 5361SOL    HW116982   2.653   5.885   2.714
 5361SOL    HW216983   2.724   5.888   2.567
 5362SOL     OW16984   5.715   0.588   1.561
 5362SOL    HW116985   5.654   0.522   1.517
 5362SOL    HW216986   5.728   0.667   1.501
 5363SOL     OW16987   5.416   5.294   4.985
 5363SOL    HW116988   5.447   5.310   4.891
 5363SOL    HW216989   5.459   5.211   5.020
 5364SOL     OW16990   4.777   1.097   2.216
 5364SOL    HW116991   4.782   0.999   2.234
 5364SOL    HW216992   4.691   1.133   2.251
 5365SOL     OW16993   3.211   3.057   4.487
 5365SOL    HW116994   3.137   3.124   4.492
 5365SOL    HW216995   3.257   3.065   4.398
 5366SOL     OW16996   6.305   6.508   2.135
 5366SOL    HW116997   6.234   6.449   2.173
 5366SOL    HW216998   6.331   6.476   2.044
 5367SOL     OW16999   6.382   5.964   1.374
 5367SOL    HW117000   6.456   5.955   1.308
 5367SOL    HW217001   6.294   5.959   1.327
 5368SOL     OW17002   6.840   5.762   3.862
 5368SOL    HW117003   6.867   5.737   3.955
 5368SOL    HW217004   6.776   5.695   3.825
 5369SOL     OW17005   2.738   6.173   2.225
 5369SOL    HW117006   2.646   6.176   2.184
 5369SOL    HW217007   2.759   6.080   2.254
 5370SOL     OW17008   2.844   3.918   1.746
 5370SOL    HW117009   2.765   3.929   1.686
 5370SOL    HW217010   2.854   3.821   1.770
 5371SOL     OW17011   6.355   5.410   4.933
 5371SOL    HW117012   6.320   5.424   4.840
 5371SOL    HW217013   6.306   5.335   4.976
 5372SOL     OW17014   0.911   0.312   2.586
 5372SOL    HW117015   0.815   0.287   2.599
 5372SOL    HW217016   0.919   0.377   2.511
 5373SOL     OW17017   3.331   0.577   6.880
 5373SOL    HW117018   3.369   0.668   6.896
 5373SOL    HW217019   3.404   0.511   6.865
 5374SOL     OW17020   3.025   4.898   1.770
 5374SOL    HW117021   2.944   4.849   1.803
 5374SOL    HW217022   3.105   4.837   1.777
 5375SOL     OW17023   1.161   5.468   5.086
 5375SOL    HW117024   1.118   5.554   5.115
 5375SOL    HW217025   1.249   5.459   5.133
 5376SOL     OW17026   0.098   1.398   6.238
 5376SOL    HW117027   0.112   1.429   6.332
 5376SOL    HW217028   0.160   1.448   6.176
 5377SOL     OW17029   2.283   0.564   3.102
 5377SOL    HW117030   2.215   0.633   3.077
 5377SOL    HW217031   2.375   0.599   3.081
 5378SOL     OW17032   5.991   1.090   2.370
 5378SOL    HW117033   6.091   1.090   2.383
 5378SOL    HW217034   5.948   1.034   2.440
 5379SOL     OW17035   1.305   3.000   6.176
 5379SOL    HW117036   1.384   2.991   6.116
 5379SOL    HW217037   1.335   3.021   6.268
 5380SOL     OW17038   4.462   6.829   1.133
 5380SOL    HW117039   4.418   6.788   1.054
 5380SOL    HW217040   4.535   6.891   1.104
 5381SOL     OW17041   4.533   6.411   3.570
 5381SOL    HW117042   4.472   6.459   3.633
 5381SOL    HW217043   4.531   6.455   3.481
 5382SOL     OW17044   3.963   1.860   1.598
 5382SOL    HW117045   3.917   1.914   1.668
 5382SOL    HW217046   4.024   1.919   1.545
 5383SOL     OW17047   2.159   2.755   4.163
 5383SOL    HW117048   2.094   2.687   4.130
 5383SOL    HW217049   2.111   2.841   4.182
 5384SOL     OW17050   5.408   5.727   5.304
 5384SOL    HW117051   5.360   5.667   5.240
 5384SOL    HW217052   5.359   5.814   5.312
 5385SOL     OW17053   4.754   2.730   5.562
 5385SOL    HW117054   4.844   2.741   5.520
 5385SOL    HW217055   4.710   2.649   5.524
 5386SOL     OW17056   6.422   4.233   4.060
 5386SOL    HW117057   6.423   4.161   4.129
 5386SOL    HW217058   6.373   4.313   4.095
 5387SOL     OW17059   2.056   1.743   2.493
 5387SOL    HW117060   2.010   1.657   2.515
 5387SOL    HW217061   2.124   1.727   2.421
 5388SOL     OW17062   0.786   6.934   2.086
 5388SOL    HW117063   0.857   6.878   2.043
 5388SOL    HW217064   0.705   6.877   2.103
 5389SOL     OW17065   4.294   1.903   4.027
 5389SOL    HW117066   4.369   1.843   4.002
 5389SOL    HW217067   4.212   1.877   3.976
 5390SOL     OW17068   6.674   3.147   3.769
 5390SOL    HW117069   6.701   3.055   3.795
 5390SOL    HW217070   6.580   3.164   3.799
 5391SOL     OW17071   2.298   2.811   0.754
 5391SOL    HW117072   2.342   2.823   0.665
 5391SOL    HW217073   2.358   2.757   0.813
 5392SOL     OW17074   6.091   2.275   3.638
 5392SOL    HW117075   6.080   2.234   3.729
 5392SOL    HW217076   6.047   2.217   3.570
 5393SOL     OW17077   3.830   1.738   5.594
 5393SOL    HW117078   3.884   1.659   5.621
 5393SOL    HW217079   3.825   1.744   5.495
 5394SOL     OW17080   1.284   0.783   1.310
 5394SOL    HW117081   1.296   0.684   1.320
 5394SOL    HW217082   1.284   0.807   1.213
 5395SOL     OW17083   5.732   1.629   1.259
 5395SOL    HW117084   5.784   1.544   1.253
 5395SOL    HW217085   5.634   1.609   1.258
 5396SOL     OW17086   5.665   5.438   3.498
 5396SOL    HW117087   5.585   5.433   3.557
 5396SOL    HW217088   5.701   5.346   3.482
 5397SOL     OW17089   0.031   1.329   2.828
 5397SOL    HW117090   6.969   1.359   2.867
 5397SOL    HW217091   0.042   1.368   2.736
 5398SOL     OW17092   5.003   2.012   3.343
 5398SOL    HW117093   4.981   2.109   3.343
 5398SOL    HW217094   5.089   1.998   3.293
 5399SOL     OW17095   2.932   0.479   6.062
 5399SOL    HW117096   2.851   0.420   6.070
 5399SOL    HW217097   2.904   0.570   6.033
 5400SOL     OW17098   3.860   3.159   1.769
 5400SOL    HW117099   3.851   3.117   1.859
 5400SOL    HW217100   3.929   3.110   1.715
 5401SOL     OW17101   6.078   4.257   1.597
 5401SOL    HW117102   6.023   4.221   1.673
 5401SOL    HW217103   6.090   4.186   1.528
 5402SOL     OW17104   1.618   6.965   0.864
 5402SOL    HW117105   1.600   6.906   0.785
 5402SOL    HW217106   1.537   7.022   0.883
 5403SOL     OW17107   5.149   3.238   0.279
 5403SOL    HW117108   5.224   3.299   0.255
 5403SOL    HW217109   5.169   3.145   0.248
 5404SOL     OW17110   6.672   1.147   0.781
 5404SOL    HW117111   6.607   1.073   0.795
 5404SOL    HW217112   6.647   1.200   0.700
 5405SOL     OW17113   5.093   6.227   6.716
 5405SOL    HW117114   5.020   6.252   6.779
 5405SOL    HW217115   5.181   6.247   6.758
 5406SOL     OW17116   2.889   0.138   3.473
 5406SOL    HW117117   2.933   0.209   3.418
 5406SOL    HW217118   2.938   0.051   3.459
 5407SOL     OW17119   1.766   0.060   2.302
 5407SOL    HW117120   1.734   0.155   2.307
 5407SOL    HW217121   1.837   0.052   2.232
 5408SOL     OW17122   3.576   1.955   4.310
 5408SOL    HW117123   3.584   2.003   4.397
 5408SOL    HW217124   3.541   1.863   4.325
 5409SOL     OW17125   1.303   2.943   0.689
 5409SOL    HW117126   1.222   2.906   0.644
 5409SOL    HW217127   1.276   3.013   0.756
 5410SOL     OW17128   0.740   2.458   0.464
 5410SOL    HW117129   0.727   2.557   0.469
 5410SOL    HW217130   0.712   2.425   0.374
 5411SOL     OW17131   3.549   4.961   6.880
 5411SOL    HW117132   3.466   4.911   6.859
 5411SOL    HW217133   3.567   4.956   6.979
 5412SOL     OW17134   6.906   2.441   5.929
 5412SOL    HW117135   6.949   2.531   5.934
 5412SOL    HW217136   6.838   2.432   6.003
 5413SOL     OW17137   7.019   6.661   4.296
 5413SOL    HW117138   0.083   6.681   4.338
 5413SOL    HW217139   6.999   6.564   4.304
 5414SOL     OW17140   5.885   3.755   5.249
 5414SOL    HW117141   5.933   3.728   5.332
 5414SOL    HW217142   5.837   3.675   5.211
 5415SOL     OW17143   3.768   0.434   0.470
 5415SOL    HW117144   3.844   0.407   0.530
 5415SOL    HW217145   3.784   0.525   0.434
 5416SOL     OW17146   3.064   5.499   6.164
 5416SOL    HW117147   3.099   5.499   6.071
 5416SOL    HW217148   3.100   5.579   6.213
 5417SOL     OW17149   4.777   6.037   3.555
 5417SOL    HW117150   4.732   5.948   3.551
 5417SOL    HW217151   4.818   6.049   3.646
 5418SOL     OW17152   6.114   3.879   4.833
 5418SOL    HW117153   6.124   3.958   4.894
 5418SOL    HW217154   6.105   3.910   4.739
 5419SOL     OW17155   4.293   0.003   6.492
 5419SOL    HW117156   4.234   0.080   6.515
 5419SOL    HW217157   4.375   0.006   6.549
 5420SOL     OW17158   0.918   0.862   1.910
 5420SOL    HW117159   0.856   0.929   1.952
 5420SOL    HW217160   0.866   0.782   1.880
 5421SOL     OW17161   3.672   5.090   2.307
 5421SOL    HW117162   3.651   5.170   2.250
 5421SOL    HW217163   3.730   5.027   2.256
 5422SOL     OW17164   2.658   5.768   4.240
 5422SOL    HW117165   2.711   5.833   4.186
 5422SOL    HW217166   2.697   5.762   4.332
 5423SOL     OW17167   5.784   6.118   2.243
 5423SOL    HW117168   5.717   6.139   2.315
 5423SOL    HW217169   5.867   6.081   2.285
 5424SOL     OW17170   4.437   3.846   5.663
 5424SOL    HW117171   4.474   3.863   5.572
 5424SOL    HW217172   4.492   3.777   5.709
 5425SOL     OW17173   0.877   3.317   5.487
 5425SOL    HW117174   0.860   3.413   5.468
 5425SOL    HW217175   0.849   3.296   5.581
 5426SOL     OW17176   5.426   5.277   2.072
 5426SOL    HW117177   5.432   5.327   1.985
 5426SOL    HW217178   5.496   5.206   2.074
 5427SOL     OW17179   4.812   2.663   6.270
 5427SOL    HW117180   4.747   2.611   6.325
 5427SOL    HW217181   4.762   2.720   6.205
 5428SOL     OW17182   6.737   5.296   3.367
 5428SOL    HW117183   6.775   5.327   3.280
 5428SOL    HW217184   6.669   5.225   3.350
 5429SOL     OW17185   3.102   0.212   4.107
 5429SOL    HW117186   3.182   0.208   4.046
 5429SOL    HW217187   3.039   0.138   4.084
 5430SOL     OW17188   3.069   4.094   6.304
 5430SOL    HW117189   3.097   4.187   6.329
 5430SOL    HW217190   3.092   4.077   6.208
 5431SOL     OW17191   3.469   4.793   6.261
 5431SOL    HW117192   3.551   4.789   6.317
 5431SOL    HW217193   3.440   4.700   6.238
 5432SOL     OW17194   5.018   5.141   6.992
 5432SOL    HW117195   5.026   5.145   0.067
 5432SOL    HW217196   5.072   5.065   6.957
 5433SOL     OW17197   1.832   6.817   0.999
 5433SOL    HW117198   1.867   6.895   1.051
 5433SOL    HW217199   1.738   6.835   0.971
 5434SOL     OW17200   5.457   0.525   4.605
 5434SOL    HW117201   5.545   0.487   4.631
 5434SOL    HW217202   5.430   0.488   4.516
 5435SOL     OW17203   6.788   3.973   0.839
 5435SOL    HW117204   6.715   3.906   0.828
 5435SOL    HW217205   6.876   3.931   0.815
 5436SOL     OW17206   1.222   4.418   2.914
 5436SOL    HW117207   1.280   4.481   2.966
 5436SOL    HW217208   1.164   4.366   2.978
 5437SOL     OW17209   3.895   5.762   1.472
 5437SOL    HW117210   3.847   5.759   1.384
 5437SOL    HW217211   3.838   5.809   1.540
 5438SOL     OW17212   5.014   4.768   2.449
 5438SOL    HW117213   4.962   4.716   2.517
 5438SOL    HW217214   4.977   4.749   2.357
 5439SOL     OW17215   1.389   5.135   1.486
 5439SOL    HW117216   1.370   5.201   1.558
 5439SOL    HW217217   1.482   5.148   1.452
 5440SOL     OW17218   5.844   5.826   3.479
 5440SOL    HW117219   5.914   5.869   3.423
 5440SOL    HW217220   5.856   5.852   3.575
 5441SOL     OW17221   5.013   2.825   3.338
 5441SOL    HW117222   4.976   2.772   3.414
 5441SOL    HW217223   5.113   2.830   3.346
 5442SOL     OW17224   4.569   6.923   5.146
 5442SOL    HW117225   4.550   6.995   5.079
 5442SOL    HW217226   4.654   6.944   5.194
 5443SOL     OW17227   4.335   0.289   4.632
 5443SOL    HW117228   4.402   0.236   4.683
 5443SOL    HW217229   4.378   0.374   4.600
 5444SOL     OW17230   6.381   1.093   4.776
 5444SOL    HW117231   6.361   1.190   4.784
 5444SOL    HW217232   6.357   1.045   4.860
 5445SOL     OW17233   5.762   5.094   5.517
 5445SOL    HW117234   5.669   5.080   5.552
 5445SOL    HW217235   5.799   5.007   5.485
 5446SOL     OW17236   0.472   4.819   5.998
 5446SOL    HW117237   0.446   4.830   5.903
 5446SOL    HW217238   0.491   4.722   6.016
 5447SOL     OW17239   1.227   1.333   0.042
 5447SOL    HW117240   1.260   1.339   0.136
 5447SOL    HW217241   1.164   1.409   0.024
 5448SOL     OW17242   4.379   5.517   3.389
 5448SOL    HW117243   4.295   5.570   3.396
 5448SOL    HW217244   4.393   5.488   3.294
 5449SOL     OW17245   2.796   1.897   1.699
 5449SOL    HW117246   2.860   1.898   1.775
 5449SOL    HW217247   2.846   1.891   1.613
 5450SOL     OW17248   3.975   5.461   1.784
 5450SOL    HW117249   3.888   5.438   1.739
 5450SOL    HW217250   4.039   5.497   1.717
 5451SOL     OW17251   0.481   0.018   3.220
 5451SOL    HW117252   0.571   0.046   3.185
 5451SOL    HW217253   0.428   7.003   3.145
 5452SOL     OW17254   2.012   4.796   2.221
 5452SOL    HW117255   2.069   4.717   2.245
 5452SOL    HW217256   1.960   4.826   2.301
 5453SOL     OW17257   5.499   4.293   3.310
 5453SOL    HW117258   5.595   4.321   3.305
 5453SOL    HW217259   5.482   4.247   3.397
 5454SOL     OW17260   5.276   5.533   3.546
 5454SOL    HW117261   5.285   5.617   3.599
 5454SOL    HW217262   5.280   5.555   3.449
 5455SOL     OW17263   0.997   1.867   3.438
 5455SOL    HW117264   0.902   1.839   3.421
 5455SOL    HW217265   1.016   1.950   3.386
 5456SOL     OW17266   6.076   1.056   0.418
 5456SOL    HW117267   5.986   1.029   0.453
 5456SOL    HW217268   6.133   0.975   0.406
 5457SOL     OW17269   5.954   2.657   6.885
 5457SOL    HW117270   5.972   2.636   6.981
 5457SOL    HW217271   5.924   2.574   6.838
 5458SOL     OW17272   6.293   4.736   0.662
 5458SOL    HW117273   6.312   4.670   0.588
 5458SOL    HW217274   6.372   4.796   0.674
 5459SOL     OW17275   2.251   3.901   5.586
 5459SOL    HW117276   2.349   3.888   5.574
 5459SOL    HW217277   2.211   3.818   5.625
 5460SOL     OW17278   1.739   0.142   0.254
 5460SOL    HW117279   1.701   0.225   0.214
 5460SOL    HW217280   1.668   0.093   0.305
 5461SOL     OW17281   6.746   1.152   5.803
 5461SOL    HW117282   6.799   1.165   5.719
 5461SOL    HW217283   6.805   1.169   5.882
 5462SOL     OW17284   5.547   5.563   6.764
 5462SOL    HW117285   5.453   5.571   6.732
 5462SOL    HW217286   5.597   5.646   6.740
 5463SOL     OW17287   0.361   2.960   6.522
 5463SOL    HW117288   0.282   2.977   6.463
 5463SOL    HW217289   0.367   3.032   6.591
 5464SOL     OW17290   0.012   6.139   5.123
 5464SOL    HW117291   0.070   6.175   5.197
 5464SOL    HW217292   6.960   6.201   5.108
 5465SOL     OW17293   6.648   6.060   3.610
 5465SOL    HW117294   6.710   6.099   3.677
 5465SOL    HW217295   6.553   6.078   3.638
 5466SOL     OW17296   5.859   2.732   5.751
 5466SOL    HW117297   5.901   2.641   5.745
 5466SOL    HW217298   5.791   2.742   5.678
 5467SOL     OW17299   5.447   3.618   4.205
 5467SOL    HW117300   5.446   3.538   4.145
 5467SOL    HW217301   5.525   3.611   4.267
 5468SOL     OW17302   0.170   1.123   1.795
 5468SOL    HW117303   0.126   1.208   1.826
 5468SOL    HW217304   0.154   1.051   1.863
 5469SOL     OW17305   2.385   0.627   5.431
 5469SOL    HW117306   2.372   0.708   5.487
 5469SOL    HW217307   2.377   0.545   5.488
 5470SOL     OW17308   3.847   5.186   4.048
 5470SOL    HW117309   3.757   5.210   4.084
 5470SOL    HW217310   3.838   5.150   3.956
 5471SOL     OW17311   4.987   0.398   3.297
 5471SOL    HW117312   5.058   0.338   3.260
 5471SOL    HW217313   5.004   0.492   3.266
 5472SOL     OW17314   2.493   1.925   6.403
 5472SOL    HW117315   2.451   1.838   6.376
 5472SOL    HW217316   2.575   1.941   6.348
 5473SOL     OW17317   2.674   4.364   1.390
 5473SOL    HW117318   2.645   4.455   1.361
 5473SOL    HW217319   2.705   4.367   1.485
 5474SOL     OW17320   0.283   5.238   3.866
 5474SOL    HW117321   0.341   5.272   3.792
 5474SOL    HW217322   0.305   5.288   3.950
 5475SOL     OW17323   0.043   2.392   5.695
 5475SOL    HW117324   0.087   2.303   5.690
 5475SOL    HW217325   6.982   2.385   5.746
 5476SOL     OW17326   2.411   6.487   6.454
 5476SOL    HW117327   2.496   6.539   6.439
 5476SOL    HW217328   2.336   6.531   6.404
 5477SOL     OW17329   2.062   5.567   4.200
 5477SOL    HW117330   2.089   5.472   4.213
 5477SOL    HW217331   2.060   5.614   4.288
 5478SOL     OW17332   5.497   4.888   6.111
 5478SOL    HW117333   5.456   4.806   6.069
 5478SOL    HW217334   5.439   4.967   6.092
 5479SOL     OW17335   3.340   2.158   4.712
 5479SOL    HW117336   3.289   2.216   4.776
 5479SOL    HW217337   3.325   2.062   4.735
 5480SOL     OW17338   6.149   4.105   4.977
 5480SOL    HW117339   6.120   4.076   5.068
 5480SOL    HW217340   6.076   4.161   4.936
 5481SOL     OW17341   4.578   1.014   6.688
 5481SOL    HW117342   4.503   0.998   6.753
 5481SOL    HW217343   4.646   1.075   6.730
 5482SOL     OW17344   4.385   3.370   1.542
 5482SOL    HW117345   4.438   3.447   1.578
 5482SOL    HW217346   4.415   3.286   1.587
 5483SOL     OW17347   6.917   3.849   5.971
 5483SOL    HW117348   6.833   3.877   5.925
 5483SOL    HW217349   6.978   3.928   5.978
 5484SOL     OW17350   6.525   6.447   3.859
 5484SOL    HW117351   6.532   6.354   3.896
 5484SOL    HW217352   6.608   6.468   3.808
 5485SOL     OW17353   3.892   6.915   5.737
 5485SOL    HW117354   3.916   6.821   5.759
 5485SOL    HW217355   3.860   6.921   5.643
 5486SOL     OW17356   1.021   0.791   3.049
 5486SOL    HW117357   0.964   0.721   3.092
 5486SOL    HW217358   0.976   0.826   2.967
 5487SOL     OW17359   6.492   5.048   0.403
 5487SOL    HW117360   6.432   5.120   0.437
 5487SOL    HW217361   6.509   4.982   0.477
 5488SOL     OW17362   4.982   2.402   6.293
 5488SOL    HW117363   4.888   2.373   6.277
 5488SOL    HW217364   5.002   2.484   6.239
 5489SOL     OW17365   1.715   4.831   2.663
 5489SOL    HW117366   1.618   4.857   2.659
 5489SOL    HW217367   1.743   4.823   2.759
 5490SOL     OW17368   2.907   0.884   0.466
 5490SOL    HW117369   2.900   0.900   0.565
 5490SOL    HW217370   2.817   0.863   0.429
 5491SOL     OW17371   1.881   4.968   0.451
 5491SOL    HW117372   1.799   4.962   0.507
 5491SOL    HW217373   1.955   4.915   0.493
 5492SOL     OW17374   0.880   2.529   6.410
 5492SOL    HW117375   0.965   2.564   6.371
 5492SOL    HW217376   0.885   2.531   6.509
 5493SOL     OW17377   3.697   3.175   6.051
 5493SOL    HW117378   3.795   3.193   6.039
 5493SOL    HW217379   3.645   3.255   6.023
 5494SOL     OW17380   6.358   3.637   1.321
 5494SOL    HW117381   6.398   3.685   1.399
 5494SOL    HW217382   6.345   3.540   1.346
 5495SOL     OW17383   4.023   3.740   2.588
 5495SOL    HW117384   4.083   3.670   2.548
 5495SOL    HW217385   4.037   3.743   2.687
 5496SOL     OW17386   3.209   5.954   2.077
 5496SOL    HW117387   3.308   5.953   2.064
 5496SOL    HW217388   3.177   6.048   2.078
 5497SOL     OW17389   0.480   1.462   2.910
 5497SOL    HW117390   0.441   1.411   2.986
 5497SOL    HW217391   0.429   1.548   2.897
 5498SOL     OW17392   4.459   1.486   5.442
 5498SOL    HW117393   4.455   1.493   5.541
 5498SOL    HW217394   4.512   1.405   5.416
 5499SOL     OW17395   6.798   1.625   3.114
 5499SOL    HW117396   6.702   1.634   3.144
 5499SOL    HW217397   6.823   1.703   3.057
 5500SOL     OW17398   2.271   5.570   0.469
 5500SOL    HW117399   2.287   5.660   0.428
 5500SOL    HW217400   2.249   5.504   0.398
 5501SOL     OW17401   2.435   0.316   2.164
 5501SOL    HW117402   2.343   0.354   2.154
 5501SOL    HW217403   2.460   0.313   2.261
 5502SOL     OW17404   6.377   4.152   5.898
 5502SOL    HW117405   6.370   4.054   5.880
 5502SOL    HW217406   6.376   4.202   5.811
 5503SOL     OW17407   1.066   4.298   3.112
 5503SOL    HW117408   1.001   4.224   3.098
 5503SOL    HW217409   1.048   4.343   3.199
 5504SOL     OW17410   3.271   1.920   4.794
 5504SOL    HW117411   3.173   1.902   4.789
 5504SOL    HW217412   3.321   1.850   4.743
 5505SOL     OW17413   2.747   5.477   5.352
 5505SOL    HW117414   2.791   5.387   5.349
 5505SOL    HW217415   2.668   5.478   5.292
 5506SOL     OW17416   6.474   0.635   4.933
 5506SOL    HW117417   6.536   0.651   5.010
 5506SOL    HW217418   6.381   0.619   4.968
 5507SOL     OW17419   2.853   6.885   3.777
 5507SOL    HW117420   2.900   6.972   3.758
 5507SOL    HW217421   2.893   6.813   3.721
 5508SOL     OW17422   2.188   0.355   6.394
 5508SOL    HW117423   2.221   0.435   6.443
 5508SOL    HW217424   2.263   0.314   6.342
 5509SOL     OW17425   5.836   6.878   0.328
 5509SOL    HW117426   5.792   6.932   0.256
 5509SOL    HW217427   5.921   6.838   0.292
 5510SOL     OW17428   4.385   0.605   6.325
 5510SOL    HW117429   4.453   0.671   6.293
 5510SOL    HW217430   4.422   0.512   6.315
 5511SOL     OW17431   0.262   0.427   2.490
 5511SOL    HW117432   0.257   0.521   2.526
 5511SOL    HW217433   0.339   0.380   2.533
 5512SOL     OW17434   0.698   1.717   6.888
 5512SOL    HW117435   0.631   1.644   6.876
 5512SOL    HW217436   0.774   1.704   6.824
 5513SOL     OW17437   4.478   4.511   4.717
 5513SOL    HW117438   4.543   4.578   4.753
 5513SOL    HW217439   4.399   4.505   4.777
 5514SOL     OW17440   5.556   4.993   2.887
 5514SOL    HW117441   5.656   4.992   2.883
 5514SOL    HW217442   5.525   5.078   2.932
 5515SOL     OW17443   6.676   2.509   2.469
 5515SOL    HW117444   6.704   2.503   2.564
 5515SOL    HW217445   6.693   2.421   2.424
 5516SOL     OW17446   1.524   2.841   6.621
 5516SOL    HW117447   1.568   2.767   6.570
 5516SOL    HW217448   1.500   2.809   6.713
 5517SOL     OW17449   3.175   1.817   1.138
 5517SOL    HW117450   3.222   1.865   1.064
 5517SOL    HW217451   3.147   1.883   1.208
 5518SOL     OW17452   5.501   5.203   5.882
 5518SOL    HW117453   5.474   5.255   5.801
 5518SOL    HW217454   5.422   5.190   5.941
 5519SOL     OW17455   5.538   3.288   3.857
 5519SOL    HW117456   5.566   3.193   3.841
 5519SOL    HW217457   5.609   3.349   3.823
 5520SOL     OW17458   1.465   3.614   2.604
 5520SOL    HW117459   1.399   3.574   2.667
 5520SOL    HW217460   1.421   3.630   2.515
 5521SOL     OW17461   5.376   6.547   1.875
 5521SOL    HW117462   5.399   6.606   1.953
 5521SOL    HW217463   5.460   6.518   1.829
 5522SOL     OW17464   2.501   3.302   1.719
 5522SOL    HW117465   2.430   3.324   1.785
 5522SOL    HW217466   2.577   3.365   1.729
 5523SOL     OW17467   3.300   6.880   2.791
 5523SOL    HW117468   3.359   6.953   2.757
 5523SOL    HW217469   3.228   6.920   2.849
 5524SOL     OW17470   1.080   5.228   5.278
 5524SOL    HW117471   1.072   5.257   5.182
 5524SOL    HW217472   1.083   5.128   5.283
 5525SOL     OW17473   6.777   5.208   7.009
 5525SOL    HW117474   6.768   5.302   6.978
 5525SOL    HW217475   6.725   5.196   0.069
 5526SOL     OW17476   6.046   3.445   3.429
 5526SOL    HW117477   6.013   3.533   3.462
 5526SOL    HW217478   6.044   3.378   3.503
 5527SOL     OW17479   1.145   2.698   1.514
 5527SOL    HW117480   1.046   2.712   1.506
 5527SOL    HW217481   1.164   2.601   1.529
 5528SOL     OW17482   0.121   2.444   4.929
 5528SOL    HW117483   0.052   2.427   4.998
 5528SOL    HW217484   0.209   2.406   4.959
 5529SOL     OW17485   2.170   0.904   4.882
 5529SOL    HW117486   2.111   0.829   4.910
 5529SOL    HW217487   2.190   0.964   4.960
 5530SOL     OW17488   0.216   2.388   0.474
 5530SOL    HW117489   0.243   2.295   0.499
 5530SOL    HW217490   0.128   2.385   0.426
 5531SOL     OW17491   4.115   3.349   4.758
 5531SOL    HW117492   4.033   3.345   4.701
 5531SOL    HW217493   4.155   3.257   4.765
 5532SOL     OW17494   1.665   1.284   0.299
 5532SOL    HW117495   1.652   1.191   0.333
 5532SOL    HW217496   1.739   1.285   0.232
 5533SOL     OW17497   3.073   0.545   2.910
 5533SOL    HW117498   3.008   0.590   2.971
 5533SOL    HW217499   3.024   0.511   2.830
 5534SOL     OW17500   1.384   3.573   6.632
 5534SOL    HW117501   1.414   3.492   6.580
 5534SOL    HW217502   1.375   3.651   6.569
 5535SOL     OW17503   6.356   2.982   3.042
 5535SOL    HW117504   6.436   3.040   3.026
 5535SOL    HW217505   6.283   3.035   3.084
 5536SOL     OW17506   2.303   0.627   4.446
 5536SOL    HW117507   2.291   0.689   4.523
 5536SOL    HW217508   2.228   0.639   4.381
 5537SOL     OW17509   3.623   0.396   5.150
 5537SOL    HW117510   3.587   0.398   5.057
 5537SOL    HW217511   3.722   0.379   5.147
 5538SOL     OW17512   3.809   0.826   5.325
 5538SOL    HW117513   3.772   0.734   5.313
 5538SOL    HW217514   3.894   0.822   5.377
 5539SOL     OW17515   0.911   1.347   1.859
 5539SOL    HW117516   0.823   1.387   1.883
 5539SOL    HW217517   0.909   1.248   1.874
 5540SOL     OW17518   4.987   3.179   1.303
 5540SOL    HW117519   5.077   3.135   1.301
 5540SOL    HW217520   4.973   3.228   1.217
 5541SOL     OW17521   5.493   3.516   5.622
 5541SOL    HW117522   5.568   3.535   5.686
 5541SOL    HW217523   5.447   3.602   5.600
 5542SOL     OW17524   5.253   4.927   6.312
 5542SOL    HW117525   5.282   4.836   6.343
 5542SOL    HW217526   5.266   4.934   6.213
 5543SOL     OW17527   2.180   5.970   6.624
 5543SOL    HW117528   2.116   5.893   6.625
 5543SOL    HW217529   2.235   5.966   6.540
 5544SOL     OW17530   5.134   5.297   6.085
 5544SOL    HW117531   5.160   5.394   6.088
 5544SOL    HW217532   5.115   5.271   5.991
 5545SOL     OW17533   4.057   1.506   2.853
 5545SOL    HW117534   4.047   1.582   2.918
 5545SOL    HW217535   4.000   1.523   2.773
 5546SOL     OW17536   0.937   6.145   4.844
 5546SOL    HW117537   0.892   6.234   4.849
 5546SOL    HW217538   0.977   6.123   4.933
 5547SOL     OW17539   4.243   1.744   5.580
 5547SOL    HW117540   4.204   1.829   5.544
 5547SOL    HW217541   4.169   1.681   5.605
 5548SOL     OW17542   6.869   4.193   5.689
 5548SOL    HW117543   6.858   4.120   5.756
 5548SOL    HW217544   6.894   4.278   5.735
 5549SOL     OW17545   4.058   3.252   1.404
 5549SOL    HW117546   4.098   3.168   1.368
 5549SOL    HW217547   4.101   3.331   1.360
 5550SOL     OW17548   2.370   4.337   3.339
 5550SOL    HW117549   2.345   4.380   3.253
 5550SOL    HW217550   2.466   4.354   3.359
 5551SOL     OW17551   1.593   5.444   2.766
 5551SOL    HW117552   1.652   5.411   2.692
 5551SOL    HW217553   1.533   5.516   2.732
 5552SOL     OW17554   6.435   6.995   5.733
 5552SOL    HW117555   6.360   0.027   5.767
 5552SOL    HW217556   6.472   0.011   5.649
 5553SOL     OW17557   4.489   0.228   6.807
 5553SOL    HW117558   4.569   0.281   6.836
 5553SOL    HW217559   4.438   0.197   6.887
 5554SOL     OW17560   4.756   3.213   1.580
 5554SOL    HW117561   4.791   3.287   1.637
 5554SOL    HW217562   4.798   3.127   1.608
 5555SOL     OW17563   0.823   3.992   2.641
 5555SOL    HW117564   0.858   3.903   2.612
 5555SOL    HW217565   0.899   4.056   2.650
 5556SOL     OW17566   6.443   1.141   4.027
 5556SOL    HW117567   6.347   1.157   4.005
 5556SOL    HW217568   6.455   1.146   4.126
 5557SOL     OW17569   3.463   5.543   1.993
 5557SOL    HW117570   3.382   5.528   2.050
 5557SOL    HW217571   3.447   5.620   1.932
 5558SOL     OW17572   3.803   4.095   0.579
 5558SOL    HW117573   3.821   4.194   0.587
 5558SOL    HW217574   3.744   4.066   0.654
 5559SOL     OW17575   1.129   0.236   2.754
 5559SOL    HW117576   1.167   0.323   2.722
 5559SOL    HW217577   1.078   0.192   2.680
 5560SOL     OW17578   0.041   5.649   2.097
 5560SOL    HW117579   7.011   5.581   2.049
 5560SOL    HW217580   0.017   5.740   2.066
 5561SOL     OW17581   2.871   0.408   4.730
 5561SOL    HW117582   2.946   0.410   4.663
 5561SOL    HW217583   2.865   0.316   4.770
 5562SOL     OW17584   4.331   4.320   0.066
 5562SOL    HW117585   4.387   4.282   7.017
 5562SOL    HW217586   4.333   4.420   0.062
 5563SOL     OW17587   3.010   5.371   2.642
 5563SOL    HW117588   3.069   5.444   2.605
 5563SOL    HW217589   2.997   5.385   2.740
 5564SOL     OW17590   5.006   6.761   6.787
 5564SOL    HW117591   4.926   6.802   6.830
 5564SOL    HW217592   5.062   6.833   6.746
 5565SOL     OW17593   4.202   2.964   6.733
 5565SOL    HW117594   4.206   3.001   6.826
 5565SOL    HW217595   4.111   2.981   6.694
 5566SOL     OW17596   2.352   4.498   0.344
 5566SOL    HW117597   2.441   4.544   0.340
 5566SOL    HW217598   2.335   4.467   0.437
 5567SOL     OW17599   0.832   3.799   1.816
 5567SOL    HW117600   0.836   3.853   1.900
 5567SOL    HW217601   0.738   3.767   1.801
 5568SOL     OW17602   4.467   0.515   3.233
 5568SOL    HW117603   4.416   0.586   3.185
 5568SOL    HW217604   4.419   0.491   3.317
 5569SOL     OW17605   2.240   1.714   3.016
 5569SOL    HW117606   2.172   1.787   3.023
 5569SOL    HW217607   2.332   1.754   3.015
 5570SOL     OW17608   6.478   3.362   3.204
 5570SOL    HW117609   6.454   3.334   3.112
 5570SOL    HW217610   6.501   3.460   3.204
 5571SOL     OW17611   6.575   5.300   1.957
 5571SOL    HW117612   6.511   5.286   2.033
 5571SOL    HW217613   6.586   5.397   1.939
 5572SOL     OW17614   1.713   3.902   4.721
 5572SOL    HW117615   1.660   3.831   4.767
 5572SOL    HW217616   1.726   3.979   4.783
 5573SOL     OW17617   1.433   5.465   5.173
 5573SOL    HW117618   1.527   5.499   5.184
 5573SOL    HW217619   1.429   5.405   5.093
 5574SOL     OW17620   0.307   3.064   6.983
 5574SOL    HW117621   0.232   2.999   6.974
 5574SOL    HW217622   0.376   3.028   0.021
 5575SOL     OW17623   0.044   0.119   1.005
 5575SOL    HW117624   0.038   0.157   1.098
 5575SOL    HW217625   6.982   0.134   0.958
 5576SOL     OW17626   1.505   3.891   2.613
 5576SOL    HW117627   1.515   3.793   2.599
 5576SOL    HW217628   1.594   3.930   2.639
 5577SOL     OW17629   2.136   2.651   0.328
 5577SOL    HW117630   2.204   2.711   0.286
 5577SOL    HW217631   2.110   2.688   0.417
 5578SOL     OW17632   3.737   4.105   2.219
 5578SOL    HW117633   3.723   4.170   2.145
 5578SOL    HW217634   3.812   4.137   2.278
 5579SOL     OW17635   0.861   3.979   1.334
 5579SOL    HW117636   0.837   3.895   1.285
 5579SOL    HW217637   0.830   4.058   1.282
 5580SOL     OW17638   4.243   2.071   5.788
 5580SOL    HW117639   4.227   2.169   5.775
 5580SOL    HW217640   4.168   2.031   5.841
 5581SOL     OW17641   1.501   0.948   1.397
 5581SOL    HW117642   1.417   0.894   1.406
 5581SOL    HW217643   1.548   0.950   1.486
 5582SOL     OW17644   2.602   3.932   6.961
 5582SOL    HW117645   2.604   3.975   0.026
 5582SOL    HW217646   2.694   3.899   6.937
 5583SOL     OW17647   4.008   0.803   2.504
 5583SOL    HW117648   4.028   0.898   2.528
 5583SOL    HW217649   4.094   0.756   2.483
 5584SOL     OW17650   6.237   3.438   4.471
 5584SOL    HW117651   6.204   3.365   4.532
 5584SOL    HW217652   6.162   3.502   4.453
 5585SOL     OW17653   5.117   5.341   3.280
 5585SOL    HW117654   5.071   5.373   3.362
 5585SOL    HW217655   5.096   5.244   3.266
 5586SOL     OW17656   0.051   4.054   6.009
 5586SOL    HW117657   0.099   4.041   5.922
 5586SOL    HW217658   0.115   4.038   6.085
 5587SOL     OW17659   4.257   0.434   0.926
 5587SOL    HW117660   4.282   0.485   1.008
 5587SOL    HW217661   4.219   0.345   0.953
 5588SOL     OW17662   2.317   6.208   2.804
 5588SOL    HW117663   2.388   6.240   2.743
 5588SOL    HW217664   2.358   6.159   2.881
 5589SOL     OW17665   6.184   4.228   6.642
 5589SOL    HW117666   6.236   4.149   6.609
 5589SOL    HW217667   6.154   4.212   6.736
 5590SOL     OW17668   6.783   6.696   3.531
 5590SOL    HW117669   6.707   6.670   3.472
 5590SOL    HW217670   6.749   6.747   3.610
 5591SOL     OW17671   0.030   1.989   1.266
 5591SOL    HW117672   0.091   1.921   1.307
 5591SOL    HW217673   0.082   2.071   1.243
 5592SOL     OW17674   2.206   5.827   4.018
 5592SOL    HW117675   2.226   5.739   3.975
 5592SOL    HW217676   2.109   5.830   4.042
 5593SOL     OW17677   0.013   2.937   6.553
 5593SOL    HW117678   0.052   2.945   6.462
 5593SOL    HW217679   6.977   3.015   6.570
 5594SOL     OW17680   5.084   0.887   4.929
 5594SOL    HW117681   5.132   0.929   5.006
 5594SOL    HW217682   5.110   0.934   4.845
 5595SOL     OW17683   0.858   1.377   4.558
 5595SOL    HW117684   0.824   1.438   4.630
 5595SOL    HW217685   0.918   1.429   4.497
 5596SOL     OW17686   4.159   6.338   3.040
 5596SOL    HW117687   4.075   6.331   3.093
 5596SOL    HW217688   4.204   6.425   3.061
 5597SOL     OW17689   4.968   2.264   4.160
 5597SOL    HW117690   5.061   2.294   4.136
 5597SOL    HW217691   4.901   2.327   4.122
 5598SOL     OW17692   5.525   3.599   4.711
 5598SOL    HW117693   5.467   3.671   4.750
 5598SOL    HW217694   5.474   3.513   4.710
 5599SOL     OW17695   1.106   1.280   4.225
 5599SOL    HW117696   1.034   1.328   4.174
 5599SOL    HW217697   1.185   1.266   4.166
 5600SOL     OW17698   0.731   1.045   1.952
 5600SOL    HW117699   0.767   1.081   2.038
 5600SOL    HW217700   0.644   1.090   1.932
 5601SOL     OW17701   2.575   0.671   5.817
 5601SOL    HW117702   2.620   0.608   5.881
 5601SOL    HW217703   2.562   0.760   5.862
 5602SOL     OW17704   6.461   1.674   0.258
 5602SOL    HW117705   6.382   1.649   0.314
 5602SOL    HW217706   6.484   1.598   0.197
 5603SOL     OW17707   5.714   2.359   6.510
 5603SOL    HW117708   5.734   2.314   6.423
 5603SOL    HW217709   5.626   2.406   6.504
 5604SOL     OW17710   6.493   2.382   5.342
 5604SOL    HW117711   6.415   2.364   5.403
 5604SOL    HW217712   6.578   2.369   5.393
 5605SOL     OW17713   0.697   0.484   4.824
 5605SOL    HW117714   0.657   0.471   4.733
 5605SOL    HW217715   0.633   0.450   4.893
 5606SOL     OW17716   4.754   7.015   0.768
 5606SOL    HW117717   4.817   0.025   0.699
 5606SOL    HW217718   4.772   6.918   0.785
 5607SOL     OW17719   5.580   0.197   2.531
 5607SOL    HW117720   5.663   0.198   2.476
 5607SOL    HW217721   5.515   0.264   2.495
 5608SOL     OW17722   4.929   0.125   5.071
 5608SOL    HW117723   4.834   0.143   5.044
 5608SOL    HW217724   4.990   0.177   5.012
 5609SOL     OW17725   2.476   4.967   1.055
 5609SOL    HW117726   2.458   4.974   1.153
 5609SOL    HW217727   2.456   4.874   1.024
 5610SOL     OW17728   4.387   6.519   0.932
 5610SOL    HW117729   4.386   6.437   0.876
 5610SOL    HW217730   4.476   6.530   0.975
 5611SOL     OW17731   1.003   5.350   2.690
 5611SOL    HW117732   0.967   5.260   2.665
 5611SOL    HW217733   0.961   5.381   2.775
 5612SOL     OW17734   3.735   1.713   6.751
 5612SOL    HW117735   3.723   1.791   6.690
 5612SOL    HW217736   3.827   1.715   6.790
 5613SOL     OW17737   5.488   3.641   3.784
 5613SOL    HW117738   5.533   3.612   3.700
 5613SOL    HW217739   5.556   3.681   3.846
 5614SOL     OW17740   4.603   2.700   4.200
 5614SOL    HW117741   4.688   2.749   4.219
 5614SOL    HW217742   4.611   2.651   4.113
 5615SOL     OW17743   0.622   1.200   4.754
 5615SOL    HW117744   0.579   1.290   4.745
 5615SOL    HW217745   0.674   1.180   4.671
 5616SOL     OW17746   2.301   1.571   4.902
 5616SOL    HW117747   2.227   1.521   4.946
 5616SOL    HW217748   2.300   1.666   4.934
 5617SOL     OW17749   2.829   6.994   6.602
 5617SOL    HW117750   2.861   7.000   6.697
 5617SOL    HW217751   2.886   6.931   6.551
 5618SOL     OW17752   6.669   3.982   3.794
 5618SOL    HW117753   6.742   4.022   3.849
 5618SOL    HW217754   6.630   4.053   3.735
 5619SOL     OW17755   3.066   3.608   6.191
 5619SOL    HW117756   3.091   3.518   6.226
 5619SOL    HW217757   3.000   3.651   6.252
 5620SOL     OW17758   3.601   2.999   0.693
 5620SOL    HW117759   3.693   3.017   0.659
 5620SOL    HW217760   3.603   2.918   0.752
 5621SOL     OW17761   0.882   2.548   5.834
 5621SOL    HW117762   0.882   2.503   5.745
 5621SOL    HW217763   0.856   2.644   5.823
 5622SOL     OW17764   4.778   0.127   5.942
 5622SOL    HW117765   4.761   0.107   5.845
 5622SOL    HW217766   4.795   0.225   5.953
 5623SOL     OW17767   1.967   6.029   6.036
 5623SOL    HW117768   1.878   6.007   6.076
 5623SOL    HW217769   2.034   5.959   6.063
 5624SOL     OW17770   0.994   4.638   3.242
 5624SOL    HW117771   0.972   4.549   3.281
 5624SOL    HW217772   1.069   4.629   3.177
 5625SOL     OW17773   6.097   1.784   4.441
 5625SOL    HW117774   6.050   1.872   4.438
 5625SOL    HW217775   6.196   1.799   4.450
 5626SOL     OW17776   2.763   6.423   4.820
 5626SOL    HW117777   2.722   6.451   4.734
 5626SOL    HW217778   2.856   6.461   4.826
 5627SOL     OW17779   1.280   5.988   6.909
 5627SOL    HW117780   1.239   5.897   6.913
 5627SOL    HW217781   1.226   6.048   6.850
 5628SOL     OW17782   1.372   2.712   6.265
 5628SOL    HW117783   1.431   2.711   6.345
 5628SOL    HW217784   1.352   2.807   6.238
 5629SOL     OW17785   3.299   3.737   2.271
 5629SOL    HW117786   3.242   3.728   2.190
 5629SOL    HW217787   3.291   3.831   2.307
 5630SOL     OW17788   1.577   5.282   0.342
 5630SOL    HW117789   1.601   5.340   0.264
 5630SOL    HW217790   1.633   5.307   0.421
 5631SOL     OW17791   4.606   1.940   6.896
 5631SOL    HW117792   4.652   1.915   6.811
 5631SOL    HW217793   4.530   2.002   6.877
 5632SOL     OW17794   3.891   2.637   5.571
 5632SOL    HW117795   3.837   2.701   5.626
 5632SOL    HW217796   3.883   2.662   5.474
 5633SOL     OW17797   6.038   3.018   4.192
 5633SOL    HW117798   5.949   3.035   4.150
 5633SOL    HW217799   6.067   2.925   4.173
 5634SOL     OW17800   2.320   5.906   5.525
 5634SOL    HW117801   2.345   5.856   5.442
 5634SOL    HW217802   2.369   5.866   5.603
 5635SOL     OW17803   2.229   3.741   5.145
 5635SOL    HW117804   2.289   3.816   5.173
 5635SOL    HW217805   2.197   3.757   5.052
 5636SOL     OW17806   3.368   6.627   2.840
 5636SOL    HW117807   3.313   6.711   2.841
 5636SOL    HW217808   3.429   6.629   2.760
 5637SOL     OW17809   5.326   6.633   3.463
 5637SOL    HW117810   5.267   6.665   3.389
 5637SOL    HW217811   5.285   6.552   3.505
 5638SOL     OW17812   5.415   3.800   1.025
 5638SOL    HW117813   5.318   3.784   1.043
 5638SOL    HW217814   5.463   3.816   1.112
 5639SOL     OW17815   0.662   0.531   0.045
 5639SOL    HW117816   0.601   0.452   0.056
 5639SOL    HW217817   0.613   0.604   7.022
 5640SOL     OW17818   2.663   1.053   3.917
 5640SOL    HW117819   2.582   1.034   3.972
 5640SOL    HW217820   2.743   1.011   3.961
 5641SOL     OW17821   0.794   5.037   5.230
 5641SOL    HW117822   0.789   5.131   5.264
 5641SOL    HW217823   0.712   4.987   5.259
 5642SOL     OW17824   1.929   6.863   6.856
 5642SOL    HW117825   1.992   6.800   6.812
 5642SOL    HW217826   1.919   6.946   6.801
 5643SOL     OW17827   4.693   1.248   4.779
 5643SOL    HW117828   4.605   1.284   4.749
 5643SOL    HW217829   4.767   1.301   4.736
 5644SOL     OW17830   3.213   0.170   5.409
 5644SOL    HW117831   3.195   0.189   5.506
 5644SOL    HW217832   3.222   0.256   5.360
 5645SOL     OW17833   6.563   4.180   3.638
 5645SOL    HW117834   6.627   4.181   3.561
 5645SOL    HW217835   6.492   4.112   3.622
 5646SOL     OW17836   1.887   5.064   3.002
 5646SOL    HW117837   1.913   5.124   2.927
 5646SOL    HW217838   1.938   5.088   3.084
 5647SOL     OW17839   4.825   6.324   1.280
 5647SOL    HW117840   4.747   6.356   1.335
 5647SOL    HW217841   4.795   6.310   1.186
 5648SOL     OW17842   1.770   5.777   3.045
 5648SOL    HW117843   1.761   5.876   3.054
 5648SOL    HW217844   1.840   5.744   3.109
 5649SOL     OW17845   1.188   6.493   3.916
 5649SOL    HW117846   1.209   6.466   3.822
 5649SOL    HW217847   1.190   6.413   3.975
 5650SOL     OW17848   1.060   4.590   0.851
 5650SOL    HW117849   1.093   4.684   0.855
 5650SOL    HW217850   1.025   4.562   0.940
 5651SOL     OW17851   1.376   0.848   0.189
 5651SOL    HW117852   1.366   0.811   0.281
 5651SOL    HW217853   1.289   0.843   0.141
 5652SOL     OW17854   0.075   5.659   1.704
 5652SOL    HW117855   0.145   5.618   1.764
 5652SOL    HW217856   0.100   5.645   1.609
 5653SOL     OW17857   0.611   5.802   0.118
 5653SOL    HW117858   0.637   5.709   0.143
 5653SOL    HW217859   0.560   5.801   0.032
 5654SOL     OW17860   1.345   5.321   4.382
 5654SOL    HW117861   1.380   5.257   4.314
 5654SOL    HW217862   1.382   5.412   4.364
 5655SOL     OW17863   6.914   2.586   3.333
 5655SOL    HW117864   6.969   2.507   3.305
 5655SOL    HW217865   6.830   2.553   3.376
 5656SOL     OW17866   6.827   4.094   6.145
 5656SOL    HW117867   6.745   4.142   6.115
 5656SOL    HW217868   6.903   4.117   6.084
 5657SOL     OW17869   4.660   4.200   4.849
 5657SOL    HW117870   4.756   4.191   4.821
 5657SOL    HW217871   4.601   4.162   4.778
 5658SOL     OW17872   3.265   3.232   6.160
 5658SOL    HW117873   3.184   3.234   6.101
 5658SOL    HW217874   3.259   3.305   6.228
 5659SOL     OW17875   3.678   3.688   6.314
 5659SOL    HW117876   3.613   3.617   6.341
 5659SOL    HW217877   3.669   3.705   6.216
 5660SOL     OW17878   4.785   0.244   6.631
 5660SOL    HW117879   4.737   0.257   6.718
 5660SOL    HW217880   4.730   0.282   6.556
 5661SOL     OW17881   1.225   5.198   5.763
 5661SOL    HW117882   1.171   5.194   5.680
 5661SOL    HW217883   1.282   5.116   5.769
 5662SOL     OW17884   2.334   0.050   2.379
 5662SOL    HW117885   2.432   0.032   2.376
 5662SOL    HW217886   2.300   0.035   2.472
 5663SOL     OW17887   1.500   2.560   0.450
 5663SOL    HW117888   1.423   2.498   0.466
 5663SOL    HW217889   1.504   2.628   0.523
 5664SOL     OW17890   5.724   3.963   4.834
 5664SOL    HW117891   5.794   3.910   4.883
 5664SOL    HW217892   5.768   4.035   4.782
 5665SOL     OW17893   1.254   5.701   6.939
 5665SOL    HW117894   1.224   5.616   6.982
 5665SOL    HW217895   1.326   5.681   6.872
 5666SOL     OW17896   6.143   0.886   3.615
 5666SOL    HW117897   6.086   0.949   3.561
 5666SOL    HW217898   6.221   0.936   3.653
 5667SOL     OW17899   1.862   5.014   4.684
 5667SOL    HW117900   1.829   5.101   4.648
 5667SOL    HW217901   1.784   4.963   4.721
 5668SOL     OW17902   6.148   2.568   2.957
 5668SOL    HW117903   6.200   2.637   3.007
 5668SOL    HW217904   6.053   2.598   2.948
 5669SOL     OW17905   6.705   5.182   0.272
 5669SOL    HW117906   6.623   5.140   0.311
 5669SOL    HW217907   6.768   5.206   0.346
 5670SOL     OW17908   1.825   3.008   3.307
 5670SOL    HW117909   1.800   2.973   3.397
 5670SOL    HW217910   1.876   3.094   3.318
 5671SOL     OW17911   6.385   5.664   5.118
 5671SOL    HW117912   6.295   5.704   5.104
 5671SOL    HW217913   6.376   5.567   5.141
 5672SOL     OW17914   4.850   3.842   5.129
 5672SOL    HW117915   4.805   3.753   5.126
 5672SOL    HW217916   4.781   3.914   5.122
 5673SOL     OW17917   1.075   6.793   1.359
 5673SOL    HW117918   1.117   6.747   1.281
 5673SOL    HW217919   1.077   6.892   1.344
 5674SOL     OW17920   2.323   4.885   4.477
 5674SOL    HW117921   2.258   4.850   4.544
 5674SOL    HW217922   2.345   4.980   4.498
 5675SOL     OW17923   3.483   1.860   0.214
 5675SOL    HW117924   3.572   1.902   0.230
 5675SOL    HW217925   3.496   1.766   0.181
 5676SOL     OW17926   2.993   1.909   1.886
 5676SOL    HW117927   2.982   1.835   1.952
 5676SOL    HW217928   3.003   1.996   1.934
 5677SOL     OW17929   6.765   0.642   0.205
 5677SOL    HW117930   6.836   0.652   0.135
 5677SOL    HW217931   6.706   0.723   0.204
 5678SOL     OW17932   4.184   1.410   2.158
 5678SOL    HW117933   4.106   1.382   2.102
 5678SOL    HW217934   4.192   1.510   2.157
 5679SOL     OW17935   6.006   1.989   5.130
 5679SOL    HW117936   6.013   2.089   5.122
 5679SOL    HW217937   6.092   1.948   5.102
 5680SOL     OW17938   1.822   4.841   6.055
 5680SOL    HW117939   1.810   4.842   5.956
 5680SOL    HW217940   1.810   4.748   6.090
 5681SOL     OW17941   0.130   4.063   2.591
 5681SOL    HW117942   0.047   4.052   2.646
 5681SOL    HW217943   0.193   4.124   2.638
 5682SOL     OW17944   2.460   5.923   3.220
 5682SOL    HW117945   2.412   5.998   3.264
 5682SOL    HW217946   2.489   5.857   3.289
 5683SOL     OW17947   4.143   2.623   6.087
 5683SOL    HW117948   4.088   2.599   6.167
 5683SOL    HW217949   4.105   2.579   6.006
 5684SOL     OW17950   2.390   3.835   6.292
 5684SOL    HW117951   2.329   3.885   6.231
 5684SOL    HW217952   2.464   3.795   6.240
 5685SOL     OW17953   1.776   2.222   3.457
 5685SOL    HW117954   1.767   2.284   3.535
 5685SOL    HW217955   1.860   2.243   3.407
 5686SOL     OW17956   3.234   1.000   5.261
 5686SOL    HW117957   3.328   0.966   5.272
 5686SOL    HW217958   3.237   1.095   5.228
 5687SOL     OW17959   0.165   6.207   6.323
 5687SOL    HW117960   0.168   6.108   6.309
 5687SOL    HW217961   0.107   6.228   6.402
 5688SOL     OW17962   2.213   2.896   3.511
 5688SOL    HW117963   2.127   2.886   3.560
 5688SOL    HW217964   2.195   2.909   3.414
 5689SOL     OW17965   2.308   0.289   1.846
 5689SOL    HW117966   2.395   0.290   1.896
 5689SOL    HW217967   2.327   0.289   1.748
 5690SOL     OW17968   1.060   4.924   6.607
 5690SOL    HW117969   1.137   4.931   6.670
 5690SOL    HW217970   0.992   4.860   6.643
 5691SOL     OW17971   3.655   1.075   2.506
 5691SOL    HW117972   3.602   1.135   2.447
 5691SOL    HW217973   3.727   1.030   2.452
 5692SOL     OW17974   4.661   4.594   0.926
 5692SOL    HW117975   4.646   4.663   0.998
 5692SOL    HW217976   4.732   4.625   0.864
 5693SOL     OW17977   4.271   0.247   1.237
 5693SOL    HW117978   4.185   0.206   1.205
 5693SOL    HW217979   4.309   0.192   1.311
 5694SOL     OW17980   0.590   6.772   2.230
 5694SOL    HW117981   0.584   6.675   2.207
 5694SOL    HW217982   0.499   6.809   2.246
 5695SOL     OW17983   0.956   0.612   2.755
 5695SOL    HW117984   0.927   0.604   2.850
 5695SOL    HW217985   0.939   0.705   2.723
 5696SOL     OW17986   1.772   0.555   4.260
 5696SOL    HW117987   1.748   0.627   4.324
 5696SOL    HW217988   1.716   0.474   4.277
 5697SOL     OW17989   6.031   2.296   1.994
 5697SOL    HW117990   6.119   2.286   2.041
 5697SOL    HW217991   5.981   2.209   1.999
 5698SOL     OW17992   1.851   3.595   3.723
 5698SOL    HW117993   1.947   3.571   3.731
 5698SOL    HW217994   1.838   3.692   3.746
 5699SOL     OW17995   1.927   2.265   2.771
 5699SOL    HW117996   1.932   2.241   2.674
 5699SOL    HW217997   2.011   2.237   2.817
 5700SOL     OW17998   6.727   0.136   2.382
 5700SOL    HW117999   6.766   0.154   2.472
 5700SOL    HW218000   6.689   0.043   2.380
 5701SOL     OW18001   6.937   1.105   0.863
 5701SOL    HW118002   6.846   1.119   0.823
 5701SOL    HW218003   6.993   1.186   0.848
 5702SOL     OW18004   1.772   6.601   4.474
 5702SOL    HW118005   1.738   6.507   4.472
 5702SOL    HW218006   1.714   6.657   4.532
 5703SOL     OW18007   6.886   4.505   6.683
 5703SOL    HW118008   6.920   4.428   6.629
 5703SOL    HW218009   6.834   4.470   6.761
 5704SOL     OW18010   5.250   4.127   3.808
 5704SOL    HW118011   5.153   4.135   3.832
 5704SOL    HW218012   5.259   4.076   3.723
 5705SOL     OW18013   6.071   5.680   6.684
 5705SOL    HW118014   5.998   5.703   6.748
 5705SOL    HW218015   6.120   5.599   6.717
 5706SOL     OW18016   5.179   2.841   1.156
 5706SOL    HW118017   5.232   2.769   1.201
 5706SOL    HW218018   5.223   2.929   1.171
 5707SOL     OW18019   5.540   0.448   1.406
 5707SOL    HW118020   5.513   0.411   1.495
 5707SOL    HW218021   5.465   0.503   1.369
 5708SOL     OW18022   4.933   6.171   2.901
 5708SOL    HW118023   4.915   6.080   2.864
 5708SOL    HW218024   4.863   6.194   2.969
 5709SOL     OW18025   6.919   0.867   2.201
 5709SOL    HW118026   6.996   0.809   2.174
 5709SOL    HW218027   6.837   0.810   2.213
 5710SOL     OW18028   2.775   2.312   1.188
 5710SOL    HW118029   2.823   2.330   1.103
 5710SOL    HW218030   2.714   2.389   1.209
 5711SOL     OW18031   4.975   0.860   1.613
 5711SOL    HW118032   4.943   0.830   1.702
 5711SOL    HW218033   4.929   0.946   1.588
 5712SOL     OW18034   6.281   6.178   0.976
 5712SOL    HW118035   6.199   6.141   1.019
 5712SOL    HW218036   6.256   6.252   0.913
 5713SOL     OW18037   2.821   5.047   0.670
 5713SOL    HW118038   2.830   5.083   0.763
 5713SOL    HW218039   2.842   4.949   0.671
 5714SOL     OW18040   6.592   6.414   1.578
 5714SOL    HW118041   6.527   6.346   1.543
 5714SOL    HW218042   6.644   6.453   1.502
 5715SOL     OW18043   0.571   6.879   0.988
 5715SOL    HW118044   0.631   6.802   0.966
 5715SOL    HW218045   0.596   6.918   1.076
 5716SOL     OW18046   0.704   5.294   6.420
 5716SOL    HW118047   0.763   5.254   6.490
 5716SOL    HW218048   0.684   5.389   6.443
 5717SOL     OW18049   2.216   5.057   2.365
 5717SOL    HW118050   2.302   5.102   2.389
 5717SOL    HW218051   2.230   4.998   2.286
 5718SOL     OW18052   0.883   2.928   0.438
 5718SOL    HW118053   0.876   2.983   0.354
 5718SOL    HW218054   0.801   2.871   0.447
 5719SOL     OW18055   2.806   3.669   1.284
 5719SOL    HW118056   2.847   3.606   1.218
 5719SOL    HW218057   2.876   3.730   1.320
 5720SOL     OW18058   2.042   6.478   5.205
 5720SOL    HW118059   2.136   6.510   5.194
 5720SOL    HW218060   2.043   6.383   5.235
 5721SOL     OW18061   5.797   4.383   0.984
 5721SOL    HW118062   5.844   4.319   1.044
 5721SOL    HW218063   5.745   4.333   0.915
 5722SOL     OW18064   0.222   1.785   4.874
 5722SOL    HW118065   0.292   1.713   4.867
 5722SOL    HW218066   0.166   1.786   4.791
 5723SOL     OW18067   3.804   3.489   6.894
 5723SOL    HW118068   3.798   3.571   6.838
 5723SOL    HW218069   3.828   3.514   6.987
 5724SOL     OW18070   6.384   2.307   3.068
 5724SOL    HW118071   6.467   2.358   3.093
 5724SOL    HW218072   6.333   2.358   3.000
 5725SOL     OW18073   5.965   5.444   3.184
 5725SOL    HW118074   5.894   5.511   3.203
 5725SOL    HW218075   6.036   5.449   3.255
 5726SOL     OW18076   5.720   4.572   3.685
 5726SOL    HW118077   5.782   4.575   3.763
 5726SOL    HW218078   5.728   4.483   3.640
 5727SOL     OW18079   0.223   2.624   4.766
 5727SOL    HW118080   0.283   2.675   4.828
 5727SOL    HW218081   0.190   2.542   4.812
 5728SOL     OW18082   4.776   5.912   5.297
 5728SOL    HW118083   4.770   5.955   5.388
 5728SOL    HW218084   4.693   5.933   5.245
 5729SOL     OW18085   1.445   2.150   6.075
 5729SOL    HW118086   1.455   2.227   6.138
 5729SOL    HW218087   1.405   2.072   6.123
 5730SOL     OW18088   6.779   4.422   6.026
 5730SOL    HW118089   6.710   4.351   6.047
 5730SOL    HW218090   6.793   4.427   5.928
 5731SOL     OW18091   6.570   7.011   1.632
 5731SOL    HW118092   6.650   0.006   1.576
 5731SOL    HW218093   6.523   0.072   1.654
 5732SOL     OW18094   1.283   6.278   4.082
 5732SOL    HW118095   1.374   6.263   4.041
 5732SOL    HW218096   1.292   6.280   4.181
 5733SOL     OW18097   4.212   6.689   5.260
 5733SOL    HW118098   4.159   6.716   5.179
 5733SOL    HW218099   4.170   6.728   5.342
 5734SOL     OW18100   1.578   6.510   5.077
 5734SOL    HW118101   1.584   6.607   5.051
 5734SOL    HW218102   1.566   6.454   4.995
 5735SOL     OW18103   2.892   1.537   2.112
 5735SOL    HW118104   2.815   1.545   2.048
 5735SOL    HW218105   2.864   1.571   2.202
 5736SOL     OW18106   0.857   4.759   6.668
 5736SOL    HW118107   0.908   4.674   6.657
 5736SOL    HW218108   0.767   4.749   6.625
 5737SOL     OW18109   5.926   6.101   6.560
 5737SOL    HW118110   5.979   6.151   6.628
 5737SOL    HW218111   5.983   6.030   6.518
 5738SOL     OW18112   1.993   3.369   6.773
 5738SOL    HW118113   2.026   3.456   6.810
 5738SOL    HW218114   1.898   3.354   6.802
 5739SOL     OW18115   1.614   1.207   6.947
 5739SOL    HW118116   1.566   1.119   6.955
 5739SOL    HW218117   1.636   1.223   6.851
 5740SOL     OW18118   4.410   6.065   0.227
 5740SOL    HW118119   4.319   6.101   0.203
 5740SOL    HW218120   4.411   6.041   0.323
 5741SOL     OW18121   6.727   6.000   4.556
 5741SOL    HW118122   6.717   5.908   4.595
 5741SOL    HW218123   6.789   5.996   4.478
 5742SOL     OW18124   6.227   6.854   2.496
 5742SOL    HW118125   6.129   6.873   2.499
 5742SOL    HW218126   6.277   6.940   2.506
 5743SOL     OW18127   2.486   6.789   5.132
 5743SOL    HW118128   2.533   6.701   5.123
 5743SOL    HW218129   2.547   6.863   5.103
 5744SOL     OW18130   5.144   1.761   0.264
 5744SOL    HW118131   5.143   1.661   0.267
 5744SOL    HW218132   5.065   1.794   0.213
 5745SOL     OW18133   1.633   1.670   4.502
 5745SOL    HW118134   1.555   1.696   4.445
 5745SOL    HW218135   1.717   1.679   4.450
 5746SOL     OW18136   5.422   1.398   6.885
 5746SOL    HW118137   5.323   1.384   6.888
 5746SOL    HW218138   5.442   1.493   6.909
 5747SOL     OW18139   0.408   5.219   2.172
 5747SOL    HW118140   0.476   5.248   2.239
 5747SOL    HW218141   0.448   5.148   2.114
 5748SOL     OW18142   2.431   4.750   1.777
 5748SOL    HW118143   2.467   4.719   1.866
 5748SOL    HW218144   2.335   4.723   1.769
 5749SOL     OW18145   1.860   1.785   3.748
 5749SOL    HW118146   1.787   1.828   3.695
 5749SOL    HW218147   1.946   1.790   3.696
 5750SOL     OW18148   5.919   4.730   4.581
 5750SOL    HW118149   5.947   4.735   4.485
 5750SOL    HW218150   5.838   4.787   4.595
 5751SOL     OW18151   2.080   3.226   5.125
 5751SOL    HW118152   2.039   3.179   5.047
 5751SOL    HW218153   2.124   3.160   5.185
 5752SOL     OW18154   6.584   6.835   5.964
 5752SOL    HW118155   6.547   6.897   5.896
 5752SOL    HW218156   6.573   6.741   5.933
 5753SOL     OW18157   3.625   3.124   6.811
 5753SOL    HW118158   3.673   3.196   6.861
 5753SOL    HW218159   3.683   3.043   6.806
 5754SOL     OW18160   5.750   5.439   1.947
 5754SOL    HW118161   5.808   5.382   2.006
 5754SOL    HW218162   5.671   5.386   1.916
 5755SOL     OW18163   3.397   3.586   0.056
 5755SOL    HW118164   3.335   3.508   0.065
 5755SOL    HW218165   3.346   3.666   0.024
 5756SOL     OW18166   6.341   5.186   3.488
 5756SOL    HW118167   6.347   5.152   3.581
 5756SOL    HW218168   6.418   5.151   3.434
 5757SOL     OW18169   6.350   5.646   1.252
 5757SOL    HW118170   6.431   5.633   1.310
 5757SOL    HW218171   6.287   5.570   1.265
 5758SOL     OW18172   2.418   2.030   4.934
 5758SOL    HW118173   2.346   1.962   4.939
 5758SOL    HW218174   2.499   1.991   4.891
 5759SOL     OW18175   5.034   2.027   6.317
 5759SOL    HW118176   5.024   2.096   6.245
 5759SOL    HW218177   4.974   1.950   6.297
 5760SOL     OW18178   1.568   5.165   2.427
 5760SOL    HW118179   1.471   5.179   2.407
 5760SOL    HW218180   1.598   5.078   2.388
 5761SOL     OW18181   4.786   6.902   4.709
 5761SOL    HW118182   4.768   6.987   4.660
 5761SOL    HW218183   4.742   6.826   4.660
 5762SOL     OW18184   5.655   6.501   1.093
 5762SOL    HW118185   5.665   6.554   1.177
 5762SOL    HW218186   5.713   6.540   1.021
 5763SOL     OW18187   1.293   0.438   0.376
 5763SOL    HW118188   1.377   0.388   0.355
 5763SOL    HW218189   1.262   0.414   0.467
 5764SOL     OW18190   5.778   4.409   5.471
 5764SOL    HW118191   5.716   4.410   5.550
 5764SOL    HW218192   5.855   4.348   5.490
 5765SOL     OW18193   6.454   4.302   6.791
 5765SOL    HW118194   6.395   4.367   6.744
 5765SOL    HW218195   6.403   4.219   6.812
 5766SOL     OW18196   3.015   1.949   2.206
 5766SOL    HW118197   3.028   1.895   2.289
 5766SOL    HW218198   3.103   1.985   2.175
 5767SOL     OW18199   0.322   6.042   0.768
 5767SOL    HW118200   0.230   6.007   0.784
 5767SOL    HW218201   0.386   5.965   0.761
 5768SOL     OW18202   6.706   0.841   2.871
 5768SOL    HW118203   6.614   0.807   2.852
 5768SOL    HW218204   6.737   0.898   2.795
 5769SOL     OW18205   2.978   6.342   3.891
 5769SOL    HW118206   2.973   6.282   3.812
 5769SOL    HW218207   3.062   6.323   3.942
 5770SOL     OW18208   6.688   6.708   1.202
 5770SOL    HW118209   6.666   6.802   1.230
 5770SOL    HW218210   6.764   6.709   1.138
 5771SOL     OW18211   1.259   0.498   1.181
 5771SOL    HW118212   1.177   0.514   1.236
 5771SOL    HW218213   1.234   0.496   1.084
 5772SOL     OW18214   5.847   3.234   0.479
 5772SOL    HW118215   5.887   3.244   0.570
 5772SOL    HW218216   5.788   3.313   0.460
 5773SOL     OW18217   5.365   6.457   3.812
 5773SOL    HW118218   5.372   6.424   3.906
 5773SOL    HW218219   5.451   6.499   3.785
 5774SOL     OW18220   2.205   4.908   3.602
 5774SOL    HW118221   2.155   4.844   3.660
 5774SOL    HW218222   2.249   4.978   3.659
 5775SOL     OW18223   6.605   6.713   6.653
 5775SOL    HW118224   6.614   6.662   6.567
 5775SOL    HW218225   6.687   6.769   6.667
 5776SOL     OW18226   5.183   0.558   6.194
 5776SOL    HW118227   5.181   0.657   6.204
 5776SOL    HW218228   5.264   0.531   6.141
 5777SOL     OW18229   6.776   1.502   4.283
 5777SOL    HW118230   6.825   1.416   4.298
 5777SOL    HW218231   6.716   1.492   4.204
 5778SOL     OW18232   1.206   6.350   3.079
 5778SOL    HW118233   1.139   6.382   3.147
 5778SOL    HW218234   1.252   6.428   3.037
 5779SOL     OW18235   3.980   1.281   1.264
 5779SOL    HW118236   4.040   1.235   1.329
 5779SOL    HW218237   3.889   1.293   1.305
 5780SOL     OW18238   0.216   4.084   1.445
 5780SOL    HW118239   0.245   4.177   1.422
 5780SOL    HW218240   0.118   4.074   1.429
 5781SOL     OW18241   2.003   4.453   5.195
 5781SOL    HW118242   2.091   4.421   5.161
 5781SOL    HW218243   1.987   4.546   5.163
 5782SOL     OW18244   1.907   0.913   1.392
 5782SOL    HW118245   1.848   0.906   1.312
 5782SOL    HW218246   1.867   0.863   1.468
 5783SOL     OW18247   1.621   0.220   1.086
 5783SOL    HW118248   1.641   0.316   1.105
 5783SOL    HW218249   1.646   0.199   0.992
 5784SOL     OW18250   0.861   5.918   0.168
 5784SOL    HW118251   0.770   5.877   0.170
 5784SOL    HW218252   0.927   5.851   0.136
 5785SOL     OW18253   1.702   1.654   0.163
 5785SOL    HW118254   1.724   1.617   0.253
 5785SOL    HW218255   1.752   1.603   0.093
 5786SOL     OW18256   1.749   2.923   1.887
 5786SOL    HW118257   1.840   2.955   1.861
 5786SOL    HW218258   1.714   2.859   1.818
 5787SOL     OW18259   6.121   2.416   4.911
 5787SOL    HW118260   6.128   2.366   4.825
 5787SOL    HW218261   6.146   2.512   4.896
 5788SOL     OW18262   3.120   0.965   2.418
 5788SOL    HW118263   3.156   1.002   2.504
 5788SOL    HW218264   3.106   0.867   2.428
 5789SOL     OW18265   4.595   4.105   0.075
 5789SOL    HW118266   4.612   4.040   0.149
 5789SOL    HW218267   4.670   4.172   0.072
 5790SOL     OW18268   5.644   5.701   4.771
 5790SOL    HW118269   5.699   5.695   4.854
 5790SOL    HW218270   5.683   5.643   4.700
 5791SOL     OW18271   3.694   1.183   2.777
 5791SOL    HW118272   3.790   1.183   2.805
 5791SOL    HW218273   3.689   1.165   2.679
 5792SOL     OW18274   4.884   3.768   2.859
 5792SOL    HW118275   4.928   3.678   2.850
 5792SOL    HW218276   4.904   3.823   2.778
 5793SOL     OW18277   5.512   2.128   5.095
 5793SOL    HW118278   5.600   2.081   5.098
 5793SOL    HW218279   5.467   2.111   5.007
 5794SOL     OW18280   3.276   6.365   6.241
 5794SOL    HW118281   3.217   6.412   6.175
 5794SOL    HW218282   3.342   6.429   6.280
 5795SOL     OW18283   0.981   4.860   2.063
 5795SOL    HW118284   0.892   4.860   2.017
 5795SOL    HW218285   1.007   4.954   2.084
 5796SOL     OW18286   4.347   1.691   6.330
 5796SOL    HW118287   4.417   1.750   6.368
 5796SOL    HW218288   4.256   1.725   6.354
 5797SOL     OW18289   5.242   2.625   0.278
 5797SOL    HW118290   5.153   2.622   0.233
 5797SOL    HW218291   5.308   2.570   0.226
 5798SOL     OW18292   1.739   4.076   5.160
 5798SOL    HW118293   1.727   3.982   5.130
 5798SOL    HW218294   1.832   4.088   5.195
 5799SOL     OW18295   1.136   6.105   3.185
 5799SOL    HW118296   1.200   6.029   3.171
 5799SOL    HW218297   1.171   6.186   3.139
 5800SOL     OW18298   0.701   6.673   0.846
 5800SOL    HW118299   0.669   6.739   0.778
 5800SOL    HW218300   0.687   6.580   0.812
 5801SOL     OW18301   2.301   2.455   2.531
 5801SOL    HW118302   2.203   2.468   2.548
 5801SOL    HW218303   2.318   2.458   2.432
 5802SOL     OW18304   0.180   1.466   1.929
 5802SOL    HW118305   0.108   1.437   1.993
 5802SOL    HW218306   0.250   1.516   1.979
 5803SOL     OW18307   1.062   5.249   4.311
 5803SOL    HW118308   1.151   5.258   4.356
 5803SOL    HW218309   1.060   5.165   4.257
 5804SOL     OW18310   6.051   0.574   3.670
 5804SOL    HW118311   5.992   0.534   3.740
 5804SOL    HW218312   6.045   0.673   3.673
 5805SOL     OW18313   2.204   3.191   0.927
 5805SOL    HW118314   2.285   3.149   0.968
 5805SOL    HW218315   2.126   3.130   0.937
 5806SOL     OW18316   0.514   3.390   3.135
 5806SOL    HW118317   0.452   3.327   3.182
 5806SOL    HW218318   0.589   3.338   3.093
 5807SOL     OW18319   1.227   6.907   0.623
 5807SOL    HW118320   1.220   6.862   0.712
 5807SOL    HW218321   1.268   6.844   0.557
 5808SOL     OW18322   5.907   0.527   4.897
 5808SOL    HW118323   5.842   0.575   4.956
 5808SOL    HW218324   5.953   0.593   4.838
 5809SOL     OW18325   0.600   2.114   5.860
 5809SOL    HW118326   0.625   2.183   5.928
 5809SOL    HW218327   0.566   2.033   5.906
 5810SOL     OW18328   3.774   6.946   5.454
 5810SOL    HW118329   3.718   6.864   5.442
 5810SOL    HW218330   3.798   6.984   5.364
 5811SOL     OW18331   2.812   3.530   5.663
 5811SOL    HW118332   2.747   3.454   5.663
 5811SOL    HW218333   2.905   3.494   5.667
 5812SOL     OW18334   5.826   2.971   0.689
 5812SOL    HW118335   5.730   2.990   0.671
 5812SOL    HW218336   5.872   2.946   0.603
 5813SOL     OW18337   4.242   6.735   1.648
 5813SOL    HW118338   4.339   6.713   1.637
 5813SOL    HW218339   4.188   6.674   1.589
 5814SOL     OW18340   5.321   1.812   2.054
 5814SOL    HW118341   5.242   1.826   1.995
 5814SOL    HW218342   5.314   1.872   2.134
 5815SOL     OW18343   6.369   1.574   3.472
 5815SOL    HW118344   6.406   1.557   3.564
 5815SOL    HW218345   6.269   1.574   3.476
 5816SOL     OW18346   6.799   4.018   2.963
 5816SOL    HW118347   6.837   4.084   3.028
 5816SOL    HW218348   6.726   3.966   3.008
 5817SOL     OW18349   5.520   4.623   3.278
 5817SOL    HW118350   5.503   4.665   3.367
 5817SOL    HW218351   5.451   4.654   3.213
 5818SOL     OW18352   2.135   0.356   5.637
 5818SOL    HW118353   2.084   0.334   5.554
 5818SOL    HW218354   2.224   0.396   5.613
 5819SOL     OW18355   4.349   5.057   6.952
 5819SOL    HW118356   4.315   5.045   0.020
 5819SOL    HW218357   4.281   5.105   6.897
 5820SOL     OW18358   5.922   5.144   2.385
 5820SOL    HW118359   5.915   5.050   2.353
 5820SOL    HW218360   5.838   5.171   2.432
 5821SOL     OW18361   6.455   0.837   1.230
 5821SOL    HW118362   6.386   0.801   1.293
 5821SOL    HW218363   6.417   0.842   1.138
 5822SOL     OW18364   2.080   3.142   2.633
 5822SOL    HW118365   1.984   3.125   2.656
 5822SOL    HW218366   2.085   3.200   2.551
 5823SOL     OW18367   1.968   6.400   3.965
 5823SOL    HW118368   2.009   6.468   4.026
 5823SOL    HW218369   1.999   6.309   3.991
 5824SOL     OW18370   0.692   0.048   1.553
 5824SOL    HW118371   0.639   0.115   1.604
 5824SOL    HW218372   0.772   0.021   1.608
 5825SOL     OW18373   6.193   0.373   4.177
 5825SOL    HW118374   6.262   0.318   4.130
 5825SOL    HW218375   6.231   0.463   4.200
 5826SOL     OW18376   0.555   6.767   4.911
 5826SOL    HW118377   0.474   6.827   4.909
 5826SOL    HW218378   0.629   6.812   4.960
 5827SOL     OW18379   2.036   4.758   5.447
 5827SOL    HW118380   2.098   4.687   5.481
 5827SOL    HW218381   1.954   4.715   5.409
 5828SOL     OW18382   4.472   0.048   4.736
 5828SOL    HW118383   4.408   7.017   4.788
 5828SOL    HW218384   4.463   0.028   4.638
 5829SOL     OW18385   2.472   1.172   3.642
 5829SOL    HW118386   2.486   1.270   3.657
 5829SOL    HW218387   2.559   1.123   3.655
 5830SOL     OW18388   4.008   5.534   5.201
 5830SOL    HW118389   4.093   5.557   5.154
 5830SOL    HW218390   4.009   5.438   5.228
 5831SOL     OW18391   1.797   1.496   5.244
 5831SOL    HW118392   1.859   1.453   5.310
 5831SOL    HW218393   1.762   1.581   5.282
 5832SOL     OW18394   3.049   5.055   1.072
 5832SOL    HW118395   2.976   5.073   1.006
 5832SOL    HW218396   3.118   4.996   1.031
 5833SOL     OW18397   4.515   3.605   6.222
 5833SOL    HW118398   4.460   3.619   6.140
 5833SOL    HW218399   4.458   3.620   6.303
 5834SOL     OW18400   5.572   3.682   6.997
 5834SOL    HW118401   5.575   3.778   6.968
 5834SOL    HW218402   5.500   3.634   6.947
 5835SOL     OW18403   5.152   0.985   2.681
 5835SOL    HW118404   5.069   1.006   2.630
 5835SOL    HW218405   5.223   1.051   2.658
 5836SOL     OW18406   4.010   6.796   2.504
 5836SOL    HW118407   4.017   6.854   2.423
 5836SOL    HW218408   3.957   6.715   2.482
 5837SOL     OW18409   3.383   4.013   6.841
 5837SOL    HW118410   3.392   4.112   6.838
 5837SOL    HW218411   3.456   3.975   6.898
 5838SOL     OW18412   3.040   1.671   0.910
 5838SOL    HW118413   3.110   1.664   0.982
 5838SOL    HW218414   3.056   1.754   0.856
 5839SOL     OW18415   1.293   1.964   1.005
 5839SOL    HW118416   1.287   2.060   1.033
 5839SOL    HW218417   1.202   1.929   0.987
 5840SOL     OW18418   1.009   3.658   2.738
 5840SOL    HW118419   0.977   3.663   2.832
 5840SOL    HW218420   0.961   3.583   2.691
 5841SOL     OW18421   5.631   2.104   0.669
 5841SOL    HW118422   5.623   2.126   0.766
 5841SOL    HW218423   5.545   2.064   0.637
 5842SOL     OW18424   3.124   1.578   0.612
 5842SOL    HW118425   3.100   1.675   0.617
 5842SOL    HW218426   3.077   1.535   0.535
 5843SOL     OW18427   1.782   3.161   1.088
 5843SOL    HW118428   1.790   3.260   1.101
 5843SOL    HW218429   1.686   3.137   1.073
 5844SOL     OW18430   0.822   0.677   4.983
 5844SOL    HW118431   0.775   0.615   4.920
 5844SOL    HW218432   0.897   0.723   4.935
 5845SOL     OW18433   1.115   5.937   1.775
 5845SOL    HW118434   1.149   6.030   1.759
 5845SOL    HW218435   1.193   5.875   1.785
 5846SOL     OW18436   6.267   3.945   5.577
 5846SOL    HW118437   6.187   3.915   5.628
 5846SOL    HW218438   6.290   4.039   5.604
 5847SOL     OW18439   2.921   3.311   0.727
 5847SOL    HW118440   2.930   3.211   0.734
 5847SOL    HW218441   3.005   3.349   0.687
 5848SOL     OW18442   2.188   5.905   3.383
 5848SOL    HW118443   2.190   5.874   3.478
 5848SOL    HW218444   2.193   5.826   3.322
 5849SOL     OW18445   2.632   5.905   5.780
 5849SOL    HW118446   2.721   5.859   5.784
 5849SOL    HW218447   2.645   6.004   5.778
 5850SOL     OW18448   0.866   1.897   1.440
 5850SOL    HW118449   0.778   1.897   1.392
 5850SOL    HW218450   0.861   1.833   1.517
 5851SOL     OW18451   5.740   3.017   4.744
 5851SOL    HW118452   5.776   3.107   4.766
 5851SOL    HW218453   5.802   2.947   4.778
 5852SOL     OW18454   5.180   5.194   2.890
 5852SOL    HW118455   5.236   5.143   2.824
 5852SOL    HW218456   5.215   5.287   2.899
 5853SOL     OW18457   3.815   4.694   5.368
 5853SOL    HW118458   3.849   4.761   5.435
 5853SOL    HW218459   3.720   4.671   5.389
 5854SOL     OW18460   2.669   5.027   5.890
 5854SOL    HW118461   2.642   4.943   5.938
 5854SOL    HW218462   2.765   5.020   5.863
 5855SOL     OW18463   2.011   2.557   4.022
 5855SOL    HW118464   2.078   2.503   3.971
 5855SOL    HW218465   1.998   2.517   4.112
 5856SOL     OW18466   1.485   0.019   3.092
 5856SOL    HW118467   1.554   6.993   3.041
 5856SOL    HW218468   1.396   0.005   3.049
 5857SOL     OW18469   0.015   4.343   6.114
 5857SOL    HW118470   0.034   4.259   6.164
 5857SOL    HW218471   6.941   4.361   6.116
 5858SOL     OW18472   2.076   0.770   3.333
 5858SOL    HW118473   2.045   0.770   3.237
 5858SOL    HW218474   2.176   0.767   3.336
 5859SOL     OW18475   6.102   6.987   2.203
 5859SOL    HW118476   6.007   6.992   2.235
 5859SOL    HW218477   6.143   6.901   2.233
 5860SOL     OW18478   0.221   3.129   4.140
 5860SOL    HW118479   0.205   3.057   4.073
 5860SOL    HW218480   0.250   3.212   4.093
 5861SOL     OW18481   4.818   0.845   5.035
 5861SOL    HW118482   4.836   0.859   5.132
 5861SOL    HW218483   4.902   0.863   4.983
 5862SOL     OW18484   6.721   4.934   3.509
 5862SOL    HW118485   6.814   4.969   3.500
 5862SOL    HW218486   6.722   4.834   3.501
 5863SOL     OW18487   3.784   0.219   5.563
 5863SOL    HW118488   3.714   0.284   5.535
 5863SOL    HW218489   3.764   0.129   5.524
 5864SOL     OW18490   3.085   3.725   2.545
 5864SOL    HW118491   3.004   3.701   2.492
 5864SOL    HW218492   3.097   3.824   2.546
 5865SOL     OW18493   5.946   1.116   5.242
 5865SOL    HW118494   5.922   1.081   5.333
 5865SOL    HW218495   6.016   1.187   5.251
 5866SOL     OW18496   3.890   3.097   2.629
 5866SOL    HW118497   3.871   3.048   2.713
 5866SOL    HW218498   3.864   3.041   2.550
 5867SOL     OW18499   2.491   2.316   1.737
 5867SOL    HW118500   2.471   2.405   1.694
 5867SOL    HW218501   2.590   2.301   1.738
 5868SOL     OW18502   0.816   1.503   6.081
 5868SOL    HW118503   0.730   1.545   6.112
 5868SOL    HW218504   0.801   1.459   5.993
 5869SOL     OW18505   1.427   4.832   4.514
 5869SOL    HW118506   1.483   4.910   4.540
 5869SOL    HW218507   1.402   4.781   4.596
 5870SOL     OW18508   4.255   4.787   4.819
 5870SOL    HW118509   4.214   4.850   4.883
 5870SOL    HW218510   4.313   4.722   4.868
 5871SOL     OW18511   3.372   3.572   3.085
 5871SOL    HW118512   3.332   3.553   2.996
 5871SOL    HW218513   3.431   3.653   3.079
 5872SOL     OW18514   3.531   6.379   2.545
 5872SOL    HW118515   3.461   6.391   2.615
 5872SOL    HW218516   3.489   6.380   2.454
 5873SOL     OW18517   3.846   4.942   2.524
 5873SOL    HW118518   3.806   5.026   2.488
 5873SOL    HW218519   3.887   4.890   2.449
 5874SOL     OW18520   2.402   4.742   5.716
 5874SOL    HW118521   2.379   4.735   5.813
 5874SOL    HW218522   2.459   4.664   5.691
 5875SOL     OW18523   3.321   0.968   0.236
 5875SOL    HW118524   3.334   0.945   0.332
 5875SOL    HW218525   3.330   1.067   0.225
 5876SOL     OW18526   3.844   3.331   2.272
 5876SOL    HW118527   3.904   3.376   2.206
 5876SOL    HW218528   3.837   3.234   2.249
 5877SOL     OW18529   6.091   5.177   1.289
 5877SOL    HW118530   6.059   5.121   1.366
 5877SOL    HW218531   6.138   5.118   1.223
 5878SOL     OW18532   2.247   4.632   2.577
 5878SOL    HW118533   2.227   4.564   2.648
 5878SOL    HW218534   2.173   4.699   2.573
 5879SOL     OW18535   0.359   4.119   0.017
 5879SOL    HW118536   0.448   4.164   0.008
 5879SOL    HW218537   0.364   4.027   7.004
 5880SOL     OW18538   2.450   6.262   1.648
 5880SOL    HW118539   2.361   6.221   1.630
 5880SOL    HW218540   2.506   6.259   1.565
 5881SOL     OW18541   0.560   4.969   3.724
 5881SOL    HW118542   0.623   5.031   3.770
 5881SOL    HW218543   0.583   4.875   3.748
 5882SOL     OW18544   5.129   0.294   1.077
 5882SOL    HW118545   5.188   0.374   1.088
 5882SOL    HW218546   5.148   0.228   1.150
 5883SOL     OW18547   6.682   3.050   6.758
 5883SOL    HW118548   6.723   3.024   6.846
 5883SOL    HW218549   6.606   3.113   6.774
 5884SOL     OW18550   0.884   1.320   2.869
 5884SOL    HW118551   0.868   1.414   2.901
 5884SOL    HW218552   0.954   1.321   2.798
 5885SOL     OW18553   6.117   6.187   1.551
 5885SOL    HW118554   6.055   6.146   1.486
 5885SOL    HW218555   6.212   6.165   1.526
 5886SOL     OW18556   0.649   2.180   5.534
 5886SOL    HW118557   0.610   2.176   5.625
 5886SOL    HW218558   0.621   2.264   5.488
 5887SOL     OW18559   3.116   0.988   4.225
 5887SOL    HW118560   3.094   1.013   4.320
 5887SOL    HW218561   3.215   1.000   4.210
 5888SOL     OW18562   2.094   6.264   3.599
 5888SOL    HW118563   2.138   6.332   3.540
 5888SOL    HW218564   1.997   6.260   3.579
 5889SOL     OW18565   2.380   0.306   1.351
 5889SOL    HW118566   2.290   0.315   1.395
 5889SOL    HW218567   2.424   0.395   1.346
 5890SOL     OW18568   2.107   6.078   5.460
 5890SOL    HW118569   2.187   6.042   5.508
 5890SOL    HW218570   2.060   6.145   5.518
 5891SOL     OW18571   3.672   2.839   0.081
 5891SOL    HW118572   3.644   2.751   0.042
 5891SOL    HW218573   3.605   2.909   0.055
 5892SOL     OW18574   0.569   6.633   1.266
 5892SOL    HW118575   0.597   6.707   1.327
 5892SOL    HW218576   0.481   6.656   1.224
 5893SOL     OW18577   1.406   2.294   3.567
 5893SOL    HW118578   1.476   2.365   3.580
 5893SOL    HW218579   1.444   2.221   3.511
 5894SOL     OW18580   1.529   3.626   3.287
 5894SOL    HW118581   1.473   3.567   3.347
 5894SOL    HW218582   1.624   3.622   3.317
 5895SOL     OW18583   5.134   3.066   4.771
 5895SOL    HW118584   5.156   3.145   4.713
 5895SOL    HW218585   5.047   3.082   4.817
 5896SOL     OW18586   3.784   2.321   6.756
 5896SOL    HW118587   3.813   2.330   6.660
 5896SOL    HW218588   3.865   2.325   6.815
 5897SOL     OW18589   4.004   1.354   0.394
 5897SOL    HW118590   3.935   1.366   0.466
 5897SOL    HW218591   3.997   1.430   0.330
 5898SOL     OW18592   1.935   0.049   2.076
 5898SOL    HW118593   1.978   6.985   2.090
 5898SOL    HW218594   1.920   0.064   1.978
 5899SOL     OW18595   5.700   6.996   4.583
 5899SOL    HW118596   5.606   7.024   4.603
 5899SOL    HW218597   5.700   6.907   4.537
 5900SOL     OW18598   4.902   4.861   3.004
 5900SOL    HW118599   4.819   4.912   2.984
 5900SOL    HW218600   4.881   4.788   3.069
 5901SOL     OW18601   2.187   6.336   6.714
 5901SOL    HW118602   2.282   6.367   6.725
 5901SOL    HW218603   2.169   6.320   6.617
 5902SOL     OW18604   0.119   2.815   0.341
 5902SOL    HW118605   0.185   2.783   0.408
 5902SOL    HW218606   0.058   2.741   0.316
 5903SOL     OW18607   5.873   4.456   0.144
 5903SOL    HW118608   5.972   4.448   0.152
 5903SOL    HW218609   5.850   4.550   0.116
 5904SOL     OW18610   0.355   3.495   2.317
 5904SOL    HW118611   0.359   3.406   2.363
 5904SOL    HW218612   0.303   3.559   2.374
 5905SOL     OW18613   6.958   6.267   2.714
 5905SOL    HW118614   6.944   6.363   2.690
 5905SOL    HW218615   0.002   6.261   2.786
 5906SOL     OW18616   5.936   1.161   3.662
 5906SOL    HW118617   5.935   1.258   3.687
 5906SOL    HW218618   5.933   1.153   3.562
 5907SOL     OW18619   0.517   6.370   1.388
 5907SOL    HW118620   0.459   6.370   1.470
 5907SOL    HW218621   0.546   6.464   1.369
 5908SOL     OW18622   0.581   2.544   5.179
 5908SOL    HW118623   0.648   2.608   5.141
 5908SOL    HW218624   0.490   2.583   5.173
 5909SOL     OW18625   0.879   5.914   0.607
 5909SOL    HW118626   0.907   5.991   0.665
 5909SOL    HW218627   0.789   5.933   0.568
 5910SOL     OW18628   1.428   2.106   3.208
 5910SOL    HW118629   1.453   2.036   3.274
 5910SOL    HW218630   1.502   2.173   3.199
 5911SOL     OW18631   6.380   5.536   6.998
 5911SOL    HW118632   6.397   5.476   0.052
 5911SOL    HW218633   6.449   5.608   6.996
 5912SOL     OW18634   6.642   1.760   5.371
 5912SOL    HW118635   6.605   1.815   5.296
 5912SOL    HW218636   6.568   1.711   5.416
 5913SOL     OW18637   5.379   3.064   0.472
 5913SOL    HW118638   5.309   2.992   0.467
 5913SOL    HW218639   5.388   3.095   0.566
 5914SOL     OW18640   1.127   6.575   6.361
 5914SOL    HW118641   1.131   6.481   6.394
 5914SOL    HW218642   1.134   6.638   6.439
 5915SOL     OW18643   3.795   6.945   0.115
 5915SOL    HW118644   3.766   0.003   0.068
 5915SOL    HW218645   3.724   6.916   0.180
 5916SOL     OW18646   1.563   6.640   1.896
 5916SOL    HW118647   1.465   6.637   1.918
 5916SOL    HW218648   1.613   6.684   1.971
 5917SOL     OW18649   3.039   4.475   6.476
 5917SOL    HW118650   2.939   4.476   6.467
 5917SOL    HW218651   3.063   4.433   6.564
 5918SOL     OW18652   2.938   6.191   6.151
 5918SOL    HW118653   2.948   6.279   6.104
 5918SOL    HW218654   2.855   6.146   6.119
 5919SOL     OW18655   3.529   3.366   3.378
 5919SOL    HW118656   3.451   3.320   3.420
 5919SOL    HW218657   3.561   3.314   3.299
 5920SOL     OW18658   6.061   0.235   6.020
 5920SOL    HW118659   6.001   0.271   5.949
 5920SOL    HW218660   6.010   0.227   6.106
 5921SOL     OW18661   3.373   5.033   6.496
 5921SOL    HW118662   3.288   4.980   6.496
 5921SOL    HW218663   3.450   4.971   6.510
 5922SOL     OW18664   6.318   3.570   2.997
 5922SOL    HW118665   6.243   3.535   3.052
 5922SOL    HW218666   6.343   3.662   3.029
 5923SOL     OW18667   6.276   1.050   1.508
 5923SOL    HW118668   6.306   0.962   1.545
 5923SOL    HW218669   6.181   1.043   1.478
 5924SOL     OW18670   5.398   0.186   2.845
 5924SOL    HW118671   5.385   0.283   2.866
 5924SOL    HW218672   5.393   0.172   2.747
 5925SOL     OW18673   4.464   5.255   1.457
 5925SOL    HW118674   4.460   5.349   1.423
 5925SOL    HW218675   4.520   5.252   1.539
 5926SOL     OW18676   4.011   4.749   3.229
 5926SOL    HW118677   3.995   4.793   3.318
 5926SOL    HW218678   3.947   4.787   3.162
 5927SOL     OW18679   1.561   3.754   1.746
 5927SOL    HW118680   1.561   3.822   1.673
 5927SOL    HW218681   1.651   3.751   1.790
 5928SOL     OW18682   4.358   0.677   1.080
 5928SOL    HW118683   4.386   0.769   1.051
 5928SOL    HW218684   4.439   0.622   1.099
 5929SOL     OW18685   0.060   0.300   5.822
 5929SOL    HW118686   0.019   0.379   5.777
 5929SOL    HW218687   0.114   0.248   5.755
 5930SOL     OW18688   1.205   3.385   1.821
 5930SOL    HW118689   1.145   3.466   1.822
 5930SOL    HW218690   1.287   3.406   1.768
 5931SOL     OW18691   5.619   6.083   2.912
 5931SOL    HW118692   5.712   6.061   2.883
 5931SOL    HW218693   5.570   5.998   2.930
 5932SOL     OW18694   3.179   0.018   6.459
 5932SOL    HW118695   3.188   0.055   6.551
 5932SOL    HW218696   3.092   6.994   6.450
 5933SOL     OW18697   6.703   5.347   4.379
 5933SOL    HW118698   6.793   5.379   4.350
 5933SOL    HW218699   6.693   5.250   4.355
 5934SOL     OW18700   3.334   3.788   5.754
 5934SOL    HW118701   3.256   3.757   5.807
 5934SOL    HW218702   3.390   3.849   5.809
 5935SOL     OW18703   0.336   6.226   4.929
 5935SOL    HW118704   0.411   6.183   4.878
 5935SOL    HW218705   0.264   6.255   4.866
 5936SOL     OW18706   3.808   3.311   3.367
 5936SOL    HW118707   3.824   3.227   3.418
 5936SOL    HW218708   3.728   3.358   3.404
 5937SOL     OW18709   0.550   2.487   2.226
 5937SOL    HW118710   0.595   2.532   2.303
 5937SOL    HW218711   0.522   2.556   2.159
 5938SOL     OW18712   6.080   5.190   5.310
 5938SOL    HW118713   6.106   5.231   5.398
 5938SOL    HW218714   5.981   5.191   5.300
 5939SOL     OW18715   3.875   0.105   4.482
 5939SOL    HW118716   3.850   0.144   4.393
 5939SOL    HW218717   3.804   0.128   4.549
 5940SOL     OW18718   4.921   5.350   3.012
 5940SOL    HW118719   4.994   5.292   3.048
 5940SOL    HW218720   4.919   5.342   2.912
 5941SOL     OW18721   6.302   2.304   2.125
 5941SOL    HW118722   6.244   2.248   2.185
 5941SOL    HW218723   6.360   2.364   2.181
 5942SOL     OW18724   6.345   3.334   6.332
 5942SOL    HW118725   6.300   3.264   6.387
 5942SOL    HW218726   6.430   3.362   6.377
 5943SOL     OW18727   3.978   3.421   0.492
 5943SOL    HW118728   3.928   3.469   0.420
 5943SOL    HW218729   4.038   3.352   0.450
 5944SOL     OW18730   0.457   3.527   6.581
 5944SOL    HW118731   0.519   3.462   6.625
 5944SOL    HW218732   0.411   3.483   6.505
 5945SOL     OW18733   0.788   5.970   5.124
 5945SOL    HW118734   0.826   5.884   5.090
 5945SOL    HW218735   0.799   5.975   5.224
 5946SOL     OW18736   4.060   4.534   6.921
 5946SOL    HW118737   4.087   4.465   6.854
 5946SOL    HW218738   4.142   4.572   6.965
 5947SOL     OW18739   3.232   3.378   4.614
 5947SOL    HW118740   3.312   3.318   4.625
 5947SOL    HW218741   3.182   3.352   4.531
 5948SOL     OW18742   5.139   3.935   2.102
 5948SOL    HW118743   5.069   3.865   2.087
 5948SOL    HW218744   5.126   3.976   2.193
 5949SOL     OW18745   5.917   5.468   1.446
 5949SOL    HW118746   5.993   5.417   1.406
 5949SOL    HW218747   5.926   5.471   1.545
 5950SOL     OW18748   5.336   2.393   5.622
 5950SOL    HW118749   5.293   2.358   5.539
 5950SOL    HW218750   5.279   2.464   5.662
 5951SOL     OW18751   0.992   4.875   5.374
 5951SOL    HW118752   1.026   4.798   5.320
 5951SOL    HW218753   0.913   4.916   5.327
 5952SOL     OW18754   4.201   4.791   1.911
 5952SOL    HW118755   4.242   4.861   1.853
 5952SOL    HW218756   4.105   4.779   1.885
 5953SOL     OW18757   6.266   2.703   5.194
 5953SOL    HW118758   6.281   2.774   5.125
 5953SOL    HW218759   6.171   2.671   5.189
 5954SOL     OW18760   0.377   5.612   4.935
 5954SOL    HW118761   0.408   5.532   4.986
 5954SOL    HW218762   0.455   5.655   4.889
 5955SOL     OW18763   5.291   4.780   1.362
 5955SOL    HW118764   5.191   4.782   1.356
 5955SOL    HW218765   5.325   4.695   1.321
 5956SOL     OW18766   5.025   2.739   4.648
 5956SOL    HW118767   4.970   2.818   4.677
 5956SOL    HW218768   4.986   2.655   4.686
 5957SOL     OW18769   1.341   1.048   2.535
 5957SOL    HW118770   1.360   0.957   2.498
 5957SOL    HW218771   1.244   1.068   2.525
 5958SOL     OW18772   3.663   0.083   3.119
 5958SOL    HW118773   3.752   0.127   3.131
 5958SOL    HW218774   3.592   0.153   3.111
 5959SOL     OW18775   5.361   1.905   4.870
 5959SOL    HW118776   5.289   1.974   4.868
 5959SOL    HW218777   5.426   1.922   4.796
 5960SOL     OW18778   3.545   6.293   5.272
 5960SOL    HW118779   3.446   6.292   5.287
 5960SOL    HW218780   3.589   6.234   5.339
 5961SOL     OW18781   4.072   2.015   2.678
 5961SOL    HW118782   4.097   2.013   2.774
 5961SOL    HW218783   4.064   1.922   2.643
 5962SOL     OW18784   5.439   6.397   0.069
 5962SOL    HW118785   5.396   6.342   7.022
 5962SOL    HW218786   5.462   6.487   0.033
 5963SOL     OW18787   3.906   4.754   6.817
 5963SOL    HW118788   3.941   4.682   6.877
 5963SOL    HW218789   3.879   4.714   6.729
 5964SOL     OW18790   1.831   6.990   2.538
 5964SOL    HW118791   1.809   0.011   2.452
 5964SOL    HW218792   1.897   0.020   2.589
 5965SOL     OW18793   1.981   0.082   6.685
 5965SOL    HW118794   1.903   0.124   6.732
 5965SOL    HW218795   2.060   0.143   6.691
 5966SOL     OW18796   1.720   0.333   5.920
 5966SOL    HW118797   1.708   0.240   5.953
 5966SOL    HW218798   1.817   0.354   5.912
 5967SOL     OW18799   2.319   2.268   4.805
 5967SOL    HW118800   2.343   2.195   4.869
 5967SOL    HW218801   2.220   2.267   4.790
 5968SOL     OW18802   5.661   2.319   0.255
 5968SOL    HW118803   5.594   2.347   0.324
 5968SOL    HW218804   5.733   2.387   0.247
 5969SOL     OW18805   5.276   0.887   6.475
 5969SOL    HW118806   5.329   0.824   6.532
 5969SOL    HW218807   5.205   0.931   6.530
 5970SOL     OW18808   0.583   3.510   0.896
 5970SOL    HW118809   0.646   3.530   0.971
 5970SOL    HW218810   0.494   3.484   0.934
 5971SOL     OW18811   6.150   0.194   2.712
 5971SOL    HW118812   6.055   0.224   2.714
 5971SOL    HW218813   6.164   0.121   2.779
 5972SOL     OW18814   4.709   5.335   0.526
 5972SOL    HW118815   4.799   5.378   0.517
 5972SOL    HW218816   4.720   5.246   0.571
 5973SOL     OW18817   1.473   3.002   2.838
 5973SOL    HW118818   1.462   2.905   2.860
 5973SOL    HW218819   1.557   3.036   2.880
 5974SOL     OW18820   3.929   0.573   6.903
 5974SOL    HW118821   3.837   0.609   6.894
 5974SOL    HW218822   3.926   0.473   6.902
 5975SOL     OW18823   5.300   5.061   0.684
 5975SOL    HW118824   5.373   5.129   0.690
 5975SOL    HW218825   5.225   5.097   0.628
 5976SOL     OW18826   3.654   3.791   6.075
 5976SOL    HW118827   3.672   3.888   6.086
 5976SOL    HW218828   3.733   3.748   6.030
 5977SOL     OW18829   0.284   5.142   0.313
 5977SOL    HW118830   0.268   5.148   0.214
 5977SOL    HW218831   0.381   5.156   0.331
 5978SOL     OW18832   3.323   5.489   6.744
 5978SOL    HW118833   3.314   5.391   6.765
 5978SOL    HW218834   3.382   5.501   6.665
 5979SOL     OW18835   6.334   0.700   1.811
 5979SOL    HW118836   6.302   0.609   1.787
 5979SOL    HW218837   6.361   0.749   1.728
 5980SOL     OW18838   3.377   2.752   1.826
 5980SOL    HW118839   3.419   2.787   1.742
 5980SOL    HW218840   3.321   2.672   1.804
 5981SOL     OW18841   4.561   2.821   0.359
 5981SOL    HW118842   4.654   2.843   0.387
 5981SOL    HW218843   4.505   2.803   0.440
 5982SOL     OW18844   5.989   1.986   2.368
 5982SOL    HW118845   6.031   1.895   2.371
 5982SOL    HW218846   5.891   1.978   2.384
 5983SOL     OW18847   0.222   0.762   4.579
 5983SOL    HW118848   0.167   0.732   4.657
 5983SOL    HW218849   0.275   0.843   4.605
 5984SOL     OW18850   6.101   6.432   3.521
 5984SOL    HW118851   6.173   6.498   3.541
 5984SOL    HW218852   6.015   6.481   3.504
 5985SOL     OW18853   6.254   1.935   3.564
 5985SOL    HW118854   6.165   1.965   3.530
 5985SOL    HW218855   6.242   1.862   3.631
 5986SOL     OW18856   4.349   3.815   5.303
 5986SOL    HW118857   4.292   3.882   5.351
 5986SOL    HW218858   4.291   3.753   5.250
 5987SOL     OW18859   6.972   0.548   4.369
 5987SOL    HW118860   6.985   0.573   4.273
 5987SOL    HW218861   6.874   0.537   4.387
 5988SOL     OW18862   3.093   1.616   0.127
 5988SOL    HW118863   3.151   1.594   0.048
 5988SOL    HW218864   3.055   1.708   0.115
 5989SOL     OW18865   0.916   5.993   6.813
 5989SOL    HW118866   0.828   6.030   6.783
 5989SOL    HW218867   0.929   6.012   6.910
 5990SOL     OW18868   3.935   4.661   1.108
 5990SOL    HW118869   3.837   4.672   1.122
 5990SOL    HW218870   3.964   4.571   1.141
 5991SOL     OW18871   4.651   5.935   0.754
 5991SOL    HW118872   4.573   5.897   0.706
 5991SOL    HW218873   4.620   6.003   0.820
 5992SOL     OW18874   3.422   0.597   1.808
 5992SOL    HW118875   3.323   0.579   1.804
 5992SOL    HW218876   3.452   0.595   1.903
 5993SOL     OW18877   6.032   3.232   0.306
 5993SOL    HW118878   5.944   3.216   0.351
 5993SOL    HW218879   6.064   3.324   0.327
 5994SOL     OW18880   6.990   3.004   1.222
 5994SOL    HW118881   6.948   3.078   1.276
 5994SOL    HW218882   0.009   2.939   1.283
 5995SOL     OW18883   4.627   3.295   1.128
 5995SOL    HW118884   4.597   3.376   1.076
 5995SOL    HW218885   4.592   3.213   1.084
 5996SOL     OW18886   2.754   5.556   1.239
 5996SOL    HW118887   2.834   5.597   1.197
 5996SOL    HW218888   2.745   5.461   1.208
 5997SOL     OW18889   6.823   6.934   3.063
 5997SOL    HW118890   6.751   6.901   3.001
 5997SOL    HW218891   6.877   6.856   3.095
 5998SOL     OW18892   5.838   1.027   2.104
 5998SOL    HW118893   5.884   1.069   2.182
 5998SOL    HW218894   5.861   0.929   2.101
 5999SOL     OW18895   3.934   3.383   1.005
 5999SOL    HW118896   3.961   3.465   1.055
 5999SOL    HW218897   4.006   3.314   1.014
 6000SOL     OW18898   0.409   5.552   0.298
 6000SOL    HW118899   0.504   5.576   0.276
 6000SOL    HW218900   0.347   5.604   0.239
 6001SOL     OW18901   5.221   6.237   5.850
 6001SOL    HW118902   5.297   6.260   5.789
 6001SOL    HW218903   5.153   6.310   5.847
 6002SOL     OW18904   6.913   6.954   4.717
 6002SOL    HW118905   6.912   6.865   4.761
 6002SOL    HW218906   6.834   7.007   4.747
 6003SOL     OW18907   6.551   2.681   4.398
 6003SOL    HW118908   6.589   2.773   4.400
 6003SOL    HW218909   6.582   2.633   4.316
 6004SOL     OW18910   5.598   2.670   3.345
 6004SOL    HW118911   5.597   2.585   3.398
 6004SOL    HW218912   5.576   2.649   3.250
 6005SOL     OW18913   4.731   4.096   5.101
 6005SOL    HW118914   4.727   4.102   5.001
 6005SOL    HW218915   4.687   4.177   5.141
 6006SOL     OW18916   3.561   0.337   5.438
 6006SOL    HW118917   3.536   0.369   5.346
 6006SOL    HW218918   3.541   0.239   5.445
 6007SOL     OW18919   0.373   4.162   6.232
 6007SOL    HW118920   0.357   4.120   6.322
 6007SOL    HW218921   0.346   4.258   6.234
 6008SOL     OW18922   2.434   4.207   5.329
 6008SOL    HW118923   2.424   4.180   5.425
 6008SOL    HW218924   2.408   4.131   5.270
 6009SOL     OW18925   4.635   5.583   3.086
 6009SOL    HW118926   4.584   5.668   3.101
 6009SOL    HW218927   4.718   5.583   3.143
 6010SOL     OW18928   0.107   4.425   4.692
 6010SOL    HW118929   0.143   4.463   4.606
 6010SOL    HW218930   0.008   4.434   4.693
 6011SOL     OW18931   4.761   1.624   2.838
 6011SOL    HW118932   4.760   1.543   2.780
 6011SOL    HW218933   4.784   1.597   2.932
 6012SOL     OW18934   6.324   0.289   6.917
 6012SOL    HW118935   6.423   0.308   6.914
 6012SOL    HW218936   6.286   0.325   7.001
 6013SOL     OW18937   4.965   1.080   2.497
 6013SOL    HW118938   4.928   1.160   2.450
 6013SOL    HW218939   4.890   1.017   2.519
 6014SOL     OW18940   2.986   3.259   4.477
 6014SOL    HW118941   2.918   3.187   4.487
 6014SOL    HW218942   2.957   3.323   4.406
 6015SOL     OW18943   6.438   2.427   4.684
 6015SOL    HW118944   6.481   2.490   4.748
 6015SOL    HW218945   6.405   2.477   4.604
 6016SOL     OW18946   4.845   1.328   5.245
 6016SOL    HW118947   4.758   1.287   5.274
 6016SOL    HW218948   4.857   1.416   5.291
 6017SOL     OW18949   6.677   3.608   5.099
 6017SOL    HW118950   6.672   3.559   5.012
 6017SOL    HW218951   6.602   3.578   5.158
 6018SOL     OW18952   3.463   1.108   4.735
 6018SOL    HW118953   3.449   1.200   4.699
 6018SOL    HW218954   3.561   1.087   4.738
 6019SOL     OW18955   0.908   3.755   5.787
 6019SOL    HW118956   0.895   3.832   5.849
 6019SOL    HW218957   0.909   3.669   5.839
 6020SOL     OW18958   1.041   5.048   0.546
 6020SOL    HW118959   1.089   4.962   0.530
 6020SOL    HW218960   1.107   5.119   0.570
 6021SOL     OW18961   4.091   0.210   2.489
 6021SOL    HW118962   4.161   0.219   2.418
 6021SOL    HW218963   4.078   0.298   2.534
 6022SOL     OW18964   6.403   1.254   2.685
 6022SOL    HW118965   6.428   1.159   2.671
 6022SOL    HW218966   6.439   1.286   2.773
 6023SOL     OW18967   5.151   0.438   1.462
 6023SOL    HW118968   5.085   0.469   1.531
 6023SOL    HW218969   5.162   0.509   1.392
 6024SOL     OW18970   0.219   4.692   1.231
 6024SOL    HW118971   0.162   4.771   1.210
 6024SOL    HW218972   0.163   4.621   1.274
 6025SOL     OW18973   3.078   1.637   3.751
 6025SOL    HW118974   3.135   1.717   3.770
 6025SOL    HW218975   3.009   1.662   3.683
 6026SOL     OW18976   6.677   4.249   4.263
 6026SOL    HW118977   6.646   4.343   4.278
 6026SOL    HW218978   6.598   4.189   4.254
 6027SOL     OW18979   5.880   3.626   6.370
 6027SOL    HW118980   5.937   3.640   6.451
 6027SOL    HW218981   5.862   3.528   6.358
 6028SOL     OW18982   5.293   4.793   0.737
 6028SOL    HW118983   5.378   4.786   0.684
 6028SOL    HW218984   5.275   4.889   0.758
 6029SOL     OW18985   2.539   0.191   3.785
 6029SOL    HW118986   2.563   0.214   3.690
 6029SOL    HW218987   2.623   0.183   3.839
 6030SOL     OW18988   4.986   3.790   4.871
 6030SOL    HW118989   5.058   3.729   4.837
 6030SOL    HW218990   4.917   3.737   4.919
 6031SOL     OW18991   1.108   5.772   4.073
 6031SOL    HW118992   1.063   5.796   4.159
 6031SOL    HW218993   1.106   5.673   4.061
 6032SOL     OW18994   3.465   6.326   4.157
 6032SOL    HW118995   3.440   6.266   4.082
 6032SOL    HW218996   3.393   6.394   4.172
 6033SOL     OW18997   2.384   2.587   2.844
 6033SOL    HW118998   2.297   2.547   2.872
 6033SOL    HW218999   2.396   2.577   2.746
 6034SOL     OW19000   1.417   0.132   6.390
 6034SOL    HW119001   1.407   0.099   6.296
 6034SOL    HW219002   1.461   0.062   6.445
 6035SOL     OW19003   0.632   0.949   2.658
 6035SOL    HW119004   0.559   0.997   2.610
 6035SOL    HW219005   0.652   0.862   2.611
 6036SOL     OW19006   6.217   4.964   1.155
 6036SOL    HW119007   6.247   5.006   1.070
 6036SOL    HW219008   6.167   4.880   1.135
 6037SOL     OW19009   4.022   1.656   0.725
 6037SOL    HW119010   4.065   1.647   0.815
 6037SOL    HW219011   4.089   1.634   0.654
 6038SOL     OW19012   0.771   2.409   6.680
 6038SOL    HW119013   0.866   2.379   6.671
 6038SOL    HW219014   0.740   2.395   6.774
 6039SOL     OW19015   4.151   3.491   4.066
 6039SOL    HW119016   4.198   3.505   3.979
 6039SOL    HW219017   4.084   3.417   4.056
 6040SOL     OW19018   1.391   1.637   0.085
 6040SOL    HW119019   1.419   1.570   0.016
 6040SOL    HW219020   1.466   1.650   0.150
 6041SOL     OW19021   3.123   2.676   5.607
 6041SOL    HW119022   3.130   2.595   5.666
 6041SOL    HW219023   3.059   2.658   5.533
 6042SOL     OW19024   3.823   6.388   3.561
 6042SOL    HW119025   3.805   6.361   3.655
 6042SOL    HW219026   3.861   6.480   3.558
 6043SOL     OW19027   1.926   0.482   3.425
 6043SOL    HW119028   1.973   0.565   3.393
 6043SOL    HW219029   1.900   0.493   3.521
 6044SOL     OW19030   1.840   1.750   1.961
 6044SOL    HW119031   1.779   1.816   1.917
 6044SOL    HW219032   1.850   1.773   2.058
 6045SOL     OW19033   5.154   3.345   3.726
 6045SOL    HW119034   5.108   3.417   3.673
 6045SOL    HW219035   5.218   3.386   3.790
 6046SOL     OW19036   3.383   2.450   1.706
 6046SOL    HW119037   3.460   2.504   1.739
 6046SOL    HW219038   3.400   2.352   1.721
 6047SOL     OW19039   5.559   2.175   0.920
 6047SOL    HW119040   5.472   2.217   0.892
 6047SOL    HW219041   5.572   2.187   1.018
 6048SOL     OW19042   5.769   5.134   4.730
 6048SOL    HW119043   5.678   5.153   4.695
 6048SOL    HW219044   5.763   5.076   4.811
 6049SOL     OW19045   5.385   4.636   6.026
 6049SOL    HW119046   5.389   4.549   6.076
 6049SOL    HW219047   5.302   4.640   5.971
 6050SOL     OW19048   3.010   5.680   0.547
 6050SOL    HW119049   3.002   5.750   0.476
 6050SOL    HW219050   3.101   5.639   0.543
 6051SOL     OW19051   0.562   1.244   2.439
 6051SOL    HW119052   0.591   1.335   2.468
 6051SOL    HW219053   0.593   1.176   2.505
 6052SOL     OW19054   5.643   0.473   1.135
 6052SOL    HW119055   5.604   0.539   1.071
 6052SOL    HW219056   5.633   0.509   1.228
 6053SOL     OW19057   4.700   1.309   6.020
 6053SOL    HW119058   4.787   1.265   5.997
 6053SOL    HW219059   4.671   1.368   5.944
 6054SOL     OW19060   3.870   5.301   0.425
 6054SOL    HW119061   3.791   5.299   0.486
 6054SOL    HW219062   3.904   5.395   0.417
 6055SOL     OW19063   3.084   5.051   6.396
 6055SOL    HW119064   3.021   5.122   6.365
 6055SOL    HW219065   3.106   4.990   6.319
 6056SOL     OW19066   5.947   2.912   4.915
 6056SOL    HW119067   6.023   2.976   4.919
 6056SOL    HW219068   5.883   2.931   4.990
 6057SOL     OW19069   4.903   0.559   2.422
 6057SOL    HW119070   4.945   0.525   2.506
 6057SOL    HW219071   4.867   0.651   2.438
 6058SOL     OW19072   5.746   3.816   0.808
 6058SOL    HW119073   5.729   3.900   0.860
 6058SOL    HW219074   5.844   3.806   0.792
 6059SOL     OW19075   5.424   4.279   5.549
 6059SOL    HW119076   5.386   4.258   5.459
 6059SOL    HW219077   5.350   4.300   5.613
 6060SOL     OW19078   3.309   3.218   0.449
 6060SOL    HW119079   3.228   3.160   0.437
 6060SOL    HW219080   3.358   3.227   0.362
 6061SOL     OW19081   3.866   4.715   0.304
 6061SOL    HW119082   3.942   4.709   0.369
 6061SOL    HW219083   3.834   4.623   0.282
 6062SOL     OW19084   2.667   1.878   0.040
 6062SOL    HW119085   2.602   1.883   0.116
 6062SOL    HW219086   2.760   1.866   0.076
 6063SOL     OW19087   4.052   4.292   5.386
 6063SOL    HW119088   3.970   4.333   5.345
 6063SOL    HW219089   4.050   4.304   5.485
 6064SOL     OW19090   0.177   0.443   0.173
 6064SOL    HW119091   0.223   0.382   0.237
 6064SOL    HW219092   0.221   0.437   0.084
 6065SOL     OW19093   1.412   5.378   2.104
 6065SOL    HW119094   1.483   5.307   2.096
 6065SOL    HW219095   1.453   5.468   2.086
 6066SOL     OW19096   5.311   1.023   3.444
 6066SOL    HW119097   5.243   1.092   3.466
 6066SOL    HW219098   5.267   0.947   3.395
 6067SOL     OW19099   5.850   0.257   5.567
 6067SOL    HW119100   5.881   0.352   5.566
 6067SOL    HW219101   5.922   0.198   5.529
 6068SOL     OW19102   5.192   1.652   4.795
 6068SOL    HW119103   5.275   1.692   4.833
 6068SOL    HW219104   5.161   1.576   4.853
 6069SOL     OW19105   6.967   2.821   5.755
 6069SOL    HW119106   6.977   2.791   5.850
 6069SOL    HW219107   6.871   2.839   5.735
 6070SOL     OW19108   3.707   2.130   1.677
 6070SOL    HW119109   3.708   2.211   1.736
 6070SOL    HW219110   3.754   2.055   1.724
 6071SOL     OW19111   6.934   6.144   4.147
 6071SOL    HW119112   7.016   6.121   4.095
 6071SOL    HW219113   6.912   6.071   4.210
 6072SOL     OW19114   0.276   1.980   0.613
 6072SOL    HW119115   0.211   1.921   0.662
 6072SOL    HW219116   0.240   2.003   0.523
 6073SOL     OW19117   4.891   3.263   1.071
 6073SOL    HW119118   4.905   3.182   1.014
 6073SOL    HW219119   4.795   3.267   1.100
 6074SOL     OW19120   1.457   6.557   2.574
 6074SOL    HW119121   1.369   6.530   2.614
 6074SOL    HW219122   1.479   6.495   2.498
 6075SOL     OW19123   4.654   6.999   6.291
 6075SOL    HW119124   4.657   6.948   6.205
 6075SOL    HW219125   4.706   0.059   6.281
 6076SOL     OW19126   2.621   5.050   4.074
 6076SOL    HW119127   2.559   5.085   4.144
 6076SOL    HW219128   2.665   5.126   4.027
 6077SOL     OW19129   5.391   6.536   1.014
 6077SOL    HW119130   5.487   6.514   1.030
 6077SOL    HW219131   5.345   6.458   0.973
 6078SOL     OW19132   4.084   4.194   0.709
 6078SOL    HW119133   4.106   4.281   0.753
 6078SOL    HW219134   4.073   4.209   0.610
 6079SOL     OW19135   4.751   4.483   6.375
 6079SOL    HW119136   4.841   4.525   6.374
 6079SOL    HW219137   4.681   4.553   6.378
 6080SOL     OW19138   1.135   5.038   1.428
 6080SOL    HW119139   1.086   5.124   1.444
 6080SOL    HW219140   1.230   5.047   1.460
 6081SOL     OW19141   0.950   3.614   5.253
 6081SOL    HW119142   0.991   3.685   5.310
 6081SOL    HW219143   0.859   3.591   5.288
 6082SOL     OW19144   3.729   0.285   1.909
 6082SOL    HW119145   3.785   0.208   1.877
 6082SOL    HW219146   3.641   0.251   1.941
 6083SOL     OW19147   5.525   0.080   0.351
 6083SOL    HW119148   5.440   0.116   0.388
 6083SOL    HW219149   5.553   7.024   0.402
 6084SOL     OW19150   0.908   6.308   1.830
 6084SOL    HW119151   0.866   6.220   1.809
 6084SOL    HW219152   0.912   6.363   1.746
 6085SOL     OW19153   6.314   5.934   6.464
 6085SOL    HW119154   6.334   6.019   6.513
 6085SOL    HW219155   6.383   5.865   6.485
 6086SOL     OW19156   3.790   2.764   6.285
 6086SOL    HW119157   3.712   2.821   6.261
 6086SOL    HW219158   3.869   2.822   6.307
 6087SOL     OW19159   5.300   6.404   0.305
 6087SOL    HW119160   5.236   6.463   0.257
 6087SOL    HW219161   5.342   6.340   0.241
 6088SOL     OW19162   5.378   6.514   5.380
 6088SOL    HW119163   5.382   6.433   5.321
 6088SOL    HW219164   5.417   6.492   5.469
 6089SOL     OW19165   6.776   1.954   2.160
 6089SOL    HW119166   6.768   1.854   2.153
 6089SOL    HW219167   6.731   1.985   2.244
 6090SOL     OW19168   3.092   5.198   4.487
 6090SOL    HW119169   3.066   5.151   4.572
 6090SOL    HW219170   3.093   5.132   4.412
 6091SOL     OW19171   2.587   0.933   1.390
 6091SOL    HW119172   2.491   0.909   1.373
 6091SOL    HW219173   2.634   0.948   1.303
 6092SOL     OW19174   4.094   0.248   2.176
 6092SOL    HW119175   4.140   0.171   2.133
 6092SOL    HW219176   4.156   0.292   2.242
 6093SOL     OW19177   2.096   1.598   2.073
 6093SOL    HW119178   2.169   1.549   2.025
 6093SOL    HW219179   2.136   1.657   2.143
 6094SOL     OW19180   0.851   6.786   4.365
 6094SOL    HW119181   0.801   6.753   4.446
 6094SOL    HW219182   0.947   6.759   4.372
 6095SOL     OW19183   4.561   5.410   6.850
 6095SOL    HW119184   4.523   5.480   6.910
 6095SOL    HW219185   4.660   5.404   6.864
 6096SOL     OW19186   5.729   6.655   2.430
 6096SOL    HW119187   5.744   6.594   2.351
 6096SOL    HW219188   5.798   6.636   2.500
 6097SOL     OW19189   1.594   5.600   1.985
 6097SOL    HW119190   1.636   5.674   1.934
 6097SOL    HW219191   1.657   5.522   1.991
 6098SOL     OW19192   6.695   0.822   5.718
 6098SOL    HW119193   6.655   0.834   5.627
 6098SOL    HW219194   6.670   0.900   5.775
 6099SOL     OW19195   5.099   6.124   6.091
 6099SOL    HW119196   5.132   6.142   5.998
 6099SOL    HW219197   5.127   6.198   6.151
 6100SOL     OW19198   0.348   5.735   2.260
 6100SOL    HW119199   0.264   5.703   2.304
 6100SOL    HW219200   0.396   5.657   2.220
 6101SOL     OW19201   6.295   2.472   1.907
 6101SOL    HW119202   6.282   2.388   1.960
 6101SOL    HW219203   6.320   2.547   1.968
 6102SOL     OW19204   4.344   6.116   2.577
 6102SOL    HW119205   4.425   6.141   2.631
 6102SOL    HW219206   4.272   6.184   2.590
 6103SOL     OW19207   6.617   1.389   0.914
 6103SOL    HW119208   6.661   1.428   0.994
 6103SOL    HW219209   6.651   1.296   0.899
 6104SOL     OW19210   6.132   1.331   5.370
 6104SOL    HW119211   6.229   1.353   5.360
 6104SOL    HW219212   6.116   1.287   5.458
 6105SOL     OW19213   2.641   5.303   5.779
 6105SOL    HW119214   2.639   5.389   5.830
 6105SOL    HW219215   2.663   5.228   5.842
 6106SOL     OW19216   0.859   3.999   0.527
 6106SOL    HW119217   0.798   4.041   0.593
 6106SOL    HW219218   0.848   3.900   0.528
 6107SOL     OW19219   5.004   5.358   4.449
 6107SOL    HW119220   5.000   5.430   4.518
 6107SOL    HW219221   5.067   5.384   4.376
 6108SOL     OW19222   1.341   1.571   2.216
 6108SOL    HW119223   1.304   1.480   2.234
 6108SOL    HW219224   1.430   1.580   2.261
 6109SOL     OW19225   5.467   0.672   3.830
 6109SOL    HW119226   5.517   0.704   3.910
 6109SOL    HW219227   5.420   0.749   3.787
 6110SOL     OW19228   0.967   2.816   6.173
 6110SOL    HW119229   1.004   2.851   6.087
 6110SOL    HW219230   1.031   2.751   6.213
 6111SOL     OW19231   1.350   3.657   2.311
 6111SOL    HW119232   1.259   3.647   2.271
 6111SOL    HW219233   1.400   3.728   2.261
 6112SOL     OW19234   3.451   0.799   2.315
 6112SOL    HW119235   3.541   0.758   2.300
 6112SOL    HW219236   3.439   0.820   2.412
 6113SOL     OW19237   2.488   4.056   6.680
 6113SOL    HW119238   2.526   4.015   6.764
 6113SOL    HW219239   2.563   4.082   6.619
 6114SOL     OW19240   4.656   2.222   2.282
 6114SOL    HW119241   4.618   2.314   2.275
 6114SOL    HW219242   4.586   2.155   2.256
 6115SOL     OW19243   0.441   1.600   5.198
 6115SOL    HW119244   0.451   1.592   5.099
 6115SOL    HW219245   0.531   1.615   5.239
 6116SOL     OW19246   3.957   2.234   5.214
 6116SOL    HW119247   3.872   2.199   5.175
 6116SOL    HW219248   3.941   2.266   5.307
 6117SOL     OW19249   1.300   1.251   2.899
 6117SOL    HW119250   1.252   1.335   2.924
 6117SOL    HW219251   1.252   1.173   2.939
 6118SOL     OW19252   5.972   1.489   1.361
 6118SOL    HW119253   6.041   1.557   1.388
 6118SOL    HW219254   5.893   1.495   1.422
 6119SOL     OW19255   0.106   2.900   0.083
 6119SOL    HW119256   0.114   2.811   0.038
 6119SOL    HW219257   0.145   2.894   0.175
 6120SOL     OW19258   1.970   0.031   5.522
 6120SOL    HW119259   2.005   6.965   5.547
 6120SOL    HW219260   1.876   0.040   5.555
 6121SOL     OW19261   0.640   4.167   5.584
 6121SOL    HW119262   0.681   4.084   5.546
 6121SOL    HW219263   0.605   4.148   5.675
 6122SOL     OW19264   5.428   5.943   6.241
 6122SOL    HW119265   5.500   5.990   6.292
 6122SOL    HW219266   5.339   5.980   6.268
 6123SOL     OW19267   5.256   0.938   5.615
 6123SOL    HW119268   5.352   0.948   5.590
 6123SOL    HW219269   5.218   0.857   5.570
 6124SOL     OW19270   1.908   0.017   5.265
 6124SOL    HW119271   1.944   0.019   5.358
 6124SOL    HW219272   1.810   0.033   5.266
 6125SOL     OW19273   2.893   3.758   0.375
 6125SOL    HW119274   2.968   3.811   0.336
 6125SOL    HW219275   2.843   3.712   0.302
 6126SOL     OW19276   0.788   2.137   4.905
 6126SOL    HW119277   0.845   2.069   4.858
 6126SOL    HW219278   0.843   2.218   4.925
 6127SOL     OW19279   3.931   0.973   1.626
 6127SOL    HW119280   3.837   0.962   1.593
 6127SOL    HW219281   3.980   0.886   1.618
 6128SOL     OW19282   5.721   5.511   0.843
 6128SOL    HW119283   5.680   5.550   0.925
 6128SOL    HW219284   5.761   5.422   0.864
 6129SOL     OW19285   1.923   4.465   3.303
 6129SOL    HW119286   1.980   4.393   3.342
 6129SOL    HW219287   1.977   4.518   3.237
 6130SOL     OW19288   5.828   2.529   2.690
 6130SOL    HW119289   5.733   2.501   2.704
 6130SOL    HW219290   5.878   2.457   2.642
 6131SOL     OW19291   0.611   1.888   1.999
 6131SOL    HW119292   0.538   1.863   1.936
 6131SOL    HW219293   0.624   1.987   1.998
 6132SOL     OW19294   3.485   1.878   6.559
 6132SOL    HW119295   3.460   1.812   6.629
 6132SOL    HW219296   3.525   1.831   6.481
 6133SOL     OW19297   0.826   2.525   3.361
 6133SOL    HW119298   0.853   2.607   3.310
 6133SOL    HW219299   0.906   2.485   3.406
 6134SOL     OW19300   5.127   6.637   7.019
 6134SOL    HW119301   5.226   6.635   7.009
 6134SOL    HW219302   5.084   6.648   6.929
 6135SOL     OW19303   6.384   0.099   0.114
 6135SOL    HW119304   6.396   0.027   0.045
 6135SOL    HW219305   6.465   0.157   0.117
 6136SOL     OW19306   1.432   2.689   1.301
 6136SOL    HW119307   1.426   2.662   1.398
 6136SOL    HW219308   1.347   2.733   1.274
 6137SOL     OW19309   0.724   4.355   2.752
 6137SOL    HW119310   0.661   4.401   2.690
 6137SOL    HW219311   0.676   4.282   2.801
 6138SOL     OW19312   3.568   0.542   2.048
 6138SOL    HW119313   3.592   0.593   2.130
 6138SOL    HW219314   3.652   0.515   2.000
 6139SOL     OW19315   0.646   6.789   5.592
 6139SOL    HW119316   0.632   6.701   5.637
 6139SOL    HW219317   0.617   6.783   5.497
 6140SOL     OW19318   0.802   0.629   2.980
 6140SOL    HW119319   0.723   0.688   2.962
 6140SOL    HW219320   0.822   0.627   3.078
 6141SOL     OW19321   0.705   0.170   6.445
 6141SOL    HW119322   0.669   0.083   6.411
 6141SOL    HW219323   0.685   0.242   6.379
 6142SOL     OW19324   0.761   0.492   6.457
 6142SOL    HW119325   0.803   0.445   6.535
 6142SOL    HW219326   0.787   0.447   6.372
 6143SOL     OW19327   0.263   3.887   0.806
 6143SOL    HW119328   0.285   3.938   0.722
 6143SOL    HW219329   0.332   3.817   0.822
 6144SOL     OW19330   4.690   4.559   3.455
 6144SOL    HW119331   4.693   4.653   3.423
 6144SOL    HW219332   4.747   4.502   3.395
 6145SOL     OW19333   5.946   4.502   3.869
 6145SOL    HW119334   5.985   4.436   3.804
 6145SOL    HW219335   5.932   4.456   3.957
 6146SOL     OW19336   3.919   0.345   4.068
 6146SOL    HW119337   3.996   0.287   4.095
 6146SOL    HW219338   3.935   0.381   3.976
 6147SOL     OW19339   1.828   2.777   4.657
 6147SOL    HW119340   1.834   2.835   4.575
 6147SOL    HW219341   1.791   2.688   4.632
 6148SOL     OW19342   4.087   5.243   6.772
 6148SOL    HW119343   4.072   5.238   6.674
 6148SOL    HW219344   4.029   5.175   6.818
 6149SOL     OW19345   2.170   0.224   2.269
 6149SOL    HW119346   2.226   0.146   2.295
 6149SOL    HW219347   2.091   0.192   2.216
 6150SOL     OW19348   6.327   4.063   6.862
 6150SOL    HW119349   6.391   4.042   6.936
 6150SOL    HW219350   6.298   3.979   6.818
 6151SOL     OW19351   5.352   5.497   4.461
 6151SOL    HW119352   5.412   5.573   4.434
 6151SOL    HW219353   5.265   5.534   4.493
 6152SOL     OW19354   1.211   5.318   4.630
 6152SOL    HW119355   1.269   5.324   4.549
 6152SOL    HW219356   1.166   5.406   4.645
 6153SOL     OW19357   4.583   5.296   1.067
 6153SOL    HW119358   4.677   5.269   1.049
 6153SOL    HW219359   4.535   5.223   1.116
 6154SOL     OW19360   5.205   3.451   3.146
 6154SOL    HW119361   5.178   3.520   3.213
 6154SOL    HW219362   5.253   3.494   3.070
 6155SOL     OW19363   2.900   0.717   3.072
 6155SOL    HW119364   2.851   0.762   2.997
 6155SOL    HW219365   2.989   0.760   3.083
 6156SOL     OW19366   5.376   3.640   1.752
 6156SOL    HW119367   5.314   3.713   1.724
 6156SOL    HW219368   5.356   3.557   1.700
 6157SOL     OW19369   0.697   2.434   3.571
 6157SOL    HW119370   0.692   2.337   3.550
 6157SOL    HW219371   0.730   2.484   3.491
 6158SOL     OW19372   3.302   2.087   6.627
 6158SOL    HW119373   3.375   2.025   6.599
 6158SOL    HW219374   3.270   2.062   6.718
 6159SOL     OW19375   5.337   3.394   0.479
 6159SOL    HW119376   5.422   3.434   0.512
 6159SOL    HW219377   5.341   3.295   0.489
 6160SOL     OW19378   6.512   0.125   6.453
 6160SOL    HW119379   6.494   0.079   6.366
 6160SOL    HW219380   6.434   0.114   6.514
 6161SOL     OW19381   5.281   2.229   6.452
 6161SOL    HW119382   5.268   2.177   6.368
 6161SOL    HW219383   5.337   2.310   6.432
 6162SOL     OW19384   5.918   6.805   3.260
 6162SOL    HW119385   5.892   6.866   3.336
 6162SOL    HW219386   5.976   6.855   3.196
 6163SOL     OW19387   5.400   5.857   2.406
 6163SOL    HW119388   5.392   5.915   2.324
 6163SOL    HW219389   5.468   5.786   2.389
 6164SOL     OW19390   4.052   3.859   4.289
 6164SOL    HW119391   4.010   3.783   4.240
 6164SOL    HW219392   4.001   3.878   4.373
 6165SOL     OW19393   3.900   2.308   6.506
 6165SOL    HW119394   3.901   2.314   6.406
 6165SOL    HW219395   3.966   2.239   6.535
 6166SOL     OW19396   6.803   2.076   6.803
 6166SOL    HW119397   6.785   2.140   6.877
 6166SOL    HW219398   6.771   2.114   6.717
 6167SOL     OW19399   1.633   4.336   2.960
 6167SOL    HW119400   1.582   4.331   2.873
 6167SOL    HW219401   1.669   4.246   2.983
 6168SOL     OW19402   6.712   2.490   3.443
 6168SOL    HW119403   6.618   2.515   3.417
 6168SOL    HW219404   6.712   2.455   3.537
 6169SOL     OW19405   0.991   0.846   5.987
 6169SOL    HW119406   1.056   0.818   5.917
 6169SOL    HW219407   1.021   0.811   6.076
 6170SOL     OW19408   3.627   4.362   6.414
 6170SOL    HW119409   3.622   4.418   6.331
 6170SOL    HW219410   3.618   4.266   6.390
 6171SOL     OW19411   1.418   3.380   2.367
 6171SOL    HW119412   1.375   3.388   2.457
 6171SOL    HW219413   1.411   3.468   2.320
 6172SOL     OW19414   0.329   0.531   2.246
 6172SOL    HW119415   0.309   0.473   2.325
 6172SOL    HW219416   0.389   0.483   2.183
 6173SOL     OW19417   0.631   5.038   2.617
 6173SOL    HW119418   0.564   5.104   2.581
 6173SOL    HW219419   0.657   4.974   2.545
 6174SOL     OW19420   5.782   4.509   2.876
 6174SOL    HW119421   5.715   4.569   2.920
 6174SOL    HW219422   5.862   4.562   2.849
 6175SOL     OW19423   5.566   6.862   2.325
 6175SOL    HW119424   5.632   6.792   2.354
 6175SOL    HW219425   5.534   6.912   2.405
 6176SOL     OW19426   6.280   3.883   0.192
 6176SOL    HW119427   6.335   3.956   0.150
 6176SOL    HW219428   6.235   3.830   0.121
 6177SOL     OW19429   5.188   1.486   1.174
 6177SOL    HW119430   5.272   1.539   1.181
 6177SOL    HW219431   5.114   1.544   1.140
 6178SOL     OW19432   4.893   5.388   1.891
 6178SOL    HW119433   4.974   5.346   1.849
 6178SOL    HW219434   4.911   5.404   1.988
 6179SOL     OW19435   0.167   3.570   5.108
 6179SOL    HW119436   0.180   3.649   5.047
 6179SOL    HW219437   0.121   3.497   5.058
 6180SOL     OW19438   3.549   6.574   6.921
 6180SOL    HW119439   3.464   6.544   6.964
 6180SOL    HW219440   3.619   6.588   6.992
 6181SOL     OW19441   4.628   6.486   0.444
 6181SOL    HW119442   4.644   6.466   0.347
 6181SOL    HW219443   4.583   6.408   0.487
 6182SOL     OW19444   5.155   5.621   5.807
 6182SOL    HW119445   5.209   5.578   5.735
 6182SOL    HW219446   5.205   5.615   5.894
 6183SOL     OW19447   2.225   0.317   3.239
 6183SOL    HW119448   2.213   0.395   3.177
 6183SOL    HW219449   2.195   0.234   3.193
 6184SOL     OW19450   1.707   6.801   6.332
 6184SOL    HW119451   1.681   6.897   6.341
 6184SOL    HW219452   1.722   6.762   6.423
 6185SOL     OW19453   1.046   3.714   0.213
 6185SOL    HW119454   1.117   3.698   0.282
 6185SOL    HW219455   1.065   3.657   0.133
 6186SOL     OW19456   5.526   6.794   4.009
 6186SOL    HW119457   5.621   6.822   4.024
 6186SOL    HW219458   5.506   6.715   4.067
 6187SOL     OW19459   4.845   4.458   4.022
 6187SOL    HW119460   4.756   4.448   4.067
 6187SOL    HW219461   4.831   4.496   3.931
 6188SOL     OW19462   2.443   5.795   1.392
 6188SOL    HW119463   2.518   5.735   1.422
 6188SOL    HW219464   2.481   5.878   1.351
 6189SOL     OW19465   4.812   4.699   3.823
 6189SOL    HW119466   4.749   4.766   3.784
 6189SOL    HW219467   4.822   4.622   3.761
 6190SOL     OW19468   5.764   3.776   6.140
 6190SOL    HW119469   5.838   3.824   6.093
 6190SOL    HW219470   5.800   3.737   6.225
 6191SOL     OW19471   5.601   2.635   0.949
 6191SOL    HW119472   5.695   2.603   0.958
 6191SOL    HW219473   5.539   2.573   0.996
 6192SOL     OW19474   3.372   3.836   0.633
 6192SOL    HW119475   3.397   3.839   0.730
 6192SOL    HW219476   3.454   3.821   0.578
 6193SOL     OW19477   3.703   0.684   2.350
 6193SOL    HW119478   3.771   0.615   2.324
 6193SOL    HW219479   3.708   0.699   2.449
 6194SOL     OW19480   2.015   7.004   0.177
 6194SOL    HW119481   1.947   0.050   0.164
 6194SOL    HW219482   2.106   0.020   0.177
 6195SOL     OW19483   4.061   5.663   5.689
 6195SOL    HW119484   3.977   5.617   5.661
 6195SOL    HW219485   4.041   5.725   5.765
 6196SOL     OW19486   0.146   2.432   6.894
 6196SOL    HW119487   0.140   2.471   6.986
 6196SOL    HW219488   0.186   2.340   6.899
 6197SOL     OW19489   4.253   3.813   0.708
 6197SOL    HW119490   4.235   3.903   0.747
 6197SOL    HW219491   4.241   3.743   0.778
 6198SOL     OW19492   3.452   5.807   3.071
 6198SOL    HW119493   3.441   5.742   2.996
 6198SOL    HW219494   3.372   5.801   3.131
 6199SOL     OW19495   0.441   0.014   0.803
 6199SOL    HW119496   0.361   6.996   0.760
 6199SOL    HW219497   0.478   6.977   0.872
 6200SOL     OW19498   2.623   1.668   6.530
 6200SOL    HW119499   2.678   1.737   6.482
 6200SOL    HW219500   2.621   1.690   6.628
 6201SOL     OW19501   2.270   5.183   5.678
 6201SOL    HW119502   2.348   5.156   5.622
 6201SOL    HW219503   2.203   5.110   5.681
 6202SOL     OW19504   3.797   1.813   1.375
 6202SOL    HW119505   3.846   1.789   1.458
 6202SOL    HW219506   3.704   1.777   1.379
 6203SOL     OW19507   5.467   0.317   3.438
 6203SOL    HW119508   5.533   0.287   3.369
 6203SOL    HW219509   5.483   0.413   3.460
 6204SOL     OW19510   0.354   4.946   5.144
 6204SOL    HW119511   0.285   4.921   5.211
 6204SOL    HW219512   0.323   4.921   5.052
 6205SOL     OW19513   5.573   6.016   6.961
 6205SOL    HW119514   5.539   5.965   6.882
 6205SOL    HW219515   5.513   5.999   0.015
 6206SOL     OW19516   6.767   0.405   2.282
 6206SOL    HW119517   6.694   0.410   2.213
 6206SOL    HW219518   6.762   0.317   2.329
 6207SOL     OW19519   1.596   3.417   4.636
 6207SOL    HW119520   1.692   3.393   4.647
 6207SOL    HW219521   1.572   3.490   4.700
 6208SOL     OW19522   6.193   0.120   5.811
 6208SOL    HW119523   6.168   0.170   5.894
 6208SOL    HW219524   6.124   0.051   5.791
 6209SOL     OW19525   3.923   6.147   6.955
 6209SOL    HW119526   4.017   6.176   6.941
 6209SOL    HW219527   3.911   6.052   6.924
 6210SOL     OW19528   5.296   4.462   3.194
 6210SOL    HW119529   5.261   4.430   3.282
 6210SOL    HW219530   5.396   4.471   3.200
 6211SOL     OW19531   2.857   0.063   6.199
 6211SOL    HW119532   2.935   0.108   6.157
 6211SOL    HW219533   2.886   7.003   6.243
 6212SOL     OW19534   0.434   5.319   2.780
 6212SOL    HW119535   0.453   5.411   2.812
 6212SOL    HW219536   0.489   5.253   2.832
 6213SOL     OW19537   5.551   6.852   6.694
 6213SOL    HW119538   5.629   6.895   6.738
 6213SOL    HW219539   5.580   6.811   6.607
 6214SOL     OW19540   6.407   5.356   3.124
 6214SOL    HW119541   6.405   5.372   3.223
 6214SOL    HW219542   6.418   5.443   3.077
 6215SOL     OW19543   3.440   1.563   0.222
 6215SOL    HW119544   3.364   1.532   0.164
 6215SOL    HW219545   3.403   1.607   0.303
 6216SOL     OW19546   6.292   2.007   1.887
 6216SOL    HW119547   6.374   2.048   1.925
 6216SOL    HW219548   6.242   2.075   1.833
 6217SOL     OW19549   5.188   2.656   1.665
 6217SOL    HW119550   5.281   2.689   1.647
 6217SOL    HW219551   5.123   2.731   1.650
 6218SOL     OW19552   3.617   4.967   3.949
 6218SOL    HW119553   3.597   5.025   4.029
 6218SOL    HW219554   3.692   4.906   3.971
 6219SOL     OW19555   0.741   1.570   4.756
 6219SOL    HW119556   0.735   1.656   4.807
 6219SOL    HW219557   0.734   1.493   4.820
 6220SOL     OW19558   1.976   4.513   5.740
 6220SOL    HW119559   2.066   4.521   5.697
 6220SOL    HW219560   1.924   4.440   5.696
 6221SOL     OW19561   5.121   5.168   5.523
 6221SOL    HW119562   5.031   5.178   5.566
 6221SOL    HW219563   5.177   5.104   5.577
 6222SOL     OW19564   0.822   6.701   1.415
 6222SOL    HW119565   0.921   6.720   1.407
 6222SOL    HW219566   0.807   6.635   1.488
 6223SOL     OW19567   6.460   3.168   4.815
 6223SOL    HW119568   6.508   3.162   4.727
 6223SOL    HW219569   6.525   3.159   4.890
 6224SOL     OW19570   1.849   1.736   6.010
 6224SOL    HW119571   1.900   1.808   5.964
 6224SOL    HW219572   1.912   1.664   6.039
 6225SOL     OW19573   2.894   3.412   1.541
 6225SOL    HW119574   2.960   3.475   1.499
 6225SOL    HW219575   2.910   3.320   1.507
 6226SOL     OW19576   5.936   1.905   3.727
 6226SOL    HW119577   5.984   1.965   3.663
 6226SOL    HW219578   5.998   1.880   3.801
 6227SOL     OW19579   3.255   4.781   6.437
 6227SOL    HW119580   3.181   4.720   6.408
 6227SOL    HW219581   3.316   4.799   6.360
 6228SOL     OW19582   0.254   2.027   2.675
 6228SOL    HW119583   0.341   1.980   2.681
 6228SOL    HW219584   0.269   2.126   2.681
 6229SOL     OW19585   1.381   1.948   2.976
 6229SOL    HW119586   1.415   2.026   3.027
 6229SOL    HW219587   1.365   1.974   2.881
 6230SOL     OW19588   1.335   1.459   4.538
 6230SOL    HW119589   1.420   1.498   4.503
 6230SOL    HW219590   1.322   1.488   4.633
 6231SOL     OW19591   6.887   5.203   1.531
 6231SOL    HW119592   6.875   5.193   1.630
 6231SOL    HW219593   6.909   5.298   1.510
 6232SOL     OW19594   6.650   1.729   0.015
 6232SOL    HW119595   6.663   1.632   0.034
 6232SOL    HW219596   6.569   1.762   0.064
 6233SOL     OW19597   5.603   1.330   0.093
 6233SOL    HW119598   5.639   1.247   0.136
 6233SOL    HW219599   5.515   1.310   0.051
 6234SOL     OW19600   0.603   1.450   5.450
 6234SOL    HW119601   0.554   1.366   5.474
 6234SOL    HW219602   0.644   1.489   5.532
 6235SOL     OW19603   1.284   0.241   2.961
 6235SOL    HW119604   1.304   0.145   2.980
 6235SOL    HW219605   1.213   0.248   2.891
 6236SOL     OW19606   0.915   5.127   0.313
 6236SOL    HW119607   0.961   5.209   0.279
 6236SOL    HW219608   0.963   5.094   0.394
 6237SOL     OW19609   4.469   6.273   0.534
 6237SOL    HW119610   4.413   6.328   0.472
 6237SOL    HW219611   4.451   6.176   0.517
 6238SOL     OW19612   4.669   5.037   3.119
 6238SOL    HW119613   4.713   5.005   3.203
 6238SOL    HW219614   4.575   5.063   3.139
 6239SOL     OW19615   2.596   6.460   1.793
 6239SOL    HW119616   2.567   6.454   1.889
 6239SOL    HW219617   2.538   6.399   1.738
 6240SOL     OW19618   2.709   1.947   0.795
 6240SOL    HW119619   2.802   1.966   0.825
 6240SOL    HW219620   2.650   1.929   0.874
 6241SOL     OW19621   2.437   1.261   2.582
 6241SOL    HW119622   2.496   1.237   2.504
 6241SOL    HW219623   2.489   1.254   2.667
 6242SOL     OW19624   5.591   1.381   3.550
 6242SOL    HW119625   5.683   1.414   3.569
 6242SOL    HW219626   5.581   1.288   3.586
 6243SOL     OW19627   6.091   6.935   2.799
 6243SOL    HW119628   6.101   6.841   2.832
 6243SOL    HW219629   5.996   6.952   2.775
 6244SOL     OW19630   1.616   2.295   1.749
 6244SOL    HW119631   1.554   2.313   1.672
 6244SOL    HW219632   1.710   2.291   1.715
 6245SOL     OW19633   3.058   4.409   1.682
 6245SOL    HW119634   3.001   4.336   1.645
 6245SOL    HW219635   3.004   4.466   1.743
 6246SOL     OW19636   3.043   2.904   6.562
 6246SOL    HW119637   3.024   2.848   6.481
 6246SOL    HW219638   3.035   2.848   6.644
 6247SOL     OW19639   0.465   6.485   3.592
 6247SOL    HW119640   0.489   6.477   3.495
 6247SOL    HW219641   0.532   6.543   3.638
 6248SOL     OW19642   1.528   3.982   1.635
 6248SOL    HW119643   1.605   3.993   1.699
 6248SOL    HW219644   1.457   4.049   1.657
 6249SOL     OW19645   0.657   4.474   0.565
 6249SOL    HW119646   0.567   4.432   0.582
 6249SOL    HW219647   0.716   4.459   0.644
 6250SOL     OW19648   6.328   5.955   0.383
 6250SOL    HW119649   6.269   5.987   0.457
 6250SOL    HW219650   6.292   5.869   0.347
 6251SOL     OW19651   3.847   0.024   0.748
 6251SOL    HW119652   3.771   0.081   0.716
 6251SOL    HW219653   3.918   0.020   0.678
 6252SOL     OW19654   1.887   6.349   4.814
 6252SOL    HW119655   1.907   6.390   4.725
 6252SOL    HW219656   1.959   6.285   4.838
 6253SOL     OW19657   2.318   4.223   2.809
 6253SOL    HW119658   2.317   4.162   2.729
 6253SOL    HW219659   2.241   4.285   2.804
 6254SOL     OW19660   5.079   1.215   6.611
 6254SOL    HW119661   5.174   1.207   6.642
 6254SOL    HW219662   5.019   1.166   6.674
 6255SOL     OW19663   1.702   0.883   1.226
 6255SOL    HW119664   1.623   0.893   1.286
 6255SOL    HW219665   1.672   0.844   1.138
 6256SOL     OW19666   4.396   4.991   2.753
 6256SOL    HW119667   4.317   5.026   2.703
 6256SOL    HW219668   4.369   4.910   2.805
 6257SOL     OW19669   5.872   2.266   1.037
 6257SOL    HW119670   5.859   2.287   1.134
 6257SOL    HW219671   5.817   2.187   1.012
 6258SOL     OW19672   4.644   0.589   3.522
 6258SOL    HW119673   4.684   0.609   3.433
 6258SOL    HW219674   4.575   0.658   3.544
 6259SOL     OW19675   2.781   1.369   1.043
 6259SOL    HW119676   2.861   1.398   1.096
 6259SOL    HW219677   2.783   1.413   0.953
 6260SOL     OW19678   3.355   4.004   0.248
 6260SOL    HW119679   3.364   4.017   0.346
 6260SOL    HW219680   3.376   4.089   0.200
 6261SOL     OW19681   3.055   6.492   6.415
 6261SOL    HW119682   3.055   6.396   6.445
 6261SOL    HW219683   3.147   6.517   6.385
 6262SOL     OW19684   2.132   4.118   0.455
 6262SOL    HW119685   2.178   4.162   0.532
 6262SOL    HW219686   2.195   4.114   0.377
 6263SOL     OW19687   0.567   6.788   6.188
 6263SOL    HW119688   0.489   6.741   6.229
 6263SOL    HW219689   0.617   6.725   6.128
 6264SOL     OW19690   1.584   6.394   0.826
 6264SOL    HW119691   1.670   6.412   0.875
 6264SOL    HW219692   1.542   6.311   0.864
 6265SOL     OW19693   3.338   4.034   1.275
 6265SOL    HW119694   3.330   4.028   1.176
 6265SOL    HW219695   3.381   4.121   1.300
 6266SOL     OW19696   4.461   0.775   4.642
 6266SOL    HW119697   4.516   0.814   4.567
 6266SOL    HW219698   4.504   0.798   4.730
 6267SOL     OW19699   3.239   0.036   0.421
 6267SOL    HW119700   3.178   0.111   0.448
 6267SOL    HW219701   3.318   0.034   0.482
 6268SOL     OW19702   2.680   6.232   3.002
 6268SOL    HW119703   2.710   6.235   3.097
 6268SOL    HW219704   2.638   6.319   2.977
 6269SOL     OW19705   6.897   6.204   2.426
 6269SOL    HW119706   6.962   6.128   2.417
 6269SOL    HW219707   6.907   6.245   2.517
 6270SOL     OW19708   2.008   0.386   5.876
 6270SOL    HW119709   2.071   0.417   5.947
 6270SOL    HW219710   2.053   0.391   5.787
 6271SOL     OW19711   6.644   2.671   6.182
 6271SOL    HW119712   6.611   2.718   6.100
 6271SOL    HW219713   6.695   2.589   6.156
 6272SOL     OW19714   0.576   3.189   4.849
 6272SOL    HW119715   0.510   3.124   4.812
 6272SOL    HW219716   0.654   3.196   4.787
 6273SOL     OW19717   1.360   0.993   2.034
 6273SOL    HW119718   1.383   1.082   2.075
 6273SOL    HW219719   1.294   1.006   1.960
 6274SOL     OW19720   2.086   5.787   6.120
 6274SOL    HW119721   2.178   5.763   6.152
 6274SOL    HW219722   2.060   5.727   6.045
 6275SOL     OW19723   2.824   6.428   5.465
 6275SOL    HW119724   2.809   6.406   5.369
 6275SOL    HW219725   2.752   6.491   5.496
 6276SOL     OW19726   1.526   4.856   3.515
 6276SOL    HW119727   1.539   4.945   3.558
 6276SOL    HW219728   1.607   4.831   3.463
 6277SOL     OW19729   4.917   2.615   2.768
 6277SOL    HW119730   4.854   2.664   2.828
 6277SOL    HW219731   4.866   2.550   2.712
 6278SOL     OW19732   4.882   0.395   4.807
 6278SOL    HW119733   4.902   0.467   4.740
 6278SOL    HW219734   4.967   0.356   4.840
 6279SOL     OW19735   3.866   1.288   6.802
 6279SOL    HW119736   3.948   1.231   6.797
 6279SOL    HW219737   3.816   1.269   6.887
 6280SOL     OW19738   0.652   2.882   5.418
 6280SOL    HW119739   0.685   2.838   5.502
 6280SOL    HW219740   0.558   2.854   5.400
 6281SOL     OW19741   2.592   6.583   5.504
 6281SOL    HW119742   2.550   6.588   5.595
 6281SOL    HW219743   2.521   6.571   5.435
 6282SOL     OW19744   1.518   0.208   4.775
 6282SOL    HW119745   1.526   0.300   4.736
 6282SOL    HW219746   1.517   0.141   4.701
 6283SOL     OW19747   6.515   2.642   4.848
 6283SOL    HW119748   6.452   2.721   4.851
 6283SOL    HW219749   6.534   2.611   4.941
 6284SOL     OW19750   2.174   5.536   4.802
 6284SOL    HW119751   2.134   5.550   4.893
 6284SOL    HW219752   2.267   5.572   4.801
 6285SOL     OW19753   1.207   2.861   3.793
 6285SOL    HW119754   1.256   2.879   3.878
 6285SOL    HW219755   1.162   2.945   3.762
 6286SOL     OW19756   6.593   1.888   3.849
 6286SOL    HW119757   6.678   1.885   3.901
 6286SOL    HW219758   6.570   1.796   3.817
 6287SOL     OW19759   4.357   4.582   2.448
 6287SOL    HW119760   4.321   4.672   2.471
 6287SOL    HW219761   4.367   4.574   2.349
 6288SOL     OW19762   5.767   3.904   1.954
 6288SOL    HW119763   5.703   3.937   1.884
 6288SOL    HW219764   5.854   3.879   1.912
 6289SOL     OW19765   1.325   2.763   2.688
 6289SOL    HW119766   1.352   2.674   2.651
 6289SOL    HW219767   1.345   2.834   2.621
 6290SOL     OW19768   5.595   3.586   4.427
 6290SOL    HW119769   5.622   3.659   4.490
 6290SOL    HW219770   5.526   3.528   4.470
 6291SOL     OW19771   3.678   2.902   3.985
 6291SOL    HW119772   3.580   2.894   3.964
 6291SOL    HW219773   3.691   2.896   4.084
 6292SOL     OW19774   0.342   3.221   3.261
 6292SOL    HW119775   0.302   3.255   3.346
 6292SOL    HW219776   0.327   3.122   3.255
 6293SOL     OW19777   4.316   6.838   0.317
 6293SOL    HW119778   4.339   6.933   0.337
 6293SOL    HW219779   4.293   6.828   0.221
 6294SOL     OW19780   3.769   4.892   3.547
 6294SOL    HW119781   3.823   4.934   3.620
 6294SOL    HW219782   3.829   4.840   3.486
 6295SOL     OW19783   5.253   5.350   5.672
 6295SOL    HW119784   5.237   5.278   5.604
 6295SOL    HW219785   5.325   5.412   5.639
 6296SOL     OW19786   6.624   6.963   4.310
 6296SOL    HW119787   6.617   6.964   4.410
 6296SOL    HW219788   6.710   6.919   4.284
 6297SOL     OW19789   4.789   7.000   5.278
 6297SOL    HW119790   4.851   0.041   5.236
 6297SOL    HW219791   4.727   0.022   5.340
 6298SOL     OW19792   1.573   3.440   5.810
 6298SOL    HW119793   1.509   3.516   5.805
 6298SOL    HW219794   1.522   3.356   5.832
 6299SOL     OW19795   6.004   2.281   6.937
 6299SOL    HW119796   6.069   2.353   6.961
 6299SOL    HW219797   6.047   2.216   6.874
 6300SOL     OW19798   5.402   0.749   4.877
 6300SOL    HW119799   5.306   0.724   4.868
 6300SOL    HW219800   5.459   0.668   4.864
 6301SOL     OW19801   2.565   0.339   0.796
 6301SOL    HW119802   2.491   0.308   0.855
 6301SOL    HW219803   2.531   0.410   0.734
 6302SOL     OW19804   1.300   1.801   4.010
 6302SOL    HW119805   1.366   1.866   4.048
 6302SOL    HW219806   1.236   1.849   3.950
 6303SOL     OW19807   2.707   0.767   5.063
 6303SOL    HW119808   2.675   0.725   5.147
 6303SOL    HW219809   2.730   0.695   4.997
 6304SOL     OW19810   2.315   0.855   1.341
 6304SOL    HW119811   2.254   0.888   1.413
 6304SOL    HW219812   2.283   0.888   1.253
 6305SOL     OW19813   6.276   6.610   0.923
 6305SOL    HW119814   6.351   6.627   0.859
 6305SOL    HW219815   6.312   6.572   1.008
 6306SOL     OW19816   0.203   3.861   4.355
 6306SOL    HW119817   0.184   3.926   4.283
 6306SOL    HW219818   0.297   3.827   4.346
 6307SOL     OW19819   3.678   4.519   6.152
 6307SOL    HW119820   3.583   4.532   6.124
 6307SOL    HW219821   3.731   4.600   6.128
 6308SOL     OW19822   1.451   1.917   5.072
 6308SOL    HW119823   1.533   1.898   5.018
 6308SOL    HW219824   1.428   1.836   5.126
 6309SOL     OW19825   4.854   4.063   4.520
 6309SOL    HW119826   4.861   4.069   4.619
 6309SOL    HW219827   4.805   4.143   4.485
 6310SOL     OW19828   1.985   4.902   4.456
 6310SOL    HW119829   1.936   4.935   4.537
 6310SOL    HW219830   1.921   4.886   4.381
 6311SOL     OW19831   6.319   0.881   5.260
 6311SOL    HW119832   6.414   0.902   5.236
 6311SOL    HW219833   6.314   0.857   5.357
 6312SOL     OW19834   5.053   5.255   5.832
 6312SOL    HW119835   4.989   5.226   5.761
 6312SOL    HW219836   5.135   5.293   5.790
 6313SOL     OW19837   1.905   5.732   3.281
 6313SOL    HW119838   1.921   5.828   3.304
 6313SOL    HW219839   1.933   5.674   3.357
 6314SOL     OW19840   3.495   6.865   1.860
 6314SOL    HW119841   3.494   6.775   1.906
 6314SOL    HW219842   3.478   6.852   1.763
 6315SOL     OW19843   3.783   2.560   6.541
 6315SOL    HW119844   3.832   2.475   6.524
 6315SOL    HW219845   3.685   2.546   6.524
 6316SOL     OW19846   4.538   2.472   6.125
 6316SOL    HW119847   4.509   2.561   6.162
 6316SOL    HW219848   4.457   2.414   6.113
 6317SOL     OW19849   5.384   6.388   3.292
 6317SOL    HW119850   5.326   6.367   3.371
 6317SOL    HW219851   5.397   6.487   3.286
 6318SOL     OW19852   2.800   2.247   5.353
 6318SOL    HW119853   2.793   2.190   5.270
 6318SOL    HW219854   2.879   2.307   5.344
 6319SOL     OW19855   0.184   2.969   3.593
 6319SOL    HW119856   0.161   2.910   3.671
 6319SOL    HW219857   0.268   2.935   3.550
 6320SOL     OW19858   5.564   4.467   3.998
 6320SOL    HW119859   5.515   4.460   3.911
 6320SOL    HW219860   5.631   4.392   4.005
 6321SOL     OW19861   3.191   5.431   1.606
 6321SOL    HW119862   3.131   5.352   1.617
 6321SOL    HW219863   3.135   5.514   1.597
 6322SOL     OW19864   1.855   1.942   6.255
 6322SOL    HW119865   1.906   2.015   6.303
 6322SOL    HW219866   1.912   1.860   6.249
 6323SOL     OW19867   3.252   2.426   1.253
 6323SOL    HW119868   3.182   2.422   1.182
 6323SOL    HW219869   3.337   2.386   1.219
 6324SOL     OW19870   4.695   0.992   6.207
 6324SOL    HW119871   4.792   1.013   6.190
 6324SOL    HW219872   4.647   0.985   6.120
 6325SOL     OW19873   1.526   2.023   1.604
 6325SOL    HW119874   1.583   2.086   1.552
 6325SOL    HW219875   1.507   1.942   1.548
 6326SOL     OW19876   5.273   6.128   1.280
 6326SOL    HW119877   5.361   6.154   1.239
 6326SOL    HW219878   5.290   6.066   1.357
 6327SOL     OW19879   6.976   0.320   5.257
 6327SOL    HW119880   6.919   0.248   5.296
 6327SOL    HW219881   6.999   0.387   5.328
 6328SOL     OW19882   2.414   3.739   6.949
 6328SOL    HW119883   2.491   3.802   6.940
 6328SOL    HW219884   2.445   3.655   6.994
 6329SOL     OW19885   1.051   2.531   3.586
 6329SOL    HW119886   1.099   2.508   3.671
 6329SOL    HW219887   1.118   2.545   3.513
 6330SOL     OW19888   4.928   1.148   1.089
 6330SOL    HW119889   4.906   1.067   1.143
 6330SOL    HW219890   5.027   1.162   1.089
 6331SOL     OW19891   6.425   2.735   0.782
 6331SOL    HW119892   6.417   2.652   0.837
 6331SOL    HW219893   6.479   2.802   0.832
 6332SOL     OW19894   6.412   4.708   2.257
 6332SOL    HW119895   6.430   4.806   2.261
 6332SOL    HW219896   6.314   4.692   2.252
 6333SOL     OW19897   3.899   4.998   3.754
 6333SOL    HW119898   3.992   5.033   3.764
 6333SOL    HW219899   3.876   4.941   3.834
 6334SOL     OW19900   1.626   6.896   2.781
 6334SOL    HW119901   1.566   6.975   2.771
 6334SOL    HW219902   1.696   6.898   2.710
 6335SOL     OW19903   5.686   1.618   0.745
 6335SOL    HW119904   5.682   1.698   0.684
 6335SOL    HW219905   5.599   1.570   0.743
 6336SOL     OW19906   0.088   2.344   5.301
 6336SOL    HW119907   0.088   2.279   5.225
 6336SOL    HW219908   0.090   2.294   5.388
 6337SOL     OW19909   4.905   3.468   6.131
 6337SOL    HW119910   4.819   3.443   6.087
 6337SOL    HW219911   4.904   3.566   6.152
 6338SOL     OW19912   2.619   2.392   2.276
 6338SOL    HW119913   2.704   2.342   2.293
 6338SOL    HW219914   2.565   2.342   2.208
 6339SOL     OW19915   0.293   2.634   3.747
 6339SOL    HW119916   0.346   2.589   3.675
 6339SOL    HW219917   0.347   2.638   3.831
 6340SOL     OW19918   2.771   5.970   3.210
 6340SOL    HW119919   2.671   5.969   3.224
 6340SOL    HW219920   2.814   5.912   3.280
 6341SOL     OW19921   6.829   4.679   3.640
 6341SOL    HW119922   6.864   4.759   3.688
 6341SOL    HW219923   6.734   4.663   3.666
 6342SOL     OW19924   2.449   1.748   1.948
 6342SOL    HW119925   2.464   1.783   1.856
 6342SOL    HW219926   2.399   1.816   2.002
 6343SOL     OW19927   4.814   2.715   6.672
 6343SOL    HW119928   4.738   2.660   6.707
 6343SOL    HW219929   4.901   2.675   6.702
 6344SOL     OW19930   6.561   3.662   5.948
 6344SOL    HW119931   6.549   3.651   5.850
 6344SOL    HW219932   6.493   3.607   5.997
 6345SOL     OW19933   4.413   0.944   2.033
 6345SOL    HW119934   4.398   1.012   1.962
 6345SOL    HW219935   4.390   0.983   2.122
 6346SOL     OW19936   6.677   3.586   3.774
 6346SOL    HW119937   6.650   3.661   3.713
 6346SOL    HW219938   6.753   3.616   3.831
 6347SOL     OW19939   3.185   0.928   1.899
 6347SOL    HW119940   3.187   0.934   1.999
 6347SOL    HW219941   3.103   0.880   1.870
 6348SOL     OW19942   1.023   3.831   5.395
 6348SOL    HW119943   0.981   3.888   5.324
 6348SOL    HW219944   1.122   3.829   5.381
 6349SOL     OW19945   2.423   0.740   1.670
 6349SOL    HW119946   2.475   0.672   1.722
 6349SOL    HW219947   2.474   0.826   1.667
 6350SOL     OW19948   2.086   5.068   3.419
 6350SOL    HW119949   1.993   5.042   3.443
 6350SOL    HW219950   2.151   5.006   3.464
 6351SOL     OW19951   6.347   2.699   2.070
 6351SOL    HW119952   6.412   2.745   2.010
 6351SOL    HW219953   6.362   2.729   2.164
 6352SOL     OW19954   1.741   5.509   4.132
 6352SOL    HW119955   1.746   5.448   4.053
 6352SOL    HW219956   1.827   5.559   4.142
 6353SOL     OW19957   6.680   0.628   6.534
 6353SOL    HW119958   6.635   0.580   6.459
 6353SOL    HW219959   6.616   0.638   6.610
 6354SOL     OW19960   1.302   0.032   2.383
 6354SOL    HW119961   1.210   0.061   2.410
 6354SOL    HW219962   1.347   7.011   2.460
 6355SOL     OW19963   0.771   4.330   5.184
 6355SOL    HW119964   0.705   4.310   5.256
 6355SOL    HW219965   0.749   4.277   5.102
 6356SOL     OW19966   5.148   4.913   1.900
 6356SOL    HW119967   5.162   4.988   1.965
 6356SOL    HW219968   5.221   4.846   1.911
 6357SOL     OW19969   4.915   2.794   1.195
 6357SOL    HW119970   4.864   2.848   1.261
 6357SOL    HW219971   5.013   2.811   1.205
 6358SOL     OW19972   0.517   2.135   4.895
 6358SOL    HW119973   0.484   2.054   4.945
 6358SOL    HW219974   0.615   2.144   4.908
 6359SOL     OW19975   6.368   0.469   5.425
 6359SOL    HW119976   6.454   0.437   5.386
 6359SOL    HW219977   6.383   0.554   5.474
 6360SOL     OW19978   2.309   4.717   4.267
 6360SOL    HW119979   2.318   4.773   4.349
 6360SOL    HW219980   2.351   4.627   4.284
 6361SOL     OW19981   5.763   6.991   6.792
 6361SOL    HW119982   5.803   0.039   6.736
 6361SOL    HW219983   5.746   7.024   6.884
 6362SOL     OW19984   5.676   4.926   6.854
 6362SOL    HW119985   5.745   4.893   6.919
 6362SOL    HW219986   5.684   4.876   6.768
 6363SOL     OW19987   2.303   5.194   3.572
 6363SOL    HW119988   2.228   5.194   3.505
 6363SOL    HW219989   2.266   5.172   3.662
 6364SOL     OW19990   2.835   1.431   5.857
 6364SOL    HW119991   2.804   1.447   5.763
 6364SOL    HW219992   2.815   1.512   5.913
 6365SOL     OW19993   4.553   6.940   4.384
 6365SOL    HW119994   4.599   6.877   4.445
 6365SOL    HW219995   4.621   6.996   4.336
 6366SOL     OW19996   0.346   6.404   5.593
 6366SOL    HW119997   0.292   6.475   5.548
 6366SOL    HW219998   0.424   6.379   5.535
 6367SOL     OW19999   4.774   0.545   4.007
 6367SOL    HW120000   4.725   0.458   4.000
 6367SOL    HW220001   4.731   0.603   4.075
 6368SOL     OW20002   2.918   0.406   4.024
 6368SOL    HW120003   2.898   0.467   4.101
 6368SOL    HW220004   2.999   0.352   4.044
 6369SOL     OW20005   3.394   4.986   4.529
 6369SOL    HW120006   3.322   4.965   4.464
 6369SOL    HW220007   3.406   5.085   4.535
 6370SOL     OW20008   1.350   2.508   2.595
 6370SOL    HW120009   1.261   2.510   2.640
 6370SOL    HW220010   1.400   2.425   2.622
 6371SOL     OW20011   4.908   3.431   4.030
 6371SOL    HW120012   5.005   3.424   4.053
 6371SOL    HW220013   4.869   3.339   4.022
 6372SOL     OW20014   2.792   6.817   1.864
 6372SOL    HW120015   2.853   6.865   1.801
 6372SOL    HW220016   2.721   6.770   1.812
 6373SOL     OW20017   5.729   4.711   4.117
 6373SOL    HW120018   5.665   4.649   4.072
 6373SOL    HW220019   5.806   4.729   4.056
 6374SOL     OW20020   3.021   3.925   3.789
 6374SOL    HW120021   2.984   3.954   3.877
 6374SOL    HW220022   3.105   3.977   3.770
 6375SOL     OW20023   0.799   1.266   3.342
 6375SOL    HW120024   0.838   1.181   3.379
 6375SOL    HW220025   0.869   1.316   3.292
 6376SOL     OW20026   6.328   1.976   5.319
 6376SOL    HW120027   6.277   2.062   5.309
 6376SOL    HW220028   6.322   1.944   5.414
 6377SOL     OW20029   6.814   1.123   6.077
 6377SOL    HW120030   6.715   1.131   6.070
 6377SOL    HW220031   6.848   1.188   6.145
 6378SOL     OW20032   5.327   4.767   3.134
 6378SOL    HW120033   5.275   4.841   3.090
 6378SOL    HW220034   5.286   4.744   3.222
 6379SOL     OW20035   2.444   5.017   4.848
 6379SOL    HW120036   2.369   4.998   4.911
 6379SOL    HW220037   2.491   5.100   4.876
 6380SOL     OW20038   1.151   1.498   5.324
 6380SOL    HW120039   1.082   1.447   5.374
 6380SOL    HW220040   1.126   1.504   5.227
 6381SOL     OW20041   3.563   2.980   2.756
 6381SOL    HW120042   3.537   2.905   2.696
 6381SOL    HW220043   3.653   2.961   2.797
 6382SOL     OW20044   1.417   2.500   0.008
 6382SOL    HW120045   1.453   2.584   0.049
 6382SOL    HW220046   1.486   2.428   0.014
 6383SOL     OW20047   1.986   2.343   3.287
 6383SOL    HW120048   2.036   2.284   3.223
 6383SOL    HW220049   2.051   2.390   3.347
 6384SOL     OW20050   5.780   4.617   1.832
 6384SOL    HW120051   5.855   4.564   1.794
 6384SOL    HW220052   5.701   4.610   1.771
 6385SOL     OW20053   5.986   5.051   4.289
 6385SOL    HW120054   5.913   5.119   4.299
 6385SOL    HW220055   6.075   5.096   4.300
 6386SOL     OW20056   2.503   4.308   0.228
 6386SOL    HW120057   2.447   4.388   0.250
 6386SOL    HW220058   2.578   4.300   0.294
 6387SOL     OW20059   0.895   2.142   6.161
 6387SOL    HW120060   0.844   2.221   6.194
 6387SOL    HW220061   0.834   2.063   6.156
 6388SOL     OW20062   4.373   4.566   1.486
 6388SOL    HW120063   4.292   4.613   1.452
 6388SOL    HW220064   4.353   4.525   1.575
 6389SOL     OW20065   0.975   5.968   2.032
 6389SOL    HW120066   1.045   6.018   2.084
 6389SOL    HW220067   1.007   5.952   1.939
 6390SOL     OW20068   0.603   2.965   3.618
 6390SOL    HW120069   0.694   2.949   3.580
 6390SOL    HW220070   0.605   2.949   3.717
 6391SOL     OW20071   2.836   0.705   6.548
 6391SOL    HW120072   2.882   0.768   6.610
 6391SOL    HW220073   2.904   0.665   6.485
 6392SOL     OW20074   2.402   6.677   3.800
 6392SOL    HW120075   2.500   6.661   3.815
 6392SOL    HW220076   2.353   6.590   3.804
 6393SOL     OW20077   5.871   6.481   1.887
 6393SOL    HW120078   5.945   6.547   1.873
 6393SOL    HW220079   5.899   6.416   1.957
 6394SOL     OW20080   2.722   4.774   0.685
 6394SOL    HW120081   2.640   4.828   0.669
 6394SOL    HW220082   2.696   4.685   0.724
 6395SOL     OW20083   5.708   1.968   1.890
 6395SOL    HW120084   5.651   2.045   1.862
 6395SOL    HW220085   5.794   1.971   1.840
 6396SOL     OW20086   5.652   2.864   6.212
 6396SOL    HW120087   5.732   2.900   6.164
 6396SOL    HW220088   5.653   2.764   6.206
 6397SOL     OW20089   6.449   2.066   6.900
 6397SOL    HW120090   6.457   1.983   6.954
 6397SOL    HW220091   6.441   2.043   6.803
 6398SOL     OW20092   3.584   0.867   0.857
 6398SOL    HW120093   3.614   0.962   0.856
 6398SOL    HW220094   3.620   0.820   0.776
 6399SOL     OW20095   1.741   5.145   6.366
 6399SOL    HW120096   1.801   5.124   6.289
 6399SOL    HW220097   1.758   5.238   6.398
 6400SOL     OW20098   2.234   5.679   3.167
 6400SOL    HW120099   2.246   5.728   3.080
 6400SOL    HW220100   2.288   5.594   3.165
 6401SOL     OW20101   6.965   4.521   3.225
 6401SOL    HW120102   6.964   4.585   3.148
 6401SOL    HW220103   0.013   4.546   3.289
 6402SOL     OW20104   2.672   0.597   3.178
 6402SOL    HW120105   2.611   0.630   3.106
 6402SOL    HW220106   2.762   0.640   3.168
 6403SOL     OW20107   0.848   5.745   6.325
 6403SOL    HW120108   0.794   5.716   6.404
 6403SOL    HW220109   0.894   5.831   6.346
 6404SOL     OW20110   4.348   1.514   3.253
 6404SOL    HW120111   4.445   1.490   3.259
 6404SOL    HW220112   4.298   1.438   3.210
 6405SOL     OW20113   1.861   1.601   2.785
 6405SOL    HW120114   1.838   1.524   2.844
 6405SOL    HW220115   1.890   1.567   2.696
 6406SOL     OW20116   1.568   2.522   3.529
 6406SOL    HW120117   1.480   2.567   3.513
 6406SOL    HW220118   1.641   2.576   3.488
 6407SOL     OW20119   3.003   6.702   3.631
 6407SOL    HW120120   2.937   6.628   3.646
 6407SOL    HW220121   3.093   6.663   3.610
 6408SOL     OW20122   6.254   2.655   0.248
 6408SOL    HW120123   6.321   2.595   0.204
 6408SOL    HW220124   6.164   2.641   0.204
 6409SOL     OW20125   6.554   4.419   3.258
 6409SOL    HW120126   6.462   4.403   3.294
 6409SOL    HW220127   6.620   4.413   3.334
 6410SOL     OW20128   1.685   1.824   0.523
 6410SOL    HW120129   1.639   1.738   0.547
 6410SOL    HW220130   1.783   1.816   0.541
 6411SOL     OW20131   0.324   2.465   3.327
 6411SOL    HW120132   0.310   2.544   3.267
 6411SOL    HW220133   0.338   2.383   3.271
 6412SOL     OW20134   0.456   3.423   5.207
 6412SOL    HW120135   0.358   3.436   5.192
 6412SOL    HW220136   0.484   3.336   5.167
 6413SOL     OW20137   5.490   4.168   1.971
 6413SOL    HW120138   5.542   4.240   1.925
 6413SOL    HW220139   5.524   4.158   2.065
 6414SOL     OW20140   5.925   0.778   1.812
 6414SOL    HW120141   5.978   0.860   1.836
 6414SOL    HW220142   5.961   0.700   1.864
 6415SOL     OW20143   3.506   2.122   2.713
 6415SOL    HW120144   3.589   2.166   2.748
 6415SOL    HW220145   3.513   2.023   2.724
 6416SOL     OW20146   1.140   0.689   6.162
 6416SOL    HW120147   1.195   0.703   6.243
 6416SOL    HW220148   1.194   0.710   6.080
 6417SOL     OW20149   0.919   5.182   3.273
 6417SOL    HW120150   0.886   5.111   3.334
 6417SOL    HW220151   0.845   5.247   3.255
 6418SOL     OW20152   6.572   4.976   2.420
 6418SOL    HW120153   6.534   4.992   2.329
 6418SOL    HW220154   6.662   5.020   2.428
 6419SOL     OW20155   3.222   5.107   2.091
 6419SOL    HW120156   3.241   5.083   1.996
 6419SOL    HW220157   3.288   5.061   2.150
 6420SOL     OW20158   3.266   3.575   6.597
 6420SOL    HW120159   3.174   3.536   6.600
 6420SOL    HW220160   3.260   3.672   6.573
 6421SOL     OW20161   6.208   1.674   1.419
 6421SOL    HW120162   6.219   1.652   1.322
 6421SOL    HW220163   6.230   1.770   1.433
 6422SOL     OW20164   6.653   0.093   3.878
 6422SOL    HW120165   6.557   0.087   3.908
 6422SOL    HW220166   6.661   0.162   3.806
 6423SOL     OW20167   4.745   4.326   1.887
 6423SOL    HW120168   4.767   4.249   1.827
 6423SOL    HW220169   4.654   4.313   1.926
 6424SOL     OW20170   6.577   4.686   5.888
 6424SOL    HW120171   6.570   4.784   5.872
 6424SOL    HW220172   6.656   4.667   5.946
 6425SOL     OW20173   6.764   5.078   4.339
 6425SOL    HW120174   6.860   5.063   4.317
 6425SOL    HW220175   6.729   5.002   4.393
 6426SOL     OW20176   0.343   3.441   3.727
 6426SOL    HW120177   0.296   3.514   3.777
 6426SOL    HW220178   0.338   3.357   3.780
 6427SOL     OW20179   1.734   3.229   6.592
 6427SOL    HW120180   1.830   3.201   6.592
 6427SOL    HW220181   1.721   3.304   6.657
 6428SOL     OW20182   6.673   3.455   1.018
 6428SOL    HW120183   6.716   3.469   0.928
 6428SOL    HW220184   6.635   3.363   1.022
 6429SOL     OW20185   0.889   1.018   4.764
 6429SOL    HW120186   0.907   0.972   4.677
 6429SOL    HW220187   0.940   0.972   4.836
 6430SOL     OW20188   4.588   0.972   1.668
 6430SOL    HW120189   4.515   0.956   1.734
 6430SOL    HW220190   4.675   0.941   1.706
 6431SOL     OW20191   5.833   6.984   3.459
 6431SOL    HW120192   5.890   6.973   3.541
 6431SOL    HW220193   5.737   6.978   3.485
 6432SOL     OW20194   4.539   4.353   0.343
 6432SOL    HW120195   4.501   4.385   0.256
 6432SOL    HW220196   4.609   4.417   0.375
 6433SOL     OW20197   2.932   4.570   1.262
 6433SOL    HW120198   3.017   4.522   1.283
 6433SOL    HW220199   2.879   4.516   1.196
 6434SOL     OW20200   1.210   3.647   1.399
 6434SOL    HW120201   1.264   3.564   1.414
 6434SOL    HW220202   1.228   3.712   1.473
 6435SOL     OW20203   3.780   5.041   6.739
 6435SOL    HW120204   3.694   5.003   6.773
 6435SOL    HW220205   3.849   5.039   6.812
 6436SOL     OW20206   2.186   3.216   4.033
 6436SOL    HW120207   2.198   3.311   4.060
 6436SOL    HW220208   2.125   3.170   4.097
 6437SOL     OW20209   1.698   1.533   0.389
 6437SOL    HW120210   1.638   1.568   0.461
 6437SOL    HW220211   1.675   1.437   0.370
 6438SOL     OW20212   0.081   4.345   5.268
 6438SOL    HW120213   0.024   4.340   5.186
 6438SOL    HW220214   0.159   4.283   5.260
 6439SOL     OW20215   0.734   6.453   0.674
 6439SOL    HW120216   0.833   6.442   0.682
 6439SOL    HW220217   0.713   6.506   0.592
 6440SOL     OW20218   2.324   1.510   1.940
 6440SOL    HW120219   2.361   1.602   1.927
 6440SOL    HW220220   2.375   1.445   1.884
 6441SOL     OW20221   1.051   0.121   2.437
 6441SOL    HW120222   0.995   0.194   2.476
 6441SOL    HW220223   0.994   0.062   2.380
 6442SOL     OW20224   1.737   1.513   3.436
 6442SOL    HW120225   1.665   1.460   3.390
 6442SOL    HW220226   1.717   1.519   3.534
 6443SOL     OW20227   3.097   3.058   0.743
 6443SOL    HW120228   3.095   3.072   0.842
 6443SOL    HW220229   3.038   2.980   0.720
 6444SOL     OW20230   0.453   2.552   3.545
 6444SOL    HW120231   0.543   2.511   3.561
 6444SOL    HW220232   0.417   2.519   3.457
 6445SOL     OW20233   4.481   2.609   5.494
 6445SOL    HW120234   4.407   2.631   5.431
 6445SOL    HW220235   4.487   2.680   5.564
 6446SOL     OW20236   7.007   1.712   6.008
 6446SOL    HW120237   0.073   1.693   5.971
 6446SOL    HW220238   6.955   1.628   6.016
 6447SOL     OW20239   0.327   6.327   2.549
 6447SOL    HW120240   0.341   6.422   2.579
 6447SOL    HW220241   0.415   6.287   2.524
 6448SOL     OW20242   6.331   3.996   2.679
 6448SOL    HW120243   6.403   3.982   2.612
 6448SOL    HW220244   6.261   4.057   2.641
 6449SOL     OW20245   4.095   4.206   1.541
 6449SOL    HW120246   4.131   4.191   1.449
 6449SOL    HW220247   4.159   4.169   1.609
 6450SOL     OW20248   6.914   3.207   1.639
 6450SOL    HW120249   6.939   3.217   1.542
 6450SOL    HW220250   6.858   3.286   1.667
 6451SOL     OW20251   3.050   6.523   5.556
 6451SOL    HW120252   2.969   6.468   5.534
 6451SOL    HW220253   3.022   6.602   5.611
 6452SOL     OW20254   3.803   6.544   4.997
 6452SOL    HW120255   3.808   6.554   5.097
 6452SOL    HW220256   3.714   6.508   4.971
 6453SOL     OW20257   2.064   6.718   6.529
 6453SOL    HW120258   2.068   6.679   6.621
 6453SOL    HW220259   1.968   6.727   6.501
 6454SOL     OW20260   3.242   1.442   3.784
 6454SOL    HW120261   3.173   1.514   3.774
 6454SOL    HW220262   3.265   1.432   3.881
 6455SOL     OW20263   0.976   2.557   4.231
 6455SOL    HW120264   0.891   2.513   4.260
 6455SOL    HW220265   0.995   2.635   4.291
 6456SOL     OW20266   1.539   0.436   3.695
 6456SOL    HW120267   1.442   0.458   3.696
 6456SOL    HW220268   1.552   0.342   3.664
 6457SOL     OW20269   5.603   1.486   1.043
 6457SOL    HW120270   5.540   1.416   1.009
 6457SOL    HW220271   5.633   1.543   0.967
 6458SOL     OW20272   0.980   6.074   2.676
 6458SOL    HW120273   0.949   5.989   2.718
 6458SOL    HW220274   1.010   6.138   2.748
 6459SOL     OW20275   5.469   5.687   0.885
 6459SOL    HW120276   5.540   5.711   0.951
 6459SOL    HW220277   5.412   5.767   0.867
 6460SOL     OW20278   4.291   5.055   5.987
 6460SOL    HW120279   4.199   5.091   5.970
 6460SOL    HW220280   4.342   5.120   6.044
 6461SOL     OW20281   3.226   5.551   4.916
 6461SOL    HW120282   3.248   5.480   4.983
 6461SOL    HW220283   3.162   5.515   4.849
 6462SOL     OW20284   2.147   2.905   5.152
 6462SOL    HW120285   2.224   2.940   5.097
 6462SOL    HW220286   2.178   2.886   5.245
 6463SOL     OW20287   2.047   4.399   6.362
 6463SOL    HW120288   2.076   4.458   6.438
 6463SOL    HW220289   2.097   4.425   6.279
 6464SOL     OW20290   1.098   4.599   4.232
 6464SOL    HW120291   1.175   4.537   4.246
 6464SOL    HW220292   1.111   4.682   4.287
 6465SOL     OW20293   5.699   2.747   3.899
 6465SOL    HW120294   5.749   2.757   3.813
 6465SOL    HW220295   5.665   2.653   3.907
 6466SOL     OW20296   0.261   2.559   5.284
 6466SOL    HW120297   0.222   2.622   5.217
 6466SOL    HW220298   0.208   2.474   5.286
 6467SOL     OW20299   2.381   1.065   6.878
 6467SOL    HW120300   2.370   1.155   6.836
 6467SOL    HW220301   2.302   1.045   6.935
 6468SOL     OW20302   4.107   5.856   1.341
 6468SOL    HW120303   4.037   5.844   1.411
 6468SOL    HW220304   4.195   5.825   1.377
 6469SOL     OW20305   5.195   0.698   5.519
 6469SOL    HW120306   5.115   0.668   5.572
 6469SOL    HW220307   5.276   0.648   5.550
 6470SOL     OW20308   6.544   5.324   6.486
 6470SOL    HW120309   6.470   5.390   6.502
 6470SOL    HW220310   6.611   5.364   6.424
 6471SOL     OW20311   6.246   5.394   5.761
 6471SOL    HW120312   6.214   5.486   5.739
 6471SOL    HW220313   6.280   5.349   5.679
 6472SOL     OW20314   0.553   5.277   0.914
 6472SOL    HW120315   0.579   5.373   0.919
 6472SOL    HW220316   0.542   5.241   1.006
 6473SOL     OW20317   1.955   1.739   5.731
 6473SOL    HW120318   1.905   1.795   5.664
 6473SOL    HW220319   2.010   1.799   5.790
 6474SOL     OW20320   1.664   4.116   5.735
 6474SOL    HW120321   1.575   4.160   5.748
 6474SOL    HW220322   1.672   4.084   5.640
 6475SOL     OW20323   5.978   5.986   4.249
 6475SOL    HW120324   6.006   5.891   4.255
 6475SOL    HW220325   6.056   6.045   4.269
 6476SOL     OW20326   5.151   3.606   2.227
 6476SOL    HW120327   5.216   3.538   2.261
 6476SOL    HW220328   5.061   3.587   2.265
 6477SOL     OW20329   0.091   4.947   1.173
 6477SOL    HW120330   0.079   4.940   1.074
 6477SOL    HW220331   0.009   4.987   1.213
 6478SOL     OW20332   2.889   5.936   2.511
 6478SOL    HW120333   2.863   5.938   2.414
 6478SOL    HW220334   2.931   5.848   2.532
 6479SOL     OW20335   4.233   5.256   2.503
 6479SOL    HW120336   4.309   5.277   2.441
 6479SOL    HW220337   4.268   5.250   2.597
 6480SOL     OW20338   4.067   2.996   5.713
 6480SOL    HW120339   4.022   2.974   5.799
 6480SOL    HW220340   4.004   3.047   5.654
 6481SOL     OW20341   3.375   2.162   1.721
 6481SOL    HW120342   3.471   2.137   1.734
 6481SOL    HW220343   3.317   2.085   1.745
 6482SOL     OW20344   6.801   0.708   6.303
 6482SOL    HW120345   6.783   0.662   6.390
 6482SOL    HW220346   6.899   0.705   6.283
 6483SOL     OW20347   2.526   6.192   2.038
 6483SOL    HW120348   2.509   6.120   1.969
 6483SOL    HW220349   2.438   6.230   2.067
 6484SOL     OW20350   3.647   0.238   2.556
 6484SOL    HW120351   3.635   0.338   2.560
 6484SOL    HW220352   3.557   0.194   2.553
 6485SOL     OW20353   1.413   3.457   3.475
 6485SOL    HW120354   1.317   3.431   3.464
 6485SOL    HW220355   1.447   3.425   3.563
 6486SOL     OW20356   1.176   4.766   3.742
 6486SOL    HW120357   1.113   4.816   3.682
 6486SOL    HW220358   1.190   4.674   3.706
 6487SOL     OW20359   6.152   5.805   5.052
 6487SOL    HW120360   6.208   5.885   5.031
 6487SOL    HW220361   6.098   5.780   4.971
 6488SOL     OW20362   3.082   6.097   5.172
 6488SOL    HW120363   3.062   6.010   5.127
 6488SOL    HW220364   3.036   6.100   5.261
 6489SOL     OW20365   2.008   3.129   6.623
 6489SOL    HW120366   2.004   3.212   6.679
 6489SOL    HW220367   2.092   3.078   6.644
 6490SOL     OW20368   3.997   2.361   6.921
 6490SOL    HW120369   4.040   2.450   6.910
 6490SOL    HW220370   4.052   2.305   6.983
 6491SOL     OW20371   4.084   1.085   6.703
 6491SOL    HW120372   3.999   1.034   6.718
 6491SOL    HW220373   4.138   1.039   6.633
 6492SOL     OW20374   6.059   6.242   6.735
 6492SOL    HW120375   6.026   6.337   6.742
 6492SOL    HW220376   6.121   6.223   6.811
 6493SOL     OW20377   1.111   6.407   5.038
 6493SOL    HW120378   1.179   6.433   5.105
 6493SOL    HW220379   1.038   6.475   5.035
 6494SOL     OW20380   0.434   0.619   3.108
 6494SOL    HW120381   0.479   0.677   3.040
 6494SOL    HW220382   0.359   0.569   3.065
 6495SOL     OW20383   5.101   6.128   3.903
 6495SOL    HW120384   5.106   6.064   3.827
 6495SOL    HW220385   5.173   6.197   3.893
 6496SOL     OW20386   6.971   6.356   2.104
 6496SOL    HW120387   6.989   6.353   2.202
 6496SOL    HW220388   0.029   6.327   2.055
 6497SOL     OW20389   2.455   2.797   0.510
 6497SOL    HW120390   2.453   2.864   0.436
 6497SOL    HW220391   2.549   2.765   0.523
 6498SOL     OW20392   2.431   4.914   3.896
 6498SOL    HW120393   2.474   4.840   3.846
 6498SOL    HW220394   2.475   4.924   3.986
 6499SOL     OW20395   5.280   0.991   5.102
 6499SOL    HW120396   5.275   0.912   5.162
 6499SOL    HW220397   5.373   1.001   5.066
 6500SOL     OW20398   6.736   4.375   3.470
 6500SOL    HW120399   6.791   4.306   3.424
 6500SOL    HW220400   6.743   4.364   3.569
 6501SOL     OW20401   6.597   2.864   0.917
 6501SOL    HW120402   6.663   2.863   0.991
 6501SOL    HW220403   6.629   2.926   0.845
 6502SOL     OW20404   0.204   4.109   3.445
 6502SOL    HW120405   0.257   4.189   3.417
 6502SOL    HW220406   0.230   4.084   3.538
 6503SOL     OW20407   6.063   6.942   3.634
 6503SOL    HW120408   6.107   6.865   3.588
 6503SOL    HW220409   6.058   6.924   3.733
 6504SOL     OW20410   4.258   6.736   6.583
 6504SOL    HW120411   4.268   6.663   6.515
 6504SOL    HW220412   4.269   6.825   6.539
 6505SOL     OW20413   6.407   4.491   1.013
 6505SOL    HW120414   6.480   4.448   0.959
 6505SOL    HW220415   6.446   4.565   1.068
 6506SOL     OW20416   0.660   3.049   0.969
 6506SOL    HW120417   0.636   2.952   0.978
 6506SOL    HW220418   0.672   3.070   0.872
 6507SOL     OW20419   1.576   6.021   6.844
 6507SOL    HW120420   1.633   5.941   6.864
 6507SOL    HW220421   1.482   6.002   6.872
 6508SOL     OW20422   2.078   1.793   3.581
 6508SOL    HW120423   2.137   1.836   3.649
 6508SOL    HW220424   2.083   1.845   3.495
 6509SOL     OW20425   1.858   2.231   4.611
 6509SOL    HW120426   1.837   2.170   4.535
 6509SOL    HW220427   1.942   2.282   4.591
 6510SOL     OW20428   0.439   5.574   6.720
 6510SOL    HW120429   0.346   5.556   6.688
 6510SOL    HW220430   0.450   5.538   6.813
 6511SOL     OW20431   5.997   0.213   4.335
 6511SOL    HW120432   5.902   0.210   4.304
 6511SOL    HW220433   6.057   0.231   4.257
 6512SOL     OW20434   4.553   0.128   2.916
 6512SOL    HW120435   4.628   0.066   2.893
 6512SOL    HW220436   4.587   0.203   2.973
 6513SOL     OW20437   3.407   6.645   4.148
 6513SOL    HW120438   3.343   6.701   4.096
 6513SOL    HW220439   3.464   6.591   4.085
 6514SOL     OW20440   5.557   0.021   3.502
 6514SOL    HW120441   5.507   0.107   3.497
 6514SOL    HW220442   5.515   6.988   3.572
 6515SOL     OW20443   0.382   5.078   4.190
 6515SOL    HW120444   0.339   4.994   4.157
 6515SOL    HW220445   0.470   5.056   4.232
 6516SOL     OW20446   0.333   1.936   6.811
 6516SOL    HW120447   0.324   1.895   6.902
 6516SOL    HW220448   0.297   1.873   6.743
 6517SOL     OW20449   6.642   1.666   0.601
 6517SOL    HW120450   6.654   1.567   0.597
 6517SOL    HW220451   6.671   1.706   0.514
 6518SOL     OW20452   0.723   6.356   0.188
 6518SOL    HW120453   0.791   6.288   0.216
 6518SOL    HW220454   0.769   6.438   0.155
 6519SOL     OW20455   2.365   1.913   3.601
 6519SOL    HW120456   2.408   1.876   3.519
 6519SOL    HW220457   2.282   1.962   3.575
 6520SOL     OW20458   6.137   5.559   3.397
 6520SOL    HW120459   6.208   5.495   3.425
 6520SOL    HW220460   6.160   5.597   3.307
 6521SOL     OW20461   0.701   1.159   4.506
 6521SOL    HW120462   0.754   1.240   4.530
 6521SOL    HW220463   0.762   1.090   4.466
 6522SOL     OW20464   3.091   5.160   6.737
 6522SOL    HW120465   3.189   5.175   6.750
 6522SOL    HW220466   3.064   5.192   6.646
 6523SOL     OW20467   2.951   1.872   6.730
 6523SOL    HW120468   2.955   1.971   6.719
 6523SOL    HW220469   3.027   1.830   6.681
 6524SOL     OW20470   3.444   2.928   3.550
 6524SOL    HW120471   3.369   2.897   3.609
 6524SOL    HW220472   3.531   2.917   3.598
 6525SOL     OW20473   1.840   2.829   2.925
 6525SOL    HW120474   1.785   2.891   2.981
 6525SOL    HW220475   1.780   2.782   2.859
 6526SOL     OW20476   0.722   6.562   5.028
 6526SOL    HW120477   0.665   6.625   4.976
 6526SOL    HW220478   0.804   6.610   5.059
 6527SOL     OW20479   0.713   1.393   4.963
 6527SOL    HW120480   0.767   1.333   5.022
 6527SOL    HW220481   0.637   1.341   4.923
 6528SOL     OW20482   0.174   0.808   3.958
 6528SOL    HW120483   0.146   0.767   3.871
 6528SOL    HW220484   0.202   0.903   3.942
 6529SOL     OW20485   5.969   2.039   3.476
 6529SOL    HW120486   5.879   2.082   3.473
 6529SOL    HW220487   5.982   1.981   3.395
 6530SOL     OW20488   6.650   3.039   0.690
 6530SOL    HW120489   6.700   3.112   0.643
 6530SOL    HW220490   6.562   3.025   0.644
 6531SOL     OW20491   5.489   3.078   4.243
 6531SOL    HW120492   5.553   3.081   4.321
 6531SOL    HW220493   5.396   3.064   4.277
 6532SOL     OW20494   5.951   1.635   0.858
 6532SOL    HW120495   5.854   1.646   0.836
 6532SOL    HW220496   5.961   1.569   0.933
 6533SOL     OW20497   5.706   6.267   1.470
 6533SOL    HW120498   5.638   6.236   1.537
 6533SOL    HW220499   5.747   6.352   1.500
 6534SOL     OW20500   2.569   3.803   1.253
 6534SOL    HW120501   2.650   3.744   1.249
 6534SOL    HW220502   2.596   3.898   1.237
 6535SOL     OW20503   0.521   2.801   4.670
 6535SOL    HW120504   0.585   2.878   4.661
 6535SOL    HW220505   0.464   2.816   4.751
 6536SOL     OW20506   6.509   3.041   6.192
 6536SOL    HW120507   6.578   3.012   6.126
 6536SOL    HW220508   6.550   3.103   6.258
 6537SOL     OW20509   6.644   6.244   6.939
 6537SOL    HW120510   6.635   6.344   6.933
 6537SOL    HW220511   6.605   6.212   0.001
 6538SOL     OW20512   3.882   4.354   0.507
 6538SOL    HW120513   3.818   4.395   0.442
 6538SOL    HW220514   3.955   4.307   0.457
 6539SOL     OW20515   2.405   2.185   6.299
 6539SOL    HW120516   2.330   2.138   6.252
 6539SOL    HW220517   2.451   2.122   6.361
 6540SOL     OW20518   3.805   1.736   4.515
 6540SOL    HW120519   3.812   1.811   4.449
 6540SOL    HW220520   3.774   1.772   4.603
 6541SOL     OW20521   3.045   2.160   4.717
 6541SOL    HW120522   2.963   2.187   4.666
 6541SOL    HW220523   3.074   2.235   4.775
 6542SOL     OW20524   6.438   4.648   2.871
 6542SOL    HW120525   6.520   4.608   2.910
 6542SOL    HW220526   6.364   4.581   2.873
 6543SOL     OW20527   6.519   5.386   0.169
 6543SOL    HW120528   6.486   5.445   0.242
 6543SOL    HW220529   6.578   5.315   0.207
 6544SOL     OW20530   0.429   6.034   3.857
 6544SOL    HW120531   0.405   6.089   3.778
 6544SOL    HW220532   0.528   6.034   3.869
 6545SOL     OW20533   4.881   1.856   5.703
 6545SOL    HW120534   4.927   1.791   5.642
 6545SOL    HW220535   4.909   1.838   5.798
 6546SOL     OW20536   4.725   4.200   6.379
 6546SOL    HW120537   4.751   4.296   6.364
 6546SOL    HW220538   4.672   4.167   6.301
 6547SOL     OW20539   4.032   1.529   5.636
 6547SOL    HW120540   3.952   1.476   5.609
 6547SOL    HW220541   4.111   1.467   5.645
 6548SOL     OW20542   1.032   4.495   6.632
 6548SOL    HW120543   1.064   4.488   6.538
 6548SOL    HW220544   1.049   4.408   6.679
 6549SOL     OW20545   3.249   1.102   0.979
 6549SOL    HW120546   3.250   1.080   1.076
 6549SOL    HW220547   3.253   1.017   0.926
 6550SOL     OW20548   0.250   6.099   3.475
 6550SOL    HW120549   0.154   6.084   3.500
 6550SOL    HW220550   0.284   6.180   3.524
 6551SOL     OW20551   1.767   4.052   2.148
 6551SOL    HW120552   1.814   4.130   2.189
 6551SOL    HW220553   1.754   3.981   2.218
 6552SOL     OW20554   2.345   5.822   4.950
 6552SOL    HW120555   2.356   5.737   4.898
 6552SOL    HW220556   2.435   5.852   4.984
 6553SOL     OW20557   0.083   2.832   1.417
 6553SOL    HW120558   0.037   2.871   1.496
 6553SOL    HW220559   0.102   2.735   1.435
 6554SOL     OW20560   5.788   1.431   5.854
 6554SOL    HW120561   5.836   1.371   5.918
 6554SOL    HW220562   5.769   1.519   5.900
 6555SOL     OW20563   2.297   0.902   2.113
 6555SOL    HW120564   2.282   0.939   2.205
 6555SOL    HW220565   2.211   0.864   2.079
 6556SOL     OW20566   4.682   4.614   4.917
 6556SOL    HW120567   4.771   4.603   4.873
 6556SOL    HW220568   4.657   4.710   4.917
 6557SOL     OW20569   5.733   5.931   1.136
 6557SOL    HW120570   5.810   5.883   1.094
 6557SOL    HW220571   5.688   5.988   1.067
 6558SOL     OW20572   6.606   5.549   1.003
 6558SOL    HW120573   6.685   5.571   1.060
 6558SOL    HW220574   6.581   5.629   0.949
 6559SOL     OW20575   5.916   3.711   1.106
 6559SOL    HW120576   5.973   3.632   1.080
 6559SOL    HW220577   5.946   3.745   1.195
 6560SOL     OW20578   3.880   2.740   1.709
 6560SOL    HW120579   3.959   2.681   1.691
 6560SOL    HW220580   3.815   2.733   1.633
 6561SOL     OW20581   3.893   3.973   2.745
 6561SOL    HW120582   3.939   3.974   2.834
 6561SOL    HW220583   3.956   3.938   2.676
 6562SOL     OW20584   6.164   4.706   6.544
 6562SOL    HW120585   6.110   4.681   6.464
 6562SOL    HW220586   6.236   4.638   6.558
 6563SOL     OW20587   0.913   5.667   0.010
 6563SOL    HW120588   0.872   5.715   6.957
 6563SOL    HW220589   0.863   5.582   0.027
 6564SOL     OW20590   1.362   3.182   2.171
 6564SOL    HW120591   1.388   3.243   2.246
 6564SOL    HW220592   1.443   3.158   2.118
 6565SOL     OW20593   6.388   2.199   5.131
 6565SOL    HW120594   6.445   2.231   5.055
 6565SOL    HW220595   6.411   2.249   5.214
 6566SOL     OW20596   3.308   0.063   1.722
 6566SOL    HW120597   3.312   7.012   1.787
 6566SOL    HW220598   3.265   0.032   1.637
 6567SOL     OW20599   4.424   2.734   1.304
 6567SOL    HW120600   4.444   2.809   1.367
 6567SOL    HW220601   4.502   2.719   1.243
 6568SOL     OW20602   4.917   5.205   2.256
 6568SOL    HW120603   5.007   5.188   2.215
 6568SOL    HW220604   4.846   5.183   2.189
 6569SOL     OW20605   2.917   4.747   0.872
 6569SOL    HW120606   2.884   4.695   0.951
 6569SOL    HW220607   2.839   4.789   0.826
 6570SOL     OW20608   4.774   6.976   1.424
 6570SOL    HW120609   4.706   7.014   1.486
 6570SOL    HW220610   4.846   6.930   1.476
 6571SOL     OW20611   1.778   6.047   3.123
 6571SOL    HW120612   1.754   6.141   3.101
 6571SOL    HW220613   1.826   6.044   3.210
 6572SOL     OW20614   6.443   4.428   5.040
 6572SOL    HW120615   6.370   4.434   5.108
 6572SOL    HW220616   6.508   4.503   5.053
 6573SOL     OW20617   3.353   0.656   2.935
 6573SOL    HW120618   3.262   0.613   2.931
 6573SOL    HW220619   3.414   0.599   2.991
 6574SOL     OW20620   2.290   6.299   2.138
 6574SOL    HW120621   2.219   6.275   2.071
 6574SOL    HW220622   2.284   6.397   2.158
 6575SOL     OW20623   0.785   1.402   1.613
 6575SOL    HW120624   0.828   1.382   1.700
 6575SOL    HW220625   0.811   1.332   1.546
 6576SOL     OW20626   1.202   6.179   6.183
 6576SOL    HW120627   1.255   6.096   6.200
 6576SOL    HW220628   1.185   6.226   6.269
 6577SOL     OW20629   0.310   1.492   3.662
 6577SOL    HW120630   0.225   1.543   3.661
 6577SOL    HW220631   0.291   1.396   3.681
 6578SOL     OW20632   6.743   5.623   3.345
 6578SOL    HW120633   6.804   5.695   3.377
 6578SOL    HW220634   6.702   5.577   3.424
 6579SOL     OW20635   0.021   4.021   4.515
 6579SOL    HW120636   0.079   4.049   4.592
 6579SOL    HW220637   0.075   3.970   4.448
 6580SOL     OW20638   6.316   1.152   0.883
 6580SOL    HW120639   6.285   1.190   0.796
 6580SOL    HW220640   6.317   1.223   0.953
 6581SOL     OW20641   3.738   1.093   5.340
 6581SOL    HW120642   3.783   1.003   5.337
 6581SOL    HW220643   3.702   1.116   5.250
 6582SOL     OW20644   1.428   6.825   2.274
 6582SOL    HW120645   1.511   6.789   2.317
 6582SOL    HW220646   1.396   6.905   2.324
 6583SOL     OW20647   4.687   1.497   5.813
 6583SOL    HW120648   4.765   1.493   5.751
 6583SOL    HW220649   4.664   1.592   5.831
 6584SOL     OW20650   5.430   2.015   6.474
 6584SOL    HW120651   5.367   2.093   6.470
 6584SOL    HW220652   5.424   1.963   6.389
 6585SOL     OW20653   0.151   1.261   0.187
 6585SOL    HW120654   0.078   1.282   0.122
 6585SOL    HW220655   0.177   1.344   0.237
 6586SOL     OW20656   6.520   2.296   6.089
 6586SOL    HW120657   6.425   2.307   6.059
 6586SOL    HW220658   6.574   2.255   6.016
 6587SOL     OW20659   3.193   5.764   4.580
 6587SOL    HW120660   3.145   5.789   4.496
 6587SOL    HW220661   3.131   5.770   4.658
 6588SOL     OW20662   2.007   4.185   1.455
 6588SOL    HW120663   2.052   4.096   1.461
 6588SOL    HW220664   1.913   4.177   1.490
 6589SOL     OW20665   5.101   0.760   0.022
 6589SOL    HW120666   5.085   0.761   0.121
 6589SOL    HW220667   5.035   0.820   7.002
 6590SOL     OW20668   0.407   1.929   5.063
 6590SOL    HW120669   0.374   1.959   5.153
 6590SOL    HW220670   0.356   1.848   5.035
 6591SOL     OW20671   5.895   6.644   2.660
 6591SOL    HW120672   5.973   6.618   2.717
 6591SOL    HW220673   5.819   6.672   2.719
 6592SOL     OW20674   4.427   6.883   4.131
 6592SOL    HW120675   4.438   6.971   4.177
 6592SOL    HW220676   4.488   6.815   4.173
 6593SOL     OW20677   2.205   2.419   3.453
 6593SOL    HW120678   2.243   2.337   3.410
 6593SOL    HW220679   2.224   2.417   3.551
 6594SOL     OW20680   4.564   1.174   0.265
 6594SOL    HW120681   4.566   1.164   0.365
 6594SOL    HW220682   4.556   1.271   0.242
 6595SOL     OW20683   0.721   4.225   1.827
 6595SOL    HW120684   0.778   4.148   1.801
 6595SOL    HW220685   0.640   4.228   1.768
 6596SOL     OW20686   3.688   0.612   5.764
 6596SOL    HW120687   3.773   0.663   5.776
 6596SOL    HW220688   3.684   0.538   5.831
 6597SOL     OW20689   0.687   6.613   3.850
 6597SOL    HW120690   0.725   6.668   3.924
 6597SOL    HW220691   0.606   6.564   3.883
 6598SOL     OW20692   1.703   5.825   5.326
 6598SOL    HW120693   1.720   5.822   5.227
 6598SOL    HW220694   1.768   5.887   5.369
 6599SOL     OW20695   3.977   5.349   5.743
 6599SOL    HW120696   4.072   5.353   5.715
 6599SOL    HW220697   3.931   5.435   5.720
 6600SOL     OW20698   5.184   5.028   5.005
 6600SOL    HW120699   5.246   4.953   5.028
 6600SOL    HW220700   5.215   5.072   4.921
 6601SOL     OW20701   0.657   0.595   0.419
 6601SOL    HW120702   0.723   0.537   0.371
 6601SOL    HW220703   0.585   0.622   0.355
 6602SOL     OW20704   0.064   2.258   1.187
 6602SOL    HW120705   0.118   2.324   1.239
 6602SOL    HW220706   0.096   2.256   1.092
 6603SOL     OW20707   1.303   3.126   4.419
 6603SOL    HW120708   1.233   3.072   4.373
 6603SOL    HW220709   1.314   3.214   4.373
 6604SOL     OW20710   2.673   6.043   1.664
 6604SOL    HW120711   2.769   6.024   1.648
 6604SOL    HW220712   2.618   5.998   1.594
 6605SOL     OW20713   4.374   4.541   0.868
 6605SOL    HW120714   4.460   4.584   0.896
 6605SOL    HW220715   4.369   4.449   0.907
 6606SOL     OW20716   4.512   0.087   2.514
 6606SOL    HW120717   4.611   0.078   2.517
 6606SOL    HW220718   4.471   7.023   2.495
 6607SOL     OW20719   1.772   1.262   1.807
 6607SOL    HW120720   1.830   1.341   1.787
 6607SOL    HW220721   1.821   1.199   1.867
 6608SOL     OW20722   5.219   3.835   2.435
 6608SOL    HW120723   5.296   3.891   2.466
 6608SOL    HW220724   5.229   3.817   2.337
 6609SOL     OW20725   5.130   0.911   6.699
 6609SOL    HW120726   5.034   0.898   6.675
 6609SOL    HW220727   5.139   0.924   6.797
 6610SOL     OW20728   2.441   0.445   0.391
 6610SOL    HW120729   2.438   0.393   0.306
 6610SOL    HW220730   2.515   0.512   0.386
 6611SOL     OW20731   6.756   2.244   3.143
 6611SOL    HW120732   6.708   2.330   3.126
 6611SOL    HW220733   6.823   2.228   3.070
 6612SOL     OW20734   1.369   4.131   6.917
 6612SOL    HW120735   1.277   4.169   6.910
 6612SOL    HW220736   1.388   4.074   6.837
 6613SOL     OW20737   5.751   6.196   3.430
 6613SOL    HW120738   5.654   6.172   3.439
 6613SOL    HW220739   5.807   6.114   3.446
 6614SOL     OW20740   4.950   6.584   6.558
 6614SOL    HW120741   4.899   6.661   6.519
 6614SOL    HW220742   4.992   6.612   6.644
 6615SOL     OW20743   0.856   4.079   4.461
 6615SOL    HW120744   0.807   4.045   4.541
 6615SOL    HW220745   0.947   4.111   4.489
 6616SOL     OW20746   3.743   1.586   5.927
 6616SOL    HW120747   3.842   1.596   5.913
 6616SOL    HW220748   3.714   1.496   5.895
 6617SOL     OW20749   3.729   6.784   3.437
 6617SOL    HW120750   3.812   6.737   3.466
 6617SOL    HW220751   3.703   6.755   3.345
 6618SOL     OW20752   1.462   2.899   2.097
 6618SOL    HW120753   1.484   2.818   2.043
 6618SOL    HW220754   1.446   2.977   2.036
 6619SOL     OW20755   5.000   6.949   4.292
 6619SOL    HW120756   4.997   6.902   4.381
 6619SOL    HW220757   5.036   6.887   4.223
 6620SOL     OW20758   1.748   3.155   5.971
 6620SOL    HW120759   1.832   3.116   6.010
 6620SOL    HW220760   1.720   3.100   5.892
 6621SOL     OW20761   3.193   4.063   0.678
 6621SOL    HW120762   3.216   3.967   0.665
 6621SOL    HW220763   3.095   4.076   0.664
 6622SOL     OW20764   6.131   5.847   1.205
 6622SOL    HW120765   6.210   5.788   1.223
 6622SOL    HW220766   6.047   5.793   1.215
 6623SOL     OW20767   3.608   3.059   2.228
 6623SOL    HW120768   3.535   3.002   2.190
 6623SOL    HW220769   3.568   3.135   2.279
 6624SOL     OW20770   2.749   6.245   4.581
 6624SOL    HW120771   2.827   6.300   4.614
 6624SOL    HW220772   2.674   6.252   4.647
 6625SOL     OW20773   5.900   1.632   6.304
 6625SOL    HW120774   5.936   1.707   6.361
 6625SOL    HW220775   5.947   1.631   6.216
 6626SOL     OW20776   3.247   5.035   3.169
 6626SOL    HW120777   3.240   5.069   3.263
 6626SOL    HW220778   3.343   5.019   3.146
 6627SOL     OW20779   2.365   1.006   5.859
 6627SOL    HW120780   2.363   1.067   5.780
 6627SOL    HW220781   2.277   0.961   5.869
 6628SOL     OW20782   4.960   5.306   2.626
 6628SOL    HW120783   5.018   5.231   2.593
 6628SOL    HW220784   4.889   5.269   2.686
 6629SOL     OW20785   3.488   6.139   1.141
 6629SOL    HW120786   3.550   6.076   1.094
 6629SOL    HW220787   3.397   6.099   1.145
 6630SOL     OW20788   3.616   1.786   0.518
 6630SOL    HW120789   3.622   1.763   0.615
 6630SOL    HW220790   3.668   1.719   0.465
 6631SOL     OW20791   4.420   6.854   2.419
 6631SOL    HW120792   4.511   6.843   2.460
 6631SOL    HW220793   4.402   6.778   2.357
 6632SOL     OW20794   6.937   1.385   1.302
 6632SOL    HW120795   6.879   1.320   1.251
 6632SOL    HW220796   6.965   1.459   1.241
 6633SOL     OW20797   1.385   5.482   6.118
 6633SOL    HW120798   1.319   5.479   6.193
 6633SOL    HW220799   1.408   5.389   6.090
 6634SOL     OW20800   6.365   3.494   6.104
 6634SOL    HW120801   6.366   3.446   6.192
 6634SOL    HW220802   6.313   3.441   6.038
 6635SOL     OW20803   4.438   5.125   3.389
 6635SOL    HW120804   4.429   5.142   3.291
 6635SOL    HW220805   4.490   5.199   3.431
 6636SOL     OW20806   1.743   3.220   5.088
 6636SOL    HW120807   1.666   3.207   5.026
 6636SOL    HW220808   1.815   3.154   5.066
 6637SOL     OW20809   0.991   0.002   6.879
 6637SOL    HW120810   0.945   0.015   6.791
 6637SOL    HW220811   0.992   6.930   6.903
 6638SOL     OW20812   3.622   5.041   4.905
 6638SOL    HW120813   3.602   5.002   4.995
 6638SOL    HW220814   3.719   5.031   4.886
 6639SOL     OW20815   5.837   5.789   6.074
 6639SOL    HW120816   5.929   5.767   6.044
 6639SOL    HW220817   5.817   5.885   6.056
 6640SOL     OW20818   0.086   1.847   4.645
 6640SOL    HW120819   0.007   1.904   4.625
 6640SOL    HW220820   0.166   1.905   4.659
 6641SOL     OW20821   3.092   3.615   6.817
 6641SOL    HW120822   3.148   3.679   6.869
 6641SOL    HW220823   2.996   3.628   6.839
 6642SOL     OW20824   2.843   5.548   6.827
 6642SOL    HW120825   2.823   5.600   6.744
 6642SOL    HW220826   2.857   5.612   6.903
 6643SOL     OW20827   6.483   4.577   6.939
 6643SOL    HW120828   6.442   4.642   6.875
 6643SOL    HW220829   6.444   4.486   6.923
 6644SOL     OW20830   2.982   4.786   2.094
 6644SOL    HW120831   2.959   4.868   2.041
 6644SOL    HW220832   2.906   4.721   2.089
 6645SOL     OW20833   0.064   5.117   0.709
 6645SOL    HW120834   0.145   5.177   0.703
 6645SOL    HW220835   7.011   5.162   0.665
 6646SOL     OW20836   4.779   5.585   4.464
 6646SOL    HW120837   4.774   5.684   4.477
 6646SOL    HW220838   4.818   5.543   4.545
 6647SOL     OW20839   3.122   1.336   2.635
 6647SOL    HW120840   3.139   1.431   2.607
 6647SOL    HW220841   3.025   1.315   2.621
 6648SOL     OW20842   3.402   5.617   2.854
 6648SOL    HW120843   3.394   5.698   2.797
 6648SOL    HW220844   3.436   5.541   2.798
 6649SOL     OW20845   5.808   2.238   6.240
 6649SOL    HW120846   5.790   2.144   6.268
 6649SOL    HW220847   5.898   2.267   6.274
 6650SOL     OW20848   4.160   1.270   3.158
 6650SOL    HW120849   4.073   1.315   3.138
 6650SOL    HW220850   4.178   1.201   3.088
 6651SOL     OW20851   1.531   2.080   0.569
 6651SOL    HW120852   1.563   1.985   0.560
 6651SOL    HW220853   1.578   2.137   0.502
 6652SOL     OW20854   6.447   4.354   0.273
 6652SOL    HW120855   6.489   4.272   0.312
 6652SOL    HW220856   6.513   4.400   0.214
 6653SOL     OW20857   4.091   3.816   3.202
 6653SOL    HW120858   4.074   3.835   3.298
 6653SOL    HW220859   4.189   3.812   3.185
 6654SOL     OW20860   2.227   2.969   1.261
 6654SOL    HW120861   2.258   2.878   1.289
 6654SOL    HW220862   2.196   2.966   1.166
 6655SOL     OW20863   2.548   6.910   1.752
 6655SOL    HW120864   2.457   6.926   1.792
 6655SOL    HW220865   2.603   6.993   1.762
 6656SOL     OW20866   6.713   0.996   2.651
 6656SOL    HW120867   6.680   0.992   2.557
 6656SOL    HW220868   6.774   1.075   2.661
 6657SOL     OW20869   4.533   6.621   6.447
 6657SOL    HW120870   4.548   6.525   6.425
 6657SOL    HW220871   4.603   6.653   6.510
 6658SOL     OW20872   6.066   1.030   5.797
 6658SOL    HW120873   6.117   1.021   5.883
 6658SOL    HW220874   5.987   0.968   5.799
 6659SOL     OW20875   2.351   1.969   6.687
 6659SOL    HW120876   2.414   1.958   6.610
 6659SOL    HW220877   2.379   2.048   6.742
 6660SOL     OW20878   6.927   6.059   1.563
 6660SOL    HW120879   7.017   6.094   1.541
 6660SOL    HW220880   6.875   6.129   1.612
 6661SOL     OW20881   6.881   4.907   3.777
 6661SOL    HW120882   6.942   4.982   3.802
 6661SOL    HW220883   6.790   4.943   3.758
 6662SOL     OW20884   1.147   0.843   0.040
 6662SOL    HW120885   1.063   0.791   0.049
 6662SOL    HW220886   1.180   0.838   6.970
 6663SOL     OW20887   7.017   5.728   3.659
 6663SOL    HW120888   6.947   5.740   3.729
 6663SOL    HW220889   7.010   5.635   3.621
 6664SOL     OW20890   1.375   6.973   1.433
 6664SOL    HW120891   1.434   0.020   1.398
 6664SOL    HW220892   1.282   6.987   1.398
 6665SOL     OW20893   1.364   6.824   3.775
 6665SOL    HW120894   1.381   6.782   3.864
 6665SOL    HW220895   1.356   6.923   3.786
 6666SOL     OW20896   6.115   1.782   5.275
 6666SOL    HW120897   6.033   1.837   5.258
 6666SOL    HW220898   6.195   1.841   5.279
 6667SOL     OW20899   6.486   4.698   4.906
 6667SOL    HW120900   6.486   4.640   4.824
 6667SOL    HW220901   6.396   4.697   4.948
 6668SOL     OW20902   0.067   6.016   2.327
 6668SOL    HW120903   0.119   5.995   2.409
 6668SOL    HW220904   0.093   5.953   2.254
 6669SOL     OW20905   2.035   3.969   3.691
 6669SOL    HW120906   1.950   3.944   3.738
 6669SOL    HW220907   2.112   3.961   3.755
 6670SOL     OW20908   3.738   4.445   6.653
 6670SOL    HW120909   3.712   4.411   6.563
 6670SOL    HW220910   3.714   4.376   6.722
 6671SOL     OW20911   5.604   4.856   0.545
 6671SOL    HW120912   5.660   4.932   0.575
 6671SOL    HW220913   5.527   4.890   0.490
 6672SOL     OW20914   0.657   0.848   5.190
 6672SOL    HW120915   0.734   0.810   5.138
 6672SOL    HW220916   0.676   0.839   5.288
 6673SOL     OW20917   5.061   5.850   2.520
 6673SOL    HW120918   5.066   5.752   2.542
 6673SOL    HW220919   5.113   5.902   2.588
 6674SOL     OW20920   0.562   5.438   5.889
 6674SOL    HW120921   0.599   5.445   5.982
 6674SOL    HW220922   0.524   5.526   5.861
 6675SOL     OW20923   5.655   4.049   0.915
 6675SOL    HW120924   5.562   4.062   0.881
 6675SOL    HW220925   5.704   4.136   0.914
 6676SOL     OW20926   0.737   3.770   5.519
 6676SOL    HW120927   0.670   3.727   5.578
 6676SOL    HW220928   0.821   3.786   5.571
 6677SOL     OW20929   6.948   3.192   6.926
 6677SOL    HW120930   6.920   3.096   6.928
 6677SOL    HW220931   0.016   3.198   6.889
 6678SOL     OW20932   1.159   2.475   6.806
 6678SOL    HW120933   1.176   2.403   6.739
 6678SOL    HW220934   1.226   2.469   6.880
 6679SOL     OW20935   1.635   1.695   4.856
 6679SOL    HW120936   1.670   1.661   4.769
 6679SOL    HW220937   1.589   1.621   4.905
 6680SOL     OW20938   4.073   5.901   6.004
 6680SOL    HW120939   4.077   5.949   6.091
 6680SOL    HW220940   4.145   5.937   5.943
 6681SOL     OW20941   5.328   6.216   6.858
 6681SOL    HW120942   5.401   6.174   6.803
 6681SOL    HW220943   5.320   6.168   6.945
 6682SOL     OW20944   0.467   4.631   2.679
 6682SOL    HW120945   0.461   4.531   2.680
 6682SOL    HW220946   0.500   4.662   2.589
 6683SOL     OW20947   5.095   2.016   5.341
 6683SOL    HW120948   5.005   1.985   5.310
 6683SOL    HW220949   5.099   2.014   5.441
 6684SOL     OW20950   1.877   6.794   1.672
 6684SOL    HW120951   1.785   6.832   1.660
 6684SOL    HW220952   1.924   6.792   1.585
 6685SOL     OW20953   5.013   1.848   6.000
 6685SOL    HW120954   5.110   1.859   6.021
 6685SOL    HW220955   4.969   1.937   5.995
 6686SOL     OW20956   6.114   3.996   4.561
 6686SOL    HW120957   6.089   4.012   4.466
 6686SOL    HW220958   6.197   3.939   4.564
 6687SOL     OW20959   1.067   1.712   0.809
 6687SOL    HW120960   1.052   1.648   0.734
 6687SOL    HW220961   0.981   1.761   0.828
 6688SOL     OW20962   0.336   4.948   2.457
 6688SOL    HW120963   0.353   5.046   2.464
 6688SOL    HW220964   0.420   4.902   2.430
 6689SOL     OW20965   4.254   2.793   0.740
 6689SOL    HW120966   4.178   2.730   0.749
 6689SOL    HW220967   4.297   2.808   0.829
 6690SOL     OW20968   2.469   1.275   1.847
 6690SOL    HW120969   2.569   1.275   1.858
 6690SOL    HW220970   2.434   1.183   1.864
 6691SOL     OW20971   2.846   5.851   0.683
 6691SOL    HW120972   2.822   5.916   0.611
 6691SOL    HW220973   2.911   5.784   0.647
 6692SOL     OW20974   2.780   4.458   5.379
 6692SOL    HW120975   2.771   4.358   5.377
 6692SOL    HW220976   2.808   4.491   5.289
 6693SOL     OW20977   4.348   3.619   5.987
 6693SOL    HW120978   4.417   3.687   5.961
 6693SOL    HW220979   4.296   3.592   5.906
 6694SOL     OW20980   4.070   5.696   0.191
 6694SOL    HW120981   4.050   5.687   0.094
 6694SOL    HW220982   4.166   5.720   0.204
 6695SOL     OW20983   0.555   2.391   6.483
 6695SOL    HW120984   0.482   2.333   6.519
 6695SOL    HW220985   0.635   2.386   6.544
 6696SOL     OW20986   1.856   2.857   1.102
 6696SOL    HW120987   1.863   2.890   1.196
 6696SOL    HW220988   1.761   2.831   1.083
 6697SOL     OW20989   4.646   2.101   2.727
 6697SOL    HW120990   4.563   2.156   2.738
 6697SOL    HW220991   4.644   2.024   2.791
 6698SOL     OW20992   3.509   2.561   0.975
 6698SOL    HW120993   3.427   2.505   0.986
 6698SOL    HW220994   3.522   2.582   0.879
 6699SOL     OW20995   4.110   4.329   6.748
 6699SOL    HW120996   4.069   4.283   6.668
 6699SOL    HW220997   4.086   4.279   6.831
 6700SOL     OW20998   0.357   5.477   0.573
 6700SOL    HW120999   0.355   5.490   0.474
 6700SOL    HW221000   0.451   5.484   0.606
 6701SOL     OW21001   6.046   2.804   1.450
 6701SOL    HW121002   5.992   2.807   1.366
 6701SOL    HW221003   6.138   2.770   1.430
 6702SOL     OW21004   2.921   1.892   0.192
 6702SOL    HW121005   2.924   1.989   0.214
 6702SOL    HW221006   2.886   1.841   0.271
 6703SOL     OW21007   6.221   2.430   0.004
 6703SOL    HW121008   6.308   2.402   0.045
 6703SOL    HW221009   6.239   2.490   6.950
 6704SOL     OW21010   4.506   2.488   2.487
 6704SOL    HW121011   4.582   2.530   2.536
 6704SOL    HW221012   4.512   2.511   2.390
 6705SOL     OW21013   0.260   2.391   2.146
 6705SOL    HW121014   0.172   2.421   2.111
 6705SOL    HW221015   0.334   2.433   2.094
 6706SOL     OW21016   0.949   3.730   0.490
 6706SOL    HW121017   1.036   3.763   0.455
 6706SOL    HW221018   0.946   3.630   0.482
 6707SOL     OW21019   6.110   6.217   4.831
 6707SOL    HW121020   6.073   6.270   4.754
 6707SOL    HW221021   6.074   6.253   4.917
 6708SOL     OW21022   1.444   5.663   2.653
 6708SOL    HW121023   1.421   5.741   2.711
 6708SOL    HW221024   1.361   5.608   2.637
 6709SOL     OW21025   3.904   6.423   1.489
 6709SOL    HW121026   3.812   6.444   1.457
 6709SOL    HW221027   3.904   6.333   1.534
 6710SOL     OW21028   2.203   2.308   5.723
 6710SOL    HW121029   2.210   2.393   5.670
 6710SOL    HW221030   2.125   2.254   5.689
 6711SOL     OW21031   5.342   3.813   6.511
 6711SOL    HW121032   5.353   3.912   6.524
 6711SOL    HW221033   5.428   3.767   6.536
 6712SOL     OW21034   3.987   5.552   0.392
 6712SOL    HW121035   3.915   5.582   0.454
 6712SOL    HW221036   4.001   5.621   0.321
 6713SOL     OW21037   2.511   1.873   1.693
 6713SOL    HW121038   2.474   1.960   1.660
 6713SOL    HW221039   2.611   1.874   1.682
 6714SOL     OW21040   5.067   6.879   5.352
 6714SOL    HW121041   5.134   6.952   5.341
 6714SOL    HW221042   4.974   6.916   5.340
 6715SOL     OW21043   0.382   1.056   0.135
 6715SOL    HW121044   0.331   0.979   0.095
 6715SOL    HW221045   0.324   1.103   0.201
 6716SOL     OW21046   1.429   6.190   0.693
 6716SOL    HW121047   1.524   6.184   0.664
 6716SOL    HW221048   1.371   6.144   0.626
 6717SOL     OW21049   3.964   2.987   0.415
 6717SOL    HW121050   4.036   3.053   0.397
 6717SOL    HW221051   3.907   3.019   0.491
 6718SOL     OW21052   4.003   5.761   6.309
 6718SOL    HW121053   3.945   5.715   6.241
 6718SOL    HW221054   3.947   5.785   6.389
 6719SOL     OW21055   0.285   0.015   5.977
 6719SOL    HW121056   0.361   0.039   6.037
 6719SOL    HW221057   0.316   0.015   5.882
 6720SOL     OW21058   2.428   6.052   1.830
 6720SOL    HW121059   2.455   6.128   1.771
 6720SOL    HW221060   2.376   5.985   1.776
 6721SOL     OW21061   5.156   6.525   4.720
 6721SOL    HW121062   5.238   6.574   4.690
 6721SOL    HW221063   5.085   6.591   4.743
 6722SOL     OW21064   4.851   3.511   0.913
 6722SOL    HW121065   4.884   3.428   0.960
 6722SOL    HW221066   4.751   3.514   0.916
 6723SOL     OW21067   1.927   6.533   3.329
 6723SOL    HW121068   1.836   6.563   3.358
 6723SOL    HW221069   1.991   6.609   3.335
 6724SOL     OW21070   2.192   4.400   6.126
 6724SOL    HW121071   2.155   4.317   6.084
 6724SOL    HW221072   2.178   4.478   6.064
 6725SOL     OW21073   1.386   4.268   2.769
 6725SOL    HW121074   1.392   4.172   2.797
 6725SOL    HW221075   1.305   4.310   2.811
 6726SOL     OW21076   1.527   2.789   4.715
 6726SOL    HW121077   1.429   2.772   4.721
 6726SOL    HW221078   1.576   2.703   4.731
 6727SOL     OW21079   5.459   3.486   6.355
 6727SOL    HW121080   5.508   3.540   6.423
 6727SOL    HW221081   5.369   3.527   6.339
 6728SOL     OW21082   3.759   1.886   4.726
 6728SOL    HW121083   3.725   1.909   4.817
 6728SOL    HW221084   3.825   1.955   4.696
 6729SOL     OW21085   6.518   1.021   2.087
 6729SOL    HW121086   6.459   1.032   2.007
 6729SOL    HW221087   6.574   1.103   2.098
 6730SOL     OW21088   2.888   6.880   0.116
 6730SOL    HW121089   2.922   6.909   0.206
 6730SOL    HW221090   2.790   6.899   0.110
 6731SOL     OW21091   3.174   4.438   1.349
 6731SOL    HW121092   3.153   4.345   1.380
 6731SOL    HW221093   3.201   4.495   1.427
 6732SOL     OW21094   2.340   6.151   0.501
 6732SOL    HW121095   2.277   6.225   0.480
 6732SOL    HW221096   2.319   6.071   0.444
 6733SOL     OW21097   4.364   5.667   5.926
 6733SOL    HW121098   4.456   5.699   5.949
 6733SOL    HW221099   4.320   5.733   5.865
 6734SOL     OW21100   1.067   3.165   5.346
 6734SOL    HW121101   1.036   3.248   5.393
 6734SOL    HW221102   1.101   3.189   5.256
 6735SOL     OW21103   0.110   5.377   5.182
 6735SOL    HW121104   0.204   5.397   5.152
 6735SOL    HW221105   0.050   5.450   5.150
 6736SOL     OW21106   2.545   3.357   0.957
 6736SOL    HW121107   2.543   3.303   0.873
 6736SOL    HW221108   2.496   3.308   1.030
 6737SOL     OW21109   2.361   1.282   2.212
 6737SOL    HW121110   2.295   1.278   2.137
 6737SOL    HW221111   2.420   1.201   2.210
 6738SOL     OW21112   2.408   1.687   2.720
 6738SOL    HW121113   2.442   1.620   2.654
 6738SOL    HW221114   2.362   1.640   2.795
 6739SOL     OW21115   3.530   5.656   5.262
 6739SOL    HW121116   3.626   5.659   5.289
 6739SOL    HW221117   3.510   5.734   5.202
 6740SOL     OW21118   1.585   0.829   4.264
 6740SOL    HW121119   1.577   0.928   4.268
 6740SOL    HW221120   1.663   0.800   4.320
 6741SOL     OW21121   5.419   1.195   5.786
 6741SOL    HW121122   5.382   1.281   5.749
 6741SOL    HW221123   5.355   1.157   5.853
 6742SOL     OW21124   0.201   5.287   4.799
 6742SOL    HW121125   0.105   5.307   4.781
 6742SOL    HW221126   0.217   5.289   4.898
 6743SOL     OW21127   4.090   2.752   0.114
 6743SOL    HW121128   4.168   2.809   0.139
 6743SOL    HW221129   4.013   2.774   0.175
 6744SOL     OW21130   4.116   4.707   5.630
 6744SOL    HW121131   4.196   4.708   5.689
 6744SOL    HW221132   4.107   4.796   5.585
 6745SOL     OW21133   1.375   4.659   3.405
 6745SOL    HW121134   1.428   4.735   3.443
 6745SOL    HW221135   1.311   4.693   3.337
 6746SOL     OW21136   0.548   1.242   1.269
 6746SOL    HW121137   0.470   1.305   1.266
 6746SOL    HW221138   0.631   1.292   1.294
 6747SOL     OW21139   5.567   0.028   4.192
 6747SOL    HW121140   5.536   0.103   4.251
 6747SOL    HW221141   5.488   7.012   4.147
 6748SOL     OW21142   0.938   0.373   1.781
 6748SOL    HW121143   0.959   0.358   1.877
 6748SOL    HW221144   0.916   0.285   1.737
 6749SOL     OW21145   3.643   0.599   6.904
 6749SOL    HW121146   3.654   0.570   6.809
 6749SOL    HW221147   3.625   0.520   6.961
 6750SOL     OW21148   2.490   2.123   4.143
 6750SOL    HW121149   2.507   2.081   4.233
 6750SOL    HW221150   2.503   2.222   4.150
 6751SOL     OW21151   2.685   2.385   4.213
 6751SOL    HW121152   2.680   2.439   4.297
 6751SOL    HW221153   2.770   2.333   4.212
 6752SOL     OW21154   6.137   3.198   1.063
 6752SOL    HW121155   6.165   3.127   1.128
 6752SOL    HW221156   6.218   3.246   1.029
 6753SOL     OW21157   4.015   1.940   6.032
 6753SOL    HW121158   4.058   1.966   6.119
 6753SOL    HW221159   3.919   1.966   6.034
 6754SOL     OW21160   6.185   1.652   6.060
 6754SOL    HW121161   6.218   1.575   6.115
 6754SOL    HW221162   6.230   1.736   6.090
 6755SOL     OW21163   5.705   2.099   3.430
 6755SOL    HW121164   5.642   2.174   3.451
 6755SOL    HW221165   5.669   2.045   3.354
 6756SOL     OW21166   4.462   4.870   4.305
 6756SOL    HW121167   4.435   4.785   4.350
 6756SOL    HW221168   4.381   4.927   4.290
 6757SOL     OW21169   4.673   6.355   1.020
 6757SOL    HW121170   4.694   6.452   1.019
 6757SOL    HW221171   4.584   6.340   1.062
 6758SOL     OW21172   5.446   3.233   2.138
 6758SOL    HW121173   5.434   3.240   2.039
 6758SOL    HW221174   5.521   3.170   2.157
 6759SOL     OW21175   1.446   4.584   2.859
 6759SOL    HW121176   1.430   4.656   2.792
 6759SOL    HW221177   1.468   4.498   2.812
 6760SOL     OW21178   0.181   4.681   4.203
 6760SOL    HW121179   0.141   4.618   4.136
 6760SOL    HW221180   0.237   4.748   4.156
 6761SOL     OW21181   5.255   2.848   5.361
 6761SOL    HW121182   5.241   2.766   5.305
 6761SOL    HW221183   5.300   2.822   5.446
 6762SOL     OW21184   6.390   5.359   3.843
 6762SOL    HW121185   6.393   5.459   3.841
 6762SOL    HW221186   6.447   5.323   3.770
 6763SOL     OW21187   6.018   6.783   5.298
 6763SOL    HW121188   5.977   6.783   5.390
 6763SOL    HW221189   6.012   6.691   5.259
 6764SOL     OW21190   3.019   3.782   6.546
 6764SOL    HW121191   3.028   3.717   6.622
 6764SOL    HW221192   3.100   3.776   6.488
 6765SOL     OW21193   6.523   4.780   3.282
 6765SOL    HW121194   6.520   4.879   3.265
 6765SOL    HW221195   6.607   4.757   3.330
 6766SOL     OW21196   1.509   1.124   5.409
 6766SOL    HW121197   1.437   1.060   5.438
 6766SOL    HW221198   1.526   1.113   5.312
 6767SOL     OW21199   0.443   2.485   6.750
 6767SOL    HW121200   0.528   2.510   6.796
 6767SOL    HW221201   0.415   2.393   6.778
 6768SOL     OW21202   0.908   0.435   3.974
 6768SOL    HW121203   0.868   0.419   3.884
 6768SOL    HW221204   0.879   0.524   4.009
 6769SOL     OW21205   2.446   2.709   5.680
 6769SOL    HW121206   2.419   2.802   5.657
 6769SOL    HW221207   2.456   2.701   5.780
 6770SOL     OW21208   0.067   1.937   3.166
 6770SOL    HW121209   0.133   2.011   3.182
 6770SOL    HW221210   7.008   1.956   3.217
 6771SOL     OW21211   3.513   2.138   3.583
 6771SOL    HW121212   3.488   2.121   3.678
 6771SOL    HW221213   3.611   2.154   3.576
 6772SOL     OW21214   6.321   1.541   2.744
 6772SOL    HW121215   6.326   1.448   2.708
 6772SOL    HW221216   6.412   1.571   2.772
 6773SOL     OW21217   0.066   6.146   1.908
 6773SOL    HW121218   0.066   6.051   1.877
 6773SOL    HW221219   0.066   6.207   1.829
 6774SOL     OW21220   2.365   2.116   5.585
 6774SOL    HW121221   2.314   2.185   5.637
 6774SOL    HW221222   2.360   2.137   5.488
 6775SOL     OW21223   0.725   1.800   4.875
 6775SOL    HW121224   0.713   1.842   4.965
 6775SOL    HW221225   0.742   1.872   4.807
 6776SOL     OW21226   3.772   4.337   1.755
 6776SOL    HW121227   3.695   4.393   1.725
 6776SOL    HW221228   3.795   4.270   1.684
 6777SOL     OW21229   5.213   5.634   1.191
 6777SOL    HW121230   5.230   5.592   1.102
 6777SOL    HW221231   5.291   5.614   1.251
 6778SOL     OW21232   6.836   3.917   2.511
 6778SOL    HW121233   6.766   3.852   2.481
 6778SOL    HW221234   6.908   3.924   2.442
 6779SOL     OW21235   5.707   4.398   5.957
 6779SOL    HW121236   5.686   4.413   5.860
 6779SOL    HW221237   5.674   4.308   5.984
 6780SOL     OW21238   2.872   2.152   2.694
 6780SOL    HW121239   2.951   2.169   2.635
 6780SOL    HW221240   2.826   2.069   2.665
 6781SOL     OW21241   6.767   1.209   4.025
 6781SOL    HW121242   6.787   1.134   4.088
 6781SOL    HW221243   6.785   1.180   3.931
 6782SOL     OW21244   6.700   1.515   3.522
 6782SOL    HW121245   6.706   1.420   3.553
 6782SOL    HW221246   6.713   1.518   3.423
 6783SOL     OW21247   1.351   4.854   5.275
 6783SOL    HW121248   1.337   4.949   5.305
 6783SOL    HW221249   1.265   4.818   5.240
 6784SOL     OW21250   1.546   3.463   1.650
 6784SOL    HW121251   1.601   3.434   1.729
 6784SOL    HW221252   1.543   3.562   1.646
 6785SOL     OW21253   5.513   5.161   4.655
 6785SOL    HW121254   5.516   5.257   4.627
 6785SOL    HW221255   5.420   5.126   4.647
 6786SOL     OW21256   6.839   2.318   6.966
 6786SOL    HW121257   6.890   2.370   6.898
 6786SOL    HW221258   6.745   2.352   6.970
 6787SOL     OW21259   3.921   2.092   6.738
 6787SOL    HW121260   3.867   2.159   6.788
 6787SOL    HW221261   3.860   2.019   6.705
 6788SOL     OW21262   0.338   4.362   3.337
 6788SOL    HW121263   0.288   4.418   3.271
 6788SOL    HW221264   0.424   4.332   3.296
 6789SOL     OW21265   6.441   4.084   4.293
 6789SOL    HW121266   6.366   4.066   4.356
 6789SOL    HW221267   6.505   4.006   4.294
 6790SOL     OW21268   0.591   4.853   5.534
 6790SOL    HW121269   0.550   4.828   5.446
 6790SOL    HW221270   0.623   4.948   5.531
 6791SOL     OW21271   3.853   0.712   3.859
 6791SOL    HW121272   3.839   0.756   3.770
 6791SOL    HW221273   3.909   0.771   3.917
 6792SOL     OW21274   4.168   0.317   5.810
 6792SOL    HW121275   4.084   0.268   5.787
 6792SOL    HW221276   4.223   0.329   5.727
 6793SOL     OW21277   2.326   3.237   0.568
 6793SOL    HW121278   2.409   3.217   0.620
 6793SOL    HW221279   2.251   3.179   0.601
 6794SOL     OW21280   4.958   1.653   5.556
 6794SOL    HW121281   4.929   1.588   5.625
 6794SOL    HW221282   4.966   1.607   5.468
 6795SOL     OW21283   0.849   1.297   1.262
 6795SOL    HW121284   0.940   1.276   1.298
 6795SOL    HW221285   0.841   1.262   1.169
 6796SOL     OW21286   6.642   0.965   2.383
 6796SOL    HW121287   6.560   0.911   2.362
 6796SOL    HW221288   6.672   1.012   2.300
 6797SOL     OW21289   0.202   2.430   1.344
 6797SOL    HW121290   0.219   2.507   1.282
 6797SOL    HW221291   0.289   2.392   1.375
 6798SOL     OW21292   5.336   0.501   2.056
 6798SOL    HW121293   5.354   0.512   2.154
 6798SOL    HW221294   5.371   0.580   2.006
 6799SOL     OW21295   5.692   0.981   3.454
 6799SOL    HW121296   5.638   0.925   3.392
 6799SOL    HW221297   5.669   0.958   3.549
 6800SOL     OW21298   6.910   1.796   0.894
 6800SOL    HW121299   6.823   1.748   0.899
 6800SOL    HW221300   6.952   1.800   0.985
 6801SOL     OW21301   0.450   5.364   5.401
 6801SOL    HW121302   0.352   5.350   5.397
 6801SOL    HW221303   0.491   5.293   5.459
 6802SOL     OW21304   3.090   5.104   1.590
 6802SOL    HW121305   3.048   5.037   1.652
 6802SOL    HW221306   3.019   5.147   1.535
 6803SOL     OW21307   4.977   4.744   5.507
 6803SOL    HW121308   5.020   4.654   5.505
 6803SOL    HW221309   4.953   4.772   5.414
 6804SOL     OW21310   2.908   4.977   3.036
 6804SOL    HW121311   2.947   4.956   3.126
 6804SOL    HW221312   2.943   4.913   2.969
 6805SOL     OW21313   0.286   4.120   5.313
 6805SOL    HW121314   0.382   4.126   5.287
 6805SOL    HW221315   0.257   4.024   5.314
 6806SOL     OW21316   6.948   1.210   2.468
 6806SOL    HW121317   6.992   1.298   2.484
 6806SOL    HW221318   7.015   1.137   2.482
 6807SOL     OW21319   3.531   3.413   1.508
 6807SOL    HW121320   3.534   3.496   1.562
 6807SOL    HW221321   3.502   3.435   1.415
 6808SOL     OW21322   3.833   0.883   4.405
 6808SOL    HW121323   3.743   0.853   4.436
 6808SOL    HW221324   3.826   0.974   4.364
 6809SOL     OW21325   5.562   3.496   1.956
 6809SOL    HW121326   5.506   3.578   1.945
 6809SOL    HW221327   5.508   3.415   1.930
 6810SOL     OW21328   2.737   0.726   4.046
 6810SOL    HW121329   2.648   0.753   4.082
 6810SOL    HW221330   2.792   0.688   4.120
 6811SOL     OW21331   6.354   1.210   1.294
 6811SOL    HW121332   6.312   1.162   1.370
 6811SOL    HW221333   6.442   1.166   1.271
 6812SOL     OW21334   3.200   4.203   5.170
 6812SOL    HW121335   3.248   4.167   5.089
 6812SOL    HW221336   3.268   4.230   5.238
 6813SOL     OW21337   6.191   3.751   1.866
 6813SOL    HW121338   6.153   3.723   1.955
 6813SOL    HW221339   6.290   3.745   1.869
 6814SOL     OW21340   5.017   1.211   6.355
 6814SOL    HW121341   5.040   1.233   6.450
 6814SOL    HW221342   4.929   1.252   6.332
 6815SOL     OW21343   2.286   4.890   6.157
 6815SOL    HW121344   2.196   4.931   6.175
 6815SOL    HW221345   2.348   4.910   6.232
 6816SOL     OW21346   0.762   1.525   3.042
 6816SOL    HW121347   0.723   1.525   3.135
 6816SOL    HW221348   0.693   1.496   2.977
 6817SOL     OW21349   3.703   2.093   2.370
 6817SOL    HW121350   3.748   2.125   2.453
 6817SOL    HW221351   3.692   2.170   2.307
 6818SOL     OW21352   1.842   6.668   5.741
 6818SOL    HW121353   1.919   6.721   5.706
 6818SOL    HW221354   1.757   6.719   5.727
 6819SOL     OW21355   4.447   4.546   2.154
 6819SOL    HW121356   4.489   4.604   2.084
 6819SOL    HW221357   4.456   4.450   2.128
 6820SOL     OW21358   2.949   5.871   1.136
 6820SOL    HW121359   2.882   5.922   1.190
 6820SOL    HW221360   2.975   5.925   1.056
 6821SOL     OW21361   3.947   2.669   5.304
 6821SOL    HW121362   3.995   2.587   5.273
 6821SOL    HW221363   3.849   2.657   5.292
 6822SOL     OW21364   6.690   2.758   6.721
 6822SOL    HW121365   6.647   2.847   6.734
 6822SOL    HW221366   6.701   2.739   6.623
 6823SOL     OW21367   5.864   3.502   6.862
 6823SOL    HW121368   5.891   3.409   6.835
 6823SOL    HW221369   5.787   3.497   6.925
 6824SOL     OW21370   0.226   1.987   5.838
 6824SOL    HW121371   0.196   2.019   5.928
 6824SOL    HW221372   0.264   2.063   5.786
 6825SOL     OW21373   6.205   5.406   1.403
 6825SOL    HW121374   6.184   5.317   1.362
 6825SOL    HW221375   6.235   5.393   1.497
 6826SOL     OW21376   0.189   3.961   3.214
 6826SOL    HW121377   0.222   4.020   3.288
 6826SOL    HW221378   0.130   3.890   3.252
 6827SOL     OW21379   4.537   5.801   4.832
 6827SOL    HW121380   4.468   5.797   4.904
 6827SOL    HW221381   4.619   5.751   4.863
 6828SOL     OW21382   3.153   1.821   2.411
 6828SOL    HW121383   3.199   1.772   2.337
 6828SOL    HW221384   3.206   1.902   2.435
 6829SOL     OW21385   4.664   6.727   4.526
 6829SOL    HW121386   4.720   6.677   4.459
 6829SOL    HW221387   4.633   6.664   4.597
 6830SOL     OW21388   5.369   6.966   3.285
 6830SOL    HW121389   5.405   6.952   3.377
 6830SOL    HW221390   5.296   0.009   3.288
 6831SOL     OW21391   1.396   1.488   6.278
 6831SOL    HW121392   1.332   1.538   6.220
 6831SOL    HW221393   1.488   1.523   6.264
 6832SOL     OW21394   2.913   2.716   0.290
 6832SOL    HW121395   2.983   2.780   0.259
 6832SOL    HW221396   2.881   2.661   0.213
 6833SOL     OW21397   2.756   5.172   6.095
 6833SOL    HW121398   2.751   5.107   6.019
 6833SOL    HW221399   2.663   5.198   6.123
 6834SOL     OW21400   5.406   0.553   0.791
 6834SOL    HW121401   5.451   0.620   0.850
 6834SOL    HW221402   5.427   0.573   0.695
 6835SOL     OW21403   2.542   2.032   4.389
 6835SOL    HW121404   2.487   1.997   4.465
 6835SOL    HW221405   2.633   1.991   4.392
 6836SOL     OW21406   1.835   4.575   6.157
 6836SOL    HW121407   1.875   4.555   6.246
 6836SOL    HW221408   1.744   4.534   6.151
 6837SOL     OW21409   0.563   0.298   1.642
 6837SOL    HW121410   0.545   0.356   1.722
 6837SOL    HW221411   0.601   0.353   1.569
 6838SOL     OW21412   3.088   4.430   5.301
 6838SOL    HW121413   3.121   4.365   5.232
 6838SOL    HW221414   3.007   4.477   5.266
 6839SOL     OW21415   5.668   2.463   3.931
 6839SOL    HW121416   5.707   2.426   3.847
 6839SOL    HW221417   5.694   2.404   4.008
 6840SOL     OW21418   2.708   6.708   5.296
 6840SOL    HW121419   2.678   6.655   5.375
 6840SOL    HW221420   2.686   6.658   5.212
 6841SOL     OW21421   4.099   5.537   1.531
 6841SOL    HW121422   4.027   5.606   1.527
 6841SOL    HW221423   4.069   5.453   1.485
 6842SOL     OW21424   6.950   4.220   6.595
 6842SOL    HW121425   6.851   4.219   6.579
 6842SOL    HW221426   6.998   4.213   6.507
 6843SOL     OW21427   3.596   1.848   2.261
 6843SOL    HW121428   3.545   1.875   2.180
 6843SOL    HW221429   3.634   1.929   2.305
 6844SOL     OW21430   5.178   5.078   4.436
 6844SOL    HW121431   5.166   5.013   4.511
 6844SOL    HW221432   5.108   5.150   4.444
 6845SOL     OW21433   4.983   4.663   1.978
 6845SOL    HW121434   5.031   4.743   1.941
 6845SOL    HW221435   4.887   4.666   1.947
 6846SOL     OW21436   3.772   2.902   2.382
 6846SOL    HW121437   3.720   2.956   2.316
 6846SOL    HW221438   3.825   2.832   2.335
 6847SOL     OW21439   5.813   3.062   1.751
 6847SOL    HW121440   5.834   2.983   1.693
 6847SOL    HW221441   5.808   3.144   1.694
 6848SOL     OW21442   0.973   6.220   3.752
 6848SOL    HW121443   0.988   6.183   3.660
 6848SOL    HW221444   1.030   6.171   3.818
 6849SOL     OW21445   3.913   5.802   4.083
 6849SOL    HW121446   3.885   5.783   3.989
 6849SOL    HW221447   3.940   5.898   4.091
 6850SOL     OW21448   5.177   3.214   2.799
 6850SOL    HW121449   5.224   3.233   2.885
 6850SOL    HW221450   5.169   3.115   2.786
 6851SOL     OW21451   1.625   5.125   5.747
 6851SOL    HW121452   1.612   5.084   5.837
 6851SOL    HW221453   1.664   5.057   5.685
 6852SOL     OW21454   1.571   4.532   1.715
 6852SOL    HW121455   1.483   4.580   1.722
 6852SOL    HW221456   1.562   4.456   1.651
 6853SOL     OW21457   0.576   4.418   5.472
 6853SOL    HW121458   0.493   4.457   5.511
 6853SOL    HW221459   0.596   4.331   5.517
 6854SOL     OW21460   6.865   3.150   6.591
 6854SOL    HW121461   6.789   3.106   6.639
 6854SOL    HW221462   6.898   3.227   6.645
 6855SOL     OW21463   3.011   6.737   2.563
 6855SOL    HW121464   3.107   6.720   2.542
 6855SOL    HW221465   2.954   6.698   2.490
 6856SOL     OW21466   5.885   3.752   4.959
 6856SOL    HW121467   5.877   3.760   5.058
 6856SOL    HW221468   5.980   3.763   4.932
 6857SOL     OW21469   2.949   2.293   6.526
 6857SOL    HW121470   2.881   2.297   6.452
 6857SOL    HW221471   3.017   2.365   6.513
 6858SOL     OW21472   3.892   3.078   5.062
 6858SOL    HW121473   3.910   3.176   5.051
 6858SOL    HW221474   3.954   3.040   5.131
 6859SOL     OW21475   3.273   6.992   0.746
 6859SOL    HW121476   3.323   6.905   0.741
 6859SOL    HW221477   3.330   0.040   0.707
 6860SOL     OW21478   5.724   4.246   0.701
 6860SOL    HW121479   5.667   4.328   0.705
 6860SOL    HW221480   5.771   4.242   0.613
 6861SOL     OW21481   5.776   5.286   0.243
 6861SOL    HW121482   5.819   5.376   0.242
 6861SOL    HW221483   5.769   5.250   0.150
 6862SOL     OW21484   3.665   5.649   4.660
 6862SOL    HW121485   3.695   5.690   4.746
 6862SOL    HW221486   3.567   5.628   4.665
 6863SOL     OW21487   5.981   1.720   4.105
 6863SOL    HW121488   6.057   1.656   4.110
 6863SOL    HW221489   5.899   1.673   4.071
 6864SOL     OW21490   3.229   6.491   4.320
 6864SOL    HW121491   3.293   6.553   4.274
 6864SOL    HW221492   3.269   6.459   4.406
 6865SOL     OW21493   6.925   4.265   4.368
 6865SOL    HW121494   6.953   4.171   4.387
 6865SOL    HW221495   6.826   4.268   4.354
 6866SOL     OW21496   6.724   3.708   1.639
 6866SOL    HW121497   6.726   3.770   1.717
 6866SOL    HW221498   6.630   3.698   1.606
 6867SOL     OW21499   2.155   4.210   1.947
 6867SOL    HW121500   2.140   4.286   1.883
 6867SOL    HW221501   2.111   4.127   1.911
 6868SOL     OW21502   2.079   6.213   4.927
 6868SOL    HW121503   2.133   6.143   4.879
 6868SOL    HW221504   2.045   6.176   5.013
 6869SOL     OW21505   5.480   2.138   5.525
 6869SOL    HW121506   5.423   2.210   5.486
 6869SOL    HW221507   5.422   2.068   5.566
 6870SOL     OW21508   5.980   3.689   3.272
 6870SOL    HW121509   6.025   3.606   3.239
 6870SOL    HW221510   5.887   3.668   3.302
 6871SOL     OW21511   5.417   5.483   1.333
 6871SOL    HW121512   5.370   5.395   1.338
 6871SOL    HW221513   5.492   5.486   1.399
 6872SOL     OW21514   2.027   2.836   0.540
 6872SOL    HW121515   2.034   2.772   0.617
 6872SOL    HW221516   2.047   2.929   0.571
 6873SOL     OW21517   6.147   3.175   6.439
 6873SOL    HW121518   6.156   3.183   6.539
 6873SOL    HW221519   6.051   3.160   6.416
 6874SOL     OW21520   0.093   2.724   4.171
 6874SOL    HW121521   0.002   2.721   4.131
 6874SOL    HW221522   0.085   2.726   4.271
 6875SOL     OW21523   1.879   1.208   2.281
 6875SOL    HW121524   1.889   1.271   2.204
 6875SOL    HW221525   1.791   1.161   2.275
 6876SOL     OW21526   3.660   6.010   0.220
 6876SOL    HW121527   3.599   5.940   0.183
 6876SOL    HW221528   3.665   6.002   0.319
 6877SOL     OW21529   2.279   3.808   0.198
 6877SOL    HW121530   2.266   3.772   0.106
 6877SOL    HW221531   2.202   3.781   0.256
 6878SOL     OW21532   2.119   1.455   5.078
 6878SOL    HW121533   2.039   1.428   5.024
 6878SOL    HW221534   2.092   1.524   5.144
 6879SOL     OW21535   1.041   2.209   0.023
 6879SOL    HW121536   1.012   2.133   6.989
 6879SOL    HW221537   1.140   2.222   0.015
 6880SOL     OW21538   2.221   4.167   4.745
 6880SOL    HW121539   2.274   4.136   4.825
 6880SOL    HW221540   2.219   4.095   4.677
 6881SOL     OW21541   0.651   4.609   1.352
 6881SOL    HW121542   0.668   4.570   1.442
 6881SOL    HW221543   0.653   4.536   1.283
 6882SOL     OW21544   1.914   0.709   5.327
 6882SOL    HW121545   2.001   0.713   5.278
 6882SOL    HW221546   1.898   0.615   5.358
 6883SOL     OW21547   4.214   0.523   1.721
 6883SOL    HW121548   4.183   0.437   1.761
 6883SOL    HW221549   4.147   0.595   1.740
 6884SOL     OW21550   2.433   4.524   4.608
 6884SOL    HW121551   2.506   4.528   4.676
 6884SOL    HW221552   2.346   4.504   4.653
 6885SOL     OW21553   3.209   6.029   4.312
 6885SOL    HW121554   3.167   5.939   4.325
 6885SOL    HW221555   3.205   6.053   4.215
 6886SOL     OW21556   5.412   1.175   2.616
 6886SOL    HW121557   5.368   1.262   2.590
 6886SOL    HW221558   5.505   1.173   2.580
 6887SOL     OW21559   6.027   0.717   4.748
 6887SOL    HW121560   6.036   0.792   4.813
 6887SOL    HW221561   6.113   0.668   4.742
 6888SOL     OW21562   6.294   0.293   4.912
 6888SOL    HW121563   6.366   0.272   4.978
 6888SOL    HW221564   6.287   0.392   4.900
 6889SOL     OW21565   1.331   4.382   5.985
 6889SOL    HW121566   1.349   4.399   6.082
 6889SOL    HW221567   1.251   4.433   5.956
 6890SOL     OW21568   2.089   6.343   1.034
 6890SOL    HW121569   1.995   6.325   1.060
 6890SOL    HW221570   2.106   6.312   0.941
 6891SOL     OW21571   2.140   3.546   3.671
 6891SOL    HW121572   2.147   3.542   3.571
 6891SOL    HW221573   2.170   3.459   3.710
 6892SOL     OW21574   3.176   0.309   4.347
 6892SOL    HW121575   3.146   0.274   4.258
 6892SOL    HW221576   3.275   0.322   4.347
 6893SOL     OW21577   4.805   5.856   2.818
 6893SOL    HW121578   4.802   5.903   2.729
 6893SOL    HW221579   4.776   5.761   2.806
 6894SOL     OW21580   5.467   5.701   0.226
 6894SOL    HW121581   5.551   5.754   0.239
 6894SOL    HW221582   5.492   5.607   0.202
 6895SOL     OW21583   2.662   4.005   0.199
 6895SOL    HW121584   2.729   4.077   0.215
 6895SOL    HW221585   2.588   4.013   0.265
 6896SOL     OW21586   3.748   0.457   3.352
 6896SOL    HW121587   3.807   0.393   3.401
 6896SOL    HW221588   3.774   0.460   3.256
 6897SOL     OW21589   3.585   3.838   0.425
 6897SOL    HW121590   3.595   3.786   0.340
 6897SOL    HW221591   3.621   3.931   0.412
 6898SOL     OW21592   4.025   1.668   1.770
 6898SOL    HW121593   4.073   1.598   1.717
 6898SOL    HW221594   3.993   1.740   1.709
 6899SOL     OW21595   4.762   6.777   6.465
 6899SOL    HW121596   4.705   6.851   6.429
 6899SOL    HW221597   4.802   6.725   6.390
 6900SOL     OW21598   5.707   0.409   6.430
 6900SOL    HW121599   5.652   0.409   6.513
 6900SOL    HW221600   5.680   0.331   6.373
 6901SOL     OW21601   1.773   0.069   6.276
 6901SOL    HW121602   1.866   0.085   6.245
 6901SOL    HW221603   1.756   0.122   6.359
 6902SOL     OW21604   0.775   6.256   6.875
 6902SOL    HW121605   0.704   6.191   6.848
 6902SOL    HW221606   0.831   6.215   6.948
 6903SOL     OW21607   3.811   4.569   0.715
 6903SOL    HW121608   3.820   4.502   0.642
 6903SOL    HW221609   3.900   4.583   0.759
 6904SOL     OW21610   6.595   1.070   3.768
 6904SOL    HW121611   6.585   1.111   3.858
 6904SOL    HW221612   6.505   1.042   3.734
 6905SOL     OW21613   5.904   6.485   0.723
 6905SOL    HW121614   5.878   6.549   0.795
 6905SOL    HW221615   5.933   6.537   0.642
 6906SOL     OW21616   3.751   1.043   3.204
 6906SOL    HW121617   3.778   1.137   3.225
 6906SOL    HW221618   3.651   1.038   3.195
 6907SOL     OW21619   3.444   1.138   1.578
 6907SOL    HW121620   3.420   1.044   1.555
 6907SOL    HW221621   3.467   1.144   1.675
 6908SOL     OW21622   1.179   6.896   5.514
 6908SOL    HW121623   1.164   6.950   5.432
 6908SOL    HW221624   1.136   6.941   5.592
 6909SOL     OW21625   4.858   4.535   0.632
 6909SOL    HW121626   4.854   4.441   0.598
 6909SOL    HW221627   4.939   4.546   0.690
 6910SOL     OW21628   6.361   1.729   1.829
 6910SOL    HW121629   6.328   1.823   1.822
 6910SOL    HW221630   6.368   1.702   1.925
 6911SOL     OW21631   4.217   0.351   4.340
 6911SOL    HW121632   4.273   0.362   4.422
 6911SOL    HW221633   4.134   0.405   4.348
 6912SOL     OW21634   4.862   4.800   0.868
 6912SOL    HW121635   4.927   4.818   0.942
 6912SOL    HW221636   4.795   4.875   0.863
 6913SOL     OW21637   5.214   5.185   4.781
 6913SOL    HW121638   5.126   5.169   4.736
 6913SOL    HW221639   5.226   5.283   4.797
 6914SOL     OW21640   5.974   5.356   0.432
 6914SOL    HW121641   5.955   5.377   0.336
 6914SOL    HW221642   5.914   5.411   0.491
 6915SOL     OW21643   0.642   4.561   2.968
 6915SOL    HW121644   0.561   4.585   3.022
 6915SOL    HW221645   0.642   4.462   2.950
 6916SOL     OW21646   6.181   3.691   0.028
 6916SOL    HW121647   6.095   3.672   0.075
 6916SOL    HW221648   6.209   3.611   7.000
 6917SOL     OW21649   4.893   6.656   6.263
 6917SOL    HW121650   4.801   6.665   6.224
 6917SOL    HW221651   4.953   6.610   6.197
 6918SOL     OW21652   0.145   4.020   4.148
 6918SOL    HW121653   0.078   4.090   4.120
 6918SOL    HW221654   0.234   4.041   4.107
 6919SOL     OW21655   1.951   6.468   2.665
 6919SOL    HW121656   1.991   6.428   2.582
 6919SOL    HW221657   1.946   6.399   2.737
 6920SOL     OW21658   5.384   5.761   4.733
 6920SOL    HW121659   5.348   5.771   4.826
 6920SOL    HW221660   5.483   5.752   4.736
 6921SOL     OW21661   6.750   0.110   3.465
 6921SOL    HW121662   6.816   0.036   3.473
 6921SOL    HW221663   6.781   0.175   3.395
 6922SOL     OW21664   2.612   5.888   0.820
 6922SOL    HW121665   2.610   5.988   0.813
 6922SOL    HW221666   2.691   5.852   0.770
 6923SOL     OW21667   4.771   0.056   4.315
 6923SOL    HW121668   4.852   0.003   4.291
 6923SOL    HW221669   4.789   0.153   4.301
 6924SOL     OW21670   0.307   5.156   1.225
 6924SOL    HW121671   0.335   5.173   1.320
 6924SOL    HW221672   0.223   5.101   1.224
 6925SOL     OW21673   4.507   6.497   3.308
 6925SOL    HW121674   4.518   6.566   3.237
 6925SOL    HW221675   4.446   6.424   3.275
 6926SOL     OW21676   3.492   4.125   4.196
 6926SOL    HW121677   3.578   4.101   4.241
 6926SOL    HW221678   3.419   4.067   4.231
 6927SOL     OW21679   5.211   3.600   6.321
 6927SOL    HW121680   5.123   3.619   6.365
 6927SOL    HW221681   5.253   3.685   6.292
 6928SOL     OW21682   4.908   0.695   6.702
 6928SOL    HW121683   4.898   0.765   6.632
 6928SOL    HW221684   4.908   0.738   6.792
 6929SOL     OW21685   4.135   6.103   0.208
 6929SOL    HW121686   4.096   6.111   0.300
 6929SOL    HW221687   4.072   6.144   0.141
 6930SOL     OW21688   0.545   6.703   1.906
 6930SOL    HW121689   0.585   6.744   1.824
 6930SOL    HW221690   0.484   6.769   1.950
 6931SOL     OW21691   1.511   0.282   1.484
 6931SOL    HW121692   1.593   0.336   1.504
 6931SOL    HW221693   1.535   0.205   1.425
 6932SOL     OW21694   2.704   1.383   6.783
 6932SOL    HW121695   2.731   1.293   6.817
 6932SOL    HW221696   2.742   1.454   6.843
 6933SOL     OW21697   4.092   5.598   5.996
 6933SOL    HW121698   4.037   5.680   5.987
 6933SOL    HW221699   4.189   5.620   5.983
 6934SOL     OW21700   4.939   2.854   0.237
 6934SOL    HW121701   4.955   2.761   0.269
 6934SOL    HW221702   4.918   2.913   0.315
 6935SOL     OW21703   4.217   6.698   3.472
 6935SOL    HW121704   4.299   6.713   3.528
 6935SOL    HW221705   4.214   6.603   3.443
 6936SOL     OW21706   0.517   2.885   1.366
 6936SOL    HW121707   0.447   2.955   1.351
 6936SOL    HW221708   0.581   2.885   1.289
 6937SOL     OW21709   4.478   6.439   6.188
 6937SOL    HW121710   4.399   6.381   6.171
 6937SOL    HW221711   4.452   6.535   6.180
 6938SOL     OW21712   4.930   3.109   5.119
 6938SOL    HW121713   4.902   3.158   5.201
 6938SOL    HW221714   5.027   3.084   5.126
 6939SOL     OW21715   6.939   4.359   2.111
 6939SOL    HW121716   6.944   4.395   2.018
 6939SOL    HW221717   0.002   4.373   2.157
 6940SOL     OW21718   4.867   0.635   6.090
 6940SOL    HW121719   4.933   0.636   6.165
 6940SOL    HW221720   4.887   0.711   6.028
 6941SOL     OW21721   3.653   2.884   3.376
 6941SOL    HW121722   3.660   2.784   3.372
 6941SOL    HW221723   3.564   2.910   3.414
 6942SOL     OW21724   6.883   3.195   0.692
 6942SOL    HW121725   6.877   3.270   0.625
 6942SOL    HW221726   6.913   3.112   0.645
 6943SOL     OW21727   5.476   6.719   6.025
 6943SOL    HW121728   5.462   6.759   5.935
 6943SOL    HW221729   5.518   6.628   6.015
 6944SOL     OW21730   1.100   5.082   6.393
 6944SOL    HW121731   1.103   4.998   6.446
 6944SOL    HW221732   1.112   5.161   6.453
 6945SOL     OW21733   6.077   2.892   6.146
 6945SOL    HW121734   6.009   2.887   6.220
 6945SOL    HW221735   6.132   2.974   6.158
 6946SOL     OW21736   5.851   4.251   2.911
 6946SOL    HW121737   5.816   4.339   2.878
 6946SOL    HW221738   5.774   4.188   2.926
 6947SOL     OW21739   3.614   6.799   2.820
 6947SOL    HW121740   3.526   6.802   2.867
 6947SOL    HW221741   3.617   6.869   2.749
 6948SOL     OW21742   4.842   0.859   6.942
 6948SOL    HW121743   4.841   0.925   7.017
 6948SOL    HW221744   4.748   0.830   6.923
 6949SOL     OW21745   5.198   6.712   3.251
 6949SOL    HW121746   5.176   6.675   3.160
 6949SOL    HW221747   5.207   6.811   3.244
 6950SOL     OW21748   2.042   0.889   2.612
 6950SOL    HW121749   2.078   0.909   2.703
 6950SOL    HW221750   2.047   0.791   2.595
 6951SOL     OW21751   6.258   6.159   5.516
 6951SOL    HW121752   6.316   6.086   5.481
 6951SOL    HW221753   6.280   6.176   5.612
 6952SOL     OW21754   0.728   5.596   4.208
 6952SOL    HW121755   0.777   5.533   4.268
 6952SOL    HW221756   0.765   5.590   4.115
 6953SOL     OW21757   4.937   1.197   5.920
 6953SOL    HW121758   4.957   1.136   5.997
 6953SOL    HW221759   4.968   1.156   5.835
 6954SOL     OW21760   6.681   3.185   4.355
 6954SOL    HW121761   6.707   3.088   4.349
 6954SOL    HW221762   6.731   3.237   4.286
 6955SOL     OW21763   0.120   6.231   1.485
 6955SOL    HW121764   0.142   6.182   1.401
 6955SOL    HW221765   0.204   6.254   1.533
 6956SOL     OW21766   4.577   5.319   1.942
 6956SOL    HW121767   4.506   5.389   1.947
 6956SOL    HW221768   4.649   5.348   1.879
 6957SOL     OW21769   0.046   4.733   1.740
 6957SOL    HW121770   0.001   4.736   1.829
 6957SOL    HW221771   0.128   4.791   1.742
 6958SOL     OW21772   2.557   3.008   6.240
 6958SOL    HW121773   2.462   3.023   6.266
 6958SOL    HW221774   2.561   2.978   6.144
 6959SOL     OW21775   3.375   1.683   4.687
 6959SOL    HW121776   3.467   1.672   4.723
 6959SOL    HW221777   3.326   1.596   4.692
 6960SOL     OW21778   6.947   4.917   0.430
 6960SOL    HW121779   6.939   4.888   0.334
 6960SOL    HW221780   6.938   5.016   0.435
 6961SOL     OW21781   1.085   2.137   3.432
 6961SOL    HW121782   1.146   2.195   3.379
 6961SOL    HW221783   1.108   2.144   3.529
 6962SOL     OW21784   5.182   5.158   2.081
 6962SOL    HW121785   5.188   5.124   2.175
 6962SOL    HW221786   5.265   5.209   2.059
 6963SOL     OW21787   1.034   5.137   1.796
 6963SOL    HW121788   1.055   5.059   1.737
 6963SOL    HW221789   0.937   5.135   1.822
 6964SOL     OW21790   4.568   5.531   5.387
 6964SOL    HW121791   4.597   5.453   5.443
 6964SOL    HW221792   4.510   5.499   5.312
 6965SOL     OW21793   6.328   3.682   6.303
 6965SOL    HW121794   6.416   3.725   6.283
 6965SOL    HW221795   6.310   3.609   6.236
 6966SOL     OW21796   5.188   2.580   2.859
 6966SOL    HW121797   5.262   2.618   2.803
 6966SOL    HW221798   5.100   2.602   2.817
 6967SOL     OW21799   1.117   2.570   6.026
 6967SOL    HW121800   1.052   2.511   5.977
 6967SOL    HW221801   1.122   2.659   5.979
 6968SOL     OW21802   4.316   5.684   1.417
 6968SOL    HW121803   4.382   5.633   1.362
 6968SOL    HW221804   4.239   5.625   1.442
 6969SOL     OW21805   3.618   1.274   1.177
 6969SOL    HW121806   3.690   1.337   1.147
 6969SOL    HW221807   3.604   1.284   1.276
 6970SOL     OW21808   3.543   4.674   0.701
 6970SOL    HW121809   3.635   4.636   0.695
 6970SOL    HW221810   3.499   4.671   0.611
 6971SOL     OW21811   6.255   2.510   1.612
 6971SOL    HW121812   6.344   2.549   1.591
 6971SOL    HW221813   6.244   2.502   1.711
 6972SOL     OW21814   5.303   4.293   4.090
 6972SOL    HW121815   5.338   4.381   4.060
 6972SOL    HW221816   5.343   4.220   4.036
 6973SOL     OW21817   2.043   5.189   4.377
 6973SOL    HW121818   2.049   5.097   4.414
 6973SOL    HW221819   1.948   5.221   4.383
 6974SOL     OW21820   3.638   4.183   3.652
 6974SOL    HW121821   3.632   4.147   3.745
 6974SOL    HW221822   3.558   4.240   3.633
 6975SOL     OW21823   3.694   0.589   6.256
 6975SOL    HW121824   3.645   0.602   6.343
 6975SOL    HW221825   3.789   0.567   6.276
 6976SOL     OW21826   2.759   4.938   6.937
 6976SOL    HW121827   2.773   5.028   6.976
 6976SOL    HW221828   2.786   4.939   6.840
 6977SOL     OW21829   3.873   1.435   2.341
 6977SOL    HW121830   3.933   1.508   2.308
 6977SOL    HW221831   3.810   1.408   2.268
 6978SOL     OW21832   0.167   0.591   1.821
 6978SOL    HW121833   0.232   0.611   1.748
 6978SOL    HW221834   0.193   0.505   1.866
 6979SOL     OW21835   0.799   4.854   2.440
 6979SOL    HW121836   0.816   4.810   2.528
 6979SOL    HW221837   0.879   4.909   2.414
 6980SOL     OW21838   2.172   1.180   3.086
 6980SOL    HW121839   2.153   1.277   3.066
 6980SOL    HW221840   2.086   1.128   3.083
 6981SOL     OW21841   2.302   4.114   0.231
 6981SOL    HW121842   2.316   4.026   0.186
 6981SOL    HW221843   2.387   4.166   0.229
 6982SOL     OW21844   1.276   0.493   4.163
 6982SOL    HW121845   1.356   0.542   4.127
 6982SOL    HW221846   1.275   0.498   4.262
 6983SOL     OW21847   6.824   0.299   4.732
 6983SOL    HW121848   6.917   0.261   4.737
 6983SOL    HW221849   6.758   0.225   4.728
 6984SOL     OW21850   1.925   1.930   5.550
 6984SOL    HW121851   1.977   1.897   5.472
 6984SOL    HW221852   1.983   1.987   5.608
 6985SOL     OW21853   3.741   5.749   2.130
 6985SOL    HW121854   3.780   5.752   2.222
 6985SOL    HW221855   3.653   5.703   2.133
 6986SOL     OW21856   1.695   6.273   5.505
 6986SOL    HW121857   1.788   6.255   5.538
 6986SOL    HW221858   1.696   6.353   5.445
 6987SOL     OW21859   6.744   2.689   6.449
 6987SOL    HW121860   6.715   2.725   6.360
 6987SOL    HW221861   6.843   2.676   6.449
 6988SOL     OW21862   5.244   1.043   3.938
 6988SOL    HW121863   5.339   1.065   3.957
 6988SOL    HW221864   5.185   1.112   3.980
 6989SOL     OW21865   1.358   1.051   3.282
 6989SOL    HW121866   1.398   1.078   3.194
 6989SOL    HW221867   1.320   0.959   3.275
 6990SOL     OW21868   4.603   3.015   6.669
 6990SOL    HW121869   4.553   2.930   6.652
 6990SOL    HW221870   4.626   3.058   6.582
 6991SOL     OW21871   2.593   4.548   5.640
 6991SOL    HW121872   2.689   4.518   5.636
 6991SOL    HW221873   2.548   4.529   5.553
 6992SOL     OW21874   6.093   6.317   4.457
 6992SOL    HW121875   6.127   6.254   4.387
 6992SOL    HW221876   6.163   6.385   4.478
 6993SOL     OW21877   6.981   0.122   3.215
 6993SOL    HW121878   0.044   0.099   3.256
 6993SOL    HW221879   6.932   0.038   3.192
 6994SOL     OW21880   1.837   3.555   5.728
 6994SOL    HW121881   1.741   3.528   5.734
 6994SOL    HW221882   1.843   3.655   5.722
 6995SOL     OW21883   6.014   5.747   4.769
 6995SOL    HW121884   5.941   5.715   4.830
 6995SOL    HW221885   5.988   5.729   4.674
 6996SOL     OW21886   2.803   0.943   5.291
 6996SOL    HW121887   2.762   0.938   5.200
 6996SOL    HW221888   2.795   0.855   5.337
 6997SOL     OW21889   4.965   6.051   4.814
 6997SOL    HW121890   5.031   6.106   4.763
 6997SOL    HW221891   4.963   6.082   4.909
 6998SOL     OW21892   1.986   2.685   1.439
 6998SOL    HW121893   1.928   2.765   1.450
 6998SOL    HW221894   2.041   2.694   1.356
 6999SOL     OW21895   2.056   2.137   6.040
 6999SOL    HW121896   2.120   2.212   6.023
 6999SOL    HW221897   2.086   2.084   6.119
 7000SOL     OW21898   0.539   6.268   2.958
 7000SOL    HW121899   0.510   6.184   2.913
 7000SOL    HW221900   0.474   6.291   3.031
 7001SOL     OW21901   2.351   2.799   5.936
 7001SOL    HW121902   2.433   2.853   5.921
 7001SOL    HW221903   2.304   2.832   6.019
 7002SOL     OW21904   1.955   5.029   4.122
 7002SOL    HW121905   2.055   5.028   4.130
 7002SOL    HW221906   1.915   4.979   4.198
 7003SOL     OW21907   3.109   6.765   0.637
 7003SOL    HW121908   3.161   6.731   0.715
 7003SOL    HW221909   3.118   6.865   0.631
 7004SOL     OW21910   2.209   4.306   1.573
 7004SOL    HW121911   2.128   4.264   1.532
 7004SOL    HW221912   2.180   4.384   1.629
 7005SOL     OW21913   5.815   6.174   6.266
 7005SOL    HW121914   5.913   6.193   6.251
 7005SOL    HW221915   5.786   6.219   6.350
 7006SOL     OW21916   4.913   4.025   4.797
 7006SOL    HW121917   4.946   4.095   4.861
 7006SOL    HW221918   4.939   3.934   4.830
 7007SOL     OW21919   5.123   6.525   3.052
 7007SOL    HW121920   5.177   6.516   2.968
 7007SOL    HW221921   5.029   6.547   3.028
 7008SOL     OW21922   2.207   5.321   4.559
 7008SOL    HW121923   2.177   5.372   4.639
 7008SOL    HW221924   2.131   5.316   4.493
 7009SOL     OW21925   5.958   5.749   2.333
 7009SOL    HW121926   5.901   5.782   2.258
 7009SOL    HW221927   6.038   5.809   2.342
 7010SOL     OW21928   3.214   4.653   5.958
 7010SOL    HW121929   3.246   4.684   5.869
 7010SOL    HW221930   3.134   4.708   5.985
 7011SOL     OW21931   2.319   6.933   5.596
 7011SOL    HW121932   2.312   6.884   5.509
 7011SOL    HW221933   2.414   6.953   5.616
 7012SOL     OW21934   1.022   6.860   1.894
 7012SOL    HW121935   1.022   6.787   1.961
 7012SOL    HW221936   1.109   6.909   1.898
 7013SOL     OW21937   1.135   0.023   1.309
 7013SOL    HW121938   1.041   0.057   1.317
 7013SOL    HW221939   1.187   0.083   1.248
 7014SOL     OW21940   3.354   4.435   1.119
 7014SOL    HW121941   3.354   4.523   1.073
 7014SOL    HW221942   3.302   4.442   1.204
 7015SOL     OW21943   5.300   2.906   2.448
 7015SOL    HW121944   5.231   2.888   2.517
 7015SOL    HW221945   5.380   2.949   2.490
 7016SOL     OW21946   4.743   5.106   2.078
 7016SOL    HW121947   4.674   5.166   2.036
 7016SOL    HW221948   4.705   5.014   2.088
 7017SOL     OW21949   3.060   1.704   3.388
 7017SOL    HW121950   3.024   1.720   3.296
 7017SOL    HW221951   2.984   1.683   3.450
 7018SOL     OW21952   0.161   4.135   4.719
 7018SOL    HW121953   0.142   4.122   4.817
 7018SOL    HW221954   0.145   4.231   4.695
 7019SOL     OW21955   2.293   4.703   6.562
 7019SOL    HW121956   2.264   4.609   6.579
 7019SOL    HW221957   2.236   4.765   6.615
 7020SOL     OW21958   6.134   0.128   0.186
 7020SOL    HW121959   6.097   0.093   0.100
 7020SOL    HW221960   6.234   0.134   0.180
 7021SOL     OW21961   2.457   1.079   4.884
 7021SOL    HW121962   2.410   1.059   4.969
 7021SOL    HW221963   2.391   1.114   4.817
 7022SOL     OW21964   5.246   3.373   0.749
 7022SOL    HW121965   5.211   3.355   0.657
 7022SOL    HW221966   5.230   3.469   0.773
 7023SOL     OW21967   6.157   2.596   2.412
 7023SOL    HW121968   6.128   2.577   2.318
 7023SOL    HW221969   6.138   2.516   2.469
 7024SOL     OW21970   1.842   6.048   6.340
 7024SOL    HW121971   1.834   6.090   6.431
 7024SOL    HW221972   1.871   5.953   6.350
 7025SOL     OW21973   2.965   2.152   6.744
 7025SOL    HW121974   2.870   2.152   6.777
 7025SOL    HW221975   2.969   2.198   6.656
 7026SOL     OW21976   3.277   1.682   2.199
 7026SOL    HW121977   3.229   1.635   2.124
 7026SOL    HW221978   3.373   1.654   2.199
 7027SOL     OW21979   4.092   5.554   3.756
 7027SOL    HW121980   4.002   5.530   3.791
 7027SOL    HW221981   4.159   5.549   3.829
 7028SOL     OW21982   4.833   0.070   3.497
 7028SOL    HW121983   4.879   7.006   3.488
 7028SOL    HW221984   4.820   0.091   3.594
 7029SOL     OW21985   3.566   6.486   0.202
 7029SOL    HW121986   3.524   6.425   0.135
 7029SOL    HW221987   3.624   6.552   0.156
 7030SOL     OW21988   0.401   3.579   5.665
 7030SOL    HW121989   0.459   3.638   5.721
 7030SOL    HW221990   0.396   3.488   5.707
 7031SOL     OW21991   2.384   5.836   4.289
 7031SOL    HW121992   2.319   5.823   4.214
 7031SOL    HW221993   2.472   5.794   4.265
 7032SOL     OW21994   4.436   6.692   3.135
 7032SOL    HW121995   4.339   6.667   3.139
 7032SOL    HW221996   4.444   6.784   3.094
 7033SOL     OW21997   6.981   0.980   3.810
 7033SOL    HW121998   6.891   0.971   3.766
 7033SOL    HW221999   0.018   0.910   3.773
 7034SOL     OW22000   4.943   0.166   3.073
 7034SOL    HW122001   4.900   0.150   2.984
 7034SOL    HW222002   4.887   0.125   3.145
 7035SOL     OW22003   0.639   6.239   2.685
 7035SOL    HW122004   0.623   6.151   2.641
 7035SOL    HW222005   0.617   6.234   2.782
 7036SOL     OW22006   6.825   5.914   2.012
 7036SOL    HW122007   6.885   5.904   1.932
 7036SOL    HW222008   6.818   6.010   2.036
 7037SOL     OW22009   0.438   6.132   5.377
 7037SOL    HW122010   0.509   6.138   5.307
 7037SOL    HW222011   0.479   6.110   5.465
 7038SOL     OW22012   0.943   3.997   3.364
 7038SOL    HW122013   0.902   3.911   3.394
 7038SOL    HW222014   1.002   4.032   3.436
 7039SOL     OW22015   3.934   0.117   6.703
 7039SOL    HW122016   3.984   0.199   6.730
 7039SOL    HW222017   3.970   0.083   6.616
 7040SOL     OW22018   4.511   2.940   6.121
 7040SOL    HW122019   4.596   2.950   6.173
 7040SOL    HW222020   4.482   3.030   6.087
 7041SOL     OW22021   1.153   1.025   2.920
 7041SOL    HW122022   1.056   1.044   2.909
 7041SOL    HW222023   1.171   0.929   2.900
 7042SOL     OW22024   4.635   5.703   5.977
 7042SOL    HW122025   4.726   5.669   5.952
 7042SOL    HW222026   4.632   5.721   6.075
 7043SOL     OW22027   1.335   2.798   3.213
 7043SOL    HW122028   1.385   2.780   3.128
 7043SOL    HW222029   1.396   2.842   3.279
 7044SOL     OW22030   4.588   4.888   2.541
 7044SOL    HW122031   4.666   4.951   2.540
 7044SOL    HW222032   4.527   4.911   2.617
 7045SOL     OW22033   4.724   6.632   1.038
 7045SOL    HW122034   4.769   6.689   0.970
 7045SOL    HW222035   4.722   6.680   1.126
 7046SOL     OW22036   4.005   0.723   4.898
 7046SOL    HW122037   3.982   0.767   4.985
 7046SOL    HW222038   4.092   0.675   4.906
 7047SOL     OW22039   0.534   1.845   3.610
 7047SOL    HW122040   0.492   1.765   3.567
 7047SOL    HW222041   0.618   1.869   3.561
 7048SOL     OW22042   0.495   5.945   1.314
 7048SOL    HW122043   0.442   5.895   1.245
 7048SOL    HW222044   0.547   5.881   1.369
 7049SOL     OW22045   1.467   1.092   0.598
 7049SOL    HW122046   1.416   1.034   0.535
 7049SOL    HW222047   1.487   1.042   0.682
 7050SOL     OW22048   3.708   4.109   4.645
 7050SOL    HW122049   3.789   4.086   4.698
 7050SOL    HW222050   3.730   4.104   4.547
 7051SOL     OW22051   6.900   0.723   1.086
 7051SOL    HW122052   6.845   0.711   1.003
 7051SOL    HW222053   6.839   0.729   1.165
 7052SOL     OW22054   6.839   2.103   4.326
 7052SOL    HW122055   6.769   2.033   4.315
 7052SOL    HW222056   6.909   2.070   4.389
 7053SOL     OW22057   0.511   3.908   6.332
 7053SOL    HW122058   0.495   3.880   6.427
 7053SOL    HW222059   0.607   3.930   6.319
 7054SOL     OW22060   6.728   6.496   1.365
 7054SOL    HW122061   6.828   6.493   1.359
 7054SOL    HW222062   6.692   6.557   1.295
 7055SOL     OW22063   4.520   0.482   5.922
 7055SOL    HW122064   4.605   0.490   5.973
 7055SOL    HW222065   4.446   0.459   5.985
 7056SOL     OW22066   5.574   4.701   2.987
 7056SOL    HW122067   5.625   4.731   3.067
 7056SOL    HW222068   5.478   4.727   2.997
 7057SOL     OW22069   0.089   4.312   4.166
 7057SOL    HW122070   0.030   4.295   4.245
 7057SOL    HW222071   0.183   4.325   4.197
 7058SOL     OW22072   0.239   5.597   4.643
 7058SOL    HW122073   0.167   5.588   4.712
 7058SOL    HW222074   0.326   5.616   4.689
 7059SOL     OW22075   0.375   0.037   1.716
 7059SOL    HW122076   0.318   7.016   1.649
 7059SOL    HW222077   0.421   0.115   1.674
 7060SOL     OW22078   2.992   0.183   1.572
 7060SOL    HW122079   2.957   0.197   1.480
 7060SOL    HW222080   3.059   0.254   1.594
 7061SOL     OW22081   0.225   1.709   3.096
 7061SOL    HW122082   0.265   1.637   3.153
 7061SOL    HW222083   0.148   1.750   3.145
 7062SOL     OW22084   5.954   2.004   5.532
 7062SOL    HW122085   5.866   2.026   5.575
 7062SOL    HW222086   5.962   1.904   5.524
 7063SOL     OW22087   1.504   6.099   1.239
 7063SOL    HW122088   1.470   6.098   1.145
 7063SOL    HW222089   1.446   6.159   1.295
 7064SOL     OW22090   4.164   2.502   1.398
 7064SOL    HW122091   4.226   2.425   1.414
 7064SOL    HW222092   4.211   2.570   1.341
 7065SOL     OW22093   4.540   4.111   1.407
 7065SOL    HW122094   4.527   4.153   1.497
 7065SOL    HW222095   4.609   4.039   1.414
 7066SOL     OW22096   3.937   1.036   0.442
 7066SOL    HW122097   3.984   1.020   0.528
 7066SOL    HW222098   3.982   1.111   0.392
 7067SOL     OW22099   1.263   4.027   5.533
 7067SOL    HW122100   1.167   4.051   5.516
 7067SOL    HW222101   1.287   4.050   5.627
 7068SOL     OW22102   0.607   2.845   3.261
 7068SOL    HW122103   0.565   2.772   3.208
 7068SOL    HW222104   0.576   2.839   3.356
 7069SOL     OW22105   6.469   3.570   5.263
 7069SOL    HW122106   6.472   3.656   5.313
 7069SOL    HW222107   6.375   3.550   5.236
 7070SOL     OW22108   6.580   4.778   5.250
 7070SOL    HW122109   6.513   4.820   5.312
 7070SOL    HW222110   6.625   4.850   5.196
 7071SOL     OW22111   1.094   6.107   5.071
 7071SOL    HW122112   1.139   6.196   5.076
 7071SOL    HW222113   1.086   6.068   5.163
 7072SOL     OW22114   6.732   6.326   5.891
 7072SOL    HW122115   6.821   6.370   5.895
 7072SOL    HW222116   6.664   6.390   5.856
 7073SOL     OW22117   0.098   0.857   5.549
 7073SOL    HW122118   0.036   0.887   5.622
 7073SOL    HW222119   0.171   0.800   5.588
 7074SOL     OW22120   3.147   2.881   1.915
 7074SOL    HW122121   3.247   2.881   1.902
 7074SOL    HW222122   3.104   2.832   1.838
 7075SOL     OW22123   1.821   5.826   4.516
 7075SOL    HW122124   1.860   5.915   4.537
 7075SOL    HW222125   1.894   5.759   4.502
 7076SOL     OW22126   3.333   2.203   6.976
 7076SOL    HW122127   3.341   2.109   6.944
 7076SOL    HW222128   3.417   2.253   6.953
 7077SOL     OW22129   1.945   5.467   5.310
 7077SOL    HW122130   1.939   5.377   5.354
 7077SOL    HW222131   1.997   5.529   5.369
 7078SOL     OW22132   6.103   6.629   2.828
 7078SOL    HW122133   6.122   6.608   2.924
 7078SOL    HW222134   6.189   6.633   2.777
 7079SOL     OW22135   6.779   6.071   5.297
 7079SOL    HW122136   6.750   6.003   5.363
 7079SOL    HW222137   6.702   6.097   5.239
 7080SOL     OW22138   4.377   2.423   3.361
 7080SOL    HW122139   4.438   2.420   3.440
 7080SOL    HW222140   4.401   2.502   3.304
 7081SOL     OW22141   3.325   1.192   4.958
 7081SOL    HW122142   3.365   1.140   4.882
 7081SOL    HW222143   3.280   1.274   4.921
 7082SOL     OW22144   5.377   0.980   0.163
 7082SOL    HW122145   5.388   0.981   0.064
 7082SOL    HW222146   5.445   0.920   0.204
 7083SOL     OW22147   2.904   1.559   6.713
 7083SOL    HW122148   2.830   1.511   6.666
 7083SOL    HW222149   2.887   1.657   6.711
 7084SOL     OW22150   6.827   6.741   5.461
 7084SOL    HW122151   6.780   6.816   5.508
 7084SOL    HW222152   6.899   6.704   5.520
 7085SOL     OW22153   2.485   2.238   3.088
 7085SOL    HW122154   2.491   2.227   2.989
 7085SOL    HW222155   2.543   2.314   3.117
 7086SOL     OW22156   5.586   0.649   6.436
 7086SOL    HW122157   5.500   0.600   6.449
 7086SOL    HW222158   5.663   0.587   6.451
 7087SOL     OW22159   1.019   3.196   4.530
 7087SOL    HW122160   0.964   3.238   4.458
 7087SOL    HW222161   1.113   3.185   4.498
 7088SOL     OW22162   4.833   2.847   4.254
 7088SOL    HW122163   4.830   2.932   4.306
 7088SOL    HW222164   4.823   2.867   4.156
 7089SOL     OW22165   3.504   2.761   5.920
 7089SOL    HW122166   3.590   2.802   5.952
 7089SOL    HW222167   3.445   2.743   5.998
 7090SOL     OW22168   1.925   1.379   5.444
 7090SOL    HW122169   1.846   1.356   5.501
 7090SOL    HW222170   2.009   1.343   5.487
 7091SOL     OW22171   6.983   0.903   6.921
 7091SOL    HW122172   0.022   0.933   6.991
 7091SOL    HW222173   6.899   0.958   6.927
 7092SOL     OW22174   4.087   4.004   0.239
 7092SOL    HW122175   4.059   3.928   0.180
 7092SOL    HW222176   4.186   4.014   0.235
 7093SOL     OW22177   3.712   4.158   4.353
 7093SOL    HW122178   3.777   4.119   4.288
 7093SOL    HW222179   3.655   4.226   4.307
 7094SOL     OW22180   0.434   6.901   5.752
 7094SOL    HW122181   0.350   6.847   5.748
 7094SOL    HW222182   0.508   6.849   5.710
 7095SOL     OW22183   1.846   2.918   6.557
 7095SOL    HW122184   1.752   2.939   6.585
 7095SOL    HW222185   1.902   3.001   6.564
 7096SOL     OW22186   5.195   2.128   3.839
 7096SOL    HW122187   5.118   2.149   3.779
 7096SOL    HW222188   5.256   2.063   3.794
 7097SOL     OW22189   6.774   0.341   1.749
 7097SOL    HW122190   6.836   0.269   1.716
 7097SOL    HW222191   6.827   0.422   1.774
 7098SOL     OW22192   1.459   6.071   4.982
 7098SOL    HW122193   1.514   6.154   4.976
 7098SOL    HW222194   1.388   6.083   5.052
 7099SOL     OW22195   1.235   1.498   5.045
 7099SOL    HW122196   1.257   1.413   5.094
 7099SOL    HW222197   1.199   1.476   4.955
 7100SOL     OW22198   4.945   3.984   1.005
 7100SOL    HW122199   4.856   3.981   1.052
 7100SOL    HW222200   4.955   3.903   0.948
 7101SOL     OW22201   2.837   0.140   4.858
 7101SOL    HW122202   2.844   0.119   4.761
 7101SOL    HW222203   2.841   0.055   4.911
 7102SOL     OW22204   4.290   1.203   0.917
 7102SOL    HW122205   4.217   1.140   0.889
 7102SOL    HW222206   4.323   1.176   1.008
 7103SOL     OW22207   3.639   5.781   6.573
 7103SOL    HW122208   3.630   5.682   6.565
 7103SOL    HW222209   3.553   5.820   6.606
 7104SOL     OW22210   1.536   3.121   3.601
 7104SOL    HW122211   1.539   3.186   3.677
 7104SOL    HW222212   1.624   3.073   3.595
 7105SOL     OW22213   3.396   3.409   4.917
 7105SOL    HW122214   3.410   3.364   4.829
 7105SOL    HW222215   3.380   3.341   4.988
 7106SOL     OW22216   3.796   3.006   4.267
 7106SOL    HW122217   3.753   3.094   4.248
 7106SOL    HW222218   3.751   2.963   4.345
 7107SOL     OW22219   2.683   1.413   0.040
 7107SOL    HW122220   2.709   1.322   0.072
 7107SOL    HW222221   2.704   1.480   0.112
 7108SOL     OW22222   4.112   6.603   1.455
 7108SOL    HW122223   4.032   6.546   1.474
 7108SOL    HW222224   4.124   6.613   1.356
 7109SOL     OW22225   3.473   6.948   6.103
 7109SOL    HW122226   3.530   7.000   6.039
 7109SOL    HW222227   3.379   6.945   6.068
 7110SOL     OW22228   5.364   5.356   4.074
 7110SOL    HW122229   5.393   5.297   4.149
 7110SOL    HW222230   5.404   5.323   3.988
 7111SOL     OW22231   1.419   3.352   4.316
 7111SOL    HW122232   1.488   3.425   4.313
 7111SOL    HW222233   1.348   3.371   4.249
 7112SOL     OW22234   1.714   5.849   4.233
 7112SOL    HW122235   1.634   5.799   4.199
 7112SOL    HW222236   1.739   5.814   4.324
 7113SOL     OW22237   3.947   3.735   4.805
 7113SOL    HW122238   3.971   3.682   4.886
 7113SOL    HW222239   4.020   3.727   4.737
 7114SOL     OW22240   4.156   0.276   1.835
 7114SOL    HW122241   4.241   0.227   1.811
 7114SOL    HW222242   4.084   0.251   1.770
 7115SOL     OW22243   5.235   2.108   1.247
 7115SOL    HW122244   5.312   2.169   1.262
 7115SOL    HW222245   5.162   2.129   1.312
 7116SOL     OW22246   6.131   4.308   3.787
 7116SOL    HW122247   6.096   4.292   3.695
 7116SOL    HW222248   6.184   4.393   3.787
 7117SOL     OW22249   0.083   6.240   3.754
 7117SOL    HW122250   0.024   6.315   3.784
 7117SOL    HW222251   0.031   6.179   3.694
 7118SOL     OW22252   5.335   3.956   1.366
 7118SOL    HW122253   5.332   3.983   1.462
 7118SOL    HW222254   5.266   4.007   1.314
 7119SOL     OW22255   5.432   1.017   3.183
 7119SOL    HW122256   5.520   1.016   3.136
 7119SOL    HW222257   5.446   1.040   3.280
 7120SOL     OW22258   4.491   1.488   2.696
 7120SOL    HW122259   4.573   1.449   2.737
 7120SOL    HW222260   4.410   1.451   2.742
 7121SOL     OW22261   2.225   0.112   3.606
 7121SOL    HW122262   2.128   0.126   3.626
 7121SOL    HW222263   2.237   0.026   3.557
 7122SOL     OW22264   6.778   1.048   0.198
 7122SOL    HW122265   6.703   0.982   0.206
 7122SOL    HW222266   6.782   1.082   0.104
 7123SOL     OW22267   2.813   5.696   1.742
 7123SOL    HW122268   2.819   5.616   1.802
 7123SOL    HW222269   2.754   5.765   1.785
 7124SOL     OW22270   0.874   4.955   0.854
 7124SOL    HW122271   0.945   4.896   0.815
 7124SOL    HW222272   0.825   4.905   0.926
 7125SOL     OW22273   6.416   6.227   1.460
 7125SOL    HW122274   6.385   6.287   1.386
 7125SOL    HW222275   6.406   6.131   1.431
 7126SOL     OW22276   2.358   3.685   0.552
 7126SOL    HW122277   2.281   3.681   0.488
 7126SOL    HW222278   2.324   3.707   0.643
 7127SOL     OW22279   3.185   5.412   4.356
 7127SOL    HW122280   3.276   5.430   4.394
 7127SOL    HW222281   3.145   5.333   4.403
 7128SOL     OW22282   3.238   4.917   0.580
 7128SOL    HW122283   3.296   4.921   0.499
 7128SOL    HW222284   3.142   4.918   0.552
 7129SOL     OW22285   3.086   0.783   1.284
 7129SOL    HW122286   3.178   0.770   1.247
 7129SOL    HW222287   3.039   0.695   1.290
 7130SOL     OW22288   3.321   5.127   4.231
 7130SOL    HW122289   3.334   5.220   4.267
 7130SOL    HW222290   3.271   5.072   4.298
 7131SOL     OW22291   2.569   1.582   1.265
 7131SOL    HW122292   2.489   1.638   1.287
 7131SOL    HW222293   2.640   1.640   1.223
 7132SOL     OW22294   4.050   3.707   2.854
 7132SOL    HW122295   4.014   3.786   2.904
 7132SOL    HW222296   4.057   3.629   2.915
 7133SOL     OW22297   5.117   5.030   3.103
 7133SOL    HW122298   5.145   5.080   3.020
 7133SOL    HW222299   5.037   4.974   3.082
 7134SOL     OW22300   6.301   6.097   3.930
 7134SOL    HW122301   6.286   6.104   3.832
 7134SOL    HW222302   6.235   6.155   3.978
 7135SOL     OW22303   1.233   0.822   4.411
 7135SOL    HW122304   1.225   0.888   4.337
 7135SOL    HW222305   1.308   0.758   4.391
 7136SOL     OW22306   1.564   1.630   0.635
 7136SOL    HW122307   1.602   1.555   0.688
 7136SOL    HW222308   1.471   1.649   0.666
 7137SOL     OW22309   4.305   1.031   4.683
 7137SOL    HW122310   4.317   0.932   4.672
 7137SOL    HW222311   4.233   1.062   4.621
 7138SOL     OW22312   3.296   2.992   1.598
 7138SOL    HW122313   3.371   2.926   1.607
 7138SOL    HW222314   3.302   3.060   1.671
 7139SOL     OW22315   4.932   3.275   2.148
 7139SOL    HW122316   4.862   3.209   2.118
 7139SOL    HW222317   4.992   3.297   2.072
 7140SOL     OW22318   5.898   3.168   5.309
 7140SOL    HW122319   5.852   3.151   5.221
 7140SOL    HW222320   5.866   3.102   5.376
 7141SOL     OW22321   3.382   0.192   1.149
 7141SOL    HW122322   3.474   0.218   1.179
 7141SOL    HW222323   3.314   0.242   1.202
 7142SOL     OW22324   4.457   0.181   3.791
 7142SOL    HW122325   4.474   0.217   3.699
 7142SOL    HW222326   4.360   0.187   3.812
 7143SOL     OW22327   1.810   3.396   6.032
 7143SOL    HW122328   1.758   3.460   5.976
 7143SOL    HW222329   1.783   3.302   6.008
 7144SOL     OW22330   0.913   0.918   2.821
 7144SOL    HW122331   0.839   0.969   2.865
 7144SOL    HW222332   0.898   0.916   2.722
 7145SOL     OW22333   4.324   6.731   6.305
 7145SOL    HW122334   4.411   6.722   6.353
 7145SOL    HW222335   4.341   6.760   6.211
 7146SOL     OW22336   2.400   6.668   0.869
 7146SOL    HW122337   2.492   6.703   0.883
 7146SOL    HW222338   2.336   6.745   0.862
 7147SOL     OW22339   6.667   6.857   3.720
 7147SOL    HW122340   6.622   6.936   3.679
 7147SOL    HW222341   6.748   6.887   3.771
 7148SOL     OW22342   0.847   6.128   1.503
 7148SOL    HW122343   0.768   6.144   1.444
 7148SOL    HW222344   0.910   6.205   1.496
 7149SOL     OW22345   6.697   0.303   3.667
 7149SOL    HW122346   6.736   0.238   3.602
 7149SOL    HW222347   6.636   0.366   3.619
 7150SOL     OW22348   4.576   3.148   1.381
 7150SOL    HW122349   4.580   3.217   1.308
 7150SOL    HW222350   4.623   3.182   1.462
 7151SOL     OW22351   1.233   5.536   0.562
 7151SOL    HW122352   1.321   5.526   0.608
 7151SOL    HW222353   1.234   5.618   0.505
 7152SOL     OW22354   0.694   3.450   5.645
 7152SOL    HW122355   0.616   3.391   5.668
 7152SOL    HW222356   0.761   3.447   5.720
 7153SOL     OW22357   4.077   6.822   5.461
 7153SOL    HW122358   4.011   6.895   5.447
 7153SOL    HW222359   4.045   6.759   5.532
 7154SOL     OW22360   4.110   5.624   4.674
 7154SOL    HW122361   4.128   5.527   4.659
 7154SOL    HW222362   4.090   5.668   4.586
 7155SOL     OW22363   1.489   6.065   2.042
 7155SOL    HW122364   1.560   6.116   2.091
 7155SOL    HW222365   1.492   5.969   2.070
 7156SOL     OW22366   0.175   5.048   4.721
 7156SOL    HW122367   0.080   5.021   4.732
 7156SOL    HW222368   0.191   5.135   4.768
 7157SOL     OW22369   6.240   5.272   0.490
 7157SOL    HW122370   6.146   5.304   0.488
 7157SOL    HW222371   6.302   5.348   0.472
 7158SOL     OW22372   6.913   6.750   3.254
 7158SOL    HW122373   7.001   6.718   3.217
 7158SOL    HW222374   6.927   6.786   3.346
 7159SOL     OW22375   0.391   4.503   1.549
 7159SOL    HW122376   0.337   4.513   1.632
 7159SOL    HW222377   0.409   4.593   1.510
 7160SOL     OW22378   6.507   0.270   1.674
 7160SOL    HW122379   6.598   0.309   1.667
 7160SOL    HW222380   6.473   0.281   1.768
 7161SOL     OW22381   3.414   3.932   3.886
 7161SOL    HW122382   3.431   3.881   3.970
 7161SOL    HW222383   3.483   4.003   3.876
 7162SOL     OW22384   3.288   5.350   5.087
 7162SOL    HW122385   3.332   5.385   5.169
 7162SOL    HW222386   3.246   5.262   5.107
 7163SOL     OW22387   3.615   0.614   3.737
 7163SOL    HW122388   3.565   0.622   3.824
 7163SOL    HW222389   3.710   0.589   3.755
 7164SOL     OW22390   1.946   1.498   2.545
 7164SOL    HW122391   1.879   1.518   2.474
 7164SOL    HW222392   1.987   1.408   2.529
 7165SOL     OW22393   5.881   0.895   0.563
 7165SOL    HW122394   5.952   0.844   0.513
 7165SOL    HW222395   5.920   0.930   0.649
 7166SOL     OW22396   4.938   4.537   1.714
 7166SOL    HW122397   4.993   4.613   1.681
 7166SOL    HW222398   4.860   4.571   1.767
 7167SOL     OW22399   5.137   3.864   5.109
 7167SOL    HW122400   5.216   3.907   5.065
 7167SOL    HW222401   5.076   3.828   5.039
 7168SOL     OW22402   1.351   1.558   3.957
 7168SOL    HW122403   1.450   1.545   3.952
 7168SOL    HW222404   1.331   1.653   3.981
 7169SOL     OW22405   1.963   3.313   5.701
 7169SOL    HW122406   1.947   3.405   5.735
 7169SOL    HW222407   1.876   3.263   5.700
 7170SOL     OW22408   4.756   5.196   2.767
 7170SOL    HW122409   4.669   5.230   2.731
 7170SOL    HW222410   4.746   5.101   2.794
 7171SOL     OW22411   4.819   3.184   5.693
 7171SOL    HW122412   4.772   3.137   5.618
 7171SOL    HW222413   4.808   3.132   5.777
 7172SOL     OW22414   1.420   6.765   6.964
 7172SOL    HW122415   1.477   6.833   6.918
 7172SOL    HW222416   1.441   6.674   6.928
 7173SOL     OW22417   6.242   5.157   4.353
 7173SOL    HW122418   6.284   5.088   4.411
 7173SOL    HW222419   6.301   5.238   4.350
 7174SOL     OW22420   1.574   5.219   6.630
 7174SOL    HW122421   1.620   5.212   6.542
 7174SOL    HW222422   1.550   5.127   6.663
 7175SOL     OW22423   5.163   3.695   1.062
 7175SOL    HW122424   5.152   3.685   0.964
 7175SOL    HW222425   5.081   3.661   1.109
 7176SOL     OW22426   0.021   5.097   2.608
 7176SOL    HW122427   0.060   5.006   2.590
 7176SOL    HW222428   0.080   5.146   2.672
 7177SOL     OW22429   1.868   6.085   4.049
 7177SOL    HW122430   1.817   6.019   4.105
 7177SOL    HW222431   1.958   6.101   4.089
 7178SOL     OW22432   2.121   2.627   5.868
 7178SOL    HW122433   2.207   2.672   5.892
 7178SOL    HW222434   2.124   2.599   5.772
 7179SOL     OW22435   2.497   3.361   5.721
 7179SOL    HW122436   2.496   3.421   5.641
 7179SOL    HW222437   2.403   3.333   5.742
 7180SOL     OW22438   0.841   5.205   6.640
 7180SOL    HW122439   0.768   5.151   6.682
 7180SOL    HW222440   0.921   5.204   6.699
 7181SOL     OW22441   3.843   0.671   0.358
 7181SOL    HW122442   3.913   0.651   0.289
 7181SOL    HW222443   3.786   0.748   0.326
 7182SOL     OW22444   1.956   3.938   5.566
 7182SOL    HW122445   2.052   3.966   5.565
 7182SOL    HW222446   1.944   3.860   5.505
 7183SOL     OW22447   1.864   5.090   2.627
 7183SOL    HW122448   1.868   4.997   2.665
 7183SOL    HW222449   1.905   5.154   2.692
 7184SOL     OW22450   1.067   6.835   3.762
 7184SOL    HW122451   1.086   6.924   3.804
 7184SOL    HW222452   1.148   6.803   3.713
 7185SOL     OW22453   5.054   2.586   6.743
 7185SOL    HW122454   5.051   2.508   6.681
 7185SOL    HW222455   5.141   2.586   6.792
 7186SOL     OW22456   6.879   0.060   5.334
 7186SOL    HW122457   6.800   0.041   5.393
 7186SOL    HW222458   6.943   7.009   5.339
 7187SOL     OW22459   2.061   4.488   1.709
 7187SOL    HW122460   2.115   4.569   1.730
 7187SOL    HW222461   1.964   4.505   1.730
 7188SOL     OW22462   5.594   0.108   1.566
 7188SOL    HW122463   5.579   0.184   1.630
 7188SOL    HW222464   5.557   0.024   1.605
 7189SOL     OW22465   6.318   1.657   6.406
 7189SOL    HW122466   6.304   1.642   6.504
 7189SOL    HW222467   6.232   1.685   6.363
 7190SOL     OW22468   5.493   3.947   3.518
 7190SOL    HW122469   5.579   3.905   3.548
 7190SOL    HW222470   5.498   4.046   3.534
 7191SOL     OW22471   1.125   3.825   2.532
 7191SOL    HW122472   1.098   3.797   2.440
 7191SOL    HW222473   1.088   3.760   2.599
 7192SOL     OW22474   2.209   6.187   5.775
 7192SOL    HW122475   2.126   6.219   5.820
 7192SOL    HW222476   2.268   6.140   5.841
 7193SOL     OW22477   2.924   2.173   4.376
 7193SOL    HW122478   3.011   2.195   4.419
 7193SOL    HW222479   2.933   2.178   4.276
 7194SOL     OW22480   1.978   1.513   1.245
 7194SOL    HW122481   1.987   1.498   1.147
 7194SOL    HW222482   1.882   1.506   1.272
 7195SOL     OW22483   0.490   4.859   0.445
 7195SOL    HW122484   0.430   4.794   0.399
 7195SOL    HW222485   0.473   4.951   0.409
 7196SOL     OW22486   3.042   3.146   3.320
 7196SOL    HW122487   2.985   3.064   3.331
 7196SOL    HW222488   3.082   3.146   3.228
 7197SOL     OW22489   6.847   2.179   5.313
 7197SOL    HW122490   6.774   2.143   5.255
 7197SOL    HW222491   6.930   2.190   5.259
 7198SOL     OW22492   1.611   6.836   5.742
 7198SOL    HW122493   1.545   6.791   5.683
 7198SOL    HW222494   1.569   6.857   5.830
 7199SOL     OW22495   0.709   0.736   2.514
 7199SOL    HW122496   0.754   0.653   2.547
 7199SOL    HW222497   0.644   0.713   2.442
 7200SOL     OW22498   2.180   1.119   0.634
 7200SOL    HW122499   2.134   1.207   0.643
 7200SOL    HW222500   2.199   1.101   0.537
 7201SOL     OW22501   1.788   4.813   2.935
 7201SOL    HW122502   1.799   4.908   2.965
 7201SOL    HW222503   1.716   4.769   2.987
 7202SOL     OW22504   3.916   0.084   6.395
 7202SOL    HW122505   3.923   0.080   6.295
 7202SOL    HW222506   3.846   0.020   6.427
 7203SOL     OW22507   6.409   0.273   0.635
 7203SOL    HW122508   6.438   0.177   0.642
 7203SOL    HW222509   6.479   0.332   0.674
 7204SOL     OW22510   6.387   0.076   3.718
 7204SOL    HW122511   6.344   0.156   3.677
 7204SOL    HW222512   6.318   0.006   3.735
 7205SOL     OW22513   1.614   5.796   3.348
 7205SOL    HW122514   1.713   5.800   3.343
 7205SOL    HW222515   1.578   5.748   3.268
 7206SOL     OW22516   0.214   1.352   1.156
 7206SOL    HW122517   0.199   1.354   1.254
 7206SOL    HW222518   0.127   1.338   1.109
 7207SOL     OW22519   3.726   0.306   1.336
 7207SOL    HW122520   3.756   0.399   1.311
 7207SOL    HW222521   3.627   0.305   1.346
 7208SOL     OW22522   3.948   6.996   4.783
 7208SOL    HW122523   3.947   0.061   4.739
 7208SOL    HW222524   3.926   7.007   4.880
 7209SOL     OW22525   3.048   3.115   4.156
 7209SOL    HW122526   2.979   3.043   4.153
 7209SOL    HW222527   3.006   3.200   4.187
 7210SOL     OW22528   4.626   0.913   3.398
 7210SOL    HW122529   4.635   1.012   3.403
 7210SOL    HW222530   4.568   0.882   3.473
 7211SOL     OW22531   0.736   6.019   3.844
 7211SOL    HW122532   0.724   6.068   3.758
 7211SOL    HW222533   0.822   6.048   3.887
 7212SOL     OW22534   0.617   6.126   4.554
 7212SOL    HW122535   0.562   6.132   4.638
 7212SOL    HW222536   0.556   6.108   4.476
 7213SOL     OW22537   5.652   6.895   5.418
 7213SOL    HW122538   5.632   6.993   5.422
 7213SOL    HW222539   5.691   6.872   5.329
 7214SOL     OW22540   2.407   5.498   4.507
 7214SOL    HW122541   2.346   5.421   4.526
 7214SOL    HW222542   2.445   5.488   4.415
 7215SOL     OW22543   1.091   2.979   4.285
 7215SOL    HW122544   1.033   2.910   4.328
 7215SOL    HW222545   1.104   2.958   4.189
 7216SOL     OW22546   3.058   5.725   6.513
 7216SOL    HW122547   2.963   5.695   6.516
 7216SOL    HW222548   3.096   5.728   6.605
 7217SOL     OW22549   1.843   4.508   2.394
 7217SOL    HW122550   1.911   4.577   2.366
 7217SOL    HW222551   1.752   4.549   2.392
 7218SOL     OW22552   4.880   2.316   5.411
 7218SOL    HW122553   4.870   2.254   5.489
 7218SOL    HW222554   4.797   2.370   5.400
 7219SOL     OW22555   4.426   6.695   3.683
 7219SOL    HW122556   4.521   6.718   3.704
 7219SOL    HW222557   4.365   6.755   3.735
 7220SOL     OW22558   6.672   0.894   3.368
 7220SOL    HW122559   6.572   0.891   3.365
 7220SOL    HW222560   6.709   0.847   3.287
 7221SOL     OW22561   5.794   4.761   5.674
 7221SOL    HW122562   5.828   4.838   5.729
 7221SOL    HW222563   5.818   4.776   5.578
 7222SOL     OW22564   6.334   6.337   1.215
 7222SOL    HW122565   6.327   6.282   1.132
 7222SOL    HW222566   6.395   6.415   1.200
 7223SOL     OW22567   3.091   1.855   0.703
 7223SOL    HW122568   3.168   1.903   0.661
 7223SOL    HW222569   3.005   1.886   0.661
 7224SOL     OW22570   6.055   1.187   4.503
 7224SOL    HW122571   5.964   1.227   4.514
 7224SOL    HW222572   6.060   1.139   4.416
 7225SOL     OW22573   1.674   5.903   0.435
 7225SOL    HW122574   1.739   5.940   0.368
 7225SOL    HW222575   1.679   5.804   0.436
 7226SOL     OW22576   0.084   6.837   0.349
 7226SOL    HW122577   0.038   6.875   0.429
 7226SOL    HW222578   0.108   6.742   0.366
 7227SOL     OW22579   0.499   1.977   0.230
 7227SOL    HW122580   0.585   1.963   0.181
 7227SOL    HW222581   0.511   2.049   0.298
 7228SOL     OW22582   6.914   6.573   1.946
 7228SOL    HW122583   6.827   6.616   1.970
 7228SOL    HW222584   6.920   6.483   1.988
 7229SOL     OW22585   1.068   0.635   4.537
 7229SOL    HW122586   0.985   0.622   4.482
 7229SOL    HW222587   1.127   0.703   4.493
 7230SOL     OW22588   4.385   5.508   4.265
 7230SOL    HW122589   4.463   5.482   4.208
 7230SOL    HW222590   4.329   5.427   4.282
 7231SOL     OW22591   5.611   1.855   6.064
 7231SOL    HW122592   5.596   1.835   6.160
 7231SOL    HW222593   5.612   1.770   6.012
 7232SOL     OW22594   4.102   4.771   2.934
 7232SOL    HW122595   4.011   4.751   2.972
 7232SOL    HW222596   4.096   4.853   2.877
 7233SOL     OW22597   0.565   2.852   5.150
 7233SOL    HW122598   0.633   2.878   5.081
 7233SOL    HW222599   0.612   2.834   5.237
 7234SOL     OW22600   5.729   2.545   1.913
 7234SOL    HW122601   5.821   2.523   1.880
 7234SOL    HW222602   5.707   2.640   1.889
 7235SOL     OW22603   5.480   4.202   4.694
 7235SOL    HW122604   5.498   4.279   4.755
 7235SOL    HW222605   5.401   4.151   4.727
 7236SOL     OW22606   3.747   1.707   2.899
 7236SOL    HW122607   3.780   1.688   2.806
 7236SOL    HW222608   3.662   1.658   2.915
 7237SOL     OW22609   6.562   6.162   5.149
 7237SOL    HW122610   6.533   6.066   5.153
 7237SOL    HW222611   6.512   6.214   5.219
 7238SOL     OW22612   2.510   1.624   2.452
 7238SOL    HW122613   2.540   1.600   2.359
 7238SOL    HW222614   2.412   1.604   2.461
 7239SOL     OW22615   1.878   1.826   2.947
 7239SOL    HW122616   1.956   1.882   2.920
 7239SOL    HW222617   1.877   1.741   2.894
 7240SOL     OW22618   2.991   3.717   0.989
 7240SOL    HW122619   2.990   3.639   1.052
 7240SOL    HW222620   2.904   3.722   0.941
 7241SOL     OW22621   3.466   0.756   5.889
 7241SOL    HW122622   3.540   0.709   5.841
 7241SOL    HW222623   3.505   0.814   5.961
 7242SOL     OW22624   5.610   4.102   6.786
 7242SOL    HW122625   5.674   4.178   6.796
 7242SOL    HW222626   5.542   4.107   6.860
 7243SOL     OW22627   1.339   4.631   6.498
 7243SOL    HW122628   1.364   4.703   6.563
 7243SOL    HW222629   1.372   4.543   6.530
 7244SOL     OW22630   5.402   1.658   1.111
 7244SOL    HW122631   5.416   1.747   1.066
 7244SOL    HW222632   5.482   1.600   1.096
 7245SOL     OW22633   0.098   2.254   4.669
 7245SOL    HW122634   0.173   2.190   4.682
 7245SOL    HW222635   0.099   2.322   4.742
 7246SOL     OW22636   6.193   6.970   4.699
 7246SOL    HW122637   6.226   6.877   4.715
 7246SOL    HW222638   6.097   6.966   4.670
 7247SOL     OW22639   2.762   6.188   1.907
 7247SOL    HW122640   2.690   6.187   1.976
 7247SOL    HW222641   2.720   6.188   1.816
 7248SOL     OW22642   3.975   0.912   4.010
 7248SOL    HW122643   3.924   0.986   3.966
 7248SOL    HW222644   3.974   0.926   4.109
 7249SOL     OW22645   5.401   4.230   1.099
 7249SOL    HW122646   5.324   4.173   1.129
 7249SOL    HW222647   5.458   4.253   1.178
 7250SOL     OW22648   1.884   4.661   6.459
 7250SOL    HW122649   1.908   4.661   6.556
 7250SOL    HW222650   1.786   4.648   6.449
 7251SOL     OW22651   6.944   6.677   4.836
 7251SOL    HW122652   6.903   6.618   4.906
 7251SOL    HW222653   7.013   6.625   4.786
 7252SOL     OW22654   2.984   3.319   4.964
 7252SOL    HW122655   2.958   3.380   5.039
 7252SOL    HW222656   2.951   3.227   4.982
 7253SOL     OW22657   2.911   6.289   1.349
 7253SOL    HW122658   2.938   6.332   1.435
 7253SOL    HW222659   2.847   6.349   1.300
 7254SOL     OW22660   3.703   5.456   3.775
 7254SOL    HW122661   3.732   5.470   3.870
 7254SOL    HW222662   3.767   5.392   3.731
 7255SOL     OW22663   2.897   3.629   2.330
 7255SOL    HW122664   2.899   3.695   2.255
 7255SOL    HW222665   2.886   3.537   2.293
 7256SOL     OW22666   4.316   5.157   4.256
 7256SOL    HW122667   4.409   5.174   4.221
 7256SOL    HW222668   4.252   5.153   4.179
 7257SOL     OW22669   5.541   2.713   3.060
 7257SOL    HW122670   5.605   2.735   2.987
 7257SOL    HW222671   5.504   2.622   3.046
 7258SOL     OW22672   3.907   0.257   4.779
 7258SOL    HW122673   3.814   0.221   4.780
 7258SOL    HW222674   3.904   0.356   4.794
 7259SOL     OW22675   2.255   3.887   6.787
 7259SOL    HW122676   2.295   3.846   6.869
 7259SOL    HW222677   2.311   3.964   6.757
 7260SOL     OW22678   3.731   2.149   2.876
 7260SOL    HW122679   3.784   2.212   2.932
 7260SOL    HW222680   3.719   2.063   2.926
 7261SOL     OW22681   2.149   3.251   1.753
 7261SOL    HW122682   2.195   3.241   1.665
 7261SOL    HW222683   2.192   3.325   1.805
 7262SOL     OW22684   5.486   1.963   4.610
 7262SOL    HW122685   5.581   1.952   4.581
 7262SOL    HW222686   5.457   2.057   4.594
 7263SOL     OW22687   1.149   5.759   1.229
 7263SOL    HW122688   1.206   5.697   1.283
 7263SOL    HW222689   1.125   5.715   1.142
 7264SOL     OW22690   6.542   1.268   6.772
 7264SOL    HW122691   6.531   1.223   6.684
 7264SOL    HW222692   6.606   1.344   6.763
 7265SOL     OW22693   5.275   4.964   5.649
 7265SOL    HW122694   5.256   4.889   5.585
 7265SOL    HW222695   5.225   4.948   5.734
 7266SOL     OW22696   4.705   0.502   1.693
 7266SOL    HW122697   4.749   0.492   1.783
 7266SOL    HW222698   4.619   0.552   1.703
 7267SOL     OW22699   0.451   3.816   4.631
 7267SOL    HW122700   0.509   3.764   4.693
 7267SOL    HW222701   0.357   3.816   4.665
 7268SOL     OW22702   3.914   6.167   1.568
 7268SOL    HW122703   3.833   6.122   1.604
 7268SOL    HW222704   3.995   6.110   1.586
 7269SOL     OW22705   0.741   5.469   1.970
 7269SOL    HW122706   0.786   5.536   2.030
 7269SOL    HW222707   0.809   5.403   1.938
 7270SOL     OW22708   2.502   2.066   2.617
 7270SOL    HW122709   2.580   2.094   2.561
 7270SOL    HW222710   2.471   1.975   2.589
 7271SOL     OW22711   7.014   3.739   3.149
 7271SOL    HW122712   6.938   3.695   3.197
 7271SOL    HW222713   0.065   3.674   3.141
 7272SOL     OW22714   5.034   2.887   2.946
 7272SOL    HW122715   4.956   2.935   2.907
 7272SOL    HW222716   5.013   2.790   2.955
 7273SOL     OW22717   5.558   4.541   1.667
 7273SOL    HW122718   5.480   4.554   1.729
 7273SOL    HW222719   5.540   4.587   1.580
 7274SOL     OW22720   6.688   5.100   5.684
 7274SOL    HW122721   6.723   5.079   5.593
 7274SOL    HW222722   6.764   5.108   5.748
 7275SOL     OW22723   6.982   0.274   6.722
 7275SOL    HW122724   6.935   0.342   6.779
 7275SOL    HW222725   6.917   0.230   6.661
 7276SOL     OW22726   2.140   2.085   3.543
 7276SOL    HW122727   2.107   2.124   3.629
 7276SOL    HW222728   2.062   2.060   3.486
 7277SOL     OW22729   4.847   1.446   4.642
 7277SOL    HW122730   4.914   1.436   4.568
 7277SOL    HW222731   4.824   1.543   4.653
 7278SOL     OW22732   3.462   1.549   3.667
 7278SOL    HW122733   3.452   1.647   3.649
 7278SOL    HW222734   3.374   1.510   3.692
 7279SOL     OW22735   4.559   4.575   0.109
 7279SOL    HW122736   4.509   4.660   0.128
 7279SOL    HW222737   4.611   4.585   0.025
 7280SOL     OW22738   5.417   1.821   5.471
 7280SOL    HW122739   5.337   1.789   5.521
 7280SOL    HW222740   5.394   1.834   5.375
 7281SOL     OW22741   3.465   6.607   1.940
 7281SOL    HW122742   3.494   6.514   1.919
 7281SOL    HW222743   3.365   6.613   1.931
 7282SOL     OW22744   6.472   5.692   2.303
 7282SOL    HW122745   6.523   5.746   2.370
 7282SOL    HW222746   6.510   5.709   2.212
 7283SOL     OW22747   3.822   5.207   2.848
 7283SOL    HW122748   3.869   5.185   2.762
 7283SOL    HW222749   3.749   5.141   2.862
 7284SOL     OW22750   6.542   1.643   3.752
 7284SOL    HW122751   6.599   1.610   3.677
 7284SOL    HW222752   6.486   1.569   3.787
 7285SOL     OW22753   4.823   2.775   1.976
 7285SOL    HW122754   4.836   2.711   1.900
 7285SOL    HW222755   4.775   2.856   1.942
 7286SOL     OW22756   0.468   0.814   0.468
 7286SOL    HW122757   0.454   0.745   0.396
 7286SOL    HW222758   0.509   0.771   0.548
 7287SOL     OW22759   1.334   2.693   3.575
 7287SOL    HW122760   1.258   2.668   3.516
 7287SOL    HW222761   1.300   2.742   3.656
 7288SOL     OW22762   3.085   2.031   3.100
 7288SOL    HW122763   3.008   2.092   3.081
 7288SOL    HW222764   3.144   2.026   3.019
 7289SOL     OW22765   6.006   2.506   1.486
 7289SOL    HW122766   6.094   2.520   1.533
 7289SOL    HW222767   5.932   2.537   1.545
 7290SOL     OW22768   3.784   1.312   4.624
 7290SOL    HW122769   3.736   1.381   4.570
 7290SOL    HW222770   3.879   1.341   4.638
 7291SOL     OW22771   4.231   0.822   0.206
 7291SOL    HW122772   4.178   0.761   0.148
 7291SOL    HW222773   4.329   0.807   0.189
 7292SOL     OW22774   1.946   6.914   2.979
 7292SOL    HW122775   1.973   6.841   2.916
 7292SOL    HW222776   1.869   6.884   3.035
 7293SOL     OW22777   1.321   1.060   4.911
 7293SOL    HW122778   1.318   1.058   4.811
 7293SOL    HW222779   1.400   1.114   4.941
 7294SOL     OW22780   2.863   5.003   1.258
 7294SOL    HW122781   2.872   4.919   1.311
 7294SOL    HW222782   2.943   5.015   1.199
 7295SOL     OW22783   6.341   5.463   2.384
 7295SOL    HW122784   6.398   5.545   2.388
 7295SOL    HW222785   6.249   5.487   2.352
 7296SOL     OW22786   4.011   4.850   2.304
 7296SOL    HW122787   4.062   4.783   2.249
 7296SOL    HW222788   4.067   4.932   2.316
 7297SOL     OW22789   3.626   6.044   1.413
 7297SOL    HW122790   3.706   6.086   1.370
 7297SOL    HW222791   3.555   6.029   1.344
 7298SOL     OW22792   5.133   5.760   6.477
 7298SOL    HW122793   5.121   5.827   6.404
 7298SOL    HW222794   5.059   5.693   6.474
 7299SOL     OW22795   1.388   2.911   0.311
 7299SOL    HW122796   1.346   2.995   0.278
 7299SOL    HW222797   1.320   2.837   0.307
 7300SOL     OW22798   1.049   4.855   1.759
 7300SOL    HW122799   1.077   4.842   1.854
 7300SOL    HW222800   1.005   4.772   1.725
 7301SOL     OW22801   5.619   6.489   5.554
 7301SOL    HW122802   5.685   6.557   5.586
 7301SOL    HW222803   5.660   6.436   5.479
 7302SOL     OW22804   5.007   2.840   5.470
 7302SOL    HW122805   5.000   2.867   5.566
 7302SOL    HW222806   5.102   2.851   5.439
 7303SOL     OW22807   2.539   0.997   1.005
 7303SOL    HW122808   2.577   1.075   1.054
 7303SOL    HW222809   2.516   1.025   0.911
 7304SOL     OW22810   2.575   5.406   1.888
 7304SOL    HW122811   2.561   5.358   1.801
 7304SOL    HW222812   2.672   5.428   1.899
 7305SOL     OW22813   5.747   2.374   0.533
 7305SOL    HW122814   5.649   2.357   0.528
 7305SOL    HW222815   5.795   2.288   0.554
 7306SOL     OW22816   2.103   1.323   1.555
 7306SOL    HW122817   2.107   1.410   1.604
 7306SOL    HW222818   2.027   1.326   1.489
 7307SOL     OW22819   1.766   6.573   1.146
 7307SOL    HW122820   1.725   6.606   1.231
 7307SOL    HW222821   1.798   6.651   1.092
 7308SOL     OW22822   4.750   0.804   2.280
 7308SOL    HW122823   4.833   0.820   2.227
 7308SOL    HW222824   4.697   0.730   2.239
 7309SOL     OW22825   2.223   5.039   2.996
 7309SOL    HW122826   2.303   5.092   2.970
 7309SOL    HW222827   2.176   5.085   3.072
 7310SOL     OW22828   1.969   2.703   0.091
 7310SOL    HW122829   1.927   2.630   0.144
 7310SOL    HW222830   2.052   2.734   0.137
 7311SOL     OW22831   0.151   6.836   6.349
 7311SOL    HW122832   0.183   6.788   6.431
 7311SOL    HW222833   0.189   6.928   6.347
 7312SOL     OW22834   0.301   2.448   5.542
 7312SOL    HW122835   0.210   2.414   5.562
 7312SOL    HW222836   0.300   2.500   5.456
 7313SOL     OW22837   2.555   0.569   1.851
 7313SOL    HW122838   2.484   0.534   1.913
 7313SOL    HW222839   2.641   0.520   1.867
 7314SOL     OW22840   0.255   4.486   6.961
 7314SOL    HW122841   0.324   4.429   7.007
 7314SOL    HW222842   0.188   4.428   6.915
 7315SOL     OW22843   1.055   4.831   2.575
 7315SOL    HW122844   1.100   4.812   2.487
 7315SOL    HW222845   1.052   4.747   2.629
 7316SOL     OW22846   3.311   2.102   0.220
 7316SOL    HW122847   3.384   2.154   0.264
 7316SOL    HW222848   3.271   2.155   0.145
 7317SOL     OW22849   3.420   1.344   1.989
 7317SOL    HW122850   3.346   1.283   2.018
 7317SOL    HW222851   3.489   1.292   1.939
 7318SOL     OW22852   3.714   0.175   1.587
 7318SOL    HW122853   3.677   0.199   1.497
 7318SOL    HW222854   3.697   0.078   1.605
 7319SOL     OW22855   6.531   4.877   0.616
 7319SOL    HW122856   6.606   4.810   0.623
 7319SOL    HW222857   6.540   4.945   0.689
 7320SOL     OW22858   0.070   3.175   1.025
 7320SOL    HW122859   0.031   3.118   1.098
 7320SOL    HW222860   0.166   3.194   1.046
 7321SOL     OW22861   2.017   6.140   6.779
 7321SOL    HW122862   2.081   6.072   6.742
 7321SOL    HW222863   2.059   6.230   6.774
 7322SOL     OW22864   0.623   2.216   2.235
 7322SOL    HW122865   0.584   2.151   2.299
 7322SOL    HW222866   0.557   2.289   2.217
 7323SOL     OW22867   1.146   1.565   1.165
 7323SOL    HW122868   1.064   1.576   1.109
 7323SOL    HW222869   1.123   1.518   1.250
 7324SOL     OW22870   5.803   4.852   3.090
 7324SOL    HW122871   5.827   4.907   3.010
 7324SOL    HW222872   5.873   4.781   3.103
 7325SOL     OW22873   3.866   1.178   6.087
 7325SOL    HW122874   3.938   1.221   6.032
 7325SOL    HW222875   3.905   1.144   6.172
 7326SOL     OW22876   2.657   0.483   0.057
 7326SOL    HW122877   2.582   0.421   0.033
 7326SOL    HW222878   2.683   0.536   7.002
 7327SOL     OW22879   6.315   3.902   3.278
 7327SOL    HW122880   6.358   3.827   3.329
 7327SOL    HW222881   6.361   3.988   3.300
 7328SOL     OW22882   4.201   4.868   5.273
 7328SOL    HW122883   4.188   4.770   5.291
 7328SOL    HW222884   4.229   4.880   5.177
 7329SOL     OW22885   2.586   3.229   0.711
 7329SOL    HW122886   2.672   3.180   0.718
 7329SOL    HW222887   2.598   3.312   0.655
 7330SOL     OW22888   3.678   2.644   1.517
 7330SOL    HW122889   3.615   2.583   1.566
 7330SOL    HW222890   3.752   2.590   1.477
 7331SOL     OW22891   4.573   0.664   1.983
 7331SOL    HW122892   4.553   0.749   2.031
 7331SOL    HW222893   4.488   0.625   1.947
 7332SOL     OW22894   3.118   4.060   6.818
 7332SOL    HW122895   3.217   4.071   6.824
 7332SOL    HW222896   3.077   4.083   6.906
 7333SOL     OW22897   6.578   2.363   1.748
 7333SOL    HW122898   6.575   2.379   1.846
 7333SOL    HW222899   6.638   2.286   1.728
 7334SOL     OW22900   2.948   6.751   5.718
 7334SOL    HW122901   3.033   6.802   5.735
 7334SOL    HW222902   2.908   6.782   5.631
 7335SOL     OW22903   6.731   2.774   2.631
 7335SOL    HW122904   6.772   2.817   2.551
 7335SOL    HW222905   6.801   2.763   2.702
 7336SOL     OW22906   1.516   5.884   1.416
 7336SOL    HW122907   1.512   5.813   1.345
 7336SOL    HW222908   1.505   5.973   1.373
 7337SOL     OW22909   2.219   2.221   2.779
 7337SOL    HW122910   2.300   2.178   2.739
 7337SOL    HW222911   2.244   2.308   2.821
 7338SOL     OW22912   5.541   3.026   1.809
 7338SOL    HW122913   5.637   3.024   1.780
 7338SOL    HW222914   5.533   2.989   1.902
 7339SOL     OW22915   6.468   5.725   4.841
 7339SOL    HW122916   6.391   5.739   4.779
 7339SOL    HW222917   6.435   5.701   4.932
 7340SOL     OW22918   2.748   6.993   0.448
 7340SOL    HW122919   2.660   6.948   0.463
 7340SOL    HW222920   2.734   0.049   0.391
 7341SOL     OW22921   6.707   5.101   4.012
 7341SOL    HW122922   6.689   5.048   4.095
 7341SOL    HW222923   6.637   5.081   3.944
 7342SOL     OW22924   6.837   0.178   0.897
 7342SOL    HW122925   6.763   0.199   0.961
 7342SOL    HW222926   6.815   0.095   0.846
 7343SOL     OW22927   6.059   3.831   2.812
 7343SOL    HW122928   6.015   3.756   2.763
 7343SOL    HW222929   6.019   3.840   2.903
 7344SOL     OW22930   2.189   6.682   7.005
 7344SOL    HW122931   2.145   6.652   6.921
 7344SOL    HW222932   2.218   6.777   6.995
 7345SOL     OW22933   4.597   5.261   5.484
 7345SOL    HW122934   4.507   5.233   5.448
 7345SOL    HW222935   4.601   5.243   5.582
 7346SOL     OW22936   3.795   4.462   1.485
 7346SOL    HW122937   3.705   4.469   1.528
 7346SOL    HW222938   3.786   4.480   1.387
 7347SOL     OW22939   5.884   1.515   2.141
 7347SOL    HW122940   5.810   1.550   2.199
 7347SOL    HW222941   5.927   1.591   2.092
 7348SOL     OW22942   1.542   1.997   3.880
 7348SOL    HW122943   1.459   2.053   3.883
 7348SOL    HW222944   1.538   1.936   3.801
 7349SOL     OW22945   3.550   1.671   0.772
 7349SOL    HW122946   3.530   1.621   0.856
 7349SOL    HW222947   3.631   1.729   0.785
 7350SOL     OW22948   0.967   2.135   3.181
 7350SOL    HW122949   1.017   2.127   3.267
 7350SOL    HW222950   1.014   2.081   3.110
 7351SOL     OW22951   4.467   5.036   6.544
 7351SOL    HW122952   4.497   4.969   6.611
 7351SOL    HW222953   4.378   5.010   6.507
 7352SOL     OW22954   1.065   1.842   2.379
 7352SOL    HW122955   1.099   1.905   2.310
 7352SOL    HW222956   1.023   1.763   2.334
 7353SOL     OW22957   6.074   1.672   4.696
 7353SOL    HW122958   6.068   1.760   4.741
 7353SOL    HW222959   6.052   1.682   4.599
 7354SOL     OW22960   6.472   6.288   5.397
 7354SOL    HW122961   6.392   6.255   5.447
 7354SOL    HW222962   6.467   6.387   5.388
 7355SOL     OW22963   1.089   5.419   1.860
 7355SOL    HW122964   1.104   5.321   1.857
 7355SOL    HW222965   1.100   5.457   1.768
 7356SOL     OW22966   6.186   1.911   6.628
 7356SOL    HW122967   6.156   1.851   6.701
 7356SOL    HW222968   6.283   1.934   6.641
 7357SOL     OW22969   5.488   2.387   6.754
 7357SOL    HW122970   5.427   2.307   6.757
 7357SOL    HW222971   5.532   2.398   6.843
 7358SOL     OW22972   3.276   1.743   4.146
 7358SOL    HW122973   3.205   1.673   4.133
 7358SOL    HW222974   3.236   1.824   4.188
 7359SOL     OW22975   3.783   3.534   2.744
 7359SOL    HW122976   3.864   3.562   2.692
 7359SOL    HW222977   3.721   3.483   2.684
 7360SOL     OW22978   1.137   2.234   5.171
 7360SOL    HW122979   1.216   2.266   5.222
 7360SOL    HW222980   1.053   2.269   5.213
 7361SOL     OW22981   5.040   6.201   1.405
 7361SOL    HW122982   4.957   6.246   1.370
 7361SOL    HW222983   5.104   6.188   1.329
 7362SOL     OW22984   2.035   6.167   5.211
 7362SOL    HW122985   1.937   6.169   5.190
 7362SOL    HW222986   2.049   6.143   5.307
 7363SOL     OW22987   5.049   2.914   6.811
 7363SOL    HW122988   4.963   2.965   6.818
 7363SOL    HW222989   5.044   2.833   6.870
 7364SOL     OW22990   4.281   6.710   0.767
 7364SOL    HW122991   4.328   6.694   0.680
 7364SOL    HW222992   4.314   6.645   0.835
 7365SOL     OW22993   2.756   0.189   2.267
 7365SOL    HW122994   2.666   0.184   2.310
 7365SOL    HW222995   2.765   0.118   2.198
 7366SOL     OW22996   7.021   5.198   6.681
 7366SOL    HW122997   6.922   5.214   6.685
 7366SOL    HW222998   0.012   5.101   6.660
 7367SOL     OW22999   4.929   3.746   1.737
 7367SOL    HW123000   4.978   3.683   1.797
 7367SOL    HW223001   4.889   3.820   1.792
 7368SOL     OW23002   2.964   3.546   4.710
 7368SOL    HW123003   3.002   3.616   4.649
 7368SOL    HW223004   2.866   3.564   4.723
 7369SOL     OW23005   5.189   3.981   0.481
 7369SOL    HW123006   5.134   4.061   0.457
 7369SOL    HW223007   5.283   3.995   0.451
 7370SOL     OW23008   2.495   0.005   0.690
 7370SOL    HW123009   2.590   0.016   0.720
 7370SOL    HW223010   2.480   6.936   0.660
 7371SOL     OW23011   3.060   4.853   4.088
 7371SOL    HW123012   3.035   4.948   4.109
 7371SOL    HW223013   2.979   4.795   4.096
 7372SOL     OW23014   3.886   0.310   6.011
 7372SOL    HW123015   3.812   0.365   5.972
 7372SOL    HW223016   3.939   0.268   5.937
 7373SOL     OW23017   3.594   0.745   3.356
 7373SOL    HW123018   3.560   0.815   3.294
 7373SOL    HW223019   3.614   0.662   3.305
 7374SOL     OW23020   1.980   2.991   5.985
 7374SOL    HW123021   2.003   2.918   6.050
 7374SOL    HW223022   2.051   3.061   5.986
 7375SOL     OW23023   1.291   1.070   4.630
 7375SOL    HW123024   1.220   1.126   4.587
 7375SOL    HW223025   1.326   1.004   4.563
 7376SOL     OW23026   2.807   2.824   6.945
 7376SOL    HW123027   2.741   2.808   6.871
 7376SOL    HW223028   2.820   2.740   6.997
 7377SOL     OW23029   4.728   4.610   1.920
 7377SOL    HW123030   4.748   4.513   1.910
 7377SOL    HW223031   4.632   4.627   1.900
 7378SOL     OW23032   0.498   1.661   4.565
 7378SOL    HW123033   0.590   1.686   4.536
 7378SOL    HW223034   0.430   1.716   4.516
 7379SOL     OW23035   3.841   1.156   2.116
 7379SOL    HW123036   3.840   1.138   2.018
 7379SOL    HW223037   3.793   1.241   2.135
 7380SOL     OW23038   6.978   3.346   5.680
 7380SOL    HW123039   6.907   3.416   5.680
 7380SOL    HW223040   0.042   3.390   5.662
 7381SOL     OW23041   4.587   2.471   2.188
 7381SOL    HW123042   4.603   2.569   2.197
 7381SOL    HW223043   4.554   2.451   2.095
 7382SOL     OW23044   0.502   4.536   4.455
 7382SOL    HW123045   0.572   4.487   4.507
 7382SOL    HW223046   0.536   4.627   4.431
 7383SOL     OW23047   0.442   6.544   2.688
 7383SOL    HW123048   0.426   6.630   2.640
 7383SOL    HW223049   0.530   6.506   2.660
 7384SOL     OW23050   5.002   6.706   2.168
 7384SOL    HW123051   5.091   6.735   2.202
 7384SOL    HW223052   4.975   6.765   2.091
 7385SOL     OW23053   4.807   6.074   1.987
 7385SOL    HW123054   4.775   5.980   1.980
 7385SOL    HW223055   4.856   6.099   1.903
 7386SOL     OW23056   1.214   2.478   5.598
 7386SOL    HW123057   1.277   2.475   5.677
 7386SOL    HW223058   1.122   2.455   5.629
 7387SOL     OW23059   4.570   5.224   4.230
 7387SOL    HW123060   4.633   5.172   4.288
 7387SOL    HW223061   4.592   5.208   4.134
 7388SOL     OW23062   6.409   4.911   4.364
 7388SOL    HW123063   6.429   4.862   4.279
 7388SOL    HW223064   6.494   4.928   4.413
 7389SOL     OW23065   1.622   3.512   7.015
 7389SOL    HW123066   1.546   3.457   0.024
 7389SOL    HW223067   1.653   3.574   0.062
 7390SOL     OW23068   0.244   1.527   6.041
 7390SOL    HW123069   0.285   1.437   6.024
 7390SOL    HW223070   0.247   1.581   5.956
 7391SOL     OW23071   6.001   3.623   5.882
 7391SOL    HW123072   5.903   3.621   5.861
 7391SOL    HW223073   6.018   3.571   5.965
 7392SOL     OW23074   1.459   4.813   5.008
 7392SOL    HW123075   1.555   4.794   5.028
 7392SOL    HW223076   1.410   4.834   5.092
 7393SOL     OW23077   6.287   5.687   2.557
 7393SOL    HW123078   6.243   5.743   2.627
 7393SOL    HW223079   6.294   5.740   2.472
 7394SOL     OW23080   4.003   3.843   6.651
 7394SOL    HW123081   4.092   3.805   6.676
 7394SOL    HW223082   3.968   3.796   6.569
 7395SOL     OW23083   0.842   0.042   6.651
 7395SOL    HW123084   0.837   0.108   6.576
 7395SOL    HW223085   0.751   0.026   6.687
 7396SOL     OW23086   1.241   0.752   5.904
 7396SOL    HW123087   1.333   0.792   5.914
 7396SOL    HW223088   1.227   0.727   5.808
 7397SOL     OW23089   6.859   4.384   4.696
 7397SOL    HW123090   6.806   4.316   4.646
 7397SOL    HW223091   6.803   4.422   4.770
 7398SOL     OW23092   4.719   4.982   4.355
 7398SOL    HW123093   4.736   5.036   4.437
 7398SOL    HW223094   4.629   4.937   4.362
 7399SOL     OW23095   6.071   3.875   5.751
 7399SOL    HW123096   6.036   3.961   5.788
 7399SOL    HW223097   6.061   3.803   5.819
 7400SOL     OW23098   3.119   4.397   0.158
 7400SOL    HW123099   3.043   4.400   0.093
 7400SOL    HW223100   3.145   4.490   0.184
 7401SOL     OW23101   0.036   1.397   4.135
 7401SOL    HW123102   0.126   1.434   4.159
 7401SOL    HW223103   0.037   1.363   4.041
 7402SOL     OW23104   2.081   0.100   3.887
 7402SOL    HW123105   2.070   0.008   3.849
 7402SOL    HW223106   2.068   0.097   3.986
 7403SOL     OW23107   1.910   3.333   3.599
 7403SOL    HW123108   1.994   3.323   3.651
 7403SOL    HW223109   1.869   3.423   3.618
 7404SOL     OW23110   0.994   0.595   1.098
 7404SOL    HW123111   0.894   0.593   1.103
 7404SOL    HW223112   1.024   0.685   1.067
 7405SOL     OW23113   2.816   5.192   5.277
 7405SOL    HW123114   2.779   5.138   5.353
 7405SOL    HW223115   2.816   5.136   5.194
 7406SOL     OW23116   1.682   3.531   2.392
 7406SOL    HW123117   1.600   3.538   2.448
 7406SOL    HW223118   1.688   3.612   2.333
 7407SOL     OW23119   0.659   6.415   5.256
 7407SOL    HW123120   0.703   6.472   5.186
 7407SOL    HW223121   0.612   6.338   5.211
 7408SOL     OW23122   1.834   4.345   5.620
 7408SOL    HW123123   1.814   4.339   5.522
 7408SOL    HW223124   1.774   4.282   5.669
 7409SOL     OW23125   1.037   0.841   4.915
 7409SOL    HW123126   1.075   0.849   5.007
 7409SOL    HW223127   1.093   0.777   4.861
 7410SOL     OW23128   0.623   4.882   1.074
 7410SOL    HW123129   0.592   4.909   0.983
 7410SOL    HW223130   0.594   4.788   1.093
 7411SOL     OW23131   2.665   6.186   4.936
 7411SOL    HW123132   2.654   6.259   4.868
 7411SOL    HW223133   2.760   6.181   4.965
 7412SOL     OW23134   1.868   0.893   0.920
 7412SOL    HW123135   1.911   0.957   0.984
 7412SOL    HW223136   1.913   0.804   0.926
 7413SOL     OW23137   6.458   3.159   4.538
 7413SOL    HW123138   6.361   3.161   4.514
 7413SOL    HW223139   6.513   3.178   4.456
 7414SOL     OW23140   6.647   6.626   2.008
 7414SOL    HW123141   6.570   6.675   2.049
 7414SOL    HW223142   6.625   6.601   1.914
 7415SOL     OW23143   2.078   3.339   2.843
 7415SOL    HW123144   2.072   3.243   2.868
 7415SOL    HW223145   2.135   3.349   2.762
 7416SOL     OW23146   3.744   1.161   4.422
 7416SOL    HW123147   3.772   1.200   4.509
 7416SOL    HW223148   3.759   1.227   4.349
 7417SOL     OW23149   1.473   6.871   5.993
 7417SOL    HW123150   1.376   6.894   5.984
 7417SOL    HW223151   1.482   6.776   6.026
 7418SOL     OW23152   2.437   4.176   1.104
 7418SOL    HW123153   2.345   4.142   1.127
 7418SOL    HW223154   2.505   4.125   1.156
 7419SOL     OW23155   5.669   1.336   4.971
 7419SOL    HW123156   5.693   1.271   4.899
 7419SOL    HW223157   5.741   1.405   4.980
 7420SOL     OW23158   6.738   6.186   1.696
 7420SOL    HW123159   6.763   6.203   1.792
 7420SOL    HW223160   6.694   6.268   1.658
 7421SOL     OW23161   3.862   4.066   1.648
 7421SOL    HW123162   3.810   4.048   1.564
 7421SOL    HW223163   3.943   4.120   1.626
 7422SOL     OW23164   0.296   3.416   0.950
 7422SOL    HW123165   0.313   3.416   0.851
 7422SOL    HW223166   0.202   3.447   0.967
 7423SOL     OW23167   2.308   4.679   5.966
 7423SOL    HW123168   2.331   4.751   6.032
 7423SOL    HW223169   2.212   4.652   5.979
 7424SOL     OW23170   5.689   1.590   4.646
 7424SOL    HW123171   5.728   1.571   4.555
 7424SOL    HW223172   5.607   1.535   4.659
 7425SOL     OW23173   3.403   4.562   6.156
 7425SOL    HW123174   3.329   4.580   6.092
 7425SOL    HW223175   3.369   4.504   6.230
 7426SOL     OW23176   0.283   1.760   6.206
 7426SOL    HW123177   0.269   1.682   6.146
 7426SOL    HW223178   0.204   1.771   6.267
 7427SOL     OW23179   3.196   6.303   4.882
 7427SOL    HW123180   3.242   6.224   4.842
 7427SOL    HW223181   3.234   6.320   4.973
 7428SOL     OW23182   3.589   2.480   5.869
 7428SOL    HW123183   3.504   2.428   5.878
 7428SOL    HW223184   3.570   2.567   5.823
 7429SOL     OW23185   0.026   0.026   2.393
 7429SOL    HW123186   6.989   0.059   2.321
 7429SOL    HW223187   0.005   6.955   2.412
 7430SOL     OW23188   6.918   3.635   5.222
 7430SOL    HW123189   7.007   3.628   5.178
 7430SOL    HW223190   6.847   3.642   5.151
 7431SOL     OW23191   0.680   3.264   2.056
 7431SOL    HW123192   0.762   3.302   2.015
 7431SOL    HW223193   0.601   3.319   2.029
 7432SOL     OW23194   0.793   6.841   3.670
 7432SOL    HW123195   0.771   6.769   3.736
 7432SOL    HW223196   0.892   6.846   3.657
 7433SOL     OW23197   6.106   5.614   0.961
 7433SOL    HW123198   6.096   5.570   0.871
 7433SOL    HW223199   6.101   5.544   1.033
 7434SOL     OW23200   2.704   1.781   6.807
 7434SOL    HW123201   2.670   1.812   6.896
 7434SOL    HW223202   2.800   1.809   6.797
 7435SOL     OW23203   3.580   6.224   6.646
 7435SOL    HW123204   3.563   6.215   6.548
 7435SOL    HW223205   3.676   6.205   6.665
 7436SOL     OW23206   5.358   3.218   6.913
 7436SOL    HW123207   5.374   3.205   7.010
 7436SOL    HW223208   5.335   3.130   6.871
 7437SOL     OW23209   0.256   4.924   6.382
 7437SOL    HW123210   0.275   4.847   6.321
 7437SOL    HW223211   0.261   5.010   6.331
 7438SOL     OW23212   0.577   4.677   2.166
 7438SOL    HW123213   0.508   4.607   2.144
 7438SOL    HW223214   0.661   4.658   2.117
 7439SOL     OW23215   2.160   0.125   4.186
 7439SOL    HW123216   2.153   0.224   4.199
 7439SOL    HW223217   2.248   0.103   4.143
 7440SOL     OW23218   1.120   2.526   4.533
 7440SOL    HW123219   1.159   2.474   4.609
 7440SOL    HW223220   1.033   2.484   4.505
 7441SOL     OW23221   5.458   0.979   4.265
 7441SOL    HW123222   5.526   0.998   4.336
 7441SOL    HW223223   5.469   1.045   4.190
 7442SOL     OW23224   1.000   1.857   6.403
 7442SOL    HW123225   0.905   1.885   6.387
 7442SOL    HW223226   1.017   1.768   6.360
 7443SOL     OW23227   0.476   1.755   6.422
 7443SOL    HW123228   0.392   1.749   6.368
 7443SOL    HW223229   0.471   1.691   6.499
 7444SOL     OW23230   6.817   3.413   6.245
 7444SOL    HW123231   6.895   3.352   6.232
 7444SOL    HW223232   6.837   3.502   6.204
 7445SOL     OW23233   5.104   1.571   1.688
 7445SOL    HW123234   5.125   1.637   1.617
 7445SOL    HW223235   5.188   1.549   1.739
 7446SOL     OW23236   6.595   4.128   0.427
 7446SOL    HW123237   6.594   4.126   0.527
 7446SOL    HW223238   6.558   4.042   0.392
 7447SOL     OW23239   2.078   4.606   0.440
 7447SOL    HW123240   2.028   4.622   0.355
 7447SOL    HW223241   2.176   4.597   0.419
 7448SOL     OW23242   5.331   0.028   5.683
 7448SOL    HW123243   5.278   6.970   5.665
 7448SOL    HW223244   5.294   0.074   5.764
 7449SOL     OW23245   4.938   2.323   1.734
 7449SOL    HW123246   4.841   2.312   1.754
 7449SOL    HW223247   4.989   2.326   1.820
 7450SOL     OW23248   4.595   2.437   2.935
 7450SOL    HW123249   4.546   2.438   2.848
 7450SOL    HW223250   4.567   2.357   2.989
 7451SOL     OW23251   1.601   1.147   4.869
 7451SOL    HW123252   1.589   1.048   4.872
 7451SOL    HW223253   1.655   1.176   4.948
 7452SOL     OW23254   1.963   0.268   5.087
 7452SOL    HW123255   2.000   0.175   5.085
 7452SOL    HW223256   1.906   0.283   5.006
 7453SOL     OW23257   5.922   6.787   4.957
 7453SOL    HW123258   6.021   6.783   4.946
 7453SOL    HW223259   5.877   6.756   4.873
 7454SOL     OW23260   0.981   3.556   1.804
 7454SOL    HW123261   1.008   3.652   1.810
 7454SOL    HW223262   0.985   3.526   1.709
 7455SOL     OW23263   5.284   2.205   0.354
 7455SOL    HW123264   5.202   2.259   0.334
 7455SOL    HW223265   5.291   2.128   0.290
 7456SOL     OW23266   1.405   3.207   4.658
 7456SOL    HW123267   1.484   3.265   4.638
 7456SOL    HW223268   1.366   3.173   4.573
 7457SOL     OW23269   5.567   0.849   5.258
 7457SOL    HW123270   5.647   0.887   5.212
 7457SOL    HW223271   5.532   0.915   5.325
 7458SOL     OW23272   3.004   6.888   0.365
 7458SOL    HW123273   3.082   6.951   0.367
 7458SOL    HW223274   2.926   6.931   0.411
 7459SOL     OW23275   4.824   6.873   5.559
 7459SOL    HW123276   4.870   6.956   5.589
 7459SOL    HW223277   4.879   6.829   5.487
 7460SOL     OW23278   2.046   4.416   0.666
 7460SOL    HW123279   2.101   4.346   0.620
 7460SOL    HW223280   2.030   4.493   0.605
 7461SOL     OW23281   5.678   1.178   5.849
 7461SOL    HW123282   5.696   1.277   5.851
 7461SOL    HW223283   5.586   1.162   5.812
 7462SOL     OW23284   2.134   1.795   1.841
 7462SOL    HW123285   2.177   1.848   1.914
 7462SOL    HW223286   2.049   1.754   1.874
 7463SOL     OW23287   3.591   3.135   1.628
 7463SOL    HW123288   3.563   3.222   1.587
 7463SOL    HW223289   3.662   3.152   1.697
 7464SOL     OW23290   4.119   6.182   0.702
 7464SOL    HW123291   4.053   6.254   0.682
 7464SOL    HW223292   4.106   6.106   0.639
 7465SOL     OW23293   1.979   6.798   1.375
 7465SOL    HW123294   1.950   6.867   1.308
 7465SOL    HW223295   1.918   6.720   1.370
 7466SOL     OW23296   0.328   0.460   6.256
 7466SOL    HW123297   0.350   0.555   6.237
 7466SOL    HW223298   0.326   0.408   6.170
 7467SOL     OW23299   6.877   2.395   1.254
 7467SOL    HW123300   6.798   2.356   1.207
 7467SOL    HW223301   6.958   2.340   1.232
 7468SOL     OW23302   5.369   1.959   2.281
 7468SOL    HW123303   5.423   2.020   2.223
 7468SOL    HW223304   5.400   1.968   2.376
 7469SOL     OW23305   1.518   6.959   6.543
 7469SOL    HW123306   1.455   6.885   6.519
 7469SOL    HW223307   1.545   6.951   6.638
 7470SOL     OW23308   0.458   1.858   2.233
 7470SOL    HW123309   0.524   1.881   2.162
 7470SOL    HW223310   0.372   1.830   2.190
 7471SOL     OW23311   6.696   0.059   4.818
 7471SOL    HW123312   6.724   0.043   4.912
 7471SOL    HW223313   6.596   0.064   4.813
 7472SOL     OW23314   3.685   0.126   4.684
 7472SOL    HW123315   3.612   0.148   4.619
 7472SOL    HW223316   3.664   0.039   4.729
 7473SOL     OW23317   6.858   3.670   4.510
 7473SOL    HW123318   6.892   3.691   4.602
 7473SOL    HW223319   6.926   3.616   4.460
 7474SOL     OW23320   3.389   0.991   4.179
 7474SOL    HW123321   3.471   1.022   4.132
 7474SOL    HW223322   3.408   0.907   4.228
 7475SOL     OW23323   4.343   0.094   2.121
 7475SOL    HW123324   4.364   7.022   2.110
 7475SOL    HW223325   4.419   0.149   2.088
 7476SOL     OW23326   4.716   5.842   4.471
 7476SOL    HW123327   4.729   5.910   4.543
 7476SOL    HW223328   4.624   5.850   4.433
 7477SOL     OW23329   4.100   1.458   4.136
 7477SOL    HW123330   4.115   1.368   4.096
 7477SOL    HW223331   4.187   1.493   4.173
 7478SOL     OW23332   2.877   3.676   6.354
 7478SOL    HW123333   2.806   3.609   6.376
 7478SOL    HW223334   2.914   3.713   6.439
 7479SOL     OW23335   4.414   1.423   0.298
 7479SOL    HW123336   4.442   1.508   0.343
 7479SOL    HW223337   4.334   1.440   0.241
 7480SOL     OW23338   5.726   5.922   1.580
 7480SOL    HW123339   5.682   6.000   1.623
 7480SOL    HW223340   5.783   5.953   1.504
 7481SOL     OW23341   5.240   5.007   1.058
 7481SOL    HW123342   5.330   4.991   1.016
 7481SOL    HW223343   5.215   5.103   1.048
 7482SOL     OW23344   4.238   0.999   2.286
 7482SOL    HW123345   4.242   1.018   2.384
 7482SOL    HW223346   4.143   0.982   2.258
 7483SOL     OW23347   3.311   2.163   4.128
 7483SOL    HW123348   3.410   2.179   4.132
 7483SOL    HW223349   3.280   2.124   4.214
 7484SOL     OW23350   1.686   6.672   1.417
 7484SOL    HW123351   1.637   6.711   1.495
 7484SOL    HW223352   1.699   6.574   1.432
 7485SOL     OW23353   3.217   5.913   5.837
 7485SOL    HW123354   3.242   5.848   5.910
 7485SOL    HW223355   3.283   5.987   5.834
 7486SOL     OW23356   3.182   6.546   5.334
 7486SOL    HW123357   3.271   6.562   5.377
 7486SOL    HW223358   3.111   6.542   5.404
 7487SOL     OW23359   2.767   6.774   3.466
 7487SOL    HW123360   2.727   6.845   3.407
 7487SOL    HW223361   2.845   6.732   3.419
 7488SOL     OW23362   3.212   6.820   5.715
 7488SOL    HW123363   3.265   6.739   5.689
 7488SOL    HW223364   3.239   6.898   5.658
 7489SOL     OW23365   4.518   2.022   4.342
 7489SOL    HW123366   4.445   1.958   4.318
 7489SOL    HW223367   4.494   2.070   4.427
 7490SOL     OW23368   0.218   0.626   0.750
 7490SOL    HW123369   0.281   0.621   0.673
 7490SOL    HW223370   0.241   0.556   0.817
 7491SOL     OW23371   0.046   5.661   6.350
 7491SOL    HW123372   0.120   5.594   6.348
 7491SOL    HW223373   0.010   5.674   6.258
 7492SOL     OW23374   1.583   2.431   5.423
 7492SOL    HW123375   1.638   2.448   5.505
 7492SOL    HW223376   1.617   2.487   5.348
 7493SOL     OW23377   6.016   4.429   5.970
 7493SOL    HW123378   5.924   4.423   5.931
 7493SOL    HW223379   6.046   4.338   5.999
 7494SOL     OW23380   5.769   0.710   2.402
 7494SOL    HW123381   5.805   0.709   2.496
 7494SOL    HW223382   5.708   0.789   2.391
 7495SOL     OW23383   2.013   1.790   0.609
 7495SOL    HW123384   2.083   1.721   0.626
 7495SOL    HW223385   1.966   1.812   0.695
 7496SOL     OW23386   1.132   5.047   6.112
 7496SOL    HW123387   1.091   5.131   6.077
 7496SOL    HW223388   1.149   5.057   6.210
 7497SOL     OW23389   2.689   5.102   1.981
 7497SOL    HW123390   2.773   5.148   1.952
 7497SOL    HW223391   2.616   5.122   1.915
 7498SOL     OW23392   2.653   1.174   4.598
 7498SOL    HW123393   2.658   1.074   4.600
 7498SOL    HW223394   2.733   1.210   4.550
 7499SOL     OW23395   5.445   6.639   4.262
 7499SOL    HW123396   5.351   6.613   4.240
 7499SOL    HW223397   5.499   6.556   4.281
 7500SOL     OW23398   4.165   5.979   2.790
 7500SOL    HW123399   4.245   5.925   2.818
 7500SOL    HW223400   4.196   6.063   2.745
 7501SOL     OW23401   1.028   2.837   4.047
 7501SOL    HW123402   0.997   2.867   3.957
 7501SOL    HW223403   0.952   2.795   4.097
 7502SOL     OW23404   1.846   0.988   5.176
 7502SOL    HW123405   1.861   0.955   5.083
 7502SOL    HW223406   1.824   0.911   5.236
 7503SOL     OW23407   2.630   0.818   6.387
 7503SOL    HW123408   2.657   0.914   6.378
 7503SOL    HW223409   2.684   0.775   6.459
 7504SOL     OW23410   3.948   6.675   3.583
 7504SOL    HW123411   3.954   6.683   3.682
 7504SOL    HW223412   4.036   6.698   3.542
 7505SOL     OW23413   2.387   0.923   5.353
 7505SOL    HW123414   2.433   1.008   5.377
 7505SOL    HW223415   2.421   0.849   5.411
 7506SOL     OW23416   3.458   0.911   2.599
 7506SOL    HW123417   3.383   0.972   2.627
 7506SOL    HW223418   3.528   0.964   2.552
 7507SOL     OW23419   0.637   6.061   6.353
 7507SOL    HW123420   0.653   6.056   6.255
 7507SOL    HW223421   0.718   6.096   6.399
 7508SOL     OW23422   5.627   6.572   3.032
 7508SOL    HW123423   5.579   6.486   3.052
 7508SOL    HW223424   5.611   6.636   3.107
 7509SOL     OW23425   5.289   4.300   6.853
 7509SOL    HW123426   5.215   4.258   6.801
 7509SOL    HW223427   5.324   4.235   6.920
 7510SOL     OW23428   3.261   4.065   4.528
 7510SOL    HW123429   3.268   4.004   4.607
 7510SOL    HW223430   3.214   4.149   4.556
 7511SOL     OW23431   1.681   0.258   2.542
 7511SOL    HW123432   1.778   0.269   2.560
 7511SOL    HW223433   1.662   0.277   2.445
 7512SOL     OW23434   2.610   3.519   1.467
 7512SOL    HW123435   2.678   3.507   1.540
 7512SOL    HW223436   2.649   3.573   1.393
 7513SOL     OW23437   1.113   2.618   6.310
 7513SOL    HW123438   1.195   2.614   6.367
 7513SOL    HW223439   1.131   2.574   6.222
 7514SOL     OW23440   2.961   6.032   1.641
 7514SOL    HW123441   3.033   6.047   1.709
 7514SOL    HW223442   2.955   6.111   1.581
 7515SOL     OW23443   0.423   0.021   2.644
 7515SOL    HW123444   0.425   0.084   2.567
 7515SOL    HW223445   0.392   0.070   2.726
 7516SOL     OW23446   6.851   6.863   4.175
 7516SOL    HW123447   6.898   6.785   4.215
 7516SOL    HW223448   6.847   6.852   4.075
 7517SOL     OW23449   0.173   3.456   1.296
 7517SOL    HW123450   0.116   3.461   1.214
 7517SOL    HW223451   0.245   3.525   1.291
 7518SOL     OW23452   4.178   5.768   3.617
 7518SOL    HW123453   4.154   5.688   3.671
 7518SOL    HW223454   4.157   5.851   3.669
 7519SOL     OW23455   1.301   6.713   4.688
 7519SOL    HW123456   1.315   6.807   4.719
 7519SOL    HW223457   1.251   6.712   4.602
 7520SOL     OW23458   1.594   6.663   2.964
 7520SOL    HW123459   1.676   6.624   3.006
 7520SOL    HW223460   1.621   6.722   2.888
 7521SOL     OW23461   4.679   4.379   5.173
 7521SOL    HW123462   4.771   4.412   5.195
 7521SOL    HW223463   4.618   4.393   5.251
 7522SOL     OW23464   2.099   1.189   0.021
 7522SOL    HW123465   2.130   1.099   7.017
 7522SOL    HW223466   2.022   1.179   0.085
 7523SOL     OW23467   6.255   6.834   5.402
 7523SOL    HW123468   6.286   6.929   5.395
 7523SOL    HW223469   6.180   6.820   5.337
 7524SOL     OW23470   6.988   1.761   5.613
 7524SOL    HW123471   0.007   1.677   5.581
 7524SOL    HW223472   6.970   1.755   5.711
 7525SOL     OW23473   1.970   0.321   0.306
 7525SOL    HW123474   2.016   0.335   0.393
 7525SOL    HW223475   1.905   0.245   0.314
 7526SOL     OW23476   3.441   3.224   4.734
 7526SOL    HW123477   3.386   3.142   4.754
 7526SOL    HW223478   3.530   3.216   4.779
 7527SOL     OW23479   4.986   4.044   2.795
 7527SOL    HW123480   4.954   4.083   2.709
 7527SOL    HW223481   5.079   4.077   2.813
 7528SOL     OW23482   4.482   2.759   0.607
 7528SOL    HW123483   4.555   2.795   0.665
 7528SOL    HW223484   4.394   2.779   0.649
 7529SOL     OW23485   4.357   1.031   4.073
 7529SOL    HW123486   4.277   0.974   4.058
 7529SOL    HW223487   4.420   0.984   4.135
 7530SOL     OW23488   0.169   3.444   2.692
 7530SOL    HW123489   0.210   3.433   2.783
 7530SOL    HW223490   0.162   3.541   2.671
 7531SOL     OW23491   4.224   1.699   3.658
 7531SOL    HW123492   4.311   1.745   3.672
 7531SOL    HW223493   4.152   1.748   3.707
 7532SOL     OW23494   5.308   5.995   2.200
 7532SOL    HW123495   5.211   5.991   2.225
 7532SOL    HW223496   5.343   6.087   2.219
 7533SOL     OW23497   2.793   1.299   3.830
 7533SOL    HW123498   2.744   1.214   3.846
 7533SOL    HW223499   2.883   1.280   3.792
 7534SOL     OW23500   3.892   6.385   5.414
 7534SOL    HW123501   3.936   6.439   5.487
 7534SOL    HW223502   3.810   6.341   5.451
 7535SOL     OW23503   2.835   1.779   5.048
 7535SOL    HW123504   2.845   1.874   5.078
 7535SOL    HW223505   2.826   1.777   4.948
 7536SOL     OW23506   4.659   5.337   5.061
 7536SOL    HW123507   4.612   5.251   5.083
 7536SOL    HW223508   4.722   5.323   4.985
 7537SOL     OW23509   2.193   4.426   4.664
 7537SOL    HW123510   2.210   4.337   4.706
 7537SOL    HW223511   2.153   4.413   4.573
 7538SOL     OW23512   3.506   3.250   3.090
 7538SOL    HW123513   3.546   3.248   2.999
 7538SOL    HW223514   3.418   3.297   3.088
 7539SOL     OW23515   1.733   2.911   5.328
 7539SOL    HW123516   1.663   2.842   5.309
 7539SOL    HW223517   1.695   3.002   5.313
 7540SOL     OW23518   2.786   0.687   6.913
 7540SOL    HW123519   2.718   0.730   6.854
 7540SOL    HW223520   2.877   0.705   6.877
 7541SOL     OW23521   6.363   2.797   5.611
 7541SOL    HW123522   6.302   2.855   5.664
 7541SOL    HW223523   6.416   2.738   5.672
 7542SOL     OW23524   1.182   0.244   5.572
 7542SOL    HW123525   1.103   0.189   5.598
 7542SOL    HW223526   1.198   0.315   5.641
 7543SOL     OW23527   4.050   2.570   0.386
 7543SOL    HW123528   3.980   2.641   0.379
 7543SOL    HW223529   4.114   2.579   0.310
 7544SOL     OW23530   0.565   2.036   2.671
 7544SOL    HW123531   0.536   1.974   2.744
 7544SOL    HW223532   0.636   1.992   2.616
 7545SOL     OW23533   4.799   6.868   2.733
 7545SOL    HW123534   4.745   6.847   2.815
 7545SOL    HW223535   4.744   6.848   2.652
 7546SOL     OW23536   5.010   1.123   0.236
 7546SOL    HW123537   4.970   1.117   0.327
 7546SOL    HW223538   5.085   1.189   0.236
 7547SOL     OW23539   4.007   0.609   0.180
 7547SOL    HW123540   4.011   0.641   0.085
 7547SOL    HW223541   4.023   0.511   0.183
 7548SOL     OW23542   2.336   1.752   0.954
 7548SOL    HW123543   2.254   1.786   1.000
 7548SOL    HW223544   2.354   1.658   0.984
 7549SOL     OW23545   5.609   1.692   2.542
 7549SOL    HW123546   5.585   1.671   2.447
 7549SOL    HW223547   5.703   1.725   2.546
 7550SOL     OW23548   1.595   5.575   2.432
 7550SOL    HW123549   1.539   5.626   2.497
 7550SOL    HW223550   1.659   5.517   2.482
 7551SOL     OW23551   4.375   3.332   6.925
 7551SOL    HW123552   4.449   3.397   6.939
 7551SOL    HW223553   4.389   3.283   6.838
 7552SOL     OW23554   2.535   5.728   4.607
 7552SOL    HW123555   2.625   5.715   4.565
 7552SOL    HW223556   2.482   5.643   4.599
 7553SOL     OW23557   4.204   4.554   6.101
 7553SOL    HW123558   4.194   4.647   6.136
 7553SOL    HW223559   4.117   4.505   6.112
 7554SOL     OW23560   4.998   2.121   0.653
 7554SOL    HW123561   5.006   2.130   0.753
 7554SOL    HW223562   4.974   2.209   0.613
 7555SOL     OW23563   0.639   5.573   5.339
 7555SOL    HW123564   0.678   5.608   5.424
 7555SOL    HW223565   0.560   5.516   5.359
 7556SOL     OW23566   0.686   3.120   5.281
 7556SOL    HW123567   0.672   3.023   5.300
 7556SOL    HW223568   0.750   3.158   5.349
 7557SOL     OW23569   5.209   4.184   6.212
 7557SOL    HW123570   5.201   4.099   6.265
 7557SOL    HW223571   5.147   4.252   6.250
 7558SOL     OW23572   2.054   2.232   3.782
 7558SOL    HW123573   2.115   2.309   3.763
 7558SOL    HW223574   1.960   2.258   3.761
 7559SOL     OW23575   6.318   5.327   0.954
 7559SOL    HW123576   6.397   5.304   1.011
 7559SOL    HW223577   6.349   5.374   0.872
 7560SOL     OW23578   4.926   0.099   0.554
 7560SOL    HW123579   4.964   0.121   0.464
 7560SOL    HW223580   4.887   0.182   0.595
 7561SOL     OW23581   0.932   3.355   0.856
 7561SOL    HW123582   0.880   3.438   0.874
 7561SOL    HW223583   0.950   3.308   0.942
 7562SOL     OW23584   5.636   6.518   4.823
 7562SOL    HW123585   5.579   6.532   4.904
 7562SOL    HW223586   5.695   6.597   4.809
 7563SOL     OW23587   2.834   0.490   1.764
 7563SOL    HW123588   2.814   0.438   1.847
 7563SOL    HW223589   2.779   0.456   1.689
 7564SOL     OW23590   5.573   0.062   3.003
 7564SOL    HW123591   5.527   0.122   2.938
 7564SOL    HW223592   5.516   7.006   3.019
 7565SOL     OW23593   5.250   5.123   6.524
 7565SOL    HW123594   5.335   5.176   6.521
 7565SOL    HW223595   5.246   5.062   6.445
 7566SOL     OW23596   6.873   4.853   4.069
 7566SOL    HW123597   6.835   4.905   3.992
 7566SOL    HW223598   6.961   4.892   4.095
 7567SOL     OW23599   2.687   4.170   6.038
 7567SOL    HW123600   2.694   4.270   6.037
 7567SOL    HW223601   2.659   4.139   6.128
 7568SOL     OW23602   5.619   5.585   3.789
 7568SOL    HW123603   5.586   5.635   3.708
 7568SOL    HW223604   5.711   5.550   3.772
 7569SOL     OW23605   4.336   6.065   6.698
 7569SOL    HW123606   4.367   6.087   6.605
 7569SOL    HW223607   4.250   6.015   6.694
 7570SOL     OW23608   5.680   4.569   4.829
 7570SOL    HW123609   5.762   4.541   4.879
 7570SOL    HW223610   5.698   4.563   4.730
 7571SOL     OW23611   5.362   3.676   2.026
 7571SOL    HW123612   5.330   3.677   1.932
 7571SOL    HW223613   5.284   3.672   2.089
 7572SOL     OW23614   5.243   0.180   3.652
 7572SOL    HW123615   5.235   0.100   3.593
 7572SOL    HW223616   5.243   0.151   3.748
 7573SOL     OW23617   6.885   5.942   4.320
 7573SOL    HW123618   6.954   5.905   4.382
 7573SOL    HW223619   6.860   5.871   4.253
 7574SOL     OW23620   6.225   1.214   3.707
 7574SOL    HW123621   6.129   1.218   3.678
 7574SOL    HW223622   6.282   1.189   3.629
 7575SOL     OW23623   4.468   1.201   6.175
 7575SOL    HW123624   4.561   1.219   6.143
 7575SOL    HW223625   4.468   1.188   6.274
 7576SOL     OW23626   5.451   4.978   0.353
 7576SOL    HW123627   5.429   4.907   0.286
 7576SOL    HW223628   5.408   5.064   0.325
 7577SOL     OW23629   6.466   0.186   4.504
 7577SOL    HW123630   6.540   0.246   4.474
 7577SOL    HW223631   6.505   0.105   4.548
 7578SOL     OW23632   2.213   6.428   4.271
 7578SOL    HW123633   2.164   6.421   4.358
 7578SOL    HW223634   2.311   6.420   4.287
 7579SOL     OW23635   4.331   2.299   2.358
 7579SOL    HW123636   4.256   2.273   2.420
 7579SOL    HW223637   4.390   2.366   2.403
 7580SOL     OW23638   1.265   3.539   2.775
 7580SOL    HW123639   1.179   3.587   2.760
 7580SOL    HW223640   1.270   3.509   2.871
 7581SOL     OW23641   5.372   2.072   0.589
 7581SOL    HW123642   5.330   2.123   0.514
 7581SOL    HW223643   5.301   2.023   0.640
 7582SOL     OW23644   3.800   1.606   0.424
 7582SOL    HW123645   3.797   1.577   0.520
 7582SOL    HW223646   3.762   1.534   0.366
 7583SOL     OW23647   5.961   4.192   2.124
 7583SOL    HW123648   5.871   4.151   2.137
 7583SOL    HW223649   6.031   4.121   2.136
 7584SOL     OW23650   2.529   6.607   1.283
 7584SOL    HW123651   2.429   6.604   1.273
 7584SOL    HW223652   2.554   6.679   1.347
 7585SOL     OW23653   1.109   4.081   6.333
 7585SOL    HW123654   1.085   4.099   6.428
 7585SOL    HW223655   1.199   4.121   6.314
 7586SOL     OW23656   2.942   0.148   2.464
 7586SOL    HW123657   3.007   0.220   2.439
 7586SOL    HW223658   2.870   0.142   2.395
 7587SOL     OW23659   2.159   1.690   6.815
 7587SOL    HW123660   2.121   1.782   6.816
 7587SOL    HW223661   2.202   1.670   6.903
 7588SOL     OW23662   0.606   5.005   2.330
 7588SOL    HW123663   0.615   5.101   2.355
 7588SOL    HW223664   0.696   4.961   2.334
 7589SOL     OW23665   5.815   6.015   0.413
 7589SOL    HW123666   5.795   6.108   0.384
 7589SOL    HW223667   5.910   6.008   0.441
 7590SOL     OW23668   2.899   1.657   5.591
 7590SOL    HW123669   2.892   1.756   5.578
 7590SOL    HW223670   2.973   1.622   5.532
 7591SOL     OW23671   0.178   4.922   0.444
 7591SOL    HW123672   0.085   4.913   0.480
 7591SOL    HW223673   0.201   5.018   0.434
 7592SOL     OW23674   6.603   4.908   0.158
 7592SOL    HW123675   6.538   4.958   0.216
 7592SOL    HW223676   6.693   4.910   0.201
 7593SOL     OW23677   5.567   2.698   0.296
 7593SOL    HW123678   5.529   2.690   0.388
 7593SOL    HW223679   5.611   2.787   0.286
 7594SOL     OW23680   0.856   4.874   3.216
 7594SOL    HW123681   0.819   4.930   3.290
 7594SOL    HW223682   0.888   4.787   3.254
 7595SOL     OW23683   0.333   3.472   6.241
 7595SOL    HW123684   0.281   3.546   6.283
 7595SOL    HW223685   0.271   3.405   6.200
 7596SOL     OW23686   5.076   5.057   2.582
 7596SOL    HW123687   5.144   5.010   2.639
 7596SOL    HW223688   4.996   4.997   2.571
 7597SOL     OW23689   3.220   5.555   2.113
 7597SOL    HW123690   3.188   5.593   2.026
 7597SOL    HW223691   3.143   5.514   2.162
 7598SOL     OW23692   6.813   0.269   2.619
 7598SOL    HW123693   6.867   0.352   2.610
 7598SOL    HW223694   6.825   0.231   2.710
 7599SOL     OW23695   5.876   1.704   3.562
 7599SOL    HW123696   5.783   1.730   3.537
 7599SOL    HW223697   5.914   1.773   3.624
 7600SOL     OW23698   1.639   0.254   1.953
 7600SOL    HW123699   1.684   0.343   1.948
 7600SOL    HW223700   1.556   0.261   2.008
 7601SOL     OW23701   2.026   5.604   3.512
 7601SOL    HW123702   2.126   5.603   3.511
 7601SOL    HW223703   1.995   5.633   3.603
 7602SOL     OW23704   2.318   4.527   4.919
 7602SOL    HW123705   2.267   4.580   4.852
 7602SOL    HW223706   2.416   4.530   4.897
 7603SOL     OW23707   1.177   6.302   6.435
 7603SOL    HW123708   1.092   6.264   6.469
 7603SOL    HW223709   1.254   6.260   6.484
 7604SOL     OW23710   3.649   5.987   4.011
 7604SOL    HW123711   3.645   5.915   3.943
 7604SOL    HW223712   3.688   5.952   4.096
 7605SOL     OW23713   1.759   5.694   0.115
 7605SOL    HW123714   1.852   5.659   0.107
 7605SOL    HW223715   1.735   5.744   0.031
 7606SOL     OW23716   0.314   2.804   2.161
 7606SOL    HW123717   0.375   2.778   2.085
 7606SOL    HW223718   0.346   2.761   2.245
 7607SOL     OW23719   4.652   6.942   0.143
 7607SOL    HW123720   4.602   7.003   0.205
 7607SOL    HW223721   4.598   6.860   0.127
 7608SOL     OW23722   3.404   4.123   3.344
 7608SOL    HW123723   3.500   4.116   3.371
 7608SOL    HW223724   3.354   4.042   3.375
 7609SOL     OW23725   6.843   3.769   3.871
 7609SOL    HW123726   6.761   3.819   3.844
 7609SOL    HW223727   6.862   3.786   3.968
 7610SOL     OW23728   6.181   0.566   1.160
 7610SOL    HW123729   6.175   0.643   1.096
 7610SOL    HW223730   6.091   0.524   1.169
 7611SOL     OW23731   1.403   1.912   0.028
 7611SOL    HW123732   1.381   1.815   0.039
 7611SOL    HW223733   1.491   1.932   0.071
 7612SOL     OW23734   3.858   1.369   4.274
 7612SOL    HW123735   3.957   1.385   4.275
 7612SOL    HW223736   3.820   1.396   4.186
 7613SOL     OW23737   4.934   1.732   1.412
 7613SOL    HW123738   4.855   1.753   1.471
 7613SOL    HW223739   4.933   1.793   1.333
 7614SOL     OW23740   3.921   2.354   1.697
 7614SOL    HW123741   3.936   2.451   1.711
 7614SOL    HW223742   3.866   2.317   1.772
 7615SOL     OW23743   4.901   5.020   6.479
 7615SOL    HW123744   4.899   5.102   6.537
 7615SOL    HW223745   4.956   5.038   6.398
 7616SOL     OW23746   0.815   4.255   4.214
 7616SOL    HW123747   0.883   4.259   4.287
 7616SOL    HW223748   0.770   4.166   4.214
 7617SOL     OW23749   3.074   5.808   3.954
 7617SOL    HW123750   3.100   5.797   3.858
 7617SOL    HW223751   3.128   5.744   4.010
 7618SOL     OW23752   1.124   2.286   6.188
 7618SOL    HW123753   1.043   2.228   6.177
 7618SOL    HW223754   1.129   2.351   6.112
 7619SOL     OW23755   5.714   3.595   5.822
 7619SOL    HW123756   5.730   3.502   5.787
 7619SOL    HW223757   5.650   3.591   5.898
 7620SOL     OW23758   3.668   0.536   1.201
 7620SOL    HW123759   3.763   0.561   1.222
 7620SOL    HW223760   3.642   0.577   1.114
 7621SOL     OW23761   0.935   0.434   0.013
 7621SOL    HW123762   0.836   0.429   7.022
 7621SOL    HW223763   0.975   0.342   0.004
 7622SOL     OW23764   5.044   2.884   1.603
 7622SOL    HW123765   4.960   2.876   1.549
 7622SOL    HW223766   5.030   2.949   1.677
 7623SOL     OW23767   4.578   5.728   6.243
 7623SOL    HW123768   4.566   5.647   6.300
 7623SOL    HW223769   4.652   5.784   6.281
 7624SOL     OW23770   0.249   2.193   3.583
 7624SOL    HW123771   0.163   2.163   3.540
 7624SOL    HW223772   0.325   2.171   3.522
 7625SOL     OW23773   5.426   1.372   0.393
 7625SOL    HW123774   5.502   1.422   0.352
 7625SOL    HW223775   5.412   1.404   0.487
 7626SOL     OW23776   0.092   6.874   5.025
 7626SOL    HW123777   0.157   6.905   4.956
 7626SOL    HW223778   0.040   6.797   4.989
 7627SOL     OW23779   6.321   3.678   0.622
 7627SOL    HW123780   6.288   3.767   0.589
 7627SOL    HW223781   6.327   3.679   0.722
 7628SOL     OW23782   2.679   0.612   1.376
 7628SOL    HW123783   2.675   0.712   1.373
 7628SOL    HW223784   2.592   0.574   1.346
 7629SOL     OW23785   6.339   6.169   2.660
 7629SOL    HW123786   6.410   6.169   2.730
 7629SOL    HW223787   6.364   6.106   2.587
 7630SOL     OW23788   6.173   6.724   2.237
 7630SOL    HW123789   6.224   6.653   2.188
 7630SOL    HW223790   6.184   6.710   2.336
 7631SOL     OW23791   1.189   1.960   5.181
 7631SOL    HW123792   1.181   2.060   5.182
 7631SOL    HW223793   1.271   1.933   5.130
 7632SOL     OW23794   4.131   2.201   1.234
 7632SOL    HW123795   4.034   2.191   1.213
 7632SOL    HW223796   4.172   2.269   1.173
 7633SOL     OW23797   5.621   3.186   0.314
 7633SOL    HW123798   5.547   3.176   0.381
 7633SOL    HW223799   5.697   3.126   0.339
 7634SOL     OW23800   1.624   1.075   2.272
 7634SOL    HW123801   1.560   1.040   2.204
 7634SOL    HW223802   1.645   1.003   2.338
 7635SOL     OW23803   2.481   5.317   5.546
 7635SOL    HW123804   2.524   5.287   5.461
 7635SOL    HW223805   2.547   5.313   5.620
 7636SOL     OW23806   1.343   1.111   3.671
 7636SOL    HW123807   1.408   1.040   3.645
 7636SOL    HW223808   1.347   1.124   3.771
 7637SOL     OW23809   1.722   6.595   3.877
 7637SOL    HW123810   1.739   6.658   3.952
 7637SOL    HW223811   1.645   6.536   3.900
 7638SOL     OW23812   5.542   5.743   1.623
 7638SOL    HW123813   5.577   5.657   1.585
 7638SOL    HW223814   5.611   5.814   1.613
 7639SOL     OW23815   1.387   2.049   6.532
 7639SOL    HW123816   1.296   2.059   6.493
 7639SOL    HW223817   1.451   2.019   6.462
 7640SOL     OW23818   2.215   2.026   0.663
 7640SOL    HW123819   2.243   2.099   0.726
 7640SOL    HW223820   2.116   2.026   0.654
 7641SOL     OW23821   0.856   4.628   2.088
 7641SOL    HW123822   0.867   4.584   2.177
 7641SOL    HW223823   0.917   4.708   2.083
 7642SOL     OW23824   2.755   1.530   2.851
 7642SOL    HW123825   2.842   1.487   2.872
 7642SOL    HW223826   2.722   1.581   2.931
 7643SOL     OW23827   4.925   2.730   3.567
 7643SOL    HW123828   4.927   2.645   3.620
 7643SOL    HW223829   4.960   2.805   3.623
 7644SOL     OW23830   6.241   2.102   2.292
 7644SOL    HW123831   6.174   2.070   2.359
 7644SOL    HW223832   6.330   2.113   2.336
 7645SOL     OW23833   4.810   5.292   6.176
 7645SOL    HW123834   4.906   5.264   6.169
 7645SOL    HW223835   4.755   5.216   6.208
 7646SOL     OW23836   1.670   1.936   2.238
 7646SOL    HW123837   1.608   1.874   2.285
 7646SOL    HW223838   1.764   1.901   2.246
 7647SOL     OW23839   0.906   3.351   1.966
 7647SOL    HW123840   0.983   3.291   1.988
 7647SOL    HW223841   0.940   3.435   1.926
 7648SOL     OW23842   4.593   2.396   3.524
 7648SOL    HW123843   4.624   2.490   3.515
 7648SOL    HW223844   4.642   2.352   3.600
 7649SOL     OW23845   0.582   0.362   2.107
 7649SOL    HW123846   0.665   0.307   2.110
 7649SOL    HW223847   0.504   0.303   2.086
 7650SOL     OW23848   6.277   3.033   2.132
 7650SOL    HW123849   6.214   3.019   2.056
 7650SOL    HW223850   6.366   2.993   2.110
 7651SOL     OW23851   2.367   6.935   7.000
 7651SOL    HW123852   2.377   6.932   0.075
 7651SOL    HW223853   2.315   7.017   6.975
 7652SOL     OW23854   6.406   3.905   4.549
 7652SOL    HW123855   6.451   3.991   4.573
 7652SOL    HW223856   6.474   3.840   4.516
 7653SOL     OW23857   1.891   1.255   0.733
 7653SOL    HW123858   1.876   1.165   0.690
 7653SOL    HW223859   1.892   1.326   0.662
 7654SOL     OW23860   4.860   2.631   3.123
 7654SOL    HW123861   4.795   2.670   3.188
 7654SOL    HW223862   4.811   2.601   3.041
 7655SOL     OW23863   4.156   0.299   3.882
 7655SOL    HW123864   4.082   0.306   3.815
 7655SOL    HW223865   4.148   0.213   3.932
 7656SOL     OW23866   0.344   5.657   5.932
 7656SOL    HW123867   0.412   5.675   6.004
 7656SOL    HW223868   0.271   5.600   5.969
 7657SOL     OW23869   3.277   2.088   2.900
 7657SOL    HW123870   3.234   2.178   2.902
 7657SOL    HW223871   3.315   2.071   2.809
 7658SOL     OW23872   4.658   0.374   6.433
 7658SOL    HW123873   4.659   0.458   6.488
 7658SOL    HW223874   4.565   0.354   6.403
 7659SOL     OW23875   5.593   6.841   0.413
 7659SOL    HW123876   5.683   6.876   0.385
 7659SOL    HW223877   5.567   6.766   0.353
 7660SOL     OW23878   5.872   5.928   3.717
 7660SOL    HW123879   5.909   5.852   3.770
 7660SOL    HW223880   5.872   6.011   3.773
 7661SOL     OW23881   6.087   1.906   4.845
 7661SOL    HW123882   5.998   1.934   4.881
 7661SOL    HW223883   6.156   1.912   4.917
 7662SOL     OW23884   1.745   2.533   1.857
 7662SOL    HW123885   1.845   2.530   1.855
 7662SOL    HW223886   1.709   2.440   1.851
 7663SOL     OW23887   6.844   5.506   6.385
 7663SOL    HW123888   6.915   5.567   6.351
 7663SOL    HW223889   6.879   5.412   6.388
 7664SOL     OW23890   2.962   6.507   2.754
 7664SOL    HW123891   2.973   6.591   2.701
 7664SOL    HW223892   2.935   6.531   2.848
 7665SOL     OW23893   3.518   0.087   3.654
 7665SOL    HW123894   3.595   0.086   3.589
 7665SOL    HW223895   3.441   0.039   3.614
 7666SOL     OW23896   0.232   6.884   1.508
 7666SOL    HW123897   0.180   6.799   1.514
 7666SOL    HW223898   0.296   6.879   1.431
 7667SOL     OW23899   4.858   5.716   0.278
 7667SOL    HW123900   4.881   5.686   0.371
 7667SOL    HW223901   4.940   5.751   0.233
 7668SOL     OW23902   3.509   3.882   1.457
 7668SOL    HW123903   3.606   3.860   1.456
 7668SOL    HW223904   3.480   3.909   1.365
 7669SOL     OW23905   5.601   1.265   4.689
 7669SOL    HW123906   5.505   1.271   4.663
 7669SOL    HW223907   5.659   1.278   4.608
 7670SOL     OW23908   1.425   6.014   6.563
 7670SOL    HW123909   1.401   6.071   6.641
 7670SOL    HW223910   1.492   5.945   6.591
 7671SOL     OW23911   4.883   1.160   4.442
 7671SOL    HW123912   4.886   1.135   4.345
 7671SOL    HW223913   4.882   1.260   4.451
 7672SOL     OW23914   6.056   6.954   3.915
 7672SOL    HW123915   6.089   0.014   3.873
 7672SOL    HW223916   6.131   6.910   3.965
 7673SOL     OW23917   1.887   5.199   0.846
 7673SOL    HW123918   1.949   5.218   0.770
 7673SOL    HW223919   1.883   5.100   0.861
 7674SOL     OW23920   6.687   1.878   4.321
 7674SOL    HW123921   6.607   1.850   4.373
 7674SOL    HW223922   6.768   1.830   4.355
 7675SOL     OW23923   5.203   0.911   2.250
 7675SOL    HW123924   5.228   0.990   2.194
 7675SOL    HW223925   5.135   0.938   2.318
 7676SOL     OW23926   0.639   2.073   6.844
 7676SOL    HW123927   0.667   1.985   6.883
 7676SOL    HW223928   0.656   2.145   6.910
 7677SOL     OW23929   1.712   2.752   1.688
 7677SOL    HW123930   1.733   2.656   1.703
 7677SOL    HW223931   1.796   2.804   1.677
 7678SOL     OW23932   1.723   0.842   6.071
 7678SOL    HW123933   1.635   0.862   6.026
 7678SOL    HW223934   1.750   0.748   6.050
 7679SOL     OW23935   1.247   5.850   5.173
 7679SOL    HW123936   1.273   5.823   5.081
 7679SOL    HW223937   1.317   5.822   5.238
 7680SOL     OW23938   2.266   2.871   6.939
 7680SOL    HW123939   2.345   2.829   6.896
 7680SOL    HW223940   2.276   2.867   0.014
 7681SOL     OW23941   3.262   0.449   0.606
 7681SOL    HW123942   3.323   0.444   0.526
 7681SOL    HW223943   3.181   0.393   0.589
 7682SOL     OW23944   2.358   6.601   1.677
 7682SOL    HW123945   2.351   6.603   1.577
 7682SOL    HW223946   2.451   6.575   1.703
 7683SOL     OW23947   6.633   2.728   3.017
 7683SOL    HW123948   6.596   2.819   3.034
 7683SOL    HW223949   6.732   2.729   3.027
 7684SOL     OW23950   5.833   2.429   6.770
 7684SOL    HW123951   5.780   2.389   6.694
 7684SOL    HW223952   5.858   2.356   6.834
 7685SOL     OW23953   3.560   2.492   0.291
 7685SOL    HW123954   3.616   2.484   0.209
 7685SOL    HW223955   3.616   2.475   0.372
 7686SOL     OW23956   4.220   0.337   2.971
 7686SOL    HW123957   4.224   0.413   2.906
 7686SOL    HW223958   4.209   0.251   2.921
 7687SOL     OW23959   5.483   6.016   5.960
 7687SOL    HW123960   5.411   6.051   5.900
 7687SOL    HW223961   5.443   5.955   6.028
 7688SOL     OW23962   6.854   6.844   6.074
 7688SOL    HW123963   6.764   6.830   6.033
 7688SOL    HW223964   6.855   6.809   6.167
 7689SOL     OW23965   5.098   5.957   4.144
 7689SOL    HW123966   5.196   5.933   4.145
 7689SOL    HW223967   5.079   6.016   4.066
 7690SOL     OW23968   5.685   5.826   2.576
 7690SOL    HW123969   5.674   5.781   2.487
 7690SOL    HW223970   5.730   5.914   2.563
 7691SOL     OW23971   4.889   3.147   4.056
 7691SOL    HW123972   4.825   3.070   4.051
 7691SOL    HW223973   4.982   3.114   4.039
 7692SOL     OW23974   0.950   6.871   1.108
 7692SOL    HW123975   0.855   6.891   1.132
 7692SOL    HW223976   0.978   6.931   1.033
 7693SOL     OW23977   4.294   1.013   6.856
 7693SOL    HW123978   4.273   0.922   6.890
 7693SOL    HW223979   4.220   1.045   6.797
 7694SOL     OW23980   0.692   4.741   3.801
 7694SOL    HW123981   0.778   4.729   3.850
 7694SOL    HW223982   0.620   4.689   3.846
 7695SOL     OW23983   3.957   0.649   0.873
 7695SOL    HW123984   4.017   0.682   0.945
 7695SOL    HW223985   3.955   0.716   0.798
 7696SOL     OW23986   6.957   2.401   4.204
 7696SOL    HW123987   6.939   2.309   4.238
 7696SOL    HW223988   7.017   2.396   4.124
 7697SOL     OW23989   2.381   1.033   2.724
 7697SOL    HW123990   2.383   1.105   2.655
 7697SOL    HW223991   2.475   1.008   2.749
 7698SOL     OW23992   0.077   3.349   4.581
 7698SOL    HW123993   0.077   3.289   4.501
 7698SOL    HW223994   0.155   3.410   4.577
 7699SOL     OW23995   2.433   6.074   6.718
 7699SOL    HW123996   2.460   6.162   6.679
 7699SOL    HW223997   2.336   6.058   6.701
 7700SOL     OW23998   4.318   6.960   5.268
 7700SOL    HW123999   4.285   6.886   5.327
 7700SOL    HW224000   4.407   6.933   5.229
 7701SOL     OW24001   6.555   1.492   6.316
 7701SOL    HW124002   6.519   1.482   6.223
 7701SOL    HW224003   6.499   1.557   6.366
 7702SOL     OW24004   3.695   6.413   5.937
 7702SOL    HW124005   3.612   6.357   5.943
 7702SOL    HW224006   3.693   6.466   5.852
 7703SOL     OW24007   6.773   1.421   5.070
 7703SOL    HW124008   6.682   1.441   5.105
 7703SOL    HW224009   6.776   1.437   4.972
 7704SOL     OW24010   4.167   4.844   6.102
 7704SOL    HW124011   4.231   4.903   6.053
 7704SOL    HW224012   4.103   4.899   6.155
 7705SOL     OW24013   3.529   4.668   5.392
 7705SOL    HW124014   3.433   4.662   5.418
 7705SOL    HW224015   3.549   4.759   5.355
 7706SOL     OW24016   5.970   0.818   6.026
 7706SOL    HW124017   6.046   0.755   6.009
 7706SOL    HW224018   5.995   0.880   6.100
 7707SOL     OW24019   0.168   5.369   6.276
 7707SOL    HW124020   0.241   5.323   6.326
 7707SOL    HW224021   0.080   5.330   6.303
 7708SOL     OW24022   5.190   6.052   5.092
 7708SOL    HW124023   5.128   6.131   5.096
 7708SOL    HW224024   5.207   6.019   5.184
 7709SOL     OW24025   4.892   2.896   2.525
 7709SOL    HW124026   4.926   2.939   2.442
 7709SOL    HW224027   4.851   2.808   2.503
 7710SOL     OW24028   2.341   0.209   0.912
 7710SOL    HW124029   2.300   0.152   0.983
 7710SOL    HW224030   2.319   0.171   0.822
 7711SOL     OW24031   6.400   6.582   5.337
 7711SOL    HW124032   6.363   6.667   5.375
 7711SOL    HW224033   6.333   6.540   5.276
 7712SOL     OW24034   6.993   5.412   1.389
 7712SOL    HW124035   6.970   5.420   1.292
 7712SOL    HW224036   0.016   5.495   1.418
 7713SOL     OW24037   2.247   4.122   0.707
 7713SOL    HW124038   2.157   4.096   0.741
 7713SOL    HW224039   2.290   4.187   0.771
 7714SOL     OW24040   6.217   4.661   4.353
 7714SOL    HW124041   6.129   4.708   4.350
 7714SOL    HW224042   6.287   4.722   4.390
 7715SOL     OW24043   5.075   0.734   1.076
 7715SOL    HW124044   5.012   0.791   1.130
 7715SOL    HW224045   5.025   0.658   1.036
 7716SOL     OW24046   4.829   3.028   2.803
 7716SOL    HW124047   4.847   3.031   2.705
 7716SOL    HW224048   4.836   3.120   2.842
 7717SOL     OW24049   2.816   1.293   4.850
 7717SOL    HW124050   2.724   1.274   4.814
 7717SOL    HW224051   2.820   1.265   4.946
 7718SOL     OW24052   1.915   1.624   3.128
 7718SOL    HW124053   1.959   1.615   3.218
 7718SOL    HW224054   1.893   1.720   3.111
 7719SOL     OW24055   0.006   3.239   3.925
 7719SOL    HW124056   6.965   3.212   3.855
 7719SOL    HW224057   0.099   3.218   3.894
 7720SOL     OW24058   6.554   6.147   0.987
 7720SOL    HW124059   6.571   6.078   1.057
 7720SOL    HW224060   6.456   6.150   0.967
 7721SOL     OW24061   2.079   4.443   3.025
 7721SOL    HW124062   2.040   4.517   2.971
 7721SOL    HW224063   2.011   4.370   3.036
 7722SOL     OW24064   0.154   5.267   2.784
 7722SOL    HW124065   0.250   5.296   2.783
 7722SOL    HW224066   0.096   5.347   2.768
 7723SOL     OW24067   6.947   3.617   0.569
 7723SOL    HW124068   6.892   3.677   0.511
 7723SOL    HW224069   0.009   3.596   0.524
 7724SOL     OW24070   2.172   4.293   2.198
 7724SOL    HW124071   2.239   4.249   2.258
 7724SOL    HW224072   2.178   4.253   2.106
 7725SOL     OW24073   5.146   2.325   2.869
 7725SOL    HW124074   5.052   2.293   2.853
 7725SOL    HW224075   5.151   2.423   2.852
 7726SOL     OW24076   0.025   4.528   3.651
 7726SOL    HW124077   7.013   4.445   3.692
 7726SOL    HW224078   6.975   4.585   3.616
 7727SOL     OW24079   6.116   1.929   4.010
 7727SOL    HW124080   6.054   1.862   4.051
 7727SOL    HW224081   6.207   1.920   4.052
 7728SOL     OW24082   1.275   3.174   2.863
 7728SOL    HW124083   1.212   3.148   2.936
 7728SOL    HW224084   1.358   3.119   2.869
 7729SOL     OW24085   5.931   2.794   1.184
 7729SOL    HW124086   5.893   2.702   1.183
 7729SOL    HW224087   5.998   2.804   1.110
 7730SOL     OW24088   5.555   6.154   2.420
 7730SOL    HW124089   5.498   6.128   2.498
 7730SOL    HW224090   5.497   6.186   2.345
 7731SOL     OW24091   6.366   1.093   0.594
 7731SOL    HW124092   6.337   1.003   0.629
 7731SOL    HW224093   6.286   1.142   0.561
 7732SOL     OW24094   4.819   5.730   0.744
 7732SOL    HW124095   4.764   5.813   0.753
 7732SOL    HW224096   4.772   5.653   0.786
 7733SOL     OW24097   4.053   7.007   1.476
 7733SOL    HW124098   4.121   6.969   1.413
 7733SOL    HW224099   4.064   6.966   1.567
 7734SOL     OW24100   1.577   3.326   3.288
 7734SOL    HW124101   1.670   3.360   3.301
 7734SOL    HW224102   1.519   3.358   3.363
 7735SOL     OW24103   4.775   4.560   6.676
 7735SOL    HW124104   4.790   4.503   6.595
 7735SOL    HW224105   4.753   4.653   6.646
 7736SOL     OW24106   5.159   4.536   0.737
 7736SOL    HW124107   5.214   4.488   0.806
 7736SOL    HW224108   5.192   4.630   0.729
 7737SOL     OW24109   4.739   2.174   1.027
 7737SOL    HW124110   4.676   2.200   1.100
 7737SOL    HW224111   4.714   2.221   0.943
 7738SOL     OW24112   2.604   5.789   1.086
 7738SOL    HW124113   2.600   5.812   0.989
 7738SOL    HW224114   2.699   5.768   1.111
 7739SOL     OW24115   0.877   2.447   0.812
 7739SOL    HW124116   0.870   2.383   0.736
 7739SOL    HW224117   0.788   2.456   0.857
 7740SOL     OW24118   6.996   6.751   2.524
 7740SOL    HW124119   6.931   6.814   2.567
 7740SOL    HW224120   6.983   6.659   2.562
 7741SOL     OW24121   1.569   5.314   4.565
 7741SOL    HW124122   1.566   5.386   4.495
 7741SOL    HW224123   1.544   5.352   4.653
 7742SOL     OW24124   6.248   2.136   3.233
 7742SOL    HW124125   6.287   2.197   3.165
 7742SOL    HW224126   6.265   2.173   3.325
 7743SOL     OW24127   4.308   3.156   5.810
 7743SOL    HW124128   4.305   3.196   5.718
 7743SOL    HW224129   4.227   3.099   5.823
 7744SOL     OW24130   6.933   6.446   3.863
 7744SOL    HW124131   6.886   6.534   3.865
 7744SOL    HW224132   6.980   6.432   3.949
 7745SOL     OW24133   3.853   2.306   6.189
 7745SOL    HW124134   3.819   2.388   6.236
 7745SOL    HW224135   3.898   2.332   6.104
 7746SOL     OW24136   1.490   0.017   0.409
 7746SOL    HW124137   1.517   6.960   0.460
 7746SOL    HW224138   1.442   7.016   0.326
 7747SOL     OW24139   4.867   6.758   0.812
 7747SOL    HW124140   4.964   6.779   0.823
 7747SOL    HW224141   4.857   6.669   0.767
 7748SOL     OW24142   3.143   3.732   5.951
 7748SOL    HW124143   3.048   3.728   5.919
 7748SOL    HW224144   3.149   3.697   6.044
 7749SOL     OW24145   5.029   3.287   5.518
 7749SOL    HW124146   5.025   3.278   5.419
 7749SOL    HW224147   4.952   3.239   5.559
 7750SOL     OW24148   0.760   6.580   1.695
 7750SOL    HW124149   0.705   6.594   1.777
 7750SOL    HW224150   0.831   6.650   1.690
 7751SOL     OW24151   0.932   1.346   2.264
 7751SOL    HW124152   0.972   1.394   2.186
 7751SOL    HW224153   0.918   1.410   2.339
 7752SOL     OW24154   4.947   0.583   4.603
 7752SOL    HW124155   4.897   0.643   4.541
 7752SOL    HW224156   5.034   0.625   4.628
 7753SOL     OW24157   1.750   1.353   4.138
 7753SOL    HW124158   1.677   1.373   4.204
 7753SOL    HW224159   1.836   1.392   4.172
 7754SOL     OW24160   3.477   6.002   1.956
 7754SOL    HW124161   3.576   5.995   1.966
 7754SOL    HW224162   3.450   6.098   1.955
 7755SOL     OW24163   1.707   3.939   6.646
 7755SOL    HW124164   1.756   3.855   6.672
 7755SOL    HW224165   1.770   4.002   6.602
 7756SOL     OW24166   2.073   5.669   1.540
 7756SOL    HW124167   2.133   5.748   1.530
 7756SOL    HW224168   1.982   5.700   1.569
 7757SOL     OW24169   6.976   4.671   2.006
 7757SOL    HW124170   0.006   4.691   2.087
 7757SOL    HW224171   6.882   4.698   2.022
 7758SOL     OW24172   1.604   0.894   5.601
 7758SOL    HW124173   1.514   0.926   5.571
 7758SOL    HW224174   1.649   0.965   5.656
 7759SOL     OW24175   2.643   2.598   6.189
 7759SOL    HW124176   2.584   2.548   6.126
 7759SOL    HW224177   2.698   2.533   6.241
 7760SOL     OW24178   4.166   2.065   1.802
 7760SOL    HW124179   4.112   2.067   1.718
 7760SOL    HW224180   4.105   2.053   1.880
 7761SOL     OW24181   5.022   5.544   4.648
 7761SOL    HW124182   5.016   5.643   4.659
 7761SOL    HW224183   5.054   5.502   4.733
 7762SOL     OW24184   0.171   0.327   3.879
 7762SOL    HW124185   0.147   0.269   3.957
 7762SOL    HW224186   0.102   0.398   3.867
 7763SOL     OW24187   2.604   0.341   5.286
 7763SOL    HW124188   2.536   0.268   5.278
 7763SOL    HW224189   2.567   0.426   5.248
 7764SOL     OW24190   3.139   3.667   5.612
 7764SOL    HW124191   3.072   3.740   5.606
 7764SOL    HW224192   3.226   3.704   5.646
 7765SOL     OW24193   6.871   3.288   4.139
 7765SOL    HW124194   6.836   3.372   4.098
 7765SOL    HW224195   6.935   3.245   4.076
 7766SOL     OW24196   0.533   4.677   0.142
 7766SOL    HW124197   0.569   4.647   0.230
 7766SOL    HW224198   0.443   4.719   0.155
 7767SOL     OW24199   3.497   0.332   2.826
 7767SOL    HW124200   3.481   0.347   2.924
 7767SOL    HW224201   3.469   0.414   2.775
 7768SOL     OW24202   4.250   4.631   3.165
 7768SOL    HW124203   4.157   4.669   3.173
 7768SOL    HW224204   4.268   4.606   3.070
 7769SOL     OW24205   3.612   2.337   5.438
 7769SOL    HW124206   3.567   2.418   5.477
 7769SOL    HW224207   3.579   2.323   5.345
 7770SOL     OW24208   1.218   3.391   4.791
 7770SOL    HW124209   1.243   3.480   4.753
 7770SOL    HW224210   1.262   3.319   4.739
 7771SOL     OW24211   2.770   2.677   5.946
 7771SOL    HW124212   2.776   2.607   5.875
 7771SOL    HW224213   2.758   2.634   6.036
 7772SOL     OW24214   4.918   0.899   1.233
 7772SOL    HW124215   4.859   0.909   1.313
 7772SOL    HW224216   5.012   0.884   1.262
 7773SOL     OW24217   3.141   5.796   0.088
 7773SOL    HW124218   3.210   5.861   0.059
 7773SOL    HW224219   3.184   5.708   0.107
 7774SOL     OW24220   5.054   1.352   2.672
 7774SOL    HW124221   4.978   1.319   2.616
 7774SOL    HW224222   5.030   1.344   2.769
 7775SOL     OW24223   3.406   0.860   6.914
 7775SOL    HW124224   3.339   0.929   6.943
 7775SOL    HW224225   3.482   0.906   6.868
 7776SOL     OW24226   0.803   6.850   5.304
 7776SOL    HW124227   0.835   6.932   5.351
 7776SOL    HW224228   0.856   6.771   5.334
 7777SOL     OW24229   5.547   5.020   3.743
 7777SOL    HW124230   5.455   5.057   3.734
 7777SOL    HW224231   5.548   4.949   3.814
 7778SOL     OW24232   6.171   4.223   3.096
 7778SOL    HW124233   6.124   4.152   3.148
 7778SOL    HW224234   6.231   4.180   3.028
 7779SOL     OW24235   3.130   6.157   1.826
 7779SOL    HW124236   3.071   6.225   1.870
 7779SOL    HW224237   3.225   6.170   1.857
 7780SOL     OW24238   6.503   5.890   5.158
 7780SOL    HW124239   6.588   5.912   5.111
 7780SOL    HW224240   6.481   5.793   5.143
 7781SOL     OW24241   1.731   2.928   0.700
 7781SOL    HW124242   1.816   2.980   0.708
 7781SOL    HW224243   1.680   2.933   0.786
 7782SOL     OW24244   6.079   5.151   3.410
 7782SOL    HW124245   6.084   5.068   3.354
 7782SOL    HW224246   6.171   5.185   3.427
 7783SOL     OW24247   1.007   0.261   5.238
 7783SOL    HW124248   1.105   0.279   5.242
 7783SOL    HW224249   0.958   0.346   5.221
 7784SOL     OW24250   2.450   2.220   2.133
 7784SOL    HW124251   2.533   2.199   2.081
 7784SOL    HW224252   2.370   2.185   2.084
 7785SOL     OW24253   1.249   6.277   2.533
 7785SOL    HW124254   1.181   6.231   2.476
 7785SOL    HW224255   1.341   6.250   2.505
 7786SOL     OW24256   4.427   0.501   6.705
 7786SOL    HW124257   4.502   0.552   6.748
 7786SOL    HW224258   4.463   0.416   6.666
 7787SOL     OW24259   2.629   3.243   1.320
 7787SOL    HW124260   2.648   3.311   1.391
 7787SOL    HW224261   2.712   3.226   1.267
 7788SOL     OW24262   1.424   4.486   1.304
 7788SOL    HW124263   1.324   4.481   1.308
 7788SOL    HW224264   1.451   4.531   1.219
 7789SOL     OW24265   3.018   0.853   6.683
 7789SOL    HW124266   3.025   0.941   6.731
 7789SOL    HW224267   3.110   0.818   6.664
 7790SOL     OW24268   5.674   5.094   2.100
 7790SOL    HW124269   5.659   5.045   2.186
 7790SOL    HW224270   5.732   5.173   2.117
 7791SOL     OW24271   2.285   5.514   1.832
 7791SOL    HW124272   2.323   5.453   1.762
 7791SOL    HW224273   2.358   5.571   1.870
 7792SOL     OW24274   0.950   1.526   2.485
 7792SOL    HW124275   0.966   1.618   2.521
 7792SOL    HW224276   1.003   1.460   2.538
 7793SOL     OW24277   4.412   1.796   0.162
 7793SOL    HW124278   4.340   1.858   0.131
 7793SOL    HW224279   4.494   1.810   0.106
 7794SOL     OW24280   0.897   5.547   3.397
 7794SOL    HW124281   0.841   5.564   3.315
 7794SOL    HW224282   0.894   5.449   3.419
 7795SOL     OW24283   2.637   5.538   5.923
 7795SOL    HW124284   2.700   5.527   6.000
 7795SOL    HW224285   2.679   5.595   5.853
 7796SOL     OW24286   3.801   3.443   6.613
 7796SOL    HW124287   3.883   3.403   6.654
 7796SOL    HW224288   3.743   3.370   6.578
 7797SOL     OW24289   0.570   5.678   3.653
 7797SOL    HW124290   0.628   5.694   3.733
 7797SOL    HW224291   0.517   5.761   3.633
 7798SOL     OW24292   0.517   2.117   1.257
 7798SOL    HW124293   0.468   2.201   1.282
 7798SOL    HW224294   0.549   2.124   1.163
 7799SOL     OW24295   2.784   6.542   3.622
 7799SOL    HW124296   2.762   6.609   3.551
 7799SOL    HW224297   2.736   6.457   3.603
 7800SOL     OW24298   0.333   6.175   1.312
 7800SOL    HW124299   0.400   6.243   1.340
 7800SOL    HW224300   0.370   6.084   1.325
 7801SOL     OW24301   1.520   2.332   2.380
 7801SOL    HW124302   1.557   2.321   2.472
 7801SOL    HW224303   1.526   2.428   2.352
 7802SOL     OW24304   6.726   3.973   5.782
 7802SOL    HW124305   6.636   3.951   5.819
 7802SOL    HW224306   6.731   3.945   5.686
 7803SOL     OW24307   5.051   2.306   5.191
 7803SOL    HW124308   4.999   2.308   5.277
 7803SOL    HW224309   5.049   2.214   5.153
 7804SOL     OW24310   2.543   2.395   4.741
 7804SOL    HW124311   2.589   2.423   4.826
 7804SOL    HW224312   2.457   2.349   4.764
 7805SOL     OW24313   5.400   2.768   1.311
 7805SOL    HW124314   5.447   2.740   1.395
 7805SOL    HW224315   5.449   2.845   1.270
 7806SOL     OW24316   6.392   2.247   5.775
 7806SOL    HW124317   6.485   2.212   5.771
 7806SOL    HW224318   6.368   2.287   5.686
 7807SOL     OW24319   2.679   4.810   6.068
 7807SOL    HW124320   2.776   4.816   6.091
 7807SOL    HW224321   2.625   4.825   6.151
 7808SOL     OW24322   5.214   4.200   2.779
 7808SOL    HW124323   5.201   4.246   2.867
 7808SOL    HW224324   5.194   4.265   2.705
 7809SOL     OW24325   4.951   5.008   3.613
 7809SOL    HW124326   4.942   4.934   3.679
 7809SOL    HW224327   4.873   5.070   3.623
 7810SOL     OW24328   4.118   6.358   5.233
 7810SOL    HW124329   4.202   6.319   5.270
 7810SOL    HW224330   4.046   6.355   5.302
 7811SOL     OW24331   1.146   5.504   2.114
 7811SOL    HW124332   1.214   5.435   2.138
 7811SOL    HW224333   1.130   5.503   2.016
 7812SOL     OW24334   2.345   2.939   5.634
 7812SOL    HW124335   2.257   2.969   5.671
 7812SOL    HW224336   2.417   3.000   5.666
 7813SOL     OW24337   5.708   2.030   1.320
 7813SOL    HW124338   5.666   2.011   1.409
 7813SOL    HW224339   5.675   1.964   1.253
 7814SOL     OW24340   6.640   3.374   2.122
 7814SOL    HW124341   6.686   3.421   2.198
 7814SOL    HW224342   6.555   3.334   2.155
 7815SOL     OW24343   6.130   2.635   5.605
 7815SOL    HW124344   6.070   2.689   5.545
 7815SOL    HW224345   6.221   2.676   5.608
 7816SOL     OW24346   0.699   1.912   5.130
 7816SOL    HW124347   0.721   2.008   5.142
 7816SOL    HW224348   0.601   1.897   5.146
 7817SOL     OW24349   3.237   3.105   6.659
 7817SOL    HW124350   3.176   3.033   6.627
 7817SOL    HW224351   3.195   3.194   6.641
 7818SOL     OW24352   5.647   1.306   2.046
 7818SOL    HW124353   5.724   1.330   2.105
 7818SOL    HW224354   5.562   1.325   2.093
 7819SOL     OW24355   1.243   3.538   4.044
 7819SOL    HW124356   1.341   3.525   4.028
 7819SOL    HW224357   1.199   3.562   3.958
 7820SOL     OW24358   1.335   0.919   5.519
 7820SOL    HW124359   1.308   0.869   5.437
 7820SOL    HW224360   1.253   0.939   5.573
 7821SOL     OW24361   6.158   5.650   0.079
 7821SOL    HW124362   6.130   5.556   0.060
 7821SOL    HW224363   6.240   5.672   0.026
 7822SOL     OW24364   1.071   1.208   4.484
 7822SOL    HW124365   1.015   1.271   4.538
 7822SOL    HW224366   1.096   1.250   4.397
 7823SOL     OW24367   1.649   3.644   0.216
 7823SOL    HW124368   1.623   3.729   0.171
 7823SOL    HW224369   1.691   3.664   0.304
 7824SOL     OW24370   5.228   2.556   2.449
 7824SOL    HW124371   5.193   2.462   2.452
 7824SOL    HW224372   5.217   2.592   2.356
 7825SOL     OW24373   2.946   3.131   1.560
 7825SOL    HW124374   2.969   3.062   1.491
 7825SOL    HW224375   2.994   3.110   1.645
 7826SOL     OW24376   6.573   0.906   0.532
 7826SOL    HW124377   6.519   0.987   0.552
 7826SOL    HW224378   6.669   0.932   0.517
 7827SOL     OW24379   5.125   5.275   1.562
 7827SOL    HW124380   5.069   5.218   1.622
 7827SOL    HW224381   5.141   5.228   1.476
 7828SOL     OW24382   0.543   6.217   0.606
 7828SOL    HW124383   0.589   6.294   0.652
 7828SOL    HW224384   0.490   6.166   0.674
 7829SOL     OW24385   3.081   3.128   1.845
 7829SOL    HW124386   3.074   3.034   1.878
 7829SOL    HW224387   3.178   3.153   1.837
 7830SOL     OW24388   6.211   3.397   6.944
 7830SOL    HW124389   6.137   3.334   6.967
 7830SOL    HW224390   6.221   3.401   6.844
 7831SOL     OW24391   1.650   3.423   0.817
 7831SOL    HW124392   1.612   3.386   0.732
 7831SOL    HW224393   1.750   3.412   0.816
 7832SOL     OW24394   2.670   2.009   5.459
 7832SOL    HW124395   2.712   2.098   5.443
 7832SOL    HW224396   2.601   1.992   5.388
 7833SOL     OW24397   0.700   6.611   0.454
 7833SOL    HW124398   0.671   6.559   0.374
 7833SOL    HW224399   0.628   6.674   0.482
 7834SOL     OW24400   0.743   0.650   1.793
 7834SOL    HW124401   0.667   0.585   1.802
 7834SOL    HW224402   0.817   0.607   1.742
 7835SOL     OW24403   2.173   3.014   4.704
 7835SOL    HW124404   2.118   2.934   4.732
 7835SOL    HW224405   2.268   3.000   4.731
 7836SOL     OW24406   3.257   6.501   6.725
 7836SOL    HW124407   3.283   6.450   6.643
 7836SOL    HW224408   3.269   6.443   6.806
 7837SOL     OW24409   5.936   6.362   2.566
 7837SOL    HW124410   5.857   6.385   2.622
 7837SOL    HW224411   5.924   6.398   2.474
 7838SOL     OW24412   4.096   0.000   5.062
 7838SOL    HW124413   4.178   0.008   5.119
 7838SOL    HW224414   4.120   6.979   4.977
 7839SOL     OW24415   6.024   4.849   4.862
 7839SOL    HW124416   5.982   4.801   4.784
 7839SOL    HW224417   5.957   4.857   4.936
 7840SOL     OW24418   5.235   2.998   4.262
 7840SOL    HW124419   5.158   3.012   4.324
 7840SOL    HW224420   5.279   2.911   4.283
 7841SOL     OW24421   0.260   2.168   6.359
 7841SOL    HW124422   0.348   2.143   6.401
 7841SOL    HW224423   0.196   2.092   6.370
 7842SOL     OW24424   2.145   1.476   3.061
 7842SOL    HW124425   2.051   1.484   3.095
 7842SOL    HW224426   2.181   1.567   3.042
 7843SOL     OW24427   6.008   4.224   1.114
 7843SOL    HW124428   6.059   4.276   1.182
 7843SOL    HW224429   6.025   4.126   1.126
 7844SOL     OW24430   4.238   0.894   3.311
 7844SOL    HW124431   4.140   0.893   3.292
 7844SOL    HW224432   4.256   0.837   3.392
 7845SOL     OW24433   6.652   1.015   4.345
 7845SOL    HW124434   6.711   1.095   4.346
 7845SOL    HW224435   6.560   1.041   4.318
 7846SOL     OW24436   2.140   0.375   1.448
 7846SOL    HW124437   2.073   0.302   1.462
 7846SOL    HW224438   2.144   0.432   1.530
 7847SOL     OW24439   0.010   0.320   0.570
 7847SOL    HW124440   7.015   0.371   0.653
 7847SOL    HW224441   0.106   0.291   0.569
 7848SOL     OW24442   4.105   3.829   1.495
 7848SOL    HW124443   4.044   3.879   1.434
 7848SOL    HW224444   4.198   3.865   1.487
 7849SOL     OW24445   5.015   3.039   4.425
 7849SOL    HW124446   5.014   3.117   4.363
 7849SOL    HW224447   4.942   3.048   4.492
 7850SOL     OW24448   0.040   0.991   5.332
 7850SOL    HW124449   0.076   0.937   5.408
 7850SOL    HW224450   0.113   1.049   5.295
 7851SOL     OW24451   5.756   0.435   0.323
 7851SOL    HW124452   5.682   0.434   0.256
 7851SOL    HW224453   5.779   0.342   0.350
 7852SOL     OW24454   3.277   6.473   7.015
 7852SOL    HW124455   3.207   6.505   0.053
 7852SOL    HW224456   3.323   6.393   0.028
 7853SOL     OW24457   2.584   2.308   0.599
 7853SOL    HW124458   2.649   2.260   0.539
 7853SOL    HW224459   2.616   2.401   0.616
 7854SOL     OW24460   3.372   4.003   2.177
 7854SOL    HW124461   3.399   4.034   2.268
 7854SOL    HW224462   3.447   3.949   2.136
 7855SOL     OW24463   4.536   5.285   6.588
 7855SOL    HW124464   4.501   5.310   6.678
 7855SOL    HW224465   4.488   5.203   6.556
 7856SOL     OW24466   5.547   3.717   5.152
 7856SOL    HW124467   5.465   3.664   5.131
 7856SOL    HW224468   5.621   3.655   5.178
 7857SOL     OW24469   5.967   1.708   5.888
 7857SOL    HW124470   6.048   1.669   5.930
 7857SOL    HW224471   5.953   1.801   5.922
 7858SOL     OW24472   6.296   4.086   3.849
 7858SOL    HW124473   6.363   4.129   3.909
 7858SOL    HW224474   6.229   4.154   3.818
 7859SOL     OW24475   1.164   4.864   5.816
 7859SOL    HW124476   1.082   4.900   5.771
 7859SOL    HW224477   1.245   4.904   5.773
 7860SOL     OW24478   3.804   6.939   1.532
 7860SOL    HW124479   3.767   6.857   1.489
 7860SOL    HW224480   3.883   6.971   1.480
 7861SOL     OW24481   4.011   5.304   1.447
 7861SOL    HW124482   4.037   5.300   1.351
 7861SOL    HW224483   3.927   5.251   1.461
 7862SOL     OW24484   2.907   4.177   1.604
 7862SOL    HW124485   2.829   4.237   1.623
 7862SOL    HW224486   2.889   4.087   1.643
 7863SOL     OW24487   6.395   6.114   2.141
 7863SOL    HW124488   6.468   6.075   2.086
 7863SOL    HW224489   6.432   6.180   2.206
 7864SOL     OW24490   0.594   5.817   4.929
 7864SOL    HW124491   0.508   5.868   4.939
 7864SOL    HW224492   0.668   5.879   4.905
 7865SOL     OW24493   3.590   6.406   3.408
 7865SOL    HW124494   3.678   6.376   3.445
 7865SOL    HW224495   3.598   6.420   3.310
 7866SOL     OW24496   2.537   1.881   3.391
 7866SOL    HW124497   2.561   1.942   3.316
 7866SOL    HW224498   2.620   1.852   3.439
 7867SOL     OW24499   6.225   5.860   2.344
 7867SOL    HW124500   6.243   5.826   2.252
 7867SOL    HW224501   6.304   5.913   2.376
 7868SOL     OW24502   5.170   6.364   0.866
 7868SOL    HW124503   5.190   6.370   0.769
 7868SOL    HW224504   5.081   6.319   0.879
 7869SOL     OW24505   0.181   2.929   1.874
 7869SOL    HW124506   0.151   2.845   1.920
 7869SOL    HW224507   0.103   2.990   1.862
 7870SOL     OW24508   6.555   5.230   3.672
 7870SOL    HW124509   6.593   5.143   3.704
 7870SOL    HW224510   6.619   5.274   3.609
 7871SOL     OW24511   5.763   2.847   2.876
 7871SOL    HW124512   5.774   2.843   2.776
 7871SOL    HW224513   5.770   2.754   2.914
 7872SOL     OW24514   0.274   3.394   2.951
 7872SOL    HW124515   0.354   3.377   3.010
 7872SOL    HW224516   0.194   3.350   2.991
 7873SOL     OW24517   0.053   6.467   6.177
 7873SOL    HW124518   7.011   6.393   6.168
 7873SOL    HW224519   0.144   6.428   6.187
 7874SOL     OW24520   5.715   1.475   6.896
 7874SOL    HW124521   5.682   1.426   6.977
 7874SOL    HW224522   5.653   1.551   6.875
 7875SOL     OW24523   4.789   3.932   6.395
 7875SOL    HW124524   4.739   3.878   6.463
 7875SOL    HW224525   4.773   4.030   6.412
 7876SOL     OW24526   6.733   0.172   4.150
 7876SOL    HW124527   6.715   0.143   4.056
 7876SOL    HW224528   6.698   0.103   4.214
 7877SOL     OW24529   6.553   2.589   2.756
 7877SOL    HW124530   6.596   2.598   2.845
 7877SOL    HW224531   6.594   2.654   2.692
 7878SOL     OW24532   4.706   4.650   2.296
 7878SOL    HW124533   4.627   4.608   2.251
 7878SOL    HW224534   4.702   4.633   2.394
 7879SOL     OW24535   5.210   6.355   3.494
 7879SOL    HW124536   5.162   6.400   3.569
 7879SOL    HW224537   5.218   6.257   3.513
 7880SOL     OW24538   0.628   6.058   6.761
 7880SOL    HW124539   0.563   6.053   6.685
 7880SOL    HW224540   0.600   5.995   6.834
 7881SOL     OW24541   0.541   4.103   5.222
 7881SOL    HW124542   0.595   4.085   5.304
 7881SOL    HW224543   0.602   4.112   5.143
 7882SOL     OW24544   0.619   2.973   2.631
 7882SOL    HW124545   0.538   2.956   2.574
 7882SOL    HW224546   0.590   2.985   2.726
 7883SOL     OW24547   2.627   1.052   2.867
 7883SOL    HW124548   2.592   1.060   2.960
 7883SOL    HW224549   2.647   1.143   2.831
 7884SOL     OW24550   1.549   4.371   3.841
 7884SOL    HW124551   1.604   4.442   3.885
 7884SOL    HW224552   1.570   4.369   3.743
 7885SOL     OW24553   5.605   5.811   2.825
 7885SOL    HW124554   5.627   5.795   2.728
 7885SOL    HW224555   5.686   5.793   2.880
 7886SOL     OW24556   4.956   3.074   1.793
 7886SOL    HW124557   4.925   3.170   1.788
 7886SOL    HW224558   4.901   3.025   1.860
 7887SOL     OW24559   4.094   3.389   6.943
 7887SOL    HW124560   4.090   3.489   6.940
 7887SOL    HW224561   4.189   3.360   6.939
 7888SOL     OW24562   6.228   1.594   4.192
 7888SOL    HW124563   6.204   1.659   4.263
 7888SOL    HW224564   6.315   1.550   4.215
 7889SOL     OW24565   5.536   5.191   0.698
 7889SOL    HW124566   5.544   5.190   0.599
 7889SOL    HW224567   5.617   5.232   0.739
 7890SOL     OW24568   1.276   2.913   4.044
 7890SOL    HW124569   1.316   2.894   4.133
 7890SOL    HW224570   1.188   2.867   4.036
 7891SOL     OW24571   0.228   2.352   4.296
 7891SOL    HW124572   0.250   2.416   4.370
 7891SOL    HW224573   0.172   2.399   4.227
 7892SOL     OW24574   1.581   3.167   5.311
 7892SOL    HW124575   1.642   3.221   5.253
 7892SOL    HW224576   1.553   3.222   5.389
 7893SOL     OW24577   6.071   0.247   1.869
 7893SOL    HW124578   6.052   0.292   1.956
 7893SOL    HW224579   6.025   0.296   1.795
 7894SOL     OW24580   2.476   1.525   5.973
 7894SOL    HW124581   2.483   1.443   5.917
 7894SOL    HW224582   2.412   1.589   5.931
 7895SOL     OW24583   3.772   6.276   3.796
 7895SOL    HW124584   3.774   6.273   3.896
 7895SOL    HW224585   3.749   6.185   3.761
 7896SOL     OW24586   4.102   2.604   1.628
 7896SOL    HW124587   4.095   2.583   1.530
 7896SOL    HW224588   4.189   2.569   1.663
 7897SOL     OW24589   4.017   4.138   6.551
 7897SOL    HW124590   3.922   4.158   6.574
 7897SOL    HW224591   4.042   4.048   6.586
 7898SOL     OW24592   5.026   0.285   4.523
 7898SOL    HW124593   5.021   0.368   4.579
 7898SOL    HW224594   5.068   0.212   4.576
 7899SOL     OW24595   5.402   5.279   1.609
 7899SOL    HW124596   5.439   5.199   1.563
 7899SOL    HW224597   5.303   5.283   1.594
 7900SOL     OW24598   0.523   3.981   0.720
 7900SOL    HW124599   0.573   4.015   0.800
 7900SOL    HW224600   0.492   3.888   0.737
 7901SOL     OW24601   5.460   0.942   6.257
 7901SOL    HW124602   5.410   0.923   6.342
 7901SOL    HW224603   5.558   0.943   6.275
 7902SOL     OW24604   0.459   5.855   2.733
 7902SOL    HW124605   0.519   5.859   2.813
 7902SOL    HW224606   0.407   5.940   2.726
 7903SOL     OW24607   2.588   1.737   4.311
 7903SOL    HW124608   2.606   1.833   4.334
 7903SOL    HW224609   2.562   1.730   4.214
 7904SOL     OW24610   5.965   0.803   2.200
 7904SOL    HW124611   5.887   0.805   2.261
 7904SOL    HW224612   6.014   0.716   2.211
 7905SOL     OW24613   5.476   1.092   0.774
 7905SOL    HW124614   5.521   1.033   0.707
 7905SOL    HW224615   5.377   1.086   0.762
 7906SOL     OW24616   1.334   5.056   0.908
 7906SOL    HW124617   1.309   5.106   0.992
 7906SOL    HW224618   1.433   5.045   0.905
 7907SOL     OW24619   5.894   0.263   2.726
 7907SOL    HW124620   5.832   0.341   2.724
 7907SOL    HW224621   5.871   0.204   2.803
 7908SOL     OW24622   0.474   1.008   6.398
 7908SOL    HW124623   0.408   1.072   6.357
 7908SOL    HW224624   0.551   0.996   6.336
 7909SOL     OW24625   5.652   4.087   2.674
 7909SOL    HW124626   5.624   4.121   2.764
 7909SOL    HW224627   5.572   4.057   2.623
 7910SOL     OW24628   2.009   3.756   0.856
 7910SOL    HW124629   2.068   3.785   0.781
 7910SOL    HW224630   2.040   3.668   0.891
 7911SOL     OW24631   0.991   4.008   0.942
 7911SOL    HW124632   0.999   4.044   0.849
 7911SOL    HW224633   1.023   4.076   1.007
 7912SOL     OW24634   5.092   5.365   0.532
 7912SOL    HW124635   5.189   5.372   0.557
 7912SOL    HW224636   5.081   5.387   0.435
 7913SOL     OW24637   0.539   3.621   0.510
 7913SOL    HW124638   0.468   3.657   0.451
 7913SOL    HW224639   0.597   3.558   0.458
 7914SOL     OW24640   6.483   5.201   5.376
 7914SOL    HW124641   6.481   5.137   5.298
 7914SOL    HW224642   6.462   5.151   5.460
 7915SOL     OW24643   3.853   0.351   2.837
 7915SOL    HW124644   3.825   0.383   2.746
 7915SOL    HW224645   3.843   0.252   2.842
 7916SOL     OW24646   0.730   7.007   4.685
 7916SOL    HW124647   0.763   6.915   4.664
 7916SOL    HW224648   0.774   0.014   4.769
 7917SOL     OW24649   4.127   2.636   6.872
 7917SOL    HW124650   4.048   2.668   6.819
 7917SOL    HW224651   4.129   2.683   6.960
 7918SOL     OW24652   1.867   0.857   4.935
 7918SOL    HW124653   1.883   0.764   4.904
 7918SOL    HW224654   1.892   0.922   4.864
 7919SOL     OW24655   1.365   5.123   3.363
 7919SOL    HW124656   1.411   5.105   3.450
 7919SOL    HW224657   1.433   5.130   3.291
 7920SOL     OW24658   4.817   0.539   1.266
 7920SOL    HW124659   4.873   0.459   1.244
 7920SOL    HW224660   4.868   0.599   1.328
 7921SOL     OW24661   4.865   1.716   1.786
 7921SOL    HW124662   4.937   1.647   1.782
 7921SOL    HW224663   4.779   1.676   1.754
 7922SOL     OW24664   0.945   6.158   0.033
 7922SOL    HW124665   0.923   6.075   0.084
 7922SOL    HW224666   1.036   6.189   0.058
 7923SOL     OW24667   4.193   1.755   6.675
 7923SOL    HW124668   4.244   1.670   6.678
 7923SOL    HW224669   4.141   1.761   6.590
 7924SOL     OW24670   6.021   6.467   1.572
 7924SOL    HW124671   6.111   6.507   1.589
 7924SOL    HW224672   6.026   6.368   1.581
 7925SOL     OW24673   2.770   6.541   0.705
 7925SOL    HW124674   2.818   6.456   0.685
 7925SOL    HW224675   2.811   6.585   0.785
 7926SOL     OW24676   5.657   0.609   6.749
 7926SOL    HW124677   5.697   0.618   6.840
 7926SOL    HW224678   5.611   0.521   6.741
 7927SOL     OW24679   4.821   0.119   2.533
 7927SOL    HW124680   4.834   0.153   2.440
 7927SOL    HW224681   4.896   0.057   2.556
 7928SOL     OW24682   6.791   0.804   3.130
 7928SOL    HW124683   6.778   0.854   3.045
 7928SOL    HW224684   6.821   0.710   3.110
 7929SOL     OW24685   4.771   3.704   6.238
 7929SOL    HW124686   4.773   3.795   6.278
 7929SOL    HW224687   4.678   3.683   6.207
 7930SOL     OW24688   3.677   5.870   5.567
 7930SOL    HW124689   3.773   5.858   5.541
 7930SOL    HW224690   3.628   5.917   5.493
 7931SOL     OW24691   2.803   2.210   0.456
 7931SOL    HW124692   2.869   2.189   0.384
 7931SOL    HW224693   2.761   2.126   0.489
 7932SOL     OW24694   7.010   5.436   1.100
 7932SOL    HW124695   6.966   5.447   1.011
 7932SOL    HW224696   0.083   5.421   1.087
 7933SOL     OW24697   6.557   1.255   5.592
 7933SOL    HW124698   6.626   1.203   5.541
 7933SOL    HW224699   6.602   1.321   5.652
 7934SOL     OW24700   1.446   4.506   0.605
 7934SOL    HW124701   1.427   4.484   0.701
 7934SOL    HW224702   1.532   4.462   0.577
 7935SOL     OW24703   5.932   3.844   3.052
 7935SOL    HW124704   5.833   3.857   3.047
 7935SOL    HW224705   5.953   3.767   3.112
 7936SOL     OW24706   3.840   6.659   3.847
 7936SOL    HW124707   3.820   6.594   3.920
 7936SOL    HW224708   3.834   6.752   3.883
 7937SOL     OW24709   2.495   6.181   5.541
 7937SOL    HW124710   2.437   6.104   5.568
 7937SOL    HW224711   2.449   6.267   5.562
 7938SOL     OW24712   4.832   6.831   4.983
 7938SOL    HW124713   4.819   6.903   5.052
 7938SOL    HW224714   4.827   6.872   4.892
 7939SOL     OW24715   1.004   1.683   4.884
 7939SOL    HW124716   0.997   1.697   4.982
 7939SOL    HW224717   0.922   1.718   4.839
 7940SOL     OW24718   4.502   1.833   2.333
 7940SOL    HW124719   4.420   1.776   2.327
 7940SOL    HW224720   4.479   1.927   2.304
 7941SOL     OW24721   4.235   6.381   2.039
 7941SOL    HW124722   4.209   6.312   2.105
 7941SOL    HW224723   4.282   6.338   1.962
 7942SOL     OW24724   0.730   2.778   1.873
 7942SOL    HW124725   0.674   2.698   1.849
 7942SOL    HW224726   0.816   2.747   1.914
 7943SOL     OW24727   2.299   5.208   5.976
 7943SOL    HW124728   2.373   5.213   6.043
 7943SOL    HW224729   2.337   5.208   5.883
 7944SOL     OW24730   0.746   2.868   1.232
 7944SOL    HW124731   0.824   2.880   1.293
 7944SOL    HW224732   0.748   2.940   1.162
 7945SOL     OW24733   6.046   5.184   2.828
 7945SOL    HW124734   6.097   5.215   2.748
 7945SOL    HW224735   5.995   5.262   2.867
 7946SOL     OW24736   3.906   0.767   5.819
 7946SOL    HW124737   3.964   0.687   5.836
 7946SOL    HW224738   3.874   0.804   5.906
 7947SOL     OW24739   1.409   2.725   5.459
 7947SOL    HW124740   1.465   2.655   5.503
 7947SOL    HW224741   1.388   2.697   5.365
 7948SOL     OW24742   1.604   4.653   2.448
 7948SOL    HW124743   1.515   4.692   2.426
 7948SOL    HW224744   1.626   4.671   2.544
 7949SOL     OW24745   4.719   4.863   5.869
 7949SOL    HW124746   4.634   4.888   5.823
 7949SOL    HW224747   4.740   4.931   5.939
 7950SOL     OW24748   6.040   5.784   5.587
 7950SOL    HW124749   6.037   5.827   5.497
 7950SOL    HW224750   6.083   5.847   5.652
 7951SOL     OW24751   2.951   5.677   2.501
 7951SOL    HW124752   3.035   5.624   2.489
 7951SOL    HW224753   2.873   5.625   2.468
 7952SOL     OW24754   5.556   3.523   0.209
 7952SOL    HW124755   5.591   3.541   0.301
 7952SOL    HW224756   5.611   3.572   0.142
 7953SOL     OW24757   3.846   2.001   0.596
 7953SOL    HW124758   3.944   2.001   0.577
 7953SOL    HW224759   3.818   1.911   0.628
 7954SOL     OW24760   4.009   3.282   6.708
 7954SOL    HW124761   4.084   3.303   6.645
 7954SOL    HW224762   4.036   3.306   6.801
 7955SOL     OW24763   1.712   1.457   6.594
 7955SOL    HW124764   1.804   1.482   6.624
 7955SOL    HW224765   1.688   1.510   6.512
 7956SOL     OW24766   6.383   1.217   1.690
 7956SOL    HW124767   6.342   1.169   1.613
 7956SOL    HW224768   6.398   1.153   1.766
 7957SOL     OW24769   4.207   0.694   5.642
 7957SOL    HW124770   4.156   0.633   5.702
 7957SOL    HW224771   4.155   0.711   5.558
 7958SOL     OW24772   5.659   3.377   6.645
 7958SOL    HW124773   5.566   3.345   6.627
 7958SOL    HW224774   5.672   3.390   6.743
 7959SOL     OW24775   4.993   1.040   6.141
 7959SOL    HW124776   5.063   0.969   6.146
 7959SOL    HW224777   5.000   1.100   6.221
 7960SOL     OW24778   6.502   1.127   6.556
 7960SOL    HW124779   6.424   1.129   6.494
 7960SOL    HW224780   6.568   1.058   6.525
 7961SOL     OW24781   6.191   6.482   6.879
 7961SOL    HW124782   6.134   6.496   6.798
 7961SOL    HW224783   6.247   6.400   6.866
 7962SOL     OW24784   6.529   6.996   6.202
 7962SOL    HW124785   6.535   0.068   6.177
 7962SOL    HW224786   6.574   6.941   6.131
 7963SOL     OW24787   5.931   4.303   4.480
 7963SOL    HW124788   6.011   4.258   4.440
 7963SOL    HW224789   5.961   4.367   4.551
 7964SOL     OW24790   6.961   3.255   1.353
 7964SOL    HW124791   6.890   3.304   1.303
 7964SOL    HW224792   0.025   3.292   1.329
 7965SOL     OW24793   4.390   2.140   6.832
 7965SOL    HW124794   4.393   2.136   6.732
 7965SOL    HW224795   4.308   2.092   6.864
 7966SOL     OW24796   4.301   4.292   5.318
 7966SOL    HW124797   4.203   4.279   5.330
 7966SOL    HW224798   4.319   4.330   5.227
 7967SOL     OW24799   1.897   5.069   2.267
 7967SOL    HW124800   1.942   5.086   2.179
 7967SOL    HW224801   1.940   5.126   2.337
 7968SOL     OW24802   6.444   2.037   4.554
 7968SOL    HW124803   6.382   1.981   4.611
 7968SOL    HW224804   6.450   1.996   4.463
 7969SOL     OW24805   4.637   5.834   0.058
 7969SOL    HW124806   4.682   5.854   6.996
 7969SOL    HW224807   4.694   5.771   0.111
 7970SOL     OW24808   6.323   3.165   2.627
 7970SOL    HW124809   6.384   3.094   2.663
 7970SOL    HW224810   6.228   3.138   2.641
 7971SOL     OW24811   3.363   1.331   1.348
 7971SOL    HW124812   3.358   1.336   1.248
 7971SOL    HW224813   3.348   1.236   1.377
 7972SOL     OW24814   4.105   3.258   2.461
 7972SOL    HW124815   4.191   3.208   2.463
 7972SOL    HW224816   4.037   3.211   2.516
 7973SOL     OW24817   6.357   4.026   3.595
 7973SOL    HW124818   6.334   4.045   3.690
 7973SOL    HW224819   6.284   4.061   3.536
 7974SOL     OW24820   5.989   1.533   5.251
 7974SOL    HW124821   6.037   1.620   5.251
 7974SOL    HW224822   6.048   1.462   5.291
 7975SOL     OW24823   4.383   1.706   0.410
 7975SOL    HW124824   4.407   1.790   0.458
 7975SOL    HW224825   4.371   1.725   0.313
 7976SOL     OW24826   1.767   6.679   6.569
 7976SOL    HW124827   1.707   6.702   6.646
 7976SOL    HW224828   1.793   6.582   6.574
 7977SOL     OW24829   5.577   6.289   3.116
 7977SOL    HW124830   5.581   6.226   3.038
 7977SOL    HW224831   5.532   6.244   3.193
 7978SOL     OW24832   0.316   4.258   1.056
 7978SOL    HW124833   0.278   4.238   1.147
 7978SOL    HW224834   0.284   4.348   1.026
 7979SOL     OW24835   2.148   3.602   4.610
 7979SOL    HW124836   2.109   3.689   4.639
 7979SOL    HW224837   2.124   3.531   4.676
 7980SOL     OW24838   3.577   4.641   5.797
 7980SOL    HW124839   3.643   4.576   5.759
 7980SOL    HW224840   3.624   4.703   5.860
 7981SOL     OW24841   1.843   5.005   3.491
 7981SOL    HW124842   1.824   4.923   3.436
 7981SOL    HW224843   1.757   5.046   3.522
 7982SOL     OW24844   1.300   1.491   5.819
 7982SOL    HW124845   1.351   1.404   5.819
 7982SOL    HW224846   1.337   1.550   5.747
 7983SOL     OW24847   5.208   1.343   1.415
 7983SOL    HW124848   5.207   1.413   1.344
 7983SOL    HW224849   5.261   1.375   1.493
 7984SOL     OW24850   0.522   1.585   1.329
 7984SOL    HW124851   0.514   1.616   1.234
 7984SOL    HW224852   0.611   1.612   1.366
 7985SOL     OW24853   2.512   2.369   5.720
 7985SOL    HW124854   2.499   2.450   5.663
 7985SOL    HW224855   2.426   2.319   5.727
 7986SOL     OW24856   3.670   1.517   4.079
 7986SOL    HW124857   3.606   1.523   4.156
 7986SOL    HW224858   3.644   1.439   4.021
 7987SOL     OW24859   1.421   3.739   1.018
 7987SOL    HW124860   1.491   3.670   1.037
 7987SOL    HW224861   1.429   3.814   1.083
 7988SOL     OW24862   6.634   1.309   1.579
 7988SOL    HW124863   6.675   1.239   1.522
 7988SOL    HW224864   6.542   1.281   1.606
 7989SOL     OW24865   1.681   4.252   0.470
 7989SOL    HW124866   1.587   4.256   0.435
 7989SOL    HW224867   1.682   4.271   0.568
 7990SOL     OW24868   2.406   6.468   5.322
 7990SOL    HW124869   2.363   6.432   5.405
 7990SOL    HW224870   2.452   6.394   5.273
 7991SOL     OW24871   5.479   1.579   4.841
 7991SOL    HW124872   5.522   1.494   4.871
 7991SOL    HW224873   5.505   1.654   4.903
 7992SOL     OW24874   2.082   0.391   0.542
 7992SOL    HW124875   2.022   0.390   0.622
 7992SOL    HW224876   2.167   0.343   0.563
 7993SOL     OW24877   0.027   6.958   1.730
 7993SOL    HW124878   6.969   6.905   1.752
 7993SOL    HW224879   0.061   6.930   1.640
 7994SOL     OW24880   5.018   0.671   3.279
 7994SOL    HW124881   5.027   0.728   3.198
 7994SOL    HW224882   4.977   0.725   3.353
 7995SOL     OW24883   6.347   4.362   1.893
 7995SOL    HW124884   6.386   4.270   1.892
 7995SOL    HW224885   6.357   4.401   1.984
 7996SOL     OW24886   4.282   0.176   3.191
 7996SOL    HW124887   4.270   0.248   3.123
 7996SOL    HW224888   4.260   0.087   3.150
 7997SOL     OW24889   1.009   2.003   6.856
 7997SOL    HW124890   1.087   1.942   6.842
 7997SOL    HW224891   0.951   2.002   6.775
 7998SOL     OW24892   2.778   0.168   0.263
 7998SOL    HW124893   2.803   0.235   0.333
 7998SOL    HW224894   2.757   0.215   0.177
 7999SOL     OW24895   1.209   2.035   5.467
 7999SOL    HW124896   1.161   1.956   5.504
 7999SOL    HW224897   1.229   2.020   5.370
 8000SOL     OW24898   5.811   6.474   6.213
 8000SOL    HW124899   5.726   6.476   6.159
 8000SOL    HW224900   5.810   6.394   6.273
 8001SOL     OW24901   5.364   0.284   0.723
 8001SOL    HW124902   5.386   0.377   0.753
 8001SOL    HW224903   5.347   0.226   0.802
 8002SOL     OW24904   0.502   0.910   6.020
 8002SOL    HW124905   0.416   0.928   5.971
 8002SOL    HW224906   0.487   0.839   6.088
 8003SOL     OW24907   2.009   6.632   2.866
 8003SOL    HW124908   1.975   6.602   2.777
 8003SOL    HW224909   2.099   6.593   2.883
 8004SOL     OW24910   1.962   2.764   3.360
 8004SOL    HW124911   2.008   2.718   3.284
 8004SOL    HW224912   1.907   2.840   3.325
 8005SOL     OW24913   2.405   0.061   4.036
 8005SOL    HW124914   2.501   0.035   4.048
 8005SOL    HW224915   2.359   7.020   3.977
 8006SOL     OW24916   3.783   5.378   4.717
 8006SOL    HW124917   3.738   5.423   4.794
 8006SOL    HW224918   3.762   5.428   4.633
 8007SOL     OW24919   6.346   1.872   6.146
 8007SOL    HW124920   6.443   1.888   6.127
 8007SOL    HW224921   6.306   1.952   6.190
 8008SOL     OW24922   3.985   6.466   0.106
 8008SOL    HW124923   3.910   6.423   0.055
 8008SOL    HW224924   3.986   6.431   0.199
 8009SOL     OW24925   4.978   1.667   1.062
 8009SOL    HW124926   4.982   1.654   0.963
 8009SOL    HW224927   4.883   1.672   1.092
 8010SOL     OW24928   2.654   2.647   5.483
 8010SOL    HW124929   2.642   2.673   5.387
 8010SOL    HW224930   2.651   2.728   5.540
 8011SOL     OW24931   3.546   2.008   2.002
 8011SOL    HW124932   3.609   2.077   2.039
 8011SOL    HW224933   3.588   1.964   1.922
 8012SOL     OW24934   1.113   3.038   5.572
 8012SOL    HW124935   1.211   3.054   5.583
 8012SOL    HW224936   1.084   3.071   5.482
 8013SOL     OW24937   1.227   2.574   3.342
 8013SOL    HW124938   1.225   2.488   3.290
 8013SOL    HW224939   1.277   2.643   3.291
 8014SOL     OW24940   1.739   0.392   3.216
 8014SOL    HW124941   1.802   0.417   3.290
 8014SOL    HW224942   1.692   0.473   3.183
 8015SOL     OW24943   1.256   0.427   5.799
 8015SOL    HW124944   1.198   0.472   5.867
 8015SOL    HW224945   1.311   0.357   5.844
 8016SOL     OW24946   4.080   1.375   5.283
 8016SOL    HW124947   4.118   1.467   5.272
 8016SOL    HW224948   4.003   1.378   5.347
 8017SOL     OW24949   6.909   6.805   0.654
 8017SOL    HW124950   6.884   6.750   0.734
 8017SOL    HW224951   6.869   6.897   0.662
 8018SOL     OW24952   3.885   2.188   0.275
 8018SOL    HW124953   3.789   2.177   0.300
 8018SOL    HW224954   3.941   2.190   0.358
 8019SOL     OW24955   3.287   3.649   0.956
 8019SOL    HW124956   3.310   3.552   0.965
 8019SOL    HW224957   3.189   3.662   0.971
 8020SOL     OW24958   6.089   0.120   4.874
 8020SOL    HW124959   6.155   0.184   4.912
 8020SOL    HW224960   6.137   0.052   4.818
 8021SOL     OW24961   2.107   2.005   2.215
 8021SOL    HW124962   2.153   2.025   2.301
 8021SOL    HW224963   2.029   2.066   2.203
 8022SOL     OW24964   5.553   1.010   2.168
 8022SOL    HW124965   5.635   1.046   2.124
 8022SOL    HW224966   5.473   1.062   2.137
 8023SOL     OW24967   5.381   6.217   3.680
 8023SOL    HW124968   5.368   6.308   3.720
 8023SOL    HW224969   5.368   6.147   3.750
 8024SOL     OW24970   1.659   6.137   6.163
 8024SOL    HW124971   1.729   6.101   6.225
 8024SOL    HW224972   1.569   6.123   6.205
 8025SOL     OW24973   1.782   4.692   1.825
 8025SOL    HW124974   1.764   4.754   1.749
 8025SOL    HW224975   1.702   4.635   1.841
 8026SOL     OW24976   0.311   4.551   0.418
 8026SOL    HW124977   0.271   4.603   0.343
 8026SOL    HW224978   0.246   4.545   0.493
 8027SOL     OW24979   4.017   6.697   5.960
 8027SOL    HW124980   3.960   6.643   6.022
 8027SOL    HW224981   4.006   6.662   5.867
 8028SOL     OW24982   3.453   5.537   4.167
 8028SOL    HW124983   3.466   5.459   4.229
 8028SOL    HW224984   3.427   5.618   4.220
 8029SOL     OW24985   5.774   1.538   1.580
 8029SOL    HW124986   5.695   1.507   1.527
 8029SOL    HW224987   5.757   1.524   1.677
 8030SOL     OW24988   5.928   4.959   0.980
 8030SOL    HW124989   5.990   5.037   0.979
 8030SOL    HW224990   5.979   4.876   1.006
 8031SOL     OW24991   5.638   0.492   2.996
 8031SOL    HW124992   5.540   0.504   2.979
 8031SOL    HW224993   5.656   0.396   3.017
 8032SOL     OW24994   5.254   3.236   1.602
 8032SOL    HW124995   5.247   3.222   1.701
 8032SOL    HW224996   5.273   3.333   1.584
 8033SOL     OW24997   3.886   3.790   0.782
 8033SOL    HW124998   3.836   3.708   0.811
 8033SOL    HW224999   3.899   3.789   0.683
 8034SOL     OW25000   5.538   0.465   5.034
 8034SOL    HW125001   5.536   0.547   5.091
 8034SOL    HW225002   5.627   0.421   5.042
 8035SOL     OW25003   4.423   0.956   2.592
 8035SOL    HW125004   4.413   0.876   2.533
 8035SOL    HW225005   4.422   0.928   2.687
 8036SOL     OW25006   6.852   2.795   4.051
 8036SOL    HW125007   6.829   2.825   3.958
 8036SOL    HW225008   6.800   2.713   4.073
 8037SOL     OW25009   1.290   3.108   6.675
 8037SOL    HW125010   1.235   3.032   6.710
 8037SOL    HW225011   1.231   3.188   6.662
 8038SOL     OW25012   5.857   6.495   2.246
 8038SOL    HW125013   5.872   6.565   2.176
 8038SOL    HW225014   5.893   6.407   2.215
 8039SOL     OW25015   0.623   2.434   5.421
 8039SOL    HW125016   0.614   2.484   5.335
 8039SOL    HW225017   0.687   2.482   5.481
 8040SOL     OW25018   1.540   6.128   5.704
 8040SOL    HW125019   1.540   6.181   5.788
 8040SOL    HW225020   1.568   6.186   5.628
 8041SOL     OW25021   3.026   1.436   3.164
 8041SOL    HW125022   3.004   1.531   3.187
 8041SOL    HW225023   3.040   1.384   3.249
 8042SOL     OW25024   4.332   3.984   5.891
 8042SOL    HW125025   4.386   3.966   5.973
 8042SOL    HW225026   4.367   3.930   5.815
 8043SOL     OW25027   4.870   4.897   1.589
 8043SOL    HW125028   4.834   4.805   1.606
 8043SOL    HW225029   4.807   4.946   1.528
 8044SOL     OW25030   3.929   3.862   1.289
 8044SOL    HW125031   3.869   3.883   1.367
 8044SOL    HW225032   3.897   3.910   1.208
 8045SOL     OW25033   0.093   1.105   2.691
 8045SOL    HW125034   0.074   1.162   2.770
 8045SOL    HW225035   0.150   1.027   2.719
 8046SOL     OW25036   0.188   5.228   1.980
 8046SOL    HW125037   0.256   5.227   2.053
 8046SOL    HW225038   0.099   5.256   2.017
 8047SOL     OW25039   3.844   6.831   6.499
 8047SOL    HW125040   3.913   6.787   6.441
 8047SOL    HW225041   3.838   6.783   6.586
 8048SOL     OW25042   3.467   3.574   0.424
 8048SOL    HW125043   3.488   3.670   0.440
 8048SOL    HW225044   3.484   3.522   0.507
 8049SOL     OW25045   1.350   0.043   0.898
 8049SOL    HW125046   1.296   6.984   0.896
 8049SOL    HW225047   1.322   0.101   0.822
 8050SOL     OW25048   1.540   4.192   4.451
 8050SOL    HW125049   1.518   4.155   4.361
 8050SOL    HW225050   1.639   4.201   4.460
 8051SOL     OW25051   4.879   6.009   4.314
 8051SOL    HW125052   4.951   5.969   4.258
 8051SOL    HW225053   4.874   5.961   4.402
 8052SOL     OW25054   2.517   1.511   2.197
 8052SOL    HW125055   2.517   1.551   2.105
 8052SOL    HW225056   2.453   1.435   2.201
 8053SOL     OW25057   3.104   3.386   6.325
 8053SOL    HW125058   3.109   3.452   6.400
 8053SOL    HW225059   3.016   3.340   6.327
 8054SOL     OW25060   5.554   4.130   5.265
 8054SOL    HW125061   5.563   4.064   5.190
 8054SOL    HW225062   5.562   4.083   5.353
 8055SOL     OW25063   0.272   1.046   5.132
 8055SOL    HW125064   0.229   0.985   5.065
 8055SOL    HW225065   0.293   1.133   5.088
 8056SOL     OW25066   2.649   6.944   3.998
 8056SOL    HW125067   2.694   6.903   3.919
 8056SOL    HW225068   2.717   6.979   4.062
 8057SOL     OW25069   2.389   2.089   1.507
 8057SOL    HW125070   2.409   2.156   1.578
 8057SOL    HW225071   2.293   2.094   1.482
 8058SOL     OW25072   3.264   6.645   3.598
 8058SOL    HW125073   3.332   6.652   3.525
 8058SOL    HW225074   3.308   6.611   3.681
 8059SOL     OW25075   2.934   2.066   5.844
 8059SOL    HW125076   2.904   2.070   5.939
 8059SOL    HW225077   3.029   2.036   5.840
 8060SOL     OW25078   6.935   0.404   6.361
 8060SOL    HW125079   6.971   0.486   6.404
 8060SOL    HW225080   6.895   0.427   6.272
 8061SOL     OW25081   0.241   0.890   1.994
 8061SOL    HW125082   0.181   0.823   2.037
 8061SOL    HW225083   0.324   0.901   2.050
 8062SOL     OW25084   4.003   5.274   5.344
 8062SOL    HW125085   4.041   5.201   5.287
 8062SOL    HW225086   3.917   5.244   5.384
 8063SOL     OW25087   3.487   0.512   3.105
 8063SOL    HW125088   3.425   0.465   3.167
 8063SOL    HW225089   3.579   0.473   3.115
 8064SOL     OW25090   6.395   3.298   0.078
 8064SOL    HW125091   6.349   3.247   0.151
 8064SOL    HW225092   6.326   3.345   0.022
 8065SOL     OW25093   3.446   0.131   4.546
 8065SOL    HW125094   3.362   0.149   4.596
 8065SOL    HW225095   3.452   0.033   4.525
 8066SOL     OW25096   6.560   1.289   4.585
 8066SOL    HW125097   6.633   1.222   4.600
 8066SOL    HW225098   6.586   1.377   4.625
 8067SOL     OW25099   5.347   2.889   3.746
 8067SOL    HW125100   5.306   2.976   3.722
 8067SOL    HW225101   5.327   2.867   3.841
 8068SOL     OW25102   0.506   4.578   1.848
 8068SOL    HW125103   0.447   4.501   1.823
 8068SOL    HW225104   0.600   4.559   1.820
 8069SOL     OW25105   3.064   5.206   2.267
 8069SOL    HW125106   3.120   5.194   2.185
 8069SOL    HW225107   3.024   5.118   2.294
 8070SOL     OW25108   4.119   4.407   0.932
 8070SOL    HW125109   4.193   4.394   0.998
 8070SOL    HW225110   4.113   4.504   0.909
 8071SOL     OW25111   4.354   6.816   5.540
 8071SOL    HW125112   4.260   6.831   5.511
 8071SOL    HW225113   4.368   6.856   5.630
 8072SOL     OW25114   2.344   2.310   0.739
 8072SOL    HW125115   2.416   2.313   0.669
 8072SOL    HW225116   2.371   2.245   0.811
 8073SOL     OW25117   2.972   6.889   6.297
 8073SOL    HW125118   2.968   6.812   6.361
 8073SOL    HW225119   3.039   6.869   6.225
 8074SOL     OW25120   2.044   1.508   0.152
 8074SOL    HW125121   1.961   1.522   0.098
 8074SOL    HW225122   2.053   1.410   0.174
 8075SOL     OW25123   0.732   6.572   6.819
 8075SOL    HW125124   0.650   6.515   6.817
 8075SOL    HW225125   0.794   6.540   6.891
 8076SOL     OW25126   6.862   6.800   6.637
 8076SOL    HW125127   6.901   6.715   6.601
 8076SOL    HW225128   6.913   6.878   6.601
 8077SOL     OW25129   3.962   5.814   1.850
 8077SOL    HW125130   3.986   5.847   1.942
 8077SOL    HW225131   3.877   5.857   1.821
 8078SOL     OW25132   1.176   1.806   0.465
 8078SOL    HW125133   1.181   1.858   0.550
 8078SOL    HW225134   1.228   1.721   0.475
 8079SOL     OW25135   0.653   1.351   4.110
 8079SOL    HW125136   0.743   1.391   4.096
 8079SOL    HW225137   0.605   1.401   4.183
 8080SOL     OW25138   0.975   2.697   2.520
 8080SOL    HW125139   1.008   2.607   2.545
 8080SOL    HW225140   1.005   2.764   2.588
 8081SOL     OW25141   6.048   4.478   5.689
 8081SOL    HW125142   5.993   4.561   5.692
 8081SOL    HW225143   6.068   4.447   5.782
 8082SOL     OW25144   2.880   1.084   2.240
 8082SOL    HW125145   2.916   1.177   2.248
 8082SOL    HW225146   2.923   1.027   2.310
 8083SOL     OW25147   5.405   2.459   4.115
 8083SOL    HW125148   5.447   2.481   4.028
 8083SOL    HW225149   5.345   2.379   4.104
 8084SOL     OW25150   2.225   0.608   5.932
 8084SOL    HW125151   2.144   0.610   5.990
 8084SOL    HW225152   2.306   0.590   5.988
 8085SOL     OW25153   0.030   5.735   3.208
 8085SOL    HW125154   0.098   5.676   3.251
 8085SOL    HW225155   0.026   5.716   3.110
 8086SOL     OW25156   0.025   1.135   1.372
 8086SOL    HW125157   0.105   1.123   1.313
 8086SOL    HW225158   7.017   1.229   1.365
 8087SOL     OW25159   1.090   0.568   6.477
 8087SOL    HW125160   1.047   0.580   6.566
 8087SOL    HW225161   1.126   0.475   6.469
 8088SOL     OW25162   5.293   6.763   6.519
 8088SOL    HW125163   5.304   6.850   6.566
 8088SOL    HW225164   5.367   6.752   6.453
 8089SOL     OW25165   5.762   2.674   6.556
 8089SOL    HW125166   5.777   2.609   6.631
 8089SOL    HW225167   5.671   2.715   6.565
 8090SOL     OW25168   4.082   1.460   6.379
 8090SOL    HW125169   4.056   1.365   6.362
 8090SOL    HW225170   4.002   1.519   6.374
 8091SOL     OW25171   1.398   4.399   4.539
 8091SOL    HW125172   1.457   4.327   4.502
 8091SOL    HW225173   1.451   4.483   4.551
 8092SOL     OW25174   4.774   2.156   5.194
 8092SOL    HW125175   4.788   2.232   5.258
 8092SOL    HW225176   4.770   2.070   5.245
 8093SOL     OW25177   2.973   6.025   2.994
 8093SOL    HW125178   2.981   5.945   2.935
 8093SOL    HW225179   2.881   6.030   3.031
 8094SOL     OW25180   0.926   4.005   5.177
 8094SOL    HW125181   1.025   4.017   5.168
 8094SOL    HW225182   0.881   4.040   5.095
 8095SOL     OW25183   1.123   4.677   5.204
 8095SOL    HW125184   1.200   4.614   5.214
 8095SOL    HW225185   1.053   4.635   5.147
 8096SOL     OW25186   0.999   0.462   2.359
 8096SOL    HW125187   0.924   0.523   2.334
 8096SOL    HW225188   0.993   0.378   2.305
 8097SOL     OW25189   3.873   0.275   5.120
 8097SOL    HW125190   3.908   0.349   5.062
 8097SOL    HW225191   3.884   0.188   5.074
 8098SOL     OW25192   1.059   6.060   4.245
 8098SOL    HW125193   1.006   6.062   4.330
 8098SOL    HW225194   1.151   6.094   4.263
 8099SOL     OW25195   4.472   5.857   4.291
 8099SOL    HW125196   4.420   5.926   4.242
 8099SOL    HW225197   4.434   5.845   4.383
 8100SOL     OW25198   5.772   1.204   6.271
 8100SOL    HW125199   5.781   1.177   6.175
 8100SOL    HW225200   5.768   1.122   6.328
 8101SOL     OW25201   2.339   5.314   0.856
 8101SOL    HW125202   2.267   5.356   0.801
 8101SOL    HW225203   2.395   5.385   0.897
 8102SOL     OW25204   0.910   3.355   4.330
 8102SOL    HW125205   0.975   3.431   4.337
 8102SOL    HW225206   0.827   3.385   4.284
 8103SOL     OW25207   3.670   0.828   2.068
 8103SOL    HW125208   3.724   0.911   2.051
 8103SOL    HW225209   3.586   0.833   2.015
 8104SOL     OW25210   2.093   6.942   5.968
 8104SOL    HW125211   2.150   7.009   6.016
 8104SOL    HW225212   2.075   6.864   6.029
 8105SOL     OW25213   6.956   2.157   2.970
 8105SOL    HW125214   0.017   2.185   3.013
 8105SOL    HW225215   6.972   2.075   2.914
 8106SOL     OW25216   2.657   6.657   3.837
 8106SOL    HW125217   2.715   6.606   3.774
 8106SOL    HW225218   2.667   6.618   3.929
 8107SOL     OW25219   1.548   5.821   4.921
 8107SOL    HW125220   1.501   5.909   4.930
 8107SOL    HW225221   1.485   5.746   4.941
 8108SOL     OW25222   6.561   1.742   6.796
 8108SOL    HW125223   6.623   1.743   6.875
 8108SOL    HW225224   6.585   1.665   6.737
 8109SOL     OW25225   0.058   4.171   6.363
 8109SOL    HW125226   0.124   4.238   6.396
 8109SOL    HW225227   0.106   4.093   6.324
 8110SOL     OW25228   4.032   4.958   1.402
 8110SOL    HW125229   4.011   4.883   1.464
 8110SOL    HW225230   3.948   4.986   1.355
 8111SOL     OW25231   5.651   0.927   3.734
 8111SOL    HW125232   5.721   0.959   3.798
 8111SOL    HW225233   5.618   0.837   3.763
 8112SOL     OW25234   0.796   3.033   4.650
 8112SOL    HW125235   0.892   3.059   4.640
 8112SOL    HW225236   0.747   3.051   4.565
 8113SOL     OW25237   6.556   3.257   1.609
 8113SOL    HW125238   6.601   3.346   1.620
 8113SOL    HW225239   6.473   3.255   1.664
 8114SOL     OW25240   1.165   3.896   2.082
 8114SOL    HW125241   1.256   3.911   2.044
 8114SOL    HW225242   1.120   3.984   2.098
 8115SOL     OW25243   3.185   6.472   5.974
 8115SOL    HW125244   3.198   6.443   5.879
 8115SOL    HW225245   3.088   6.463   5.999
 8116SOL     OW25246   4.114   5.163   0.380
 8116SOL    HW125247   4.037   5.223   0.360
 8116SOL    HW225248   4.098   5.117   0.468
 8117SOL     OW25249   1.828   6.555   3.055
 8117SOL    HW125250   1.893   6.586   2.986
 8117SOL    HW225251   1.863   6.576   3.146
 8118SOL     OW25252   6.587   4.448   6.549
 8118SOL    HW125253   6.641   4.458   6.466
 8118SOL    HW225254   6.602   4.358   6.589
 8119SOL     OW25255   5.061   6.510   6.083
 8119SOL    HW125256   5.018   6.465   6.004
 8119SOL    HW225257   5.122   6.582   6.050
 8120SOL     OW25258   2.460   5.335   0.467
 8120SOL    HW125259   2.526   5.259   0.471
 8120SOL    HW225260   2.435   5.362   0.560
 8121SOL     OW25261   1.051   4.170   2.710
 8121SOL    HW125262   1.149   4.153   2.693
 8121SOL    HW225263   1.034   4.268   2.707
 8122SOL     OW25264   0.973   4.436   2.681
 8122SOL    HW125265   0.992   4.495   2.760
 8122SOL    HW225266   0.877   4.406   2.685
 8123SOL     OW25267   0.406   1.299   6.693
 8123SOL    HW125268   0.473   1.231   6.662
 8123SOL    HW225269   0.356   1.264   6.772
 8124SOL     OW25270   5.719   6.320   3.726
 8124SOL    HW125271   5.693   6.413   3.752
 8124SOL    HW225272   5.707   6.308   3.628
 8125SOL     OW25273   1.110   0.866   2.610
 8125SOL    HW125274   1.183   0.866   2.679
 8125SOL    HW225275   1.126   0.792   2.545
 8126SOL     OW25276   4.639   4.901   3.686
 8126SOL    HW125277   4.556   4.887   3.633
 8126SOL    HW225278   4.637   4.991   3.729
 8127SOL     OW25279   3.034   2.833   6.820
 8127SOL    HW125280   2.936   2.841   6.840
 8127SOL    HW225281   3.086   2.851   6.903
 8128SOL     OW25282   2.993   2.243   1.693
 8128SOL    HW125283   2.983   2.320   1.756
 8128SOL    HW225284   3.056   2.268   1.620
 8129SOL     OW25285   2.142   1.977   6.862
 8129SOL    HW125286   2.082   2.051   6.830
 8129SOL    HW225287   2.223   1.971   6.804
 8130SOL     OW25288   1.803   6.454   6.923
 8130SOL    HW125289   1.770   6.360   6.928
 8130SOL    HW225290   1.860   6.474   7.003
 8131SOL     OW25291   2.846   2.695   1.306
 8131SOL    HW125292   2.753   2.659   1.308
 8131SOL    HW225293   2.896   2.661   1.386
 8132SOL     OW25294   6.260   6.804   4.401
 8132SOL    HW125295   6.186   6.770   4.459
 8132SOL    HW225296   6.254   6.904   4.393
 8133SOL     OW25297   3.982   5.254   2.610
 8133SOL    HW125298   3.931   5.336   2.583
 8133SOL    HW225299   4.068   5.251   2.560
 8134SOL     OW25300   6.475   1.206   5.941
 8134SOL    HW125301   6.560   1.200   5.889
 8134SOL    HW225302   6.483   1.152   6.025
 8135SOL     OW25303   1.798   0.356   1.575
 8135SOL    HW125304   1.769   0.431   1.515
 8135SOL    HW225305   1.844   0.394   1.655
 8136SOL     OW25306   5.260   5.367   2.378
 8136SOL    HW125307   5.183   5.410   2.424
 8136SOL    HW225308   5.310   5.435   2.325
 8137SOL     OW25309   2.761   1.017   4.945
 8137SOL    HW125310   2.738   0.924   4.973
 8137SOL    HW225311   2.676   1.067   4.925
 8138SOL     OW25312   5.618   1.369   1.402
 8138SOL    HW125313   5.660   1.281   1.377
 8138SOL    HW225314   5.519   1.364   1.388
 8139SOL     OW25315   0.408   1.239   2.212
 8139SOL    HW125316   0.325   1.196   2.250
 8139SOL    HW225317   0.478   1.245   2.283
 8140SOL     OW25318   4.564   1.064   4.497
 8140SOL    HW125319   4.662   1.066   4.517
 8140SOL    HW225320   4.515   1.115   4.568
 8141SOL     OW25321   3.992   5.172   5.948
 8141SOL    HW125322   3.969   5.221   5.863
 8141SOL    HW225323   3.980   5.074   5.934
 8142SOL     OW25324   6.183   5.273   0.202
 8142SOL    HW125325   6.248   5.272   0.278
 8142SOL    HW225326   6.165   5.179   0.172
 8143SOL     OW25327   6.255   4.965   6.600
 8143SOL    HW125328   6.186   5.035   6.618
 8143SOL    HW225329   6.210   4.879   6.574
 8144SOL     OW25330   5.587   0.174   6.895
 8144SOL    HW125331   5.582   0.169   6.994
 8144SOL    HW225332   5.523   0.108   6.855
 8145SOL     OW25333   5.657   6.326   2.643
 8145SOL    HW125334   5.619   6.309   2.552
 8145SOL    HW225335   5.585   6.315   2.711
 8146SOL     OW25336   3.494   1.135   5.780
 8146SOL    HW125337   3.537   1.106   5.694
 8146SOL    HW225338   3.444   1.058   5.819
 8147SOL     OW25339   5.162   1.838   3.188
 8147SOL    HW125340   5.151   1.860   3.091
 8147SOL    HW225341   5.145   1.740   3.202
 8148SOL     OW25342   5.660   3.407   2.521
 8148SOL    HW125343   5.617   3.492   2.490
 8148SOL    HW225344   5.607   3.369   2.597
 8149SOL     OW25345   2.674   5.983   2.855
 8149SOL    HW125346   2.717   6.061   2.901
 8149SOL    HW225347   2.728   5.901   2.872
 8150SOL     OW25348   0.474   4.940   0.720
 8150SOL    HW125349   0.391   4.904   0.763
 8150SOL    HW225350   0.499   4.882   0.642
 8151SOL     OW25351   0.710   2.014   3.279
 8151SOL    HW125352   0.685   2.058   3.365
 8151SOL    HW225353   0.785   2.063   3.236
 8152SOL     OW25354   1.691   1.338   2.886
 8152SOL    HW125355   1.709   1.350   2.983
 8152SOL    HW225356   1.597   1.307   2.873
 8153SOL     OW25357   2.838   6.959   2.618
 8153SOL    HW125358   2.881   0.017   2.652
 8153SOL    HW225359   2.905   6.885   2.616
 8154SOL     OW25360   2.281   5.836   4.579
 8154SOL    HW125361   2.369   5.792   4.599
 8154SOL    HW225362   2.271   5.848   4.480
 8155SOL     OW25363   3.019   3.144   2.538
 8155SOL    HW125364   3.033   3.183   2.446
 8155SOL    HW225365   3.105   3.148   2.589
 8156SOL     OW25366   5.845   0.375   5.114
 8156SOL    HW125367   5.875   0.435   5.188
 8156SOL    HW225368   5.896   0.398   5.031
 8157SOL     OW25369   5.511   5.288   6.842
 8157SOL    HW125370   5.415   5.273   6.817
 8157SOL    HW225371   5.539   5.380   6.814
 8158SOL     OW25372   1.165   5.926   0.745
 8158SOL    HW125373   1.190   5.967   0.658
 8158SOL    HW225374   1.245   5.883   0.787
 8159SOL     OW25375   2.191   5.390   2.146
 8159SOL    HW125376   2.280   5.348   2.131
 8159SOL    HW225377   2.124   5.319   2.169
 8160SOL     OW25378   4.879   1.961   1.148
 8160SOL    HW125379   4.820   2.026   1.101
 8160SOL    HW225380   4.828   1.876   1.165
 8161SOL     OW25381   5.016   1.307   0.830
 8161SOL    HW125382   5.073   1.280   0.907
 8161SOL    HW225383   5.040   1.400   0.802
 8162SOL     OW25384   6.308   6.810   0.587
 8162SOL    HW125385   6.306   6.778   0.493
 8162SOL    HW225386   6.221   6.853   0.610
 8163SOL     OW25387   2.703   4.194   5.379
 8163SOL    HW125388   2.710   4.126   5.452
 8163SOL    HW225389   2.609   4.196   5.346
 8164SOL     OW25390   5.412   3.057   1.473
 8164SOL    HW125391   5.442   2.970   1.513
 8164SOL    HW225392   5.347   3.101   1.536
 8165SOL     OW25393   1.968   4.290   1.174
 8165SOL    HW125394   1.875   4.265   1.149
 8165SOL    HW225395   1.984   4.269   1.270
 8166SOL     OW25396   2.312   0.545   1.974
 8166SOL    HW125397   2.228   0.561   2.026
 8166SOL    HW225398   2.289   0.516   1.881
 8167SOL     OW25399   6.020   2.478   3.940
 8167SOL    HW125400   6.035   2.380   3.947
 8167SOL    HW225401   5.979   2.512   4.025
 8168SOL     OW25402   3.290   1.360   2.854
 8168SOL    HW125403   3.231   1.328   2.779
 8168SOL    HW225404   3.266   1.454   2.876
 8169SOL     OW25405   4.451   3.831   1.003
 8169SOL    HW125406   4.367   3.783   0.979
 8169SOL    HW225407   4.449   3.924   0.966
 8170SOL     OW25408   1.579   5.967   3.783
 8170SOL    HW125409   1.626   5.880   3.766
 8170SOL    HW225410   1.480   5.953   3.776
 8171SOL     OW25411   0.497   2.098   6.533
 8171SOL    HW125412   0.557   2.034   6.486
 8171SOL    HW225413   0.517   2.097   6.631
 8172SOL     OW25414   0.069   0.004   0.576
 8172SOL    HW125415   0.121   0.067   0.634
 8172SOL    HW225416   0.085   6.935   0.607
 8173SOL     OW25417   3.855   2.650   6.792
 8173SOL    HW125418   3.771   2.619   6.837
 8173SOL    HW225419   3.851   2.625   6.695
 8174SOL     OW25420   5.691   1.847   1.112
 8174SOL    HW125421   5.763   1.873   1.047
 8174SOL    HW225422   5.720   1.768   1.165
 8175SOL     OW25423   6.860   2.202   6.380
 8175SOL    HW125424   6.833   2.141   6.455
 8175SOL    HW225425   6.951   2.239   6.398
 8176SOL     OW25426   2.528   5.900   2.187
 8176SOL    HW125427   2.461   5.851   2.243
 8176SOL    HW225428   2.521   5.869   2.092
 8177SOL     OW25429   1.338   5.839   4.230
 8177SOL    HW125430   1.416   5.790   4.192
 8177SOL    HW225431   1.263   5.839   4.165
 8178SOL     OW25432   2.523   6.811   6.295
 8178SOL    HW125433   2.437   6.793   6.343
 8178SOL    HW225434   2.551   6.906   6.312
 8179SOL     OW25435   3.131   2.931   0.017
 8179SOL    HW125436   3.057   2.995   7.021
 8179SOL    HW225437   3.219   2.972   7.020
 8180SOL     OW25438   0.263   0.019   4.373
 8180SOL    HW125439   0.338   0.062   4.424
 8180SOL    HW225440   0.176   0.042   4.416
 8181SOL     OW25441   2.737   2.373   2.754
 8181SOL    HW125442   2.702   2.424   2.675
 8181SOL    HW225443   2.794   2.298   2.723
 8182SOL     OW25444   3.144   2.538   5.913
 8182SOL    HW125445   3.105   2.481   5.841
 8182SOL    HW225446   3.152   2.485   5.997
 8183SOL     OW25447   0.559   3.692   5.184
 8183SOL    HW125448   0.648   3.731   5.207
 8183SOL    HW225449   0.544   3.609   5.237
 8184SOL     OW25450   6.921   0.456   5.589
 8184SOL    HW125451   6.937   0.505   5.675
 8184SOL    HW225452   6.987   0.488   5.521
 8185SOL     OW25453   2.724   0.840   1.143
 8185SOL    HW125454   2.798   0.906   1.159
 8185SOL    HW225455   2.655   0.882   1.083
 8186SOL     OW25456   3.480   6.262   5.962
 8186SOL    HW125457   3.505   6.183   6.018
 8186SOL    HW225458   3.396   6.241   5.911
 8187SOL     OW25459   1.662   1.756   5.309
 8187SOL    HW125460   1.575   1.756   5.260
 8187SOL    HW225461   1.657   1.819   5.386
 8188SOL     OW25462   5.379   1.952   2.598
 8188SOL    HW125463   5.331   2.039   2.610
 8188SOL    HW225464   5.451   1.944   2.668
 8189SOL     OW25465   5.663   4.412   2.336
 8189SOL    HW125466   5.581   4.470   2.330
 8189SOL    HW225467   5.668   4.370   2.426
 8190SOL     OW25468   5.319   3.848   4.091
 8190SOL    HW125469   5.276   3.883   4.175
 8190SOL    HW225470   5.354   3.756   4.108
 8191SOL     OW25471   0.985   5.805   3.805
 8191SOL    HW125472   0.995   5.707   3.785
 8191SOL    HW225473   1.001   5.820   3.903
 8192SOL     OW25474   2.452   5.719   1.909
 8192SOL    HW125475   2.549   5.741   1.901
 8192SOL    HW225476   2.398   5.787   1.859
 8193SOL     OW25477   5.059   6.748   5.085
 8193SOL    HW125478   5.067   6.757   5.185
 8193SOL    HW225479   4.979   6.798   5.054
 8194SOL     OW25480   6.370   1.479   6.877
 8194SOL    HW125481   6.311   1.443   6.949
 8194SOL    HW225482   6.424   1.404   6.838
 8195SOL     OW25483   6.845   0.122   0.207
 8195SOL    HW125484   6.849   0.135   0.306
 8195SOL    HW225485   6.878   0.205   0.162
 8196SOL     OW25486   3.683   6.773   6.237
 8196SOL    HW125487   3.618   6.839   6.199
 8196SOL    HW225488   3.718   6.806   6.324
 8197SOL     OW25489   6.624   0.825   6.145
 8197SOL    HW125490   6.538   0.773   6.143
 8197SOL    HW225491   6.693   0.774   6.197
 8198SOL     OW25492   2.492   6.497   3.200
 8198SOL    HW125493   2.551   6.502   3.120
 8198SOL    HW225494   2.532   6.433   3.267
 8199SOL     OW25495   0.625   4.190   7.001
 8199SOL    HW125496   0.708   4.138   6.979
 8199SOL    HW225497   0.651   4.280   0.012
 8200SOL     OW25498   4.598   4.039   1.738
 8200SOL    HW125499   4.553   4.122   1.771
 8200SOL    HW225500   4.536   3.988   1.678
 8201SOL     OW25501   5.503   0.383   3.764
 8201SOL    HW125502   5.497   0.482   3.777
 8201SOL    HW225503   5.511   0.362   3.667
 8202SOL     OW25504   1.775   4.658   3.688
 8202SOL    HW125505   1.750   4.563   3.668
 8202SOL    HW225506   1.695   4.706   3.725
 8203SOL     OW25507   5.019   3.921   1.332
 8203SOL    HW125508   5.041   3.842   1.273
 8203SOL    HW225509   5.059   4.004   1.293
 8204SOL     OW25510   3.301   6.770   2.394
 8204SOL    HW125511   3.308   6.703   2.321
 8204SOL    HW225512   3.362   6.745   2.469
 8205SOL     OW25513   5.467   5.402   1.833
 8205SOL    HW125514   5.426   5.491   1.816
 8205SOL    HW225515   5.461   5.346   1.751
 8206SOL     OW25516   4.189   2.196   5.480
 8206SOL    HW125517   4.092   2.176   5.486
 8206SOL    HW225518   4.240   2.111   5.467
 8207SOL     OW25519   3.387   4.996   6.099
 8207SOL    HW125520   3.417   4.931   6.169
 8207SOL    HW225521   3.465   5.052   6.070
 8208SOL     OW25522   1.903   5.094   1.803
 8208SOL    HW125523   1.950   5.025   1.748
 8208SOL    HW225524   1.887   5.175   1.748
 8209SOL     OW25525   1.190   0.992   5.142
 8209SOL    HW125526   1.250   1.003   5.063
 8209SOL    HW225527   1.158   1.082   5.172
 8210SOL     OW25528   2.015   1.260   0.348
 8210SOL    HW125529   1.973   1.175   0.316
 8210SOL    HW225530   2.108   1.242   0.378
 8211SOL     OW25531   3.061   3.742   4.119
 8211SOL    HW125532   3.108   3.826   4.090
 8211SOL    HW225533   2.984   3.724   4.057
 8212SOL     OW25534   2.241   6.899   1.482
 8212SOL    HW125535   2.158   6.864   1.437
 8212SOL    HW225536   2.299   6.821   1.506
 8213SOL     OW25537   4.317   4.473   1.753
 8213SOL    HW125538   4.221   4.467   1.780
 8213SOL    HW225539   4.363   4.387   1.775
 8214SOL     OW25540   3.089   5.533   4.129
 8214SOL    HW125541   3.103   5.480   4.212
 8214SOL    HW225542   3.108   5.476   4.049
 8215SOL     OW25543   3.729   6.251   0.285
 8215SOL    HW125544   3.694   6.170   0.238
 8215SOL    HW225545   3.690   6.333   0.244
 8216SOL     OW25546   4.695   6.234   2.537
 8216SOL    HW125547   4.667   6.270   2.448
 8216SOL    HW225548   4.763   6.162   2.524
 8217SOL     OW25549   2.592   5.191   3.748
 8217SOL    HW125550   2.566   5.102   3.785
 8217SOL    HW225551   2.642   5.179   3.662
 8218SOL     OW25552   1.760   0.213   4.894
 8218SOL    HW125553   1.660   0.211   4.885
 8218SOL    HW225554   1.798   0.125   4.865
 8219SOL     OW25555   3.874   3.473   0.749
 8219SOL    HW125556   3.932   3.460   0.668
 8219SOL    HW225557   3.924   3.443   0.830
 8220SOL     OW25558   3.936   4.024   4.770
 8220SOL    HW125559   4.007   4.077   4.816
 8220SOL    HW225560   3.936   3.930   4.806
 8221SOL     OW25561   5.912   3.038   3.800
 8221SOL    HW125562   5.878   2.947   3.779
 8221SOL    HW225563   5.843   3.088   3.853
 8222SOL     OW25564   5.933   2.264   1.649
 8222SOL    HW125565   5.959   2.354   1.614
 8222SOL    HW225566   5.839   2.267   1.683
 8223SOL     OW25567   6.753   5.912   5.522
 8223SOL    HW125568   6.730   5.815   5.515
 8223SOL    HW225569   6.695   5.955   5.591
 8224SOL     OW25570   5.313   1.848   6.923
 8224SOL    HW125571   5.233   1.795   6.893
 8224SOL    HW225572   5.295   1.885   7.015
 8225SOL     OW25573   4.646   1.530   0.033
 8225SOL    HW125574   4.683   1.467   6.990
 8225SOL    HW225575   4.573   1.484   0.084
 8226SOL     OW25576   3.518   0.771   0.138
 8226SOL    HW125577   3.443   0.837   0.151
 8226SOL    HW225578   3.546   0.771   0.042
 8227SOL     OW25579   5.538   1.958   2.832
 8227SOL    HW125580   5.461   2.011   2.864
 8227SOL    HW225581   5.545   1.874   2.886
 8228SOL     OW25582   0.682   1.126   5.572
 8228SOL    HW125583   0.669   1.149   5.475
 8228SOL    HW225584   0.624   1.048   5.596
 8229SOL     OW25585   4.352   4.714   1.145
 8229SOL    HW125586   4.433   4.742   1.195
 8229SOL    HW225587   4.353   4.614   1.133
 8230SOL     OW25588   4.375   0.853   6.062
 8230SOL    HW125589   4.326   0.937   6.038
 8230SOL    HW225590   4.314   0.775   6.053
 8231SOL     OW25591   3.124   1.589   1.986
 8231SOL    HW125592   3.133   1.508   1.929
 8231SOL    HW225593   3.038   1.586   2.036
 8232SOL     OW25594   4.308   6.889   2.687
 8232SOL    HW125595   4.217   6.930   2.695
 8232SOL    HW225596   4.331   6.878   2.591
 8233SOL     OW25597   0.442   0.931   5.325
 8233SOL    HW125598   0.371   0.957   5.260
 8233SOL    HW225599   0.528   0.915   5.275
 8234SOL     OW25600   2.414   2.275   0.362
 8234SOL    HW125601   2.478   2.337   0.406
 8234SOL    HW225602   2.328   2.322   0.345
 8235SOL     OW25603   6.917   5.616   0.418
 8235SOL    HW125604   6.911   5.708   0.457
 8235SOL    HW225605   7.012   5.593   0.399
 8236SOL     OW25606   1.035   6.650   5.875
 8236SOL    HW125607   0.963   6.581   5.870
 8236SOL    HW225608   1.006   6.732   5.824
 8237SOL     OW25609   4.541   5.414   5.917
 8237SOL    HW125610   4.567   5.504   5.949
 8237SOL    HW225611   4.469   5.423   5.847
 8238SOL     OW25612   2.064   4.651   1.006
 8238SOL    HW125613   2.067   4.662   1.105
 8238SOL    HW225614   2.024   4.562   0.983
 8239SOL     OW25615   0.533   1.923   5.382
 8239SOL    HW125616   0.592   2.001   5.363
 8239SOL    HW225617   0.440   1.956   5.401
 8240SOL     OW25618   3.533   3.839   5.077
 8240SOL    HW125619   3.617   3.846   5.131
 8240SOL    HW225620   3.487   3.752   5.097
 8241SOL     OW25621   1.884   3.553   6.364
 8241SOL    HW125622   1.892   3.454   6.370
 8241SOL    HW225623   1.788   3.577   6.348
 8242SOL     OW25624   1.106   4.069   4.306
 8242SOL    HW125625   1.108   4.159   4.350
 8242SOL    HW225626   1.141   4.077   4.213
 8243SOL     OW25627   0.531   4.736   4.897
 8243SOL    HW125628   0.576   4.813   4.943
 8243SOL    HW225629   0.440   4.764   4.868
 8244SOL     OW25630   1.588   0.172   3.576
 8244SOL    HW125631   1.685   0.194   3.590
 8244SOL    HW225632   1.570   0.159   3.479
 8245SOL     OW25633   5.476   1.162   4.066
 8245SOL    HW125634   5.448   1.250   4.105
 8245SOL    HW225635   5.559   1.176   4.011
 8246SOL     OW25636   1.501   4.351   6.781
 8246SOL    HW125637   1.460   4.293   6.852
 8246SOL    HW225638   1.506   4.445   6.814
 8247SOL     OW25639   2.874   5.758   3.371
 8247SOL    HW125640   2.833   5.702   3.443
 8247SOL    HW225641   2.922   5.700   3.305
 8248SOL     OW25642   0.803   4.951   2.914
 8248SOL    HW125643   0.808   4.907   3.004
 8248SOL    HW225644   0.844   5.042   2.919
 8249SOL     OW25645   2.613   2.236   6.131
 8249SOL    HW125646   2.597   2.325   6.089
 8249SOL    HW225647   2.528   2.203   6.172
 8250SOL     OW25648   1.673   1.463   6.151
 8250SOL    HW125649   1.657   1.525   6.075
 8250SOL    HW225650   1.715   1.513   6.227
 8251SOL     OW25651   6.908   2.524   5.078
 8251SOL    HW125652   6.899   2.614   5.036
 8251SOL    HW225653   6.855   2.457   5.025
 8252SOL     OW25654   1.785   2.281   6.591
 8252SOL    HW125655   1.843   2.348   6.637
 8252SOL    HW225656   1.763   2.313   6.499
 8253SOL     OW25657   3.956   5.917   0.321
 8253SOL    HW125658   3.857   5.916   0.303
 8253SOL    HW225659   4.005   5.886   0.239
 8254SOL     OW25660   5.316   5.376   0.659
 8254SOL    HW125661   5.284   5.423   0.741
 8254SOL    HW225662   5.395   5.320   0.681
 8255SOL     OW25663   0.512   6.418   6.245
 8255SOL    HW125664   0.461   6.362   6.180
 8255SOL    HW225665   0.607   6.426   6.214
 8256SOL     OW25666   1.773   5.775   2.732
 8256SOL    HW125667   1.822   5.705   2.681
 8256SOL    HW225668   1.781   5.756   2.830
 8257SOL     OW25669   4.798   4.189   4.247
 8257SOL    HW125670   4.878   4.205   4.189
 8257SOL    HW225671   4.809   4.102   4.295
 8258SOL     OW25672   6.370   3.532   1.999
 8258SOL    HW125673   6.431   3.600   2.041
 8258SOL    HW225674   6.365   3.452   2.058
 8259SOL     OW25675   4.501   1.752   3.945
 8259SOL    HW125676   4.551   1.768   3.860
 8259SOL    HW225677   4.471   1.657   3.949
 8260SOL     OW25678   2.963   0.427   1.011
 8260SOL    HW125679   2.948   0.491   0.936
 8260SOL    HW225680   2.885   0.429   1.074
 8261SOL     OW25681   5.398   0.591   3.521
 8261SOL    HW125682   5.367   0.659   3.455
 8261SOL    HW225683   5.319   0.548   3.564
 8262SOL     OW25684   0.223   3.901   1.734
 8262SOL    HW125685   0.157   3.975   1.741
 8262SOL    HW225686   0.283   3.916   1.655
 8263SOL     OW25687   0.077   2.351   6.445
 8263SOL    HW125688   0.155   2.297   6.413
 8263SOL    HW225689   0.089   2.446   6.419
 8264SOL     OW25690   1.432   6.456   3.336
 8264SOL    HW125691   1.404   6.551   3.351
 8264SOL    HW225692   1.365   6.409   3.279
 8265SOL     OW25693   5.690   0.892   0.842
 8265SOL    HW125694   5.660   0.897   0.746
 8265SOL    HW225695   5.648   0.965   0.894
 8266SOL     OW25696   2.235   0.395   3.891
 8266SOL    HW125697   2.298   0.472   3.887
 8266SOL    HW225698   2.201   0.385   3.984
 8267SOL     OW25699   1.748   3.832   2.918
 8267SOL    HW125700   1.665   3.796   2.960
 8267SOL    HW225701   1.767   3.782   2.833
 8268SOL     OW25702   3.315   4.451   6.399
 8268SOL    HW125703   3.401   4.436   6.447
 8268SOL    HW225704   3.247   4.384   6.431
 8269SOL     OW25705   4.672   2.263   3.272
 8269SOL    HW125706   4.632   2.276   3.363
 8269SOL    HW225707   4.599   2.255   3.205
 8270SOL     OW25708   3.878   0.042   6.102
 8270SOL    HW125709   3.968   7.025   6.117
 8270SOL    HW225710   3.887   0.141   6.102
 8271SOL     OW25711   4.455   6.371   5.146
 8271SOL    HW125712   4.530   6.425   5.183
 8271SOL    HW225713   4.490   6.302   5.083
 8272SOL     OW25714   0.603   6.837   1.670
 8272SOL    HW125715   0.624   6.926   1.630
 8272SOL    HW225716   0.673   6.771   1.642
 8273SOL     OW25717   2.952   6.552   6.708
 8273SOL    HW125718   3.052   6.553   6.698
 8273SOL    HW225719   2.928   6.549   6.805
 8274SOL     OW25720   5.208   6.409   6.538
 8274SOL    HW125721   5.162   6.342   6.597
 8274SOL    HW225722   5.141   6.476   6.506
 8275SOL     OW25723   6.017   1.045   4.763
 8275SOL    HW125724   6.065   1.117   4.814
 8275SOL    HW225725   6.069   1.023   4.680
 8276SOL     OW25726   6.528   3.286   6.579
 8276SOL    HW125727   6.508   3.289   6.677
 8276SOL    HW225728   6.545   3.191   6.552
 8277SOL     OW25729   1.102   5.386   6.223
 8277SOL    HW125730   1.099   5.362   6.126
 8277SOL    HW225731   1.107   5.303   6.279
 8278SOL     OW25732   3.777   1.242   0.039
 8278SOL    HW125733   3.744   1.315   0.098
 8278SOL    HW225734   3.802   1.163   0.094
 8279SOL     OW25735   4.856   5.597   5.895
 8279SOL    HW125736   4.950   5.566   5.876
 8279SOL    HW225737   4.800   5.582   5.813
 8280SOL     OW25738   5.459   2.983   0.086
 8280SOL    HW125739   5.369   2.967   0.126
 8280SOL    HW225740   5.521   3.017   0.156
 8281SOL     OW25741   2.080   4.776   6.925
 8281SOL    HW125742   2.121   4.740   7.009
 8281SOL    HW225743   2.015   4.849   6.949
 8282SOL     OW25744   2.927   2.854   0.777
 8282SOL    HW125745   2.929   2.776   0.714
 8282SOL    HW225746   2.891   2.824   0.865
 8283SOL     OW25747   0.161   4.830   3.066
 8283SOL    HW125748   0.098   4.820   3.144
 8283SOL    HW225749   0.214   4.914   3.077
 8284SOL     OW25750   2.089   2.354   2.135
 8284SOL    HW125751   2.027   2.424   2.169
 8284SOL    HW225752   2.153   2.395   2.070
 8285SOL     OW25753   3.172   4.366   5.935
 8285SOL    HW125754   3.179   4.461   5.907
 8285SOL    HW225755   3.147   4.362   6.032
 8286SOL     OW25756   5.493   1.003   4.938
 8286SOL    HW125757   5.580   1.030   4.897
 8286SOL    HW225758   5.464   0.915   4.901
 8287SOL     OW25759   1.857   0.211   3.557
 8287SOL    HW125760   1.874   0.262   3.641
 8287SOL    HW225761   1.890   0.262   3.478
 8288SOL     OW25762   1.349   1.470   2.574
 8288SOL    HW125763   1.447   1.452   2.570
 8288SOL    HW225764   1.332   1.549   2.633
 8289SOL     OW25765   6.386   1.387   5.418
 8289SOL    HW125766   6.347   1.465   5.466
 8289SOL    HW225767   6.431   1.326   5.483
 8290SOL     OW25768   3.640   2.539   1.769
 8290SOL    HW125769   3.632   2.610   1.839
 8290SOL    HW225770   3.675   2.455   1.811
 8291SOL     OW25771   6.120   5.805   6.150
 8291SOL    HW125772   6.113   5.833   6.246
 8291SOL    HW225773   6.187   5.732   6.141
 8292SOL     OW25774   1.241   3.829   4.553
 8292SOL    HW125775   1.189   3.784   4.625
 8292SOL    HW225776   1.192   3.821   4.466
 8293SOL     OW25777   2.655   5.542   3.127
 8293SOL    HW125778   2.622   5.611   3.063
 8293SOL    HW225779   2.736   5.497   3.090
 8294SOL     OW25780   6.406   3.889   5.882
 8294SOL    HW125781   6.467   3.816   5.912
 8294SOL    HW225782   6.321   3.848   5.848
 8295SOL     OW25783   4.745   4.279   2.178
 8295SOL    HW125784   4.794   4.307   2.095
 8295SOL    HW225785   4.647   4.293   2.165
 8296SOL     OW25786   3.673   6.712   1.416
 8296SOL    HW125787   3.626   6.739   1.332
 8296SOL    HW225788   3.703   6.617   1.408
 8297SOL     OW25789   6.001   4.679   2.866
 8297SOL    HW125790   6.058   4.715   2.940
 8297SOL    HW225791   6.044   4.701   2.778
 8298SOL     OW25792   6.500   0.417   6.441
 8298SOL    HW125793   6.409   0.416   6.483
 8298SOL    HW225794   6.529   0.323   6.422
 8299SOL     OW25795   0.825   3.988   1.591
 8299SOL    HW125796   0.838   3.900   1.637
 8299SOL    HW225797   0.847   3.978   1.494
 8300SOL     OW25798   5.787   5.226   3.168
 8300SOL    HW125799   5.784   5.172   3.252
 8300SOL    HW225800   5.860   5.294   3.176
 8301SOL     OW25801   4.104   6.585   0.556
 8301SOL    HW125802   4.134   6.597   0.651
 8301SOL    HW225803   4.147   6.654   0.498
 8302SOL     OW25804   3.606   6.757   5.391
 8302SOL    HW125805   3.540   6.790   5.323
 8302SOL    HW225806   3.668   6.692   5.349
 8303SOL     OW25807   6.412   6.273   3.109
 8303SOL    HW125808   6.391   6.365   3.077
 8303SOL    HW225809   6.486   6.234   3.054
 8304SOL     OW25810   5.819   3.962   3.461
 8304SOL    HW125811   5.757   3.990   3.387
 8304SOL    HW225812   5.913   3.981   3.434
 8305SOL     OW25813   5.347   5.783   4.352
 8305SOL    HW125814   5.281   5.800   4.425
 8305SOL    HW225815   5.354   5.864   4.294
 8306SOL     OW25816   6.259   0.958   2.203
 8306SOL    HW125817   6.161   0.943   2.214
 8306SOL    HW225818   6.274   1.047   2.160
 8307SOL     OW25819   2.369   4.797   2.376
 8307SOL    HW125820   2.424   4.868   2.421
 8307SOL    HW225821   2.339   4.731   2.443
 8308SOL     OW25822   1.378   5.059   0.002
 8308SOL    HW125823   1.406   5.155   0.009
 8308SOL    HW225824   1.314   5.038   0.076
 8309SOL     OW25825   6.170   4.289   4.307
 8309SOL    HW125826   6.190   4.354   4.233
 8309SOL    HW225827   6.140   4.202   4.269
 8310SOL     OW25828   0.820   6.587   0.093
 8310SOL    HW125829   0.918   6.591   0.072
 8310SOL    HW225830   0.788   6.677   0.121
 8311SOL     OW25831   5.362   0.339   3.990
 8311SOL    HW125832   5.276   0.389   3.991
 8311SOL    HW225833   5.414   0.363   3.909
 8312SOL     OW25834   5.502   1.303   6.476
 8312SOL    HW125835   5.569   1.330   6.545
 8312SOL    HW225836   5.542   1.309   6.385
 8313SOL     OW25837   4.301   1.475   4.893
 8313SOL    HW125838   4.257   1.416   4.961
 8313SOL    HW225839   4.391   1.503   4.927
 8314SOL     OW25840   4.997   5.942   5.867
 8314SOL    HW125841   4.984   5.870   5.800
 8314SOL    HW225842   5.034   5.903   5.952
 8315SOL     OW25843   3.712   3.427   4.899
 8315SOL    HW125844   3.727   3.344   4.844
 8315SOL    HW225845   3.645   3.485   4.854
 8316SOL     OW25846   1.528   2.494   6.777
 8316SOL    HW125847   1.626   2.493   6.796
 8316SOL    HW225848   1.482   2.427   6.834
 8317SOL     OW25849   1.507   1.390   3.385
 8317SOL    HW125850   1.437   1.321   3.364
 8317SOL    HW225851   1.465   1.480   3.386
 8318SOL     OW25852   4.321   6.999   0.009
 8318SOL    HW125853   4.237   0.017   6.999
 8318SOL    HW225854   4.353   6.931   6.968
 8319SOL     OW25855   1.984   6.829   6.244
 8319SOL    HW125856   1.885   6.832   6.226
 8319SOL    HW225857   2.007   6.896   6.314
 8320SOL     OW25858   3.113   3.599   4.355
 8320SOL    HW125859   3.112   3.656   4.272
 8320SOL    HW225860   3.116   3.658   4.435
 8321SOL     OW25861   6.358   6.338   0.548
 8321SOL    HW125862   6.435   6.332   0.612
 8321SOL    HW225863   6.283   6.389   0.592
 8322SOL     OW25864   7.017   0.576   6.963
 8322SOL    HW125865   0.065   0.588   6.895
 8322SOL    HW225866   0.019   0.618   0.024
 8323SOL     OW25867   4.624   4.813   1.196
 8323SOL    HW125868   4.582   4.904   1.198
 8323SOL    HW225869   4.723   4.823   1.183
 8324SOL     OW25870   5.718   6.748   6.475
 8324SOL    HW125871   5.706   6.649   6.469
 8324SOL    HW225872   5.815   6.770   6.487
 8325SOL     OW25873   0.943   5.754   5.559
 8325SOL    HW125874   1.031   5.785   5.524
 8325SOL    HW225875   0.948   5.743   5.659
 8326SOL     OW25876   1.800   3.731   1.916
 8326SOL    HW125877   1.753   3.687   1.993
 8326SOL    HW225878   1.873   3.671   1.883
 8327SOL     OW25879   1.005   0.070   4.666
 8327SOL    HW125880   1.057   0.130   4.605
 8327SOL    HW225881   0.908   0.073   4.641
 8328SOL     OW25882   1.737   0.392   6.682
 8328SOL    HW125883   1.829   0.417   6.654
 8328SOL    HW225884   1.676   0.471   6.674
 8329SOL     OW25885   1.301   2.466   4.921
 8329SOL    HW125886   1.337   2.481   4.829
 8329SOL    HW225887   1.358   2.400   4.970
 8330SOL     OW25888   3.087   1.376   6.810
 8330SOL    HW125889   3.014   1.424   6.763
 8330SOL    HW225890   3.143   1.441   6.860
 8331SOL     OW25891   1.810   1.870   6.835
 8331SOL    HW125892   1.836   1.930   6.911
 8331SOL    HW225893   1.711   1.859   6.834
 8332SOL     OW25894   5.919   4.878   2.252
 8332SOL    HW125895   5.878   4.867   2.161
 8332SOL    HW225896   5.870   4.820   2.317
 8333SOL     OW25897   2.604   4.566   1.175
 8333SOL    HW125898   2.609   4.613   1.263
 8333SOL    HW225899   2.696   4.562   1.135
 8334SOL     OW25900   3.733   1.959   6.590
 8334SOL    HW125901   3.636   1.935   6.596
 8334SOL    HW225902   3.760   1.962   6.493
 8335SOL     OW25903   5.140   3.569   5.694
 8335SOL    HW125904   5.173   3.610   5.779
 8335SOL    HW225905   5.117   3.473   5.709
 8336SOL     OW25906   1.181   3.534   3.376
 8336SOL    HW125907   1.100   3.571   3.330
 8336SOL    HW225908   1.154   3.454   3.430
 8337SOL     OW25909   0.514   1.234   3.882
 8337SOL    HW125910   0.539   1.290   3.803
 8337SOL    HW225911   0.561   1.268   3.963
 8338SOL     OW25912   4.211   5.217   2.844
 8338SOL    HW125913   4.302   5.231   2.805
 8338SOL    HW225914   4.164   5.305   2.853
 8339SOL     OW25915   6.745   0.024   0.665
 8339SOL    HW125916   6.784   0.074   0.588
 8339SOL    HW225917   6.645   0.022   0.656
 8340SOL     OW25918   5.801   2.553   0.309
 8340SOL    HW125919   5.808   2.498   0.392
 8340SOL    HW225920   5.715   2.603   0.308
 8341SOL     OW25921   3.058   0.911   0.204
 8341SOL    HW125922   3.020   0.877   0.291
 8341SOL    HW225923   3.155   0.928   0.215
 8342SOL     OW25924   4.559   0.535   0.160
 8342SOL    HW125925   4.631   0.555   0.226
 8342SOL    HW225926   4.470   0.561   0.198
 8343SOL     OW25927   6.140   3.916   4.018
 8343SOL    HW125928   6.193   3.965   3.949
 8343SOL    HW225929   6.190   3.835   4.047
 8344SOL     OW25930   1.312   5.449   5.426
 8344SOL    HW125931   1.350   5.376   5.483
 8344SOL    HW225932   1.358   5.451   5.337
 8345SOL     OW25933   4.572   0.548   2.275
 8345SOL    HW125934   4.574   0.498   2.362
 8345SOL    HW225935   4.509   0.503   2.212
 8346SOL     OW25936   4.808   3.247   5.324
 8346SOL    HW125937   4.814   3.345   5.308
 8346SOL    HW225938   4.713   3.222   5.341
 8347SOL     OW25939   2.381   0.246   6.214
 8347SOL    HW125940   2.466   0.198   6.235
 8347SOL    HW225941   2.402   0.334   6.171
 8348SOL     OW25942   3.725   6.664   2.270
 8348SOL    HW125943   3.813   6.625   2.297
 8348SOL    HW225944   3.716   6.755   2.310
 8349SOL     OW25945   1.239   6.154   1.965
 8349SOL    HW125946   1.187   6.104   2.034
 8349SOL    HW225947   1.333   6.121   1.963
 8350SOL     OW25948   2.609   6.882   0.132
 8350SOL    HW125949   2.588   6.785   0.117
 8350SOL    HW225950   2.572   6.936   0.057
 8351SOL     OW25951   0.075   4.092   3.845
 8351SOL    HW125952   0.010   4.099   3.769
 8351SOL    HW225953   0.157   4.043   3.815
 8352SOL     OW25954   2.859   5.297   1.546
 8352SOL    HW125955   2.790   5.361   1.580
 8352SOL    HW225956   2.914   5.342   1.475
 8353SOL     OW25957   1.700   4.062   2.666
 8353SOL    HW125958   1.662   4.154   2.676
 8353SOL    HW225959   1.799   4.068   2.661
 8354SOL     OW25960   3.314   0.247   3.825
 8354SOL    HW125961   3.310   0.300   3.910
 8354SOL    HW225962   3.397   0.270   3.775
 8355SOL     OW25963   1.933   6.223   5.627
 8355SOL    HW125964   1.911   6.303   5.683
 8355SOL    HW225965   1.931   6.141   5.684
 8356SOL     OW25966   1.386   5.394   1.022
 8356SOL    HW125967   1.346   5.339   0.949
 8356SOL    HW225968   1.484   5.403   1.008
 8357SOL     OW25969   4.692   6.300   6.032
 8357SOL    HW125970   4.653   6.255   5.952
 8357SOL    HW225971   4.619   6.349   6.081
 8358SOL     OW25972   0.946   2.309   4.641
 8358SOL    HW125973   0.877   2.364   4.689
 8358SOL    HW225974   0.989   2.245   4.706
 8359SOL     OW25975   3.116   2.040   5.465
 8359SOL    HW125976   3.052   1.992   5.526
 8359SOL    HW225977   3.114   1.997   5.375
 8360SOL     OW25978   4.919   0.184   0.926
 8360SOL    HW125979   4.981   0.221   0.995
 8360SOL    HW225980   4.965   0.111   0.875
 8361SOL     OW25981   3.453   0.148   0.585
 8361SOL    HW125982   3.537   0.141   0.638
 8361SOL    HW225983   3.463   0.218   0.514
 8362SOL     OW25984   6.839   3.864   1.464
 8362SOL    HW125985   6.840   3.816   1.377
 8362SOL    HW225986   6.821   3.799   1.538
 8363SOL     OW25987   2.870   2.590   0.046
 8363SOL    HW125988   2.803   2.518   0.030
 8363SOL    HW225989   2.962   2.554   0.028
 8364SOL     OW25990   0.133   2.391   4.012
 8364SOL    HW125991   0.215   2.339   3.986
 8364SOL    HW225992   0.147   2.488   3.990
 8365SOL     OW25993   2.129   2.514   2.945
 8365SOL    HW125994   2.117   2.593   3.005
 8365SOL    HW225995   2.050   2.505   2.886
 8366SOL     OW25996   4.935   5.977   0.984
 8366SOL    HW125997   5.029   5.944   0.988
 8366SOL    HW225998   4.880   5.929   1.053
 8367SOL     OW25999   4.204   5.351   4.648
 8367SOL    HW126000   4.176   5.277   4.586
 8367SOL    HW226001   4.291   5.388   4.618
 8368SOL     OW26002   0.641   5.968   0.493
 8368SOL    HW126003   0.616   5.979   0.397
 8368SOL    HW226004   0.597   6.039   0.547
 8369SOL     OW26005   1.210   1.142   6.889
 8369SOL    HW126006   1.226   1.205   6.965
 8369SOL    HW226007   1.205   1.194   6.803
 8370SOL     OW26008   3.127   2.376   0.446
 8370SOL    HW126009   3.151   2.375   0.543
 8370SOL    HW226010   3.172   2.453   0.401
 8371SOL     OW26011   2.040   4.593   5.980
 8371SOL    HW126012   1.969   4.576   6.048
 8371SOL    HW226013   2.014   4.551   5.893
 8372SOL     OW26014   1.805   6.062   2.439
 8372SOL    HW126015   1.747   5.981   2.432
 8372SOL    HW226016   1.800   6.099   2.532
 8373SOL     OW26017   7.016   0.974   4.366
 8373SOL    HW126018   6.990   0.909   4.438
 8373SOL    HW226019   0.090   0.972   4.352
 8374SOL     OW26020   1.605   0.870   4.905
 8374SOL    HW126021   1.558   0.842   4.988
 8374SOL    HW226022   1.704   0.865   4.919
 8375SOL     OW26023   4.023   1.635   4.908
 8375SOL    HW126024   3.980   1.720   4.937
 8375SOL    HW226025   4.119   1.635   4.936
 8376SOL     OW26026   1.970   0.507   2.826
 8376SOL    HW126027   1.877   0.481   2.802
 8376SOL    HW226028   2.018   0.428   2.864
 8377SOL     OW26029   5.082   5.434   6.555
 8377SOL    HW126030   5.088   5.335   6.568
 8377SOL    HW226031   5.151   5.480   6.611
 8378SOL     OW26032   6.434   5.797   3.603
 8378SOL    HW126033   6.348   5.844   3.622
 8378SOL    HW226034   6.459   5.810   3.507
 8379SOL     OW26035   5.837   1.297   2.276
 8379SOL    HW126036   5.877   1.367   2.216
 8379SOL    HW226037   5.911   1.243   2.316
 8380SOL     OW26038   6.748   5.523   0.672
 8380SOL    HW126039   6.712   5.437   0.708
 8380SOL    HW226040   6.809   5.504   0.595
 8381SOL     OW26041   0.046   1.457   2.521
 8381SOL    HW126042   6.995   1.520   2.504
 8381SOL    HW226043   0.131   1.498   2.488
 8382SOL     OW26044   2.745   0.366   0.458
 8382SOL    HW126045   2.692   0.353   0.542
 8382SOL    HW226046   2.776   0.460   0.452
 8383SOL     OW26047   2.866   6.425   5.171
 8383SOL    HW126048   2.914   6.511   5.157
 8383SOL    HW226049   2.890   6.360   5.098
 8384SOL     OW26050   0.573   2.769   0.956
 8384SOL    HW126051   0.518   2.686   0.960
 8384SOL    HW226052   0.648   2.757   0.890
 8385SOL     OW26053   4.288   3.437   0.673
 8385SOL    HW126054   4.376   3.447   0.625
 8385SOL    HW226055   4.214   3.434   0.605
 8386SOL     OW26056   1.785   5.419   1.958
 8386SOL    HW126057   1.870   5.402   1.907
 8386SOL    HW226058   1.752   5.334   1.998
 8387SOL     OW26059   1.584   1.186   1.631
 8387SOL    HW126060   1.647   1.195   1.708
 8387SOL    HW226061   1.586   1.269   1.575
 8388SOL     OW26062   3.250   6.689   0.866
 8388SOL    HW126063   3.343   6.690   0.904
 8388SOL    HW226064   3.184   6.682   0.940
 8389SOL     OW26065   1.087   2.223   4.393
 8389SOL    HW126066   1.025   2.228   4.471
 8389SOL    HW226067   1.166   2.167   4.417
 8390SOL     OW26068   1.818   0.690   5.837
 8390SOL    HW126069   1.856   0.600   5.862
 8390SOL    HW226070   1.891   0.748   5.801
 8391SOL     OW26071   4.824   5.577   1.697
 8391SOL    HW126072   4.873   5.553   1.614
 8391SOL    HW226073   4.857   5.520   1.773
 8392SOL     OW26074   5.789   6.507   5.141
 8392SOL    HW126075   5.699   6.474   5.172
 8392SOL    HW226076   5.777   6.564   5.060
 8393SOL     OW26077   0.259   5.987   3.170
 8393SOL    HW126078   0.205   5.904   3.165
 8393SOL    HW226079   0.225   6.045   3.245
 8394SOL     OW26080   0.728   1.784   3.415
 8394SOL    HW126081   0.686   1.694   3.399
 8394SOL    HW226082   0.711   1.843   3.337
 8395SOL     OW26083   0.123   6.553   4.720
 8395SOL    HW126084   0.216   6.569   4.756
 8395SOL    HW226085   0.106   6.454   4.716
 8396SOL     OW26086   4.699   4.303   2.478
 8396SOL    HW126087   4.623   4.347   2.525
 8396SOL    HW226088   4.707   4.341   2.386
 8397SOL     OW26089   1.688   6.063   2.721
 8397SOL    HW126090   1.687   5.966   2.698
 8397SOL    HW226091   1.605   6.086   2.773
 8398SOL     OW26092   4.255   1.559   0.145
 8398SOL    HW126093   4.156   1.553   0.147
 8398SOL    HW226094   4.282   1.654   0.125
 8399SOL     OW26095   5.410   6.092   0.327
 8399SOL    HW126096   5.409   6.026   0.402
 8399SOL    HW226097   5.474   6.165   0.347
 8400SOL     OW26098   0.106   0.142   2.626
 8400SOL    HW126099   0.075   0.088   2.704
 8400SOL    HW226100   0.064   0.106   2.542
 8401SOL     OW26101   3.792   3.944   6.389
 8401SOL    HW126102   3.871   3.947   6.328
 8401SOL    HW226103   3.734   3.866   6.367
 8402SOL     OW26104   4.021   2.018   6.290
 8402SOL    HW126105   3.921   2.022   6.301
 8402SOL    HW226106   4.064   2.056   6.371
 8403SOL     OW26107   1.517   1.423   4.301
 8403SOL    HW126108   1.433   1.370   4.305
 8403SOL    HW226109   1.495   1.520   4.299
 8404SOL     OW26110   4.672   5.948   5.763
 8404SOL    HW126111   4.673   5.873   5.697
 8404SOL    HW226112   4.689   5.913   5.855
 8405SOL     OW26113   0.344   2.520   6.275
 8405SOL    HW126114   0.412   2.457   6.312
 8405SOL    HW226115   0.305   2.575   6.350
 8406SOL     OW26116   4.954   2.300   1.129
 8406SOL    HW126117   4.869   2.266   1.088
 8406SOL    HW226118   4.957   2.273   1.225
 8407SOL     OW26119   5.684   4.201   4.025
 8407SOL    HW126120   5.588   4.175   4.018
 8407SOL    HW226121   5.741   4.124   3.995
 8408SOL     OW26122   5.059   1.221   4.121
 8408SOL    HW126123   4.970   1.204   4.078
 8408SOL    HW226124   5.096   1.307   4.087
 8409SOL     OW26125   1.314   1.275   3.942
 8409SOL    HW126126   1.409   1.250   3.963
 8409SOL    HW226127   1.302   1.373   3.954
 8410SOL     OW26128   4.208   7.016   1.719
 8410SOL    HW126129   4.285   0.051   1.740
 8410SOL    HW226130   4.229   6.923   1.748
 8411SOL     OW26131   1.777   4.388   4.175
 8411SOL    HW126132   1.822   4.442   4.104
 8411SOL    HW226133   1.789   4.291   4.156
 8412SOL     OW26134   4.495   2.460   1.918
 8412SOL    HW126135   4.472   2.483   1.823
 8412SOL    HW226136   4.411   2.447   1.971
 8413SOL     OW26137   3.540   5.096   0.393
 8413SOL    HW126138   3.634   5.067   0.415
 8413SOL    HW226139   3.538   5.136   0.302
 8414SOL     OW26140   4.089   6.031   3.336
 8414SOL    HW126141   4.059   5.939   3.359
 8414SOL    HW226142   4.085   6.089   3.417
 8415SOL     OW26143   6.978   4.140   3.334
 8415SOL    HW126144   0.048   4.132   3.363
 8415SOL    HW226145   6.973   4.197   3.252
 8416SOL     OW26146   5.387   4.072   2.520
 8416SOL    HW126147   5.437   4.104   2.440
 8416SOL    HW226148   5.336   4.148   2.560
 8417SOL     OW26149   2.158   6.084   6.294
 8417SOL    HW126150   2.222   6.022   6.340
 8417SOL    HW226151   2.065   6.047   6.300
 8418SOL     OW26152   6.127   5.874   2.735
 8418SOL    HW126153   6.118   5.960   2.686
 8418SOL    HW226154   6.175   5.889   2.821
 8419SOL     OW26155   4.313   0.269   2.337
 8419SOL    HW126156   4.365   0.220   2.406
 8419SOL    HW226157   4.326   0.225   2.248
 8420SOL     OW26158   3.868   0.444   6.448
 8420SOL    HW126159   3.922   0.388   6.385
 8420SOL    HW226160   3.926   0.474   6.524
 8421SOL     OW26161   1.740   6.722   2.084
 8421SOL    HW126162   1.817   6.776   2.050
 8421SOL    HW226163   1.716   6.753   2.176
 8422SOL     OW26164   5.014   6.870   0.544
 8422SOL    HW126165   4.931   6.815   0.535
 8422SOL    HW226166   4.989   6.964   0.569
 8423SOL     OW26167   3.577   4.735   0.243
 8423SOL    HW126168   3.654   4.707   0.301
 8423SOL    HW226169   3.534   4.653   0.204
 8424SOL     OW26170   3.390   1.818   2.724
 8424SOL    HW126171   3.337   1.823   2.639
 8424SOL    HW226172   3.331   1.786   2.799
 8425SOL     OW26173   6.208   5.003   1.738
 8425SOL    HW126174   6.169   4.964   1.821
 8425SOL    HW226175   6.302   5.033   1.756
 8426SOL     OW26176   3.919   3.459   3.799
 8426SOL    HW126177   3.919   3.463   3.699
 8426SOL    HW226178   3.892   3.548   3.836
 8427SOL     OW26179   1.841   3.736   6.781
 8427SOL    HW126180   1.869   3.676   6.855
 8427SOL    HW226181   1.898   3.719   6.700
 8428SOL     OW26182   0.374   4.326   2.121
 8428SOL    HW126183   0.332   4.258   2.061
 8428SOL    HW226184   0.303   4.368   2.178
 8429SOL     OW26185   2.233   5.558   3.876
 8429SOL    HW126186   2.313   5.522   3.828
 8429SOL    HW226187   2.170   5.483   3.894
 8430SOL     OW26188   4.680   4.703   2.984
 8430SOL    HW126189   4.757   4.681   2.925
 8430SOL    HW226190   4.639   4.790   2.955
 8431SOL     OW26191   3.689   4.599   1.207
 8431SOL    HW126192   3.645   4.574   1.121
 8431SOL    HW226193   3.622   4.593   1.281
 8432SOL     OW26194   4.250   5.395   6.227
 8432SOL    HW126195   4.160   5.385   6.184
 8432SOL    HW226196   4.271   5.493   6.236
 8433SOL     OW26197   1.022   2.931   6.433
 8433SOL    HW126198   1.012   2.908   6.336
 8433SOL    HW226199   0.960   2.874   6.487
 8434SOL     OW26200   4.933   6.337   5.908
 8434SOL    HW126201   4.963   6.257   5.959
 8434SOL    HW226202   4.837   6.356   5.928
 8435SOL     OW26203   4.506   1.980   1.076
 8435SOL    HW126204   4.593   2.018   1.105
 8435SOL    HW226205   4.441   1.982   1.152
 8436SOL     OW26206   4.215   4.819   2.528
 8436SOL    HW126207   4.201   4.847   2.433
 8436SOL    HW226208   4.195   4.896   2.588
 8437SOL     OW26209   0.759   0.963   1.068
 8437SOL    HW126210   0.730   1.057   1.049
 8437SOL    HW226211   0.793   0.921   0.984
 8438SOL     OW26212   2.719   4.728   2.531
 8438SOL    HW126213   2.667   4.807   2.561
 8438SOL    HW226214   2.745   4.739   2.435
 8439SOL     OW26215   6.996   5.198   2.137
 8439SOL    HW126216   6.940   5.273   2.173
 8439SOL    HW226217   0.047   5.180   2.200
 8440SOL     OW26218   6.954   0.630   1.472
 8440SOL    HW126219   7.025   0.695   1.444
 8440SOL    HW226220   6.974   0.597   1.564
 8441SOL     OW26221   5.389   5.913   6.759
 8441SOL    HW126222   5.307   5.927   6.816
 8441SOL    HW226223   5.403   5.816   6.743
 8442SOL     OW26224   2.851   4.453   0.026
 8442SOL    HW126225   2.874   4.419   6.959
 8442SOL    HW226226   2.768   4.509   0.021
 8443SOL     OW26227   0.869   0.632   3.233
 8443SOL    HW126228   0.794   0.580   3.273
 8443SOL    HW226229   0.931   0.662   3.306
 8444SOL     OW26230   3.811   6.573   4.111
 8444SOL    HW126231   3.803   6.513   4.191
 8444SOL    HW226232   3.721   6.586   4.070
 8445SOL     OW26233   3.551   5.420   3.073
 8445SOL    HW126234   3.472   5.401   3.015
 8445SOL    HW226235   3.582   5.514   3.057
 8446SOL     OW26236   5.356   5.403   3.172
 8446SOL    HW126237   5.272   5.382   3.222
 8446SOL    HW226238   5.337   5.406   3.074
 8447SOL     OW26239   5.088   2.450   1.543
 8447SOL    HW126240   5.044   2.389   1.609
 8447SOL    HW226241   5.110   2.537   1.588
 8448SOL     OW26242   0.178   3.925   6.248
 8448SOL    HW126243   0.168   3.888   6.156
 8448SOL    HW226244   0.276   3.931   6.271
 8449SOL     OW26245   0.381   3.445   4.804
 8449SOL    HW126246   0.281   3.441   4.796
 8449SOL    HW226247   0.419   3.352   4.805
 8450SOL     OW26248   1.483   5.968   2.936
 8450SOL    HW126249   1.464   6.028   3.013
 8450SOL    HW226250   1.545   5.895   2.965
 8451SOL     OW26251   3.601   3.126   1.257
 8451SOL    HW126252   3.508   3.114   1.293
 8451SOL    HW226253   3.667   3.105   1.329
 8452SOL     OW26254   6.641   0.485   1.047
 8452SOL    HW126255   6.671   0.575   1.078
 8452SOL    HW226256   6.542   0.478   1.058
 8453SOL     OW26257   6.385   4.751   6.769
 8453SOL    HW126258   6.416   4.828   6.713
 8453SOL    HW226259   6.353   4.678   6.709
 8454SOL     OW26260   1.360   6.547   2.943
 8454SOL    HW126261   1.447   6.592   2.960
 8454SOL    HW226262   1.348   6.533   2.845
 8455SOL     OW26263   4.714   1.749   1.151
 8455SOL    HW126264   4.654   1.764   1.072
 8455SOL    HW226265   4.663   1.704   1.223
 8456SOL     OW26266   5.500   5.332   3.815
 8456SOL    HW126267   5.435   5.319   3.740
 8456SOL    HW226268   5.537   5.425   3.811
 8457SOL     OW26269   6.753   0.243   5.555
 8457SOL    HW126270   6.741   0.200   5.644
 8457SOL    HW226271   6.837   0.298   5.555
 8458SOL     OW26272   2.107   1.920   0.147
 8458SOL    HW126273   2.148   1.833   0.175
 8458SOL    HW226274   2.154   1.955   0.066
 8459SOL     OW26275   3.654   5.852   2.748
 8459SOL    HW126276   3.575   5.822   2.694
 8459SOL    HW226277   3.671   5.949   2.732
 8460SOL     OW26278   4.678   2.492   6.797
 8460SOL    HW126279   4.721   2.428   6.734
 8460SOL    HW226280   4.584   2.462   6.817
 8461SOL     OW26281   0.566   3.960   1.677
 8461SOL    HW126282   0.511   3.945   1.594
 8461SOL    HW226283   0.655   3.996   1.651
 8462SOL     OW26284   3.741   4.064   6.997
 8462SOL    HW126285   3.770   3.990   6.935
 8462SOL    HW226286   3.667   4.031   0.030
 8463SOL     OW26287   6.864   2.134   0.184
 8463SOL    HW126288   6.919   2.052   0.167
 8463SOL    HW226289   6.877   2.199   0.108
 8464SOL     OW26290   0.317   3.661   6.778
 8464SOL    HW126291   0.380   3.606   6.723
 8464SOL    HW226292   0.242   3.603   6.810
 8465SOL     OW26293   3.143   2.292   1.027
 8465SOL    HW126294   3.043   2.291   1.019
 8465SOL    HW226295   3.183   2.252   0.945
 8466SOL     OW26296   5.462   0.503   5.505
 8466SOL    HW126297   5.404   0.436   5.458
 8466SOL    HW226298   5.526   0.544   5.440
 8467SOL     OW26299   3.591   0.816   0.394
 8467SOL    HW126300   3.556   0.783   0.307
 8467SOL    HW226301   3.518   0.866   0.442
 8468SOL     OW26302   6.006   3.643   6.638
 8468SOL    HW126303   6.088   3.597   6.604
 8468SOL    HW226304   5.951   3.579   6.692
 8469SOL     OW26305   4.159   2.737   5.549
 8469SOL    HW126306   4.158   2.835   5.565
 8469SOL    HW226307   4.067   2.700   5.563
 8470SOL     OW26308   0.888   4.821   1.109
 8470SOL    HW126309   0.788   4.826   1.106
 8470SOL    HW226310   0.919   4.826   1.204
 8471SOL     OW26311   2.829   0.508   4.981
 8471SOL    HW126312   2.786   0.427   5.021
 8471SOL    HW226313   2.861   0.486   4.888
 8472SOL     OW26314   5.642   1.438   6.228
 8472SOL    HW126315   5.700   1.492   6.166
 8472SOL    HW226316   5.685   1.349   6.244
 8473SOL     OW26317   4.818   4.521   6.928
 8473SOL    HW126318   4.830   4.610   6.972
 8473SOL    HW226319   4.809   4.534   6.829
 8474SOL     OW26320   3.172   3.106   3.086
 8474SOL    HW126321   3.254   3.050   3.072
 8474SOL    HW226322   3.165   3.173   3.012
 8475SOL     OW26323   0.368   3.630   1.218
 8475SOL    HW126324   0.308   3.706   1.193
 8475SOL    HW226325   0.455   3.639   1.168
 8476SOL     OW26326   6.292   0.327   1.530
 8476SOL    HW126327   6.365   0.304   1.594
 8476SOL    HW226328   6.256   0.243   1.489
 8477SOL     OW26329   4.966   6.571   1.354
 8477SOL    HW126330   4.892   6.513   1.321
 8477SOL    HW226331   5.047   6.558   1.297
 8478SOL     OW26332   0.898   0.802   5.671
 8478SOL    HW126333   0.826   0.800   5.741
 8478SOL    HW226334   0.937   0.711   5.661
 8479SOL     OW26335   1.979   2.221   1.028
 8479SOL    HW126336   1.912   2.238   0.955
 8479SOL    HW226337   1.935   2.235   1.117
 8480SOL     OW26338   4.535   2.736   6.962
 8480SOL    HW126339   4.631   2.730   6.990
 8480SOL    HW226340   4.530   2.746   6.863
 8481SOL     OW26341   3.592   2.112   4.550
 8481SOL    HW126342   3.506   2.130   4.597
 8481SOL    HW226343   3.668   2.122   4.614
 8482SOL     OW26344   4.664   1.204   6.886
 8482SOL    HW126345   4.576   1.251   6.877
 8482SOL    HW226346   4.671   1.163   6.977
 8483SOL     OW26347   3.454   6.222   3.643
 8483SOL    HW126348   3.551   6.208   3.660
 8483SOL    HW226349   3.426   6.171   3.561
 8484SOL     OW26350   6.271   6.039   4.949
 8484SOL    HW126351   6.207   6.100   4.903
 8484SOL    HW226352   6.362   6.052   4.912
 8485SOL     OW26353   3.476   2.234   0.373
 8485SOL    HW126354   3.467   2.259   0.469
 8485SOL    HW226355   3.490   2.316   0.318
 8486SOL     OW26356   1.919   1.371   2.061
 8486SOL    HW126357   1.992   1.307   2.038
 8486SOL    HW226358   1.950   1.465   2.046
 8487SOL     OW26359   5.288   1.853   6.065
 8487SOL    HW126360   5.322   1.947   6.074
 8487SOL    HW226361   5.274   1.814   6.156
 8488SOL     OW26362   5.692   5.537   2.605
 8488SOL    HW126363   5.704   5.456   2.662
 8488SOL    HW226364   5.671   5.616   2.664
 8489SOL     OW26365   5.420   1.116   1.546
 8489SOL    HW126366   5.451   1.034   1.594
 8489SOL    HW226367   5.398   1.187   1.613
 8490SOL     OW26368   2.659   0.020   6.396
 8490SOL    HW126369   2.710   0.044   6.313
 8490SOL    HW226370   2.723   7.020   6.468
 8491SOL     OW26371   2.056   5.845   2.667
 8491SOL    HW126372   1.963   5.833   2.703
 8491SOL    HW226373   2.062   5.803   2.576
 8492SOL     OW26374   6.041   3.663   4.532
 8492SOL    HW126375   5.977   3.737   4.513
 8492SOL    HW226376   6.105   3.692   4.604
 8493SOL     OW26377   3.011   1.158   0.437
 8493SOL    HW126378   2.982   1.063   0.432
 8493SOL    HW226379   2.984   1.197   0.525
 8494SOL     OW26380   5.824   4.840   1.975
 8494SOL    HW126381   5.776   4.915   1.929
 8494SOL    HW226382   5.802   4.754   1.931
 8495SOL     OW26383   6.074   5.491   0.731
 8495SOL    HW126384   6.081   5.400   0.692
 8495SOL    HW226385   6.063   5.558   0.657
 8496SOL     OW26386   5.740   1.105   1.871
 8496SOL    HW126387   5.689   1.184   1.905
 8496SOL    HW226388   5.797   1.068   1.944
 8497SOL     OW26389   0.152   0.242   3.614
 8497SOL    HW126390   0.240   0.230   3.568
 8497SOL    HW226391   0.166   0.283   3.704
 8498SOL     OW26392   4.969   6.781   3.690
 8498SOL    HW126393   4.997   6.854   3.752
 8498SOL    HW226394   4.967   6.817   3.596
 8499SOL     OW26395   0.165   5.629   0.732
 8499SOL    HW126396   0.212   5.566   0.670
 8499SOL    HW226397   0.223   5.647   0.811
 8500SOL     OW26398   1.547   0.645   5.762
 8500SOL    HW126399   1.512   0.664   5.670
 8500SOL    HW226400   1.642   0.675   5.768
 8501SOL     OW26401   0.507   2.247   0.118
 8501SOL    HW126402   0.489   2.344   0.134
 8501SOL    HW226403   0.422   2.195   0.129
 8502SOL     OW26404   0.346   3.172   6.750
 8502SOL    HW126405   0.317   3.134   6.837
 8502SOL    HW226406   0.295   3.256   6.732
 8503SOL     OW26407   6.479   6.270   4.581
 8503SOL    HW126408   6.425   6.213   4.644
 8503SOL    HW226409   6.490   6.221   4.495
 8504SOL     OW26410   2.446   5.192   2.436
 8504SOL    HW126411   2.440   5.178   2.534
 8504SOL    HW226412   2.459   5.289   2.416
 8505SOL     OW26413   5.495   3.679   2.682
 8505SOL    HW126414   5.486   3.684   2.582
 8505SOL    HW226415   5.452   3.595   2.715
 8506SOL     OW26416   1.860   0.825   6.564
 8506SOL    HW126417   1.838   0.907   6.617
 8506SOL    HW226418   1.946   0.838   6.515
 8507SOL     OW26419   4.529   0.098   5.400
 8507SOL    HW126420   4.513   0.027   5.469
 8507SOL    HW226421   4.443   0.143   5.378
 8508SOL     OW26422   4.100   2.124   6.526
 8508SOL    HW126423   4.071   2.068   6.604
 8508SOL    HW226424   4.198   2.109   6.510
 8509SOL     OW26425   5.627   0.225   3.213
 8509SOL    HW126426   5.714   0.193   3.252
 8509SOL    HW226427   5.605   0.171   3.133
 8510SOL     OW26428   5.338   2.718   4.244
 8510SOL    HW126429   5.311   2.682   4.333
 8510SOL    HW226430   5.363   2.643   4.183
 8511SOL     OW26431   5.690   3.112   2.459
 8511SOL    HW126432   5.774   3.093   2.408
 8511SOL    HW226433   5.688   3.209   2.485
 8512SOL     OW26434   2.255   0.394   3.554
 8512SOL    HW126435   2.260   0.301   3.590
 8512SOL    HW226436   2.196   0.396   3.474
 8513SOL     OW26437   5.883   6.204   0.139
 8513SOL    HW126438   5.965   6.233   0.188
 8513SOL    HW226439   5.813   6.275   0.144
 8514SOL     OW26440   3.449   6.642   3.411
 8514SOL    HW126441   3.483   6.551   3.435
 8514SOL    HW226442   3.521   6.694   3.367
 8515SOL     OW26443   5.848   2.529   0.993
 8515SOL    HW126444   5.930   2.572   0.955
 8515SOL    HW226445   5.846   2.432   0.968
 8516SOL     OW26446   6.665   2.027   2.424
 8516SOL    HW126447   6.585   2.083   2.402
 8516SOL    HW226448   6.702   2.053   2.513
 8517SOL     OW26449   0.878   2.720   6.663
 8517SOL    HW126450   0.820   2.640   6.680
 8517SOL    HW226451   0.959   2.715   6.720
 8518SOL     OW26452   3.500   5.535   0.290
 8518SOL    HW126453   3.573   5.483   0.335
 8518SOL    HW226454   3.525   5.550   0.194
 8519SOL     OW26455   1.587   5.894   2.465
 8519SOL    HW126456   1.555   5.863   2.375
 8519SOL    HW226457   1.535   5.847   2.536
 8520SOL     OW26458   4.089   1.097   0.172
 8520SOL    HW126459   4.132   1.009   0.191
 8520SOL    HW226460   4.113   1.127   0.080
 8521SOL     OW26461   0.318   6.582   5.941
 8521SOL    HW126462   0.272   6.648   6.002
 8521SOL    HW226463   0.347   6.503   5.995
 8522SOL     OW26464   1.015   6.704   3.995
 8522SOL    HW126465   1.043   6.613   3.964
 8522SOL    HW226466   1.028   6.770   3.921
 8523SOL     OW26467   2.550   6.609   6.089
 8523SOL    HW126468   2.576   6.646   6.178
 8523SOL    HW226469   2.597   6.661   6.017
 8524SOL     OW26470   1.212   3.548   5.268
 8524SOL    HW126471   1.255   3.634   5.293
 8524SOL    HW226472   1.114   3.563   5.253
 8525SOL     OW26473   5.740   3.327   3.156
 8525SOL    HW126474   5.764   3.376   3.073
 8525SOL    HW226475   5.738   3.229   3.138
 8526SOL     OW26476   2.452   2.842   1.758
 8526SOL    HW126477   2.363   2.838   1.712
 8526SOL    HW226478   2.522   2.873   1.693
 8527SOL     OW26479   4.662   0.490   4.321
 8527SOL    HW126480   4.599   0.480   4.397
 8527SOL    HW226481   4.727   0.414   4.320
 8528SOL     OW26482   4.783   3.064   5.931
 8528SOL    HW126483   4.694   3.110   5.942
 8528SOL    HW226484   4.847   3.098   6.000
 8529SOL     OW26485   1.651   4.859   0.076
 8529SOL    HW126486   1.588   4.918   0.026
 8529SOL    HW226487   1.611   4.833   0.164
 8530SOL     OW26488   1.372   4.256   5.349
 8530SOL    HW126489   1.406   4.170   5.389
 8530SOL    HW226490   1.342   4.317   5.422
 8531SOL     OW26491   5.125   4.745   2.813
 8531SOL    HW126492   5.124   4.682   2.891
 8531SOL    HW226493   5.049   4.725   2.752
 8532SOL     OW26494   3.783   5.039   5.396
 8532SOL    HW126495   3.687   5.022   5.372
 8532SOL    HW226496   3.840   5.029   5.313
 8533SOL     OW26497   3.076   1.124   4.502
 8533SOL    HW126498   3.080   1.098   4.598
 8533SOL    HW226499   3.040   1.217   4.494
 8534SOL     OW26500   1.283   3.473   3.034
 8534SOL    HW126501   1.382   3.463   3.043
 8534SOL    HW226502   1.237   3.435   3.114
 8535SOL     OW26503   0.521   2.035   4.514
 8535SOL    HW126504   0.606   2.077   4.481
 8535SOL    HW226505   0.489   1.967   4.447
 8536SOL     OW26506   6.565   1.825   5.761
 8536SOL    HW126507   6.477   1.874   5.760
 8536SOL    HW226508   6.633   1.878   5.711
 8537SOL     OW26509   5.646   0.758   1.329
 8537SOL    HW126510   5.679   0.852   1.317
 8537SOL    HW226511   5.546   0.758   1.328
 8538SOL     OW26512   7.024   0.543   4.650
 8538SOL    HW126513   7.016   0.539   4.550
 8538SOL    HW226514   6.975   0.466   4.691
 8539SOL     OW26515   0.459   2.603   1.982
 8539SOL    HW126516   0.377   2.631   1.934
 8539SOL    HW226517   0.517   2.549   1.921
 8540SOL     OW26518   3.165   0.718   0.634
 8540SOL    HW126519   3.192   0.623   0.650
 8540SOL    HW226520   3.142   0.762   0.721
 8541SOL     OW26521   3.158   1.475   4.630
 8541SOL    HW126522   3.078   1.440   4.581
 8541SOL    HW226523   3.233   1.409   4.624
 8542SOL     OW26524   1.826   4.230   6.595
 8542SOL    HW126525   1.760   4.300   6.624
 8542SOL    HW226526   1.917   4.255   6.627
 8543SOL     OW26527   2.299   2.441   5.256
 8543SOL    HW126528   2.307   2.473   5.161
 8543SOL    HW226529   2.390   2.432   5.295
 8544SOL     OW26530   5.161   3.943   5.420
 8544SOL    HW126531   5.257   3.961   5.443
 8544SOL    HW226532   5.107   3.941   5.504
 8545SOL     OW26533   3.568   6.705   5.896
 8545SOL    HW126534   3.480   6.689   5.940
 8545SOL    HW226535   3.614   6.782   5.941
 8546SOL     OW26536   5.337   0.627   1.778
 8546SOL    HW126537   5.431   0.649   1.803
 8546SOL    HW226538   5.324   0.644   1.680
 8547SOL     OW26539   6.577   6.729   5.716
 8547SOL    HW126540   6.667   6.768   5.700
 8547SOL    HW226541   6.507   6.787   5.676
 8548SOL     OW26542   0.825   3.087   5.952
 8548SOL    HW126543   0.905   3.092   6.013
 8548SOL    HW226544   0.745   3.060   6.005
 8549SOL     OW26545   2.070   0.715   2.999
 8549SOL    HW126546   2.017   0.799   2.983
 8549SOL    HW226547   2.029   0.640   2.947
 8550SOL     OW26548   1.040   4.618   7.015
 8550SOL    HW126549   0.953   4.578   6.986
 8550SOL    HW226550   1.106   4.545   0.008
 8551SOL     OW26551   2.222   1.984   6.212
 8551SOL    HW126552   2.261   1.928   6.139
 8551SOL    HW226553   2.227   1.935   6.299
 8552SOL     OW26554   2.644   1.297   2.760
 8552SOL    HW126555   2.729   1.275   2.714
 8552SOL    HW226556   2.656   1.380   2.815
 8553SOL     OW26557   4.793   2.950   1.003
 8553SOL    HW126558   4.844   3.005   0.937
 8553SOL    HW226559   4.857   2.905   1.066
 8554SOL     OW26560   1.017   6.443   0.639
 8554SOL    HW126561   1.109   6.427   0.674
 8554SOL    HW226562   1.017   6.523   0.579
 8555SOL     OW26563   4.666   1.450   3.602
 8555SOL    HW126564   4.576   1.406   3.601
 8555SOL    HW226565   4.660   1.538   3.555
 8556SOL     OW26566   1.964   6.399   0.106
 8556SOL    HW126567   1.947   6.460   0.185
 8556SOL    HW226568   2.057   6.363   0.112
 8557SOL     OW26569   6.911   0.847   6.648
 8557SOL    HW126570   6.966   0.870   6.728
 8557SOL    HW226571   6.853   0.925   6.624
 8558SOL     OW26572   2.941   4.866   3.336
 8558SOL    HW126573   3.035   4.883   3.368
 8558SOL    HW226574   2.896   4.801   3.397
 8559SOL     OW26575   0.924   5.087   2.672
 8559SOL    HW126576   0.966   4.999   2.650
 8559SOL    HW226577   0.825   5.077   2.677
 8560SOL     OW26578   2.234   4.778   1.449
 8560SOL    HW126579   2.238   4.684   1.415
 8560SOL    HW226580   2.324   4.820   1.437
 8561SOL     OW26581   3.857   0.078   2.434
 8561SOL    HW126582   3.944   0.126   2.430
 8561SOL    HW226583   3.782   0.145   2.436
 8562SOL     OW26584   4.151   1.361   6.667
 8562SOL    HW126585   4.132   1.265   6.684
 8562SOL    HW226586   4.079   1.401   6.610
 8563SOL     OW26587   1.510   5.522   3.572
 8563SOL    HW126588   1.466   5.446   3.620
 8563SOL    HW226589   1.446   5.562   3.506
 8564SOL     OW26590   4.073   6.989   6.917
 8564SOL    HW126591   4.029   0.014   6.843
 8564SOL    HW226592   4.101   6.899   6.885
 8565SOL     OW26593   3.001   5.403   1.358
 8565SOL    HW126594   3.091   5.367   1.330
 8565SOL    HW226595   2.990   5.495   1.320
 8566SOL     OW26596   3.206   1.120   3.265
 8566SOL    HW126597   3.122   1.156   3.305
 8566SOL    HW226598   3.244   1.050   3.325
 8567SOL     OW26599   1.716   1.962   1.385
 8567SOL    HW126600   1.658   1.946   1.305
 8567SOL    HW226601   1.722   1.878   1.439
 8568SOL     OW26602   0.027   1.639   6.891
 8568SOL    HW126603   6.992   1.714   6.861
 8568SOL    HW226604   0.117   1.676   6.913
 8569SOL     OW26605   5.225   2.442   6.088
 8569SOL    HW126606   5.276   2.494   6.020
 8569SOL    HW226607   5.161   2.503   6.135
 8570SOL     OW26608   1.167   2.355   4.128
 8570SOL    HW126609   1.119   2.268   4.115
 8570SOL    HW226610   1.116   2.412   4.193
 8571SOL     OW26611   2.092   0.752   3.883
 8571SOL    HW126612   2.076   0.847   3.909
 8571SOL    HW226613   2.052   0.692   3.953
 8572SOL     OW26614   3.321   4.202   5.788
 8572SOL    HW126615   3.286   4.286   5.829
 8572SOL    HW226616   3.248   4.156   5.737
 8573SOL     OW26617   3.704   5.989   1.022
 8573SOL    HW126618   3.678   6.002   0.927
 8573SOL    HW226619   3.802   5.971   1.028
 8574SOL     OW26620   6.880   6.572   5.689
 8574SOL    HW126621   6.823   6.532   5.618
 8574SOL    HW226622   6.939   6.501   5.729
 8575SOL     OW26623   3.251   6.446   2.686
 8575SOL    HW126624   3.155   6.435   2.709
 8575SOL    HW226625   3.292   6.515   2.745
 8576SOL     OW26626   0.783   3.658   3.852
 8576SOL    HW126627   0.778   3.749   3.893
 8576SOL    HW226628   0.867   3.649   3.800
 8577SOL     OW26629   1.595   1.184   6.246
 8577SOL    HW126630   1.666   1.118   6.270
 8577SOL    HW226631   1.637   1.275   6.238
 8578SOL     OW26632   6.170   7.001   5.131
 8578SOL    HW126633   6.074   0.003   5.122
 8578SOL    HW226634   6.183   6.910   5.093
 8579SOL     OW26635   2.542   6.237   2.621
 8579SOL    HW126636   2.627   6.193   2.651
 8579SOL    HW226637   2.517   6.204   2.531
 8580SOL     OW26638   1.428   6.563   1.239
 8580SOL    HW126639   1.461   6.474   1.273
 8580SOL    HW226640   1.410   6.623   1.316
 8581SOL     OW26641   3.666   4.951   1.341
 8581SOL    HW126642   3.724   4.926   1.264
 8581SOL    HW226643   3.570   4.931   1.319
 8582SOL     OW26644   4.377   4.688   5.429
 8582SOL    HW126645   4.314   4.611   5.425
 8582SOL    HW226646   4.428   4.686   5.516
 8583SOL     OW26647   4.009   0.455   2.565
 8583SOL    HW126648   4.067   0.504   2.499
 8583SOL    HW226649   3.917   0.444   2.527
 8584SOL     OW26650   6.613   0.863   4.563
 8584SOL    HW126651   6.640   0.895   4.472
 8584SOL    HW226652   6.615   0.939   4.627
 8585SOL     OW26653   5.959   2.086   1.393
 8585SOL    HW126654   5.877   2.031   1.381
 8585SOL    HW226655   5.976   2.101   1.490
 8586SOL     OW26656   5.571   6.232   1.212
 8586SOL    HW126657   5.604   6.320   1.179
 8586SOL    HW226658   5.606   6.216   1.304
 8587SOL     OW26659   1.205   1.297   5.620
 8587SOL    HW126660   1.241   1.390   5.617
 8587SOL    HW226661   1.106   1.301   5.637
 8588SOL     OW26662   3.152   1.884   0.073
 8588SOL    HW126663   3.223   1.888   0.143
 8588SOL    HW226664   3.066   1.919   0.111
 8589SOL     OW26665   0.551   3.154   5.736
 8589SOL    HW126666   0.640   3.149   5.692
 8589SOL    HW226667   0.557   3.212   5.817
 8590SOL     OW26668   0.090   1.870   2.859
 8590SOL    HW126669   0.127   1.866   2.952
 8590SOL    HW226670   0.166   1.878   2.794
 8591SOL     OW26671   6.878   5.228   0.474
 8591SOL    HW126672   6.966   5.271   0.453
 8591SOL    HW226673   6.845   5.262   0.562
 8592SOL     OW26674   0.886   2.696   6.952
 8592SOL    HW126675   0.927   2.607   6.974
 8592SOL    HW226676   0.953   2.769   6.970
 8593SOL     OW26677   2.743   0.312   6.525
 8593SOL    HW126678   2.838   0.343   6.527
 8593SOL    HW226679   2.740   0.214   6.544
 8594SOL     OW26680   6.150   2.616   6.112
 8594SOL    HW126681   6.137   2.713   6.133
 8594SOL    HW226682   6.076   2.585   6.053
 8595SOL     OW26683   4.854   6.584   2.367
 8595SOL    HW126684   4.913   6.632   2.303
 8595SOL    HW226685   4.885   6.489   2.377
 8596SOL     OW26686   1.081   3.326   3.537
 8596SOL    HW126687   1.004   3.272   3.503
 8596SOL    HW226688   1.147   3.266   3.583
 8597SOL     OW26689   6.317   3.379   1.333
 8597SOL    HW126690   6.231   3.342   1.299
 8597SOL    HW226691   6.378   3.305   1.360
 8598SOL     OW26692   5.684   0.385   4.679
 8598SOL    HW126693   5.756   0.421   4.620
 8598SOL    HW226694   5.724   0.361   4.768
 8599SOL     OW26695   1.613   2.712   3.320
 8599SOL    HW126696   1.541   2.646   3.300
 8599SOL    HW226697   1.574   2.791   3.367
 8600SOL     OW26698   4.304   3.377   0.930
 8600SOL    HW126699   4.267   3.292   0.968
 8600SOL    HW226700   4.268   3.392   0.838
 8601SOL     OW26701   0.762   0.703   3.525
 8601SOL    HW126702   0.729   0.722   3.618
 8601SOL    HW226703   0.695   0.737   3.459
 8602SOL     OW26704   2.423   6.926   4.379
 8602SOL    HW126705   2.400   6.874   4.461
 8602SOL    HW226706   2.421   6.865   4.299
 8603SOL     OW26707   6.949   0.341   0.084
 8603SOL    HW126708   6.957   0.390   7.022
 8603SOL    HW226709   7.010   0.384   0.151
 8604SOL     OW26710   1.403   4.210   5.775
 8604SOL    HW126711   1.376   4.271   5.701
 8604SOL    HW226712   1.384   4.254   5.863
 8605SOL     OW26713   0.001   4.797   4.784
 8605SOL    HW126714   6.930   4.770   4.779
 8605SOL    HW226715   0.027   4.808   4.880
 8606SOL     OW26716   1.995   2.131   6.471
 8606SOL    HW126717   2.034   2.039   6.477
 8606SOL    HW226718   1.919   2.139   6.536
 8607SOL     OW26719   2.005   4.971   1.525
 8607SOL    HW126720   1.909   4.959   1.499
 8607SOL    HW226721   2.060   4.899   1.483
 8608SOL     OW26722   2.711   4.641   3.347
 8608SOL    HW126723   2.685   4.544   3.349
 8608SOL    HW226724   2.702   4.676   3.254
 8609SOL     OW26725   5.110   1.597   3.436
 8609SOL    HW126726   5.192   1.555   3.475
 8609SOL    HW226727   5.107   1.577   3.338
 8610SOL     OW26728   0.131   6.344   3.276
 8610SOL    HW126729   0.135   6.443   3.291
 8610SOL    HW226730   0.059   6.304   3.333
 8611SOL     OW26731   3.042   1.250   3.712
 8611SOL    HW126732   3.114   1.319   3.707
 8611SOL    HW226733   3.077   1.162   3.679
 8612SOL     OW26734   4.058   3.342   3.243
 8612SOL    HW126735   4.046   3.251   3.202
 8612SOL    HW226736   3.975   3.368   3.292
 8613SOL     OW26737   3.012   2.552   1.516
 8613SOL    HW126738   3.081   2.484   1.490
 8613SOL    HW226739   2.922   2.522   1.485
 8614SOL     OW26740   1.020   2.175   1.150
 8614SOL    HW126741   1.098   2.225   1.112
 8614SOL    HW226742   1.025   2.079   1.123
 8615SOL     OW26743   4.636   2.275   3.788
 8615SOL    HW126744   4.546   2.253   3.825
 8615SOL    HW226745   4.702   2.205   3.814
 8616SOL     OW26746   4.461   4.943   2.262
 8616SOL    HW126747   4.517   4.914   2.340
 8616SOL    HW226748   4.501   4.907   2.177
 8617SOL     OW26749   4.983   7.025   3.851
 8617SOL    HW126750   5.073   0.025   3.888
 8617SOL    HW226751   4.929   0.082   3.835
 8618SOL     OW26752   5.668   4.011   1.429
 8618SOL    HW126753   5.627   3.992   1.340
 8618SOL    HW226754   5.648   3.936   1.492
 8619SOL     OW26755   5.367   4.882   2.261
 8619SOL    HW126756   5.301   4.810   2.281
 8619SOL    HW226757   5.321   4.971   2.262
 8620SOL     OW26758   2.311   0.768   4.674
 8620SOL    HW126759   2.250   0.825   4.730
 8620SOL    HW226760   2.402   0.808   4.673
 8621SOL     OW26761   4.879   2.628   1.763
 8621SOL    HW126762   4.933   2.544   1.775
 8621SOL    HW226763   4.881   2.655   1.666
 8622SOL     OW26764   6.581   5.268   2.520
 8622SOL    HW126765   6.584   5.360   2.559
 8622SOL    HW226766   6.647   5.210   2.568
 8623SOL     OW26767   6.903   3.112   5.185
 8623SOL    HW126768   6.954   3.043   5.237
 8623SOL    HW226769   6.964   3.158   5.121
 8624SOL     OW26770   3.483   3.505   6.440
 8624SOL    HW126771   3.401   3.529   6.491
 8624SOL    HW226772   3.530   3.429   6.486
 8625SOL     OW26773   3.416   1.674   5.528
 8625SOL    HW126774   3.439   1.754   5.472
 8625SOL    HW226775   3.476   1.597   5.502
 8626SOL     OW26776   4.417   3.254   0.275
 8626SOL    HW126777   4.479   3.188   0.234
 8626SOL    HW226778   4.461   3.344   0.278
 8627SOL     OW26779   1.608   1.392   2.527
 8627SOL    HW126780   1.585   1.329   2.602
 8627SOL    HW226781   1.609   1.341   2.441
 8628SOL     OW26782   0.237   6.440   0.228
 8628SOL    HW126783   0.309   6.415   0.292
 8628SOL    HW226784   0.222   6.365   0.164
 8629SOL     OW26785   0.829   0.027   4.315
 8629SOL    HW126786   0.813   0.063   4.407
 8629SOL    HW226787   0.814   6.953   4.315
 8630SOL     OW26788   4.868   3.327   3.427
 8630SOL    HW126789   4.842   3.304   3.333
 8630SOL    HW226790   4.841   3.253   3.489
 8631SOL     OW26791   2.607   6.241   0.130
 8631SOL    HW126792   2.529   6.195   0.086
 8631SOL    HW226793   2.658   6.293   0.061
 8632SOL     OW26794   4.448   4.715   5.165
 8632SOL    HW126795   4.419   4.659   5.088
 8632SOL    HW226796   4.386   4.701   5.243
 8633SOL     OW26797   5.454   4.072   5.967
 8633SOL    HW126798   5.370   4.124   5.982
 8633SOL    HW226799   5.508   4.072   6.051
 8634SOL     OW26800   5.636   5.199   1.011
 8634SOL    HW126801   5.717   5.233   0.964
 8634SOL    HW226802   5.663   5.140   1.087
 8635SOL     OW26803   6.322   2.998   6.761
 8635SOL    HW126804   6.274   2.914   6.735
 8635SOL    HW226805   6.391   2.977   6.831
 8636SOL     OW26806   4.160   6.088   0.955
 8636SOL    HW126807   4.139   6.104   0.859
 8636SOL    HW226808   4.177   6.176   1.000
 8637SOL     OW26809   1.770   1.607   6.344
 8637SOL    HW126810   1.707   1.678   6.374
 8637SOL    HW226811   1.860   1.647   6.329
 8638SOL     OW26812   4.277   2.998   5.462
 8638SOL    HW126813   4.328   2.997   5.376
 8638SOL    HW226814   4.302   3.079   5.514
 8639SOL     OW26815   4.390   3.209   6.681
 8639SOL    HW126816   4.408   3.110   6.689
 8639SOL    HW226817   4.460   3.250   6.623
 8640SOL     OW26818   3.162   3.345   1.208
 8640SOL    HW126819   3.242   3.370   1.154
 8640SOL    HW226820   3.178   3.256   1.252
 8641SOL     OW26821   4.451   5.335   2.745
 8641SOL    HW126822   4.516   5.368   2.677
 8641SOL    HW226823   4.482   5.361   2.837
 8642SOL     OW26824   0.952   6.306   4.458
 8642SOL    HW126825   0.924   6.212   4.443
 8642SOL    HW226826   1.025   6.309   4.527
 8643SOL     OW26827   3.521   6.675   0.963
 8643SOL    HW126828   3.528   6.690   1.062
 8643SOL    HW226829   3.611   6.683   0.921
 8644SOL     OW26830   6.143   2.187   6.632
 8644SOL    HW126831   6.191   2.099   6.634
 8644SOL    HW226832   6.198   2.254   6.583
 8645SOL     OW26833   5.921   4.196   1.808
 8645SOL    HW126834   5.938   4.097   1.809
 8645SOL    HW226835   5.916   4.230   1.902
 8646SOL     OW26836   0.348   2.216   5.687
 8646SOL    HW126837   0.396   2.221   5.774
 8646SOL    HW226838   0.365   2.299   5.634
 8647SOL     OW26839   2.445   4.966   1.423
 8647SOL    HW126840   2.376   5.039   1.427
 8647SOL    HW226841   2.537   5.007   1.427
 8648SOL     OW26842   5.902   6.079   1.383
 8648SOL    HW126843   5.845   6.160   1.393
 8648SOL    HW226844   5.899   6.047   1.288
 8649SOL     OW26845   4.594   6.914   0.558
 8649SOL    HW126846   4.657   6.839   0.539
 8649SOL    HW226847   4.625   6.964   0.639
 8650SOL     OW26848   2.282   0.191   4.632
 8650SOL    HW126849   2.217   0.140   4.575
 8650SOL    HW226850   2.294   0.144   4.719
 8651SOL     OW26851   2.388   1.351   0.767
 8651SOL    HW126852   2.306   1.388   0.722
 8651SOL    HW226853   2.415   1.410   0.843
 8652SOL     OW26854   1.320   4.416   4.266
 8652SOL    HW126855   1.364   4.343   4.214
 8652SOL    HW226856   1.341   4.405   4.363
 8653SOL     OW26857   6.902   1.948   5.866
 8653SOL    HW126858   6.964   2.027   5.867
 8653SOL    HW226859   6.941   1.874   5.920
 8654SOL     OW26860   1.096   4.498   2.436
 8654SOL    HW126861   1.193   4.474   2.447
 8654SOL    HW226862   1.054   4.503   2.527
 8655SOL     OW26863   6.798   1.227   5.283
 8655SOL    HW126864   6.813   1.144   5.230
 8655SOL    HW226865   6.769   1.301   5.222
 8656SOL     OW26866   5.163   0.029   1.667
 8656SOL    HW126867   5.179   0.066   1.758
 8656SOL    HW226868   5.203   0.091   1.599
 8657SOL     OW26869   5.480   0.444   2.401
 8657SOL    HW126870   5.472   0.528   2.456
 8657SOL    HW226871   5.563   0.448   2.346
 8658SOL     OW26872   6.255   4.914   1.441
 8658SOL    HW126873   6.193   4.945   1.513
 8658SOL    HW226874   6.210   4.921   1.352
 8659SOL     OW26875   5.017   1.605   2.358
 8659SOL    HW126876   4.957   1.637   2.431
 8659SOL    HW226877   5.105   1.652   2.364
 8660SOL     OW26878   0.551   2.639   1.423
 8660SOL    HW126879   0.517   2.729   1.450
 8660SOL    HW226880   0.627   2.650   1.360
 8661SOL     OW26881   5.999   2.953   2.968
 8661SOL    HW126882   5.984   2.938   3.066
 8661SOL    HW226883   5.924   2.911   2.916
 8662SOL     OW26884   3.188   5.563   2.513
 8662SOL    HW126885   3.227   5.654   2.498
 8662SOL    HW226886   3.258   5.493   2.500
 8663SOL     OW26887   3.165   5.505   3.399
 8663SOL    HW126888   3.169   5.566   3.478
 8663SOL    HW226889   3.157   5.410   3.430
 8664SOL     OW26890   2.459   6.082   3.647
 8664SOL    HW126891   2.360   6.070   3.651
 8664SOL    HW226892   2.486   6.107   3.554
 8665SOL     OW26893   6.095   4.682   6.037
 8665SOL    HW126894   6.052   4.595   6.012
 8665SOL    HW226895   6.101   4.741   5.957
 8666SOL     OW26896   5.693   0.520   3.345
 8666SOL    HW126897   5.658   0.432   3.311
 8666SOL    HW226898   5.722   0.509   3.441
 8667SOL     OW26899   4.824   1.365   4.016
 8667SOL    HW126900   4.823   1.422   4.098
 8667SOL    HW226901   4.735   1.321   4.005
 8668SOL     OW26902   5.585   2.675   5.231
 8668SOL    HW126903   5.605   2.717   5.143
 8668SOL    HW226904   5.512   2.607   5.220
 8669SOL     OW26905   6.109   6.528   6.012
 8669SOL    HW126906   6.044   6.530   5.935
 8669SOL    HW226907   6.065   6.486   6.091
 8670SOL     OW26908   5.907   4.913   5.891
 8670SOL    HW126909   5.967   4.949   5.963
 8670SOL    HW226910   5.842   4.849   5.931
 8671SOL     OW26911   0.259   2.328   2.722
 8671SOL    HW126912   0.291   2.383   2.645
 8671SOL    HW226913   0.225   2.388   2.794
 8672SOL     OW26914   6.949   0.304   3.427
 8672SOL    HW126915   7.019   0.280   3.494
 8672SOL    HW226916   6.968   0.255   3.342
 8673SOL     OW26917   0.623   1.207   6.951
 8673SOL    HW126918   0.721   1.188   6.951
 8673SOL    HW226919   0.602   1.275   6.881
 8674SOL     OW26920   0.689   4.244   3.072
 8674SOL    HW126921   0.761   4.177   3.092
 8674SOL    HW226922   0.659   4.287   3.157
 8675SOL     OW26923   3.383   1.830   6.131
 8675SOL    HW126924   3.469   1.826   6.080
 8675SOL    HW226925   3.329   1.748   6.113
 8676SOL     OW26926   5.715   1.241   1.166
 8676SOL    HW126927   5.808   1.232   1.130
 8676SOL    HW226928   5.681   1.333   1.147
 8677SOL     OW26929   1.408   6.738   5.571
 8677SOL    HW126930   1.343   6.809   5.545
 8677SOL    HW226931   1.359   6.653   5.588
 8678SOL     OW26932   1.133   0.341   0.647
 8678SOL    HW126933   1.050   0.316   0.697
 8678SOL    HW226934   1.181   0.258   0.617
 8679SOL     OW26935   2.432   0.984   4.069
 8679SOL    HW126936   2.394   0.956   3.981
 8679SOL    HW226937   2.399   0.922   4.140
 8680SOL     OW26938   6.374   2.592   6.282
 8680SOL    HW126939   6.304   2.589   6.211
 8680SOL    HW226940   6.436   2.669   6.266
 8681SOL     OW26941   5.246   5.813   0.832
 8681SOL    HW126942   5.203   5.848   0.915
 8681SOL    HW226943   5.200   5.852   0.752
 8682SOL     OW26944   0.033   0.200   1.271
 8682SOL    HW126945   0.016   0.298   1.278
 8682SOL    HW226946   0.071   0.166   1.357
 8683SOL     OW26947   1.838   3.631   4.856
 8683SOL    HW126948   1.805   3.590   4.771
 8683SOL    HW226949   1.825   3.567   4.931
 8684SOL     OW26950   0.926   4.258   4.907
 8684SOL    HW126951   0.984   4.339   4.896
 8684SOL    HW226952   0.929   4.204   4.823
 8685SOL     OW26953   4.789   2.346   5.809
 8685SOL    HW126954   4.782   2.285   5.730
 8685SOL    HW226955   4.885   2.359   5.834
 8686SOL     OW26956   6.434   6.354   2.359
 8686SOL    HW126957   6.416   6.441   2.313
 8686SOL    HW226958   6.437   6.368   2.458
 8687SOL     OW26959   6.213   3.118   3.410
 8687SOL    HW126960   6.214   3.125   3.310
 8687SOL    HW226961   6.298   3.077   3.442
 8688SOL     OW26962   1.363   4.443   6.242
 8688SOL    HW126963   1.329   4.429   6.335
 8688SOL    HW226964   1.459   4.418   6.237
 8689SOL     OW26965   4.367   2.846   0.178
 8689SOL    HW126966   4.426   2.843   0.259
 8689SOL    HW226967   4.423   2.860   0.096
 8690SOL     OW26968   1.314   1.723   3.149
 8690SOL    HW126969   1.323   1.818   3.120
 8690SOL    HW226970   1.404   1.682   3.161
 8691SOL     OW26971   2.788   2.242   4.622
 8691SOL    HW126972   2.794   2.263   4.525
 8691SOL    HW226973   2.702   2.277   4.659
 8692SOL     OW26974   4.439   2.345   5.717
 8692SOL    HW126975   4.367   2.414   5.708
 8692SOL    HW226976   4.510   2.378   5.779
 8693SOL     OW26977   6.342   0.972   6.806
 8693SOL    HW126978   6.400   1.042   6.764
 8693SOL    HW226979   6.375   0.882   6.780
 8694SOL     OW26980   5.801   3.107   4.069
 8694SOL    HW126981   5.708   3.073   4.052
 8694SOL    HW226982   5.796   3.198   4.111
 8695SOL     OW26983   4.195   3.661   6.870
 8695SOL    HW126984   4.195   3.654   6.770
 8695SOL    HW226985   4.287   3.648   6.905
 8696SOL     OW26986   2.820   5.654   5.737
 8696SOL    HW126987   2.875   5.698   5.808
 8696SOL    HW226988   2.847   5.558   5.729
 8697SOL     OW26989   1.700   4.045   5.440
 8697SOL    HW126990   1.684   4.058   5.342
 8697SOL    HW226991   1.777   3.982   5.453
 8698SOL     OW26992   5.187   6.271   5.406
 8698SOL    HW126993   5.133   6.200   5.452
 8698SOL    HW226994   5.168   6.360   5.448
 8699SOL     OW26995   2.449   2.723   6.790
 8699SOL    HW126996   2.429   2.642   6.845
 8699SOL    HW226997   2.548   2.734   6.782
 8700SOL     OW26998   0.391   0.509   5.175
 8700SOL    HW126999   0.431   0.581   5.118
 8700SOL    HW227000   0.360   0.548   5.261
 8701SOL     OW27001   0.827   2.050   6.632
 8701SOL    HW127002   0.751   2.069   6.695
 8701SOL    HW227003   0.791   2.008   6.548
 8702SOL     OW27004   5.121   4.734   1.626
 8702SOL    HW127005   5.068   4.815   1.599
 8702SOL    HW227006   5.206   4.764   1.670
 8703SOL     OW27007   2.378   4.363   0.565
 8703SOL    HW127008   2.466   4.317   0.558
 8703SOL    HW227009   2.345   4.360   0.659
 8704SOL     OW27010   0.761   2.231   3.938
 8704SOL    HW127011   0.780   2.217   3.841
 8704SOL    HW227012   0.840   2.275   3.981
 8705SOL     OW27013   4.456   2.789   6.645
 8705SOL    HW127014   4.426   2.694   6.644
 8705SOL    HW227015   4.381   2.848   6.675
 8706SOL     OW27016   5.119   3.375   6.762
 8706SOL    HW127017   5.158   3.399   6.851
 8706SOL    HW227018   5.157   3.435   6.691
 8707SOL     OW27019   1.411   1.661   4.311
 8707SOL    HW127020   1.319   1.688   4.340
 8707SOL    HW227021   1.454   1.737   4.262
 8708SOL     OW27022   5.603   2.240   2.862
 8708SOL    HW127023   5.576   2.154   2.818
 8708SOL    HW227024   5.603   2.313   2.793
 8709SOL     OW27025   6.489   0.231   6.177
 8709SOL    HW127026   6.512   0.303   6.112
 8709SOL    HW227027   6.390   0.230   6.191
 8710SOL     OW27028   2.141   0.983   2.845
 8710SOL    HW127029   2.098   1.073   2.853
 8710SOL    HW227030   2.230   0.992   2.800
 8711SOL     OW27031   1.421   0.721   1.605
 8711SOL    HW127032   1.408   0.641   1.546
 8711SOL    HW227033   1.337   0.739   1.656
 8712SOL     OW27034   2.165   2.683   5.394
 8712SOL    HW127035   2.199   2.601   5.347
 8712SOL    HW227036   2.243   2.739   5.423
 8713SOL     OW27037   1.108   4.400   2.059
 8713SOL    HW127038   1.170   4.470   2.024
 8713SOL    HW227039   1.125   4.386   2.157
 8714SOL     OW27040   0.159   6.117   6.917
 8714SOL    HW127041   0.217   6.172   6.857
 8714SOL    HW227042   0.070   6.160   6.926
 8715SOL     OW27043   2.800   1.797   0.424
 8715SOL    HW127044   2.774   1.702   0.442
 8715SOL    HW227045   2.728   1.857   0.459
 8716SOL     OW27046   0.076   6.657   1.493
 8716SOL    HW127047   0.039   6.597   1.422
 8716SOL    HW227048   0.091   6.603   1.576
 8717SOL     OW27049   2.288   4.379   6.871
 8717SOL    HW127050   2.212   4.372   6.935
 8717SOL    HW227051   2.263   4.336   6.784
 8718SOL     OW27052   1.931   3.811   6.198
 8718SOL    HW127053   1.980   3.868   6.264
 8718SOL    HW227054   1.905   3.725   6.241
 8719SOL     OW27055   3.504   0.839   6.392
 8719SOL    HW127056   3.502   0.938   6.402
 8719SOL    HW227057   3.411   0.806   6.376
 8720SOL     OW27058   6.472   4.195   5.350
 8720SOL    HW127059   6.551   4.184   5.410
 8720SOL    HW227060   6.478   4.127   5.276
 8721SOL     OW27061   0.004   6.573   6.603
 8721SOL    HW127062   0.045   6.505   6.543
 8721SOL    HW227063   0.076   6.629   6.644
 8722SOL     OW27064   4.099   0.759   1.085
 8722SOL    HW127065   4.064   0.741   1.177
 8722SOL    HW227066   4.180   0.702   1.068
 8723SOL     OW27067   5.114   0.239   2.228
 8723SOL    HW127068   5.015   0.229   2.231
 8723SOL    HW227069   5.145   0.287   2.311
 8724SOL     OW27070   4.144   0.067   4.568
 8724SOL    HW127071   4.194   0.152   4.554
 8724SOL    HW227072   4.045   0.086   4.562
 8725SOL     OW27073   0.293   6.294   4.393
 8725SOL    HW127074   0.365   6.249   4.341
 8725SOL    HW227075   0.243   6.227   4.447
 8726SOL     OW27076   0.718   0.840   0.177
 8726SOL    HW127077   0.638   0.781   0.168
 8726SOL    HW227078   0.705   0.901   0.255
 8727SOL     OW27079   5.748   5.896   6.508
 8727SOL    HW127080   5.823   5.962   6.520
 8727SOL    HW227081   5.761   5.847   6.422
 8728SOL     OW27082   5.739   0.725   3.091
 8728SOL    HW127083   5.706   0.638   3.055
 8728SOL    HW227084   5.712   0.734   3.187
 8729SOL     OW27085   3.650   5.381   6.191
 8729SOL    HW127086   3.554   5.406   6.200
 8729SOL    HW227087   3.705   5.463   6.175
 8730SOL     OW27088   5.548   4.827   2.637
 8730SOL    HW127089   5.576   4.847   2.731
 8730SOL    HW227090   5.512   4.909   2.594
 8731SOL     OW27091   0.417   2.126   3.376
 8731SOL    HW127092   0.452   2.219   3.365
 8731SOL    HW227093   0.449   2.069   3.301
 8732SOL     OW27094   5.012   5.655   0.931
 8732SOL    HW127095   4.986   5.706   0.849
 8732SOL    HW227096   4.942   5.668   1.001
 8733SOL     OW27097   0.742   4.876   1.915
 8733SOL    HW127098   0.670   4.933   1.955
 8733SOL    HW227099   0.702   4.791   1.881
 8734SOL     OW27100   6.813   3.811   2.034
 8734SOL    HW127101   6.904   3.835   1.998
 8734SOL    HW227102   6.749   3.886   2.017
 8735SOL     OW27103   2.014   4.168   5.223
 8735SOL    HW127104   2.072   4.104   5.274
 8735SOL    HW227105   2.039   4.262   5.248
 8736SOL     OW27106   0.608   5.467   2.517
 8736SOL    HW127107   0.522   5.495   2.560
 8736SOL    HW227108   0.678   5.536   2.537
 8737SOL     OW27109   1.335   5.510   6.404
 8737SOL    HW127110   1.315   5.584   6.468
 8737SOL    HW227111   1.252   5.455   6.390
 8738SOL     OW27112   0.916   3.996   3.654
 8738SOL    HW127113   0.849   4.038   3.715
 8738SOL    HW227114   0.990   3.956   3.707
 8739SOL     OW27115   5.495   4.357   5.136
 8739SOL    HW127116   5.515   4.263   5.163
 8739SOL    HW227117   5.466   4.359   5.040
 8740SOL     OW27118   3.703   1.731   3.668
 8740SOL    HW127119   3.739   1.824   3.679
 8740SOL    HW227120   3.630   1.715   3.734
 8741SOL     OW27121   1.214   6.974   2.716
 8741SOL    HW127122   1.245   0.043   2.700
 8741SOL    HW227123   1.268   6.911   2.660
 8742SOL     OW27124   3.523   1.415   2.704
 8742SOL    HW127125   3.595   1.346   2.702
 8742SOL    HW227126   3.462   1.397   2.782
 8743SOL     OW27127   1.898   0.549   1.763
 8743SOL    HW127128   1.990   0.522   1.792
 8743SOL    HW227129   1.836   0.542   1.841
 8744SOL     OW27130   3.970   3.809   0.020
 8744SOL    HW127131   3.906   3.746   0.062
 8744SOL    HW227132   4.035   3.758   6.989
 8745SOL     OW27133   6.541   1.854   6.378
 8745SOL    HW127134   6.517   1.945   6.346
 8745SOL    HW227135   6.498   1.785   6.320
 8746SOL     OW27136   5.126   5.400   4.224
 8746SOL    HW127137   5.097   5.496   4.233
 8746SOL    HW227138   5.221   5.397   4.192
 8747SOL     OW27139   6.482   0.730   2.044
 8747SOL    HW127140   6.479   0.826   2.072
 8747SOL    HW227141   6.424   0.715   1.965
 8748SOL     OW27142   0.366   2.188   3.880
 8748SOL    HW127143   0.311   2.180   3.797
 8748SOL    HW227144   0.425   2.268   3.873
 8749SOL     OW27145   2.738   1.443   5.602
 8749SOL    HW127146   2.668   1.430   5.531
 8749SOL    HW227147   2.777   1.534   5.594
 8750SOL     OW27148   4.454   2.783   5.901
 8750SOL    HW127149   4.509   2.700   5.893
 8750SOL    HW227150   4.494   2.843   5.971
 8751SOL     OW27151   0.338   6.347   1.618
 8751SOL    HW127152   0.405   6.305   1.679
 8751SOL    HW227153   0.339   6.446   1.631
 8752SOL     OW27154   4.621   3.119   0.517
 8752SOL    HW127155   4.683   3.196   0.531
 8752SOL    HW227156   4.606   3.107   0.419
 8753SOL     OW27157   1.589   2.787   0.095
 8753SOL    HW127158   1.566   2.852   0.167
 8753SOL    HW227159   1.602   2.696   0.135
 8754SOL     OW27160   2.693   4.604   6.701
 8754SOL    HW127161   2.619   4.568   6.758
 8754SOL    HW227162   2.681   4.574   6.607
 8755SOL     OW27163   0.646   1.421   1.904
 8755SOL    HW127164   0.607   1.338   1.943
 8755SOL    HW227165   0.607   1.437   1.813
 8756SOL     OW27166   2.371   2.705   3.697
 8756SOL    HW127167   2.340   2.766   3.624
 8756SOL    HW227168   2.379   2.756   3.783
 8757SOL     OW27169   4.970   6.457   5.600
 8757SOL    HW127170   4.987   6.502   5.513
 8757SOL    HW227171   5.041   6.483   5.666
 8758SOL     OW27172   3.456   6.472   3.738
 8758SOL    HW127173   3.536   6.515   3.698
 8758SOL    HW227174   3.444   6.380   3.698
 8759SOL     OW27175   5.831   0.896   6.883
 8759SOL    HW127176   5.919   0.849   6.879
 8759SOL    HW227177   5.846   0.992   6.907
 8760SOL     OW27178   2.150   1.767   4.008
 8760SOL    HW127179   2.235   1.760   3.956
 8760SOL    HW227180   2.102   1.851   3.984
 8761SOL     OW27181   4.647   1.181   1.992
 8761SOL    HW127182   4.555   1.188   2.031
 8761SOL    HW227183   4.714   1.168   2.066
 8762SOL     OW27184   1.585   4.960   3.828
 8762SOL    HW127185   1.543   4.869   3.840
 8762SOL    HW227186   1.685   4.950   3.827
 8763SOL     OW27187   0.372   1.197   5.780
 8763SOL    HW127188   0.356   1.287   5.741
 8763SOL    HW227189   0.400   1.134   5.708
 8764SOL     OW27190   4.248   5.002   5.542
 8764SOL    HW127191   4.236   5.098   5.517
 8764SOL    HW227192   4.240   4.946   5.460
 8765SOL     OW27193   5.195   0.326   5.631
 8765SOL    HW127194   5.237   0.381   5.704
 8765SOL    HW227195   5.266   0.274   5.584
 8766SOL     OW27196   5.161   4.600   5.872
 8766SOL    HW127197   5.090   4.531   5.889
 8766SOL    HW227198   5.119   4.682   5.833
 8767SOL     OW27199   2.985   0.468   3.762
 8767SOL    HW127200   2.948   0.439   3.850
 8767SOL    HW227201   2.931   0.427   3.688
 8768SOL     OW27202   6.827   2.846   0.190
 8768SOL    HW127203   6.909   2.897   0.212
 8768SOL    HW227204   6.780   2.819   0.274
 8769SOL     OW27205   6.587   1.091   1.312
 8769SOL    HW127206   6.672   1.102   1.362
 8769SOL    HW227207   6.561   0.994   1.309
 8770SOL     OW27208   5.335   3.380   2.332
 8770SOL    HW127209   5.386   3.316   2.275
 8770SOL    HW227210   5.251   3.335   2.366
 8771SOL     OW27211   0.793   3.619   6.015
 8771SOL    HW127212   0.772   3.711   5.982
 8771SOL    HW227213   0.713   3.581   6.061
 8772SOL     OW27214   5.523   0.254   4.351
 8772SOL    HW127215   5.540   0.255   4.450
 8772SOL    HW227216   5.424   0.260   4.335
 8773SOL     OW27217   6.764   2.098   4.044
 8773SOL    HW127218   6.815   2.016   4.018
 8773SOL    HW227219   6.790   2.127   4.136
 8774SOL     OW27220   1.388   6.986   0.110
 8774SOL    HW127221   1.291   6.995   0.135
 8774SOL    HW227222   1.401   6.898   0.064
 8775SOL     OW27223   5.548   1.769   3.994
 8775SOL    HW127224   5.555   1.838   4.067
 8775SOL    HW227225   5.459   1.778   3.949
 8776SOL     OW27226   4.897   2.632   0.381
 8776SOL    HW127227   4.917   2.656   0.476
 8776SOL    HW227228   4.798   2.617   0.371
 8777SOL     OW27229   1.098   2.916   2.725
 8777SOL    HW127230   1.134   2.992   2.671
 8777SOL    HW227231   1.166   2.843   2.730
 8778SOL     OW27232   4.796   4.527   5.773
 8778SOL    HW127233   4.853   4.471   5.713
 8778SOL    HW227234   4.700   4.502   5.760
 8779SOL     OW27235   3.231   5.072   2.875
 8779SOL    HW127236   3.150   5.047   2.822
 8779SOL    HW227237   3.208   5.075   2.972
 8780SOL     OW27238   0.119   5.607   2.384
 8780SOL    HW127239   0.071   5.613   2.297
 8780SOL    HW227240   0.089   5.526   2.434
 8781SOL     OW27241   3.698   6.244   2.199
 8781SOL    HW127242   3.743   6.309   2.138
 8781SOL    HW227243   3.615   6.286   2.237
 8782SOL     OW27244   4.873   1.111   1.530
 8782SOL    HW127245   4.863   1.143   1.624
 8782SOL    HW227246   4.806   1.156   1.471
 8783SOL     OW27247   4.929   3.460   4.767
 8783SOL    HW127248   5.028   3.473   4.773
 8783SOL    HW227249   4.886   3.486   4.854
 8784SOL     OW27250   5.821   6.670   0.904
 8784SOL    HW127251   5.871   6.608   0.965
 8784SOL    HW227252   5.840   6.765   0.929
 8785SOL     OW27253   0.327   5.596   6.477
 8785SOL    HW127254   0.409   5.650   6.460
 8785SOL    HW227255   0.344   5.501   6.451
 8786SOL     OW27256   4.304   2.371   2.081
 8786SOL    HW127257   4.339   2.359   2.175
 8786SOL    HW227258   4.226   2.433   2.082
 8787SOL     OW27259   3.791   0.666   1.530
 8787SOL    HW127260   3.709   0.609   1.537
 8787SOL    HW227261   3.766   0.756   1.494
 8788SOL     OW27262   0.159   0.488   5.057
 8788SOL    HW127263   0.249   0.494   5.101
 8788SOL    HW227264   0.095   0.442   5.118
 8789SOL     OW27265   0.418   3.907   5.099
 8789SOL    HW127266   0.471   3.825   5.122
 8789SOL    HW227267   0.461   3.987   5.141
 8790SOL     OW27268   5.767   2.833   0.009
 8790SOL    HW127269   5.842   2.792   6.982
 8790SOL    HW227270   5.695   2.765   0.022
 8791SOL     OW27271   4.661   5.770   5.577
 8791SOL    HW127272   4.693   5.699   5.639
 8791SOL    HW227273   4.650   5.730   5.485
 8792SOL     OW27274   4.694   5.262   1.641
 8792SOL    HW127275   4.768   5.240   1.704
 8792SOL    HW227276   4.712   5.351   1.599
 8793SOL     OW27277   0.714   5.158   4.550
 8793SOL    HW127278   0.805   5.169   4.590
 8793SOL    HW227279   0.652   5.123   4.620
 8794SOL     OW27280   0.097   0.408   2.019
 8794SOL    HW127281   0.052   0.402   2.108
 8794SOL    HW227282   0.115   0.316   1.985
 8795SOL     OW27283   1.589   5.210   5.295
 8795SOL    HW127284   1.646   5.271   5.350
 8795SOL    HW227285   1.643   5.174   5.219
 8796SOL     OW27286   6.406   3.463   3.724
 8796SOL    HW127287   6.489   3.514   3.746
 8796SOL    HW227288   6.397   3.453   3.625
 8797SOL     OW27289   6.156   0.228   3.222
 8797SOL    HW127290   6.256   0.225   3.223
 8797SOL    HW227291   6.122   0.262   3.310
 8798SOL     OW27292   4.471   6.566   5.581
 8798SOL    HW127293   4.520   6.589   5.666
 8798SOL    HW227294   4.401   6.635   5.563
 8799SOL     OW27295   2.382   4.832   2.107
 8799SOL    HW127296   2.366   4.816   2.204
 8799SOL    HW227297   2.408   4.746   2.063
 8800SOL     OW27298   0.034   5.878   5.219
 8800SOL    HW127299   0.075   5.877   5.311
 8800SOL    HW227300   0.012   5.972   5.194
 8801SOL     OW27301   6.261   1.927   5.041
 8801SOL    HW127302   6.319   2.002   5.071
 8801SOL    HW227303   6.313   1.841   5.044
 8802SOL     OW27304   0.793   5.895   5.830
 8802SOL    HW127305   0.875   5.952   5.832
 8802SOL    HW227306   0.820   5.798   5.830
 8803SOL     OW27307   6.185   0.714   6.703
 8803SOL    HW127308   6.105   0.666   6.667
 8803SOL    HW227309   6.157   0.773   6.779
 8804SOL     OW27310   1.692   5.848   1.876
 8804SOL    HW127311   1.775   5.899   1.852
 8804SOL    HW227312   1.613   5.887   1.829
 8805SOL     OW27313   4.275   5.796   2.443
 8805SOL    HW127314   4.266   5.874   2.381
 8805SOL    HW227315   4.193   5.789   2.500
 8806SOL     OW27316   2.302   6.583   0.280
 8806SOL    HW127317   2.248   6.640   0.218
 8806SOL    HW227318   2.318   6.632   0.366
 8807SOL     OW27319   5.100   1.915   0.986
 8807SOL    HW127320   5.161   1.844   1.020
 8807SOL    HW227321   5.024   1.927   1.051
 8808SOL     OW27322   2.420   2.011   0.444
 8808SOL    HW127323   2.343   2.019   0.507
 8808SOL    HW227324   2.426   2.094   0.389
 8809SOL     OW27325   2.145   3.927   3.982
 8809SOL    HW127326   2.225   3.969   3.940
 8809SOL    HW227327   2.121   3.976   4.066
 8810SOL     OW27328   6.750   1.915   5.556
 8810SOL    HW127329   6.844   1.888   5.576
 8810SOL    HW227330   6.715   1.860   5.480
 8811SOL     OW27331   4.183   6.139   2.201
 8811SOL    HW127332   4.120   6.071   2.163
 8811SOL    HW227333   4.274   6.100   2.209
 8812SOL     OW27334   3.463   1.663   6.806
 8812SOL    HW127335   3.562   1.672   6.805
 8812SOL    HW227336   3.432   1.618   6.723
 8813SOL     OW27337   2.519   4.576   3.531
 8813SOL    HW127338   2.424   4.583   3.499
 8813SOL    HW227339   2.577   4.635   3.475
 8814SOL     OW27340   5.894   0.188   0.327
 8814SOL    HW127341   5.989   0.181   0.295
 8814SOL    HW227342   5.888   0.152   0.420
 8815SOL     OW27343   5.423   1.499   0.665
 8815SOL    HW127344   5.431   1.437   0.744
 8815SOL    HW227345   5.354   1.568   0.685
 8816SOL     OW27346   0.554   6.571   5.776
 8816SOL    HW127347   0.522   6.499   5.715
 8816SOL    HW227348   0.487   6.586   5.849
 8817SOL     OW27349   1.104   3.551   4.395
 8817SOL    HW127350   1.141   3.527   4.484
 8817SOL    HW227351   1.070   3.646   4.397
 8818SOL     OW27352   2.444   6.774   4.124
 8818SOL    HW127353   2.462   6.680   4.095
 8818SOL    HW227354   2.511   6.835   4.082
 8819SOL     OW27355   5.248   4.337   5.754
 8819SOL    HW127356   5.200   4.284   5.823
 8819SOL    HW227357   5.280   4.423   5.793
 8820SOL     OW27358   3.083   0.779   4.569
 8820SOL    HW127359   3.152   0.851   4.556
 8820SOL    HW227360   3.043   0.788   4.660
 8821SOL     OW27361   1.494   4.999   0.370
 8821SOL    HW127362   1.529   5.093   0.371
 8821SOL    HW227363   1.395   5.000   0.385
 8822SOL     OW27364   6.443   6.703   3.804
 8822SOL    HW127365   6.464   6.607   3.822
 8822SOL    HW227366   6.526   6.751   3.777
 8823SOL     OW27367   3.540   1.264   3.303
 8823SOL    HW127368   3.575   1.286   3.394
 8823SOL    HW227369   3.463   1.325   3.281
 8824SOL     OW27370   1.624   0.766   0.987
 8824SOL    HW127371   1.700   0.810   0.940
 8824SOL    HW227372   1.578   0.703   0.924
 8825SOL     OW27373   0.492   7.005   0.268
 8825SOL    HW127374   0.443   0.040   0.204
 8825SOL    HW227375   0.484   0.017   0.361
 8826SOL     OW27376   0.921   3.264   1.115
 8826SOL    HW127377   0.974   3.286   1.197
 8826SOL    HW227378   0.949   3.173   1.081
 8827SOL     OW27379   4.080   7.004   2.657
 8827SOL    HW127380   4.079   0.062   2.601
 8827SOL    HW227381   4.068   6.924   2.599
 8828SOL     OW27382   4.352   3.731   6.391
 8828SOL    HW127383   4.323   3.826   6.380
 8828SOL    HW227384   4.278   3.670   6.364
 8829SOL     OW27385   0.206   1.801   2.139
 8829SOL    HW127386   0.141   1.840   2.205
 8829SOL    HW227387   0.167   1.809   2.046
 8830SOL     OW27388   2.453   1.891   2.992
 8830SOL    HW127389   2.507   1.887   2.907
 8830SOL    HW227390   2.513   1.917   3.068
 8831SOL     OW27391   0.779   1.677   2.230
 8831SOL    HW127392   0.687   1.640   2.226
 8831SOL    HW227393   0.813   1.691   2.137
 8832SOL     OW27394   6.856   6.898   3.892
 8832SOL    HW127395   6.947   6.925   3.862
 8832SOL    HW227396   6.801   6.980   3.910
 8833SOL     OW27397   3.702   2.581   1.195
 8833SOL    HW127398   3.665   2.631   1.117
 8833SOL    HW227399   3.748   2.645   1.256
 8834SOL     OW27400   5.818   3.833   5.637
 8834SOL    HW127401   5.775   3.771   5.702
 8834SOL    HW227402   5.911   3.853   5.667
 8835SOL     OW27403   6.323   0.790   5.540
 8835SOL    HW127404   6.349   0.886   5.529
 8835SOL    HW227405   6.296   0.774   5.635
 8836SOL     OW27406   5.076   2.644   6.218
 8836SOL    HW127407   5.115   2.729   6.254
 8836SOL    HW227408   4.978   2.642   6.236
 8837SOL     OW27409   6.068   6.974   1.932
 8837SOL    HW127410   6.066   6.969   2.031
 8837SOL    HW227411   6.073   0.045   1.903
 8838SOL     OW27412   6.803   4.315   2.687
 8838SOL    HW127413   6.860   4.233   2.700
 8838SOL    HW227414   6.855   4.396   2.714
 8839SOL     OW27415   5.417   6.272   2.845
 8839SOL    HW127416   5.478   6.193   2.856
 8839SOL    HW227417   5.342   6.265   2.911
 8840SOL     OW27418   0.217   1.013   1.174
 8840SOL    HW127419   0.173   0.958   1.103
 8840SOL    HW227420   0.316   1.000   1.170
 8841SOL     OW27421   3.512   1.195   2.303
 8841SOL    HW127422   3.438   1.159   2.247
 8841SOL    HW227423   3.562   1.265   2.251
 8842SOL     OW27424   2.909   3.444   3.662
 8842SOL    HW127425   3.008   3.448   3.650
 8842SOL    HW227426   2.864   3.450   3.573
 8843SOL     OW27427   2.129   3.492   5.248
 8843SOL    HW127428   2.162   3.566   5.190
 8843SOL    HW227429   2.114   3.410   5.193
 8844SOL     OW27430   5.336   1.937   5.227
 8844SOL    HW127431   5.278   1.988   5.290
 8844SOL    HW227432   5.396   2.000   5.178
 8845SOL     OW27433   1.573   4.969   1.181
 8845SOL    HW127434   1.552   5.066   1.198
 8845SOL    HW227435   1.489   4.916   1.185
 8846SOL     OW27436   5.115   4.532   3.744
 8846SOL    HW127437   5.120   4.556   3.841
 8846SOL    HW227438   5.020   4.523   3.716
 8847SOL     OW27439   2.613   2.478   2.982
 8847SOL    HW127440   2.687   2.453   2.920
 8847SOL    HW227441   2.539   2.521   2.930
 8848SOL     OW27442   3.066   1.603   1.327
 8848SOL    HW127443   3.054   1.658   1.244
 8848SOL    HW227444   3.102   1.513   1.302
 8849SOL     OW27445   3.655   6.120   4.777
 8849SOL    HW127446   3.595   6.058   4.728
 8849SOL    HW227447   3.729   6.068   4.820
 8850SOL     OW27448   3.090   2.116   0.540
 8850SOL    HW127449   3.085   2.212   0.515
 8850SOL    HW227450   3.139   2.065   0.468
 8851SOL     OW27451   1.286   4.384   3.456
 8851SOL    HW127452   1.354   4.322   3.416
 8851SOL    HW227453   1.299   4.476   3.419
 8852SOL     OW27454   5.371   3.048   5.725
 8852SOL    HW127455   5.349   3.033   5.822
 8852SOL    HW227456   5.346   3.141   5.699
 8853SOL     OW27457   4.093   1.827   5.269
 8853SOL    HW127458   4.157   1.755   5.296
 8853SOL    HW227459   4.070   1.882   5.349
 8854SOL     OW27460   1.398   1.103   5.814
 8854SOL    HW127461   1.437   1.183   5.861
 8854SOL    HW227462   1.323   1.133   5.755
 8855SOL     OW27463   6.311   5.960   6.847
 8855SOL    HW127464   6.362   5.891   6.796
 8855SOL    HW227465   6.213   5.947   6.832
 8856SOL     OW27466   6.084   0.807   4.993
 8856SOL    HW127467   6.123   0.719   5.020
 8856SOL    HW227468   6.026   0.842   5.067
 8857SOL     OW27469   6.527   2.200   3.443
 8857SOL    HW127470   6.539   2.144   3.526
 8857SOL    HW227471   6.594   2.172   3.374
 8858SOL     OW27472   0.745   4.017   5.378
 8858SOL    HW127473   0.810   4.027   5.303
 8858SOL    HW227474   0.726   3.920   5.393
 8859SOL     OW27475   1.227   6.440   4.762
 8859SOL    HW127476   1.271   6.529   4.765
 8859SOL    HW227477   1.190   6.418   4.852
 8860SOL     OW27478   1.460   2.256   2.695
 8860SOL    HW127479   1.421   2.165   2.680
 8860SOL    HW227480   1.545   2.248   2.747
 8861SOL     OW27481   3.678   3.259   0.034
 8861SOL    HW127482   3.745   3.229   0.101
 8861SOL    HW227483   3.716   3.334   7.004
 8862SOL     OW27484   5.863   1.551   5.017
 8862SOL    HW127485   5.920   1.543   5.099
 8862SOL    HW227486   5.905   1.498   4.942
 8863SOL     OW27487   2.020   5.910   5.019
 8863SOL    HW127488   2.033   5.878   5.113
 8863SOL    HW227489   2.097   5.881   4.963
 8864SOL     OW27490   2.330   3.512   6.607
 8864SOL    HW127491   2.314   3.446   6.534
 8864SOL    HW227492   2.284   3.598   6.585
 8865SOL     OW27493   2.803   2.076   5.087
 8865SOL    HW127494   2.902   2.068   5.073
 8865SOL    HW227495   2.772   2.167   5.058
 8866SOL     OW27496   3.628   6.706   3.193
 8866SOL    HW127497   3.673   6.757   3.120
 8866SOL    HW227498   3.599   6.616   3.159
 8867SOL     OW27499   5.809   1.913   2.943
 8867SOL    HW127500   5.742   1.981   2.912
 8867SOL    HW227501   5.844   1.862   2.864
 8868SOL     OW27502   4.735   3.689   0.504
 8868SOL    HW127503   4.813   3.732   0.549
 8868SOL    HW227504   4.651   3.713   0.551
 8869SOL     OW27505   4.963   3.837   3.629
 8869SOL    HW127506   4.960   3.756   3.571
 8869SOL    HW227507   5.057   3.854   3.658
 8870SOL     OW27508   3.682   1.136   0.804
 8870SOL    HW127509   3.666   1.225   0.847
 8870SOL    HW227510   3.763   1.094   0.845
 8871SOL     OW27511   1.807   1.011   3.892
 8871SOL    HW127512   1.898   1.051   3.888
 8871SOL    HW227513   1.794   0.950   3.813
 8872SOL     OW27514   2.359   4.259   4.076
 8872SOL    HW127515   2.357   4.202   4.159
 8872SOL    HW227516   2.266   4.287   4.053
 8873SOL     OW27517   0.618   5.769   3.907
 8873SOL    HW127518   0.663   5.857   3.921
 8873SOL    HW227519   0.674   5.696   3.947
 8874SOL     OW27520   2.340   0.467   1.019
 8874SOL    HW127521   2.330   0.377   0.975
 8874SOL    HW227522   2.345   0.455   1.118
 8875SOL     OW27523   1.392   2.744   4.228
 8875SOL    HW127524   1.441   2.790   4.302
 8875SOL    HW227525   1.446   2.748   4.144
 8876SOL     OW27526   0.407   1.428   4.714
 8876SOL    HW127527   0.319   1.397   4.677
 8876SOL    HW227528   0.435   1.512   4.669
 8877SOL     OW27529   3.166   0.712   4.207
 8877SOL    HW127530   3.253   0.735   4.251
 8877SOL    HW227531   3.142   0.784   4.142
 8878SOL     OW27532   0.212   4.568   0.699
 8878SOL    HW127533   0.211   4.659   0.741
 8878SOL    HW227534   0.134   4.516   0.733
 8879SOL     OW27535   5.132   6.055   0.343
 8879SOL    HW127536   5.228   6.078   0.329
 8879SOL    HW227537   5.123   5.956   0.354
 8880SOL     OW27538   6.386   5.393   4.407
 8880SOL    HW127539   6.328   5.459   4.359
 8880SOL    HW227540   6.481   5.407   4.381
 8881SOL     OW27541   6.688   1.217   1.980
 8881SOL    HW127542   6.754   1.207   2.055
 8881SOL    HW227543   6.707   1.302   1.930
 8882SOL     OW27544   5.409   2.070   6.785
 8882SOL    HW127545   5.411   2.057   6.686
 8882SOL    HW227546   5.414   1.980   6.830
 8883SOL     OW27547   6.514   1.093   6.162
 8883SOL    HW127548   6.448   1.103   6.237
 8883SOL    HW227549   6.529   0.996   6.144
 8884SOL     OW27550   5.612   0.204   6.304
 8884SOL    HW127551   5.520   0.178   6.333
 8884SOL    HW227552   5.678   0.135   6.334
 8885SOL     OW27553   5.984   3.922   1.780
 8885SOL    HW127554   5.962   3.903   1.684
 8885SOL    HW227555   6.048   3.853   1.813
 8886SOL     OW27556   2.903   6.415   5.991
 8886SOL    HW127557   2.888   6.471   6.072
 8886SOL    HW227558   2.817   6.408   5.939
 8887SOL     OW27559   2.458   1.322   1.302
 8887SOL    HW127560   2.441   1.298   1.397
 8887SOL    HW227561   2.488   1.417   1.296
 8888SOL     OW27562   1.587   1.313   0.967
 8888SOL    HW127563   1.640   1.396   0.984
 8888SOL    HW227564   1.498   1.321   1.012
 8889SOL     OW27565   4.767   0.119   4.594
 8889SOL    HW127566   4.848   0.177   4.590
 8889SOL    HW227567   4.757   0.070   4.508
 8890SOL     OW27568   0.025   5.802   4.539
 8890SOL    HW127569   6.955   5.795   4.570
 8890SOL    HW227570   0.073   5.716   4.557
 8891SOL     OW27571   5.631   3.088   6.611
 8891SOL    HW127572   5.615   3.014   6.546
 8891SOL    HW227573   5.573   3.166   6.589
 8892SOL     OW27574   1.997   6.970   3.292
 8892SOL    HW127575   1.948   6.971   3.379
 8892SOL    HW227576   1.933   6.951   3.218
 8893SOL     OW27577   0.034   0.895   0.975
 8893SOL    HW127578   6.997   0.835   1.026
 8893SOL    HW227579   7.010   0.977   0.947
 8894SOL     OW27580   4.259   2.583   5.744
 8894SOL    HW127581   4.308   2.644   5.808
 8894SOL    HW227582   4.248   2.630   5.656
 8895SOL     OW27583   0.357   6.767   1.154
 8895SOL    HW127584   0.411   6.772   1.070
 8895SOL    HW227585   0.273   6.821   1.143
 8896SOL     OW27586   1.833   3.811   5.069
 8896SOL    HW127587   1.820   3.743   4.996
 8896SOL    HW227588   1.917   3.862   5.052
 8897SOL     OW27589   1.396   1.456   1.593
 8897SOL    HW127590   1.475   1.469   1.652
 8897SOL    HW227591   1.313   1.486   1.641
 8898SOL     OW27592   5.884   3.418   4.372
 8898SOL    HW127593   5.921   3.428   4.280
 8898SOL    HW227594   5.919   3.491   4.431
 8899SOL     OW27595   2.109   4.199   6.684
 8899SOL    HW127596   2.099   4.118   6.741
 8899SOL    HW227597   2.163   4.177   6.602
 8900SOL     OW27598   4.816   3.002   3.219
 8900SOL    HW127599   4.891   2.941   3.245
 8900SOL    HW227600   4.853   3.090   3.189
 8901SOL     OW27601   1.350   0.752   2.715
 8901SOL    HW127602   1.439   0.731   2.676
 8901SOL    HW227603   1.292   0.671   2.712
 8902SOL     OW27604   1.830   5.402   6.415
 8902SOL    HW127605   1.774   5.480   6.386
 8902SOL    HW227606   1.927   5.426   6.412
 8903SOL     OW27607   2.413   1.508   3.705
 8903SOL    HW127608   2.363   1.468   3.628
 8903SOL    HW227609   2.510   1.515   3.682
 8904SOL     OW27610   0.339   5.945   4.110
 8904SOL    HW127611   0.404   5.941   4.034
 8904SOL    HW227612   0.257   5.993   4.080
 8905SOL     OW27613   2.169   3.166   5.426
 8905SOL    HW127614   2.092   3.223   5.396
 8905SOL    HW227615   2.135   3.088   5.478
 8906SOL     OW27616   6.598   6.255   6.127
 8906SOL    HW127617   6.535   6.320   6.169
 8906SOL    HW227618   6.584   6.253   6.028
 8907SOL     OW27619   3.286   2.609   5.297
 8907SOL    HW127620   3.266   2.527   5.242
 8907SOL    HW227621   3.272   2.691   5.241
 8908SOL     OW27622   1.640   2.176   1.114
 8908SOL    HW127623   1.630   2.076   1.110
 8908SOL    HW227624   1.666   2.210   1.024
 8909SOL     OW27625   3.106   0.370   6.230
 8909SOL    HW127626   3.088   0.277   6.196
 8909SOL    HW227627   3.063   0.437   6.168
 8910SOL     OW27628   2.999   3.469   6.605
 8910SOL    HW127629   2.933   3.395   6.617
 8910SOL    HW227630   2.977   3.545   6.665
 8911SOL     OW27631   3.197   2.134   4.484
 8911SOL    HW127632   3.128   2.097   4.547
 8911SOL    HW227633   3.265   2.185   4.537
 8912SOL     OW27634   4.666   1.767   5.841
 8912SOL    HW127635   4.582   1.804   5.802
 8912SOL    HW227636   4.744   1.801   5.789
 8913SOL     OW27637   4.964   4.074   1.828
 8913SOL    HW127638   5.058   4.063   1.858
 8913SOL    HW227639   4.955   4.162   1.781
 8914SOL     OW27640   4.032   1.926   4.986
 8914SOL    HW127641   3.986   1.999   4.935
 8914SOL    HW227642   4.015   1.939   5.084
 8915SOL     OW27643   2.129   3.276   3.753
 8915SOL    HW127644   2.160   3.201   3.694
 8915SOL    HW227645   2.154   3.257   3.847
 8916SOL     OW27646   6.964   4.533   2.735
 8916SOL    HW127647   0.027   4.582   2.739
 8916SOL    HW227648   6.908   4.573   2.662
 8917SOL     OW27649   6.062   5.826   6.437
 8917SOL    HW127650   6.156   5.858   6.431
 8917SOL    HW227651   6.054   5.759   6.511
 8918SOL     OW27652   5.616   6.469   6.699
 8918SOL    HW127653   5.659   6.486   6.788
 8918SOL    HW227654   5.527   6.515   6.697
 8919SOL     OW27655   3.454   4.311   0.890
 8919SOL    HW127656   3.410   4.338   0.976
 8919SOL    HW227657   3.385   4.303   0.818
 8920SOL     OW27658   6.046   5.477   6.325
 8920SOL    HW127659   6.045   5.569   6.365
 8920SOL    HW227660   5.952   5.441   6.324
 8921SOL     OW27661   1.701   0.625   3.861
 8921SOL    HW127662   1.691   0.538   3.814
 8921SOL    HW227663   1.727   0.697   3.796
 8922SOL     OW27664   1.988   4.927   0.868
 8922SOL    HW127665   2.004   4.849   0.929
 8922SOL    HW227666   2.019   4.904   0.776
 8923SOL     OW27667   1.997   3.708   6.565
 8923SOL    HW127668   1.962   3.631   6.512
 8923SOL    HW227669   2.094   3.721   6.545
 8924SOL     OW27670   2.957   4.977   5.817
 8924SOL    HW127671   2.968   4.934   5.728
 8924SOL    HW227672   3.034   5.039   5.834
 8925SOL     OW27673   6.826   6.715   2.239
 8925SOL    HW127674   6.775   6.649   2.185
 8925SOL    HW227675   6.831   6.684   2.334
 8926SOL     OW27676   5.583   2.077   2.116
 8926SOL    HW127677   5.612   2.171   2.094
 8926SOL    HW227678   5.587   2.021   2.034
 8927SOL     OW27679   2.510   2.723   5.225
 8927SOL    HW127680   2.500   2.799   5.161
 8927SOL    HW227681   2.443   2.732   5.298
 8928SOL     OW27682   0.313   0.746   5.719
 8928SOL    HW127683   0.284   0.811   5.789
 8928SOL    HW227684   0.358   0.668   5.763
 8929SOL     OW27685   6.892   3.872   4.157
 8929SOL    HW127686   6.877   3.971   4.146
 8929SOL    HW227687   6.983   3.849   4.125
 8930SOL     OW27688   1.327   5.653   4.860
 8930SOL    HW127689   1.284   5.743   4.853
 8930SOL    HW227690   1.258   5.586   4.890
 8931SOL     OW27691   5.187   1.711   1.480
 8931SOL    HW127692   5.246   1.756   1.413
 8931SOL    HW227693   5.092   1.727   1.457
 8932SOL     OW27694   6.058   0.351   6.723
 8932SOL    HW127695   5.979   0.336   6.665
 8932SOL    HW227696   6.038   0.421   6.791
 8933SOL     OW27697   1.054   1.219   4.816
 8933SOL    HW127698   0.977   1.158   4.801
 8933SOL    HW227699   1.138   1.165   4.827
 8934SOL     OW27700   3.567   5.465   3.407
 8934SOL    HW127701   3.549   5.417   3.321
 8934SOL    HW227702   3.540   5.408   3.484
 8935SOL     OW27703   4.754   2.796   2.912
 8935SOL    HW127704   4.771   2.881   2.863
 8935SOL    HW227705   4.718   2.817   3.004
 8936SOL     OW27706   0.459   4.664   1.067
 8936SOL    HW127707   0.448   4.598   0.993
 8936SOL    HW227708   0.397   4.640   1.143
 8937SOL     OW27709   0.453   6.731   4.188
 8937SOL    HW127710   0.375   6.696   4.240
 8937SOL    HW227711   0.429   6.819   4.147
 8938SOL     OW27712   6.222   0.875   0.654
 8938SOL    HW127713   6.186   0.803   0.594
 8938SOL    HW227714   6.145   0.924   0.695
 8939SOL     OW27715   0.003   3.024   4.529
 8939SOL    HW127716   0.040   2.951   4.472
 8939SOL    HW227717   0.011   3.112   4.481
 8940SOL     OW27718   0.009   3.441   1.026
 8940SOL    HW127719   0.024   3.343   1.040
 8940SOL    HW227720   6.956   3.454   0.966
 8941SOL     OW27721   4.901   2.457   2.193
 8941SOL    HW127722   4.940   2.549   2.194
 8941SOL    HW227723   4.803   2.462   2.171
 8942SOL     OW27724   6.459   4.843   3.949
 8942SOL    HW127725   6.375   4.832   3.894
 8942SOL    HW227726   6.446   4.918   4.014
 8943SOL     OW27727   4.142   3.624   0.229
 8943SOL    HW127728   4.164   3.676   0.311
 8943SOL    HW227729   4.214   3.556   0.212
 8944SOL     OW27730   4.436   5.556   4.559
 8944SOL    HW127731   4.416   5.652   4.578
 8944SOL    HW227732   4.459   5.545   4.462
 8945SOL     OW27733   6.243   3.334   4.805
 8945SOL    HW127734   6.317   3.270   4.828
 8945SOL    HW227735   6.282   3.421   4.776
 8946SOL     OW27736   5.176   1.113   4.333
 8946SOL    HW127737   5.118   1.150   4.261
 8946SOL    HW227738   5.233   1.039   4.296
 8947SOL     OW27739   1.183   4.611   5.992
 8947SOL    HW127740   1.192   4.680   5.920
 8947SOL    HW227741   1.229   4.643   6.075
 8948SOL     OW27742   6.510   7.004   3.497
 8948SOL    HW127743   6.465   0.009   3.581
 8948SOL    HW227744   6.579   0.047   3.470
 8949SOL     OW27745   3.345   6.200   0.361
 8949SOL    HW127746   3.269   6.246   0.407
 8949SOL    HW227747   3.431   6.225   0.405
 8950SOL     OW27748   4.721   4.639   1.554
 8950SOL    HW127749   4.637   4.691   1.544
 8950SOL    HW227750   4.700   4.541   1.552
 8951SOL     OW27751   2.547   1.222   4.173
 8951SOL    HW127752   2.589   1.285   4.107
 8951SOL    HW227753   2.507   1.145   4.124
 8952SOL     OW27754   2.317   4.733   3.421
 8952SOL    HW127755   2.332   4.779   3.334
 8952SOL    HW227756   2.291   4.800   3.491
 8953SOL     OW27757   2.676   5.088   2.246
 8953SOL    HW127758   2.689   5.087   2.147
 8953SOL    HW227759   2.643   5.178   2.275
 8954SOL     OW27760   0.968   5.728   5.102
 8954SOL    HW127761   1.033   5.804   5.098
 8954SOL    HW227762   0.934   5.719   5.196
 8955SOL     OW27763   5.486   2.709   3.612
 8955SOL    HW127764   5.433   2.789   3.640
 8955SOL    HW227765   5.515   2.719   3.517
 8956SOL     OW27766   0.678   5.991   6.071
 8956SOL    HW127767   0.695   6.087   6.047
 8956SOL    HW227768   0.719   5.931   6.002
 8957SOL     OW27769   1.364   5.054   2.106
 8957SOL    HW127770   1.317   5.124   2.159
 8957SOL    HW227771   1.452   5.034   2.148
 8958SOL     OW27772   1.919   3.292   5.428
 8958SOL    HW127773   1.954   3.304   5.521
 8958SOL    HW227774   1.825   3.324   5.423
 8959SOL     OW27775   0.589   3.227   2.294
 8959SOL    HW127776   0.665   3.242   2.358
 8959SOL    HW227777   0.620   3.241   2.201
 8960SOL     OW27778   5.781   3.950   4.232
 8960SOL    HW127779   5.790   3.962   4.134
 8960SOL    HW227780   5.768   3.853   4.253
 8961SOL     OW27781   3.386   6.835   5.207
 8961SOL    HW127782   3.300   6.865   5.249
 8961SOL    HW227783   3.366   6.764   5.138
 8962SOL     OW27784   0.676   5.754   1.422
 8962SOL    HW127785   0.701   5.729   1.515
 8962SOL    HW227786   0.757   5.786   1.373
 8963SOL     OW27787   3.545   6.377   4.709
 8963SOL    HW127788   3.619   6.434   4.673
 8963SOL    HW227789   3.582   6.290   4.740
 8964SOL     OW27790   6.573   3.803   3.987
 8964SOL    HW127791   6.563   3.887   3.935
 8964SOL    HW227792   6.583   3.825   4.084
 8965SOL     OW27793   4.270   5.020   0.185
 8965SOL    HW127794   4.195   4.955   0.170
 8965SOL    HW227795   4.252   5.071   0.270
 8966SOL     OW27796   5.366   5.597   6.506
 8966SOL    HW127797   5.276   5.641   6.502
 8966SOL    HW227798   5.355   5.498   6.510
 8967SOL     OW27799   3.391   0.999   3.402
 8967SOL    HW127800   3.470   1.013   3.462
 8967SOL    HW227801   3.411   1.035   3.311
 8968SOL     OW27802   3.503   5.018   1.982
 8968SOL    HW127803   3.459   4.968   2.057
 8968SOL    HW227804   3.546   5.100   2.016
 8969SOL     OW27805   6.847   0.745   2.550
 8969SOL    HW127806   6.793   0.717   2.471
 8969SOL    HW227807   6.821   0.838   2.577
 8970SOL     OW27808   1.308   1.269   6.142
 8970SOL    HW127809   1.363   1.333   6.196
 8970SOL    HW227810   1.369   1.209   6.090
 8971SOL     OW27811   4.202   5.691   0.641
 8971SOL    HW127812   4.301   5.706   0.648
 8971SOL    HW227813   4.184   5.600   0.604
 8972SOL     OW27814   5.643   4.705   0.782
 8972SOL    HW127815   5.733   4.667   0.802
 8972SOL    HW227816   5.653   4.782   0.719
 8973SOL     OW27817   0.635   2.138   1.975
 8973SOL    HW127818   0.632   2.165   2.072
 8973SOL    HW227819   0.632   2.220   1.918
 8974SOL     OW27820   2.419   4.472   4.341
 8974SOL    HW127821   2.399   4.374   4.342
 8974SOL    HW227822   2.429   4.505   4.434
 8975SOL     OW27823   0.598   0.706   6.454
 8975SOL    HW127824   0.664   0.632   6.445
 8975SOL    HW227825   0.645   0.793   6.460
 8976SOL     OW27826   6.797   0.118   1.504
 8976SOL    HW127827   6.879   0.146   1.555
 8976SOL    HW227828   6.756   0.197   1.460
 8977SOL     OW27829   6.870   4.988   6.333
 8977SOL    HW127830   6.930   4.946   6.265
 8977SOL    HW227831   6.788   5.024   6.289
 8978SOL     OW27832   6.049   5.594   5.890
 8978SOL    HW127833   5.978   5.528   5.869
 8978SOL    HW227834   6.112   5.556   5.958
 8979SOL     OW27835   0.920   5.663   5.831
 8979SOL    HW127836   0.912   5.579   5.777
 8979SOL    HW227837   0.936   5.639   5.927
 8980SOL     OW27838   3.735   1.071   4.760
 8980SOL    HW127839   3.806   1.011   4.724
 8980SOL    HW227840   3.737   1.159   4.711
 8981SOL     OW27841   4.399   2.692   6.181
 8981SOL    HW127842   4.301   2.676   6.166
 8981SOL    HW227843   4.424   2.781   6.143
 8982SOL     OW27844   6.787   1.181   1.076
 8982SOL    HW127845   6.849   1.139   1.009
 8982SOL    HW227846   6.735   1.109   1.121
 8983SOL     OW27847   0.681   5.655   2.831
 8983SOL    HW127848   0.737   5.618   2.756
 8983SOL    HW227849   0.731   5.727   2.878
 8984SOL     OW27850   5.848   0.508   4.057
 8984SOL    HW127851   5.756   0.469   4.066
 8984SOL    HW227852   5.898   0.496   4.143
 8985SOL     OW27853   4.955   2.389   0.567
 8985SOL    HW127854   5.021   2.375   0.494
 8985SOL    HW227855   4.865   2.359   0.537
 8986SOL     OW27856   6.342   4.560   1.414
 8986SOL    HW127857   6.311   4.641   1.464
 8986SOL    HW227858   6.360   4.486   1.477
 8987SOL     OW27859   2.231   6.601   1.412
 8987SOL    HW127860   2.230   6.632   1.317
 8987SOL    HW227861   2.157   6.536   1.427
 8988SOL     OW27862   1.770   4.923   1.360
 8988SOL    HW127863   1.832   4.848   1.335
 8988SOL    HW227864   1.712   4.946   1.281
 8989SOL     OW27865   5.611   1.720   1.991
 8989SOL    HW127866   5.678   1.794   1.985
 8989SOL    HW227867   5.521   1.759   2.009
 8990SOL     OW27868   3.220   6.729   1.685
 8990SOL    HW127869   3.175   6.818   1.692
 8990SOL    HW227870   3.307   6.740   1.638
 8991SOL     OW27871   1.947   2.263   0.617
 8991SOL    HW127872   2.004   2.254   0.536
 8991SOL    HW227873   1.999   2.309   0.689
 8992SOL     OW27874   0.618   3.742   6.559
 8992SOL    HW127875   0.672   3.737   6.475
 8992SOL    HW227876   0.563   3.660   6.569
 8993SOL     OW27877   5.723   2.421   3.457
 8993SOL    HW127878   5.633   2.384   3.482
 8993SOL    HW227879   5.771   2.450   3.539
 8994SOL     OW27880   1.058   5.099   3.662
 8994SOL    HW127881   1.151   5.092   3.699
 8994SOL    HW227882   1.029   5.011   3.626
 8995SOL     OW27883   1.838   3.468   5.144
 8995SOL    HW127884   1.792   3.383   5.119
 8995SOL    HW227885   1.932   3.449   5.172
 8996SOL     OW27886   0.537   3.958   2.565
 8996SOL    HW127887   0.520   3.898   2.643
 8996SOL    HW227888   0.631   3.991   2.569
 8997SOL     OW27889   4.202   1.286   5.035
 8997SOL    HW127890   4.162   1.294   5.126
 8997SOL    HW227891   4.141   1.233   4.976
 8998SOL     OW27892   1.656   2.841   5.840
 8998SOL    HW127893   1.602   2.822   5.923
 8998SOL    HW227894   1.730   2.774   5.833
 8999SOL     OW27895   5.401   1.240   5.371
 8999SOL    HW127896   5.472   1.304   5.344
 8999SOL    HW227897   5.327   1.289   5.418
 9000SOL     OW27898   3.363   4.151   0.478
 9000SOL    HW127899   3.431   4.108   0.537
 9000SOL    HW227900   3.272   4.138   0.516
 9001SOL     OW27901   2.157   4.690   4.023
 9001SOL    HW127902   2.149   4.751   3.944
 9001SOL    HW227903   2.218   4.731   4.090
 9002SOL     OW27904   6.022   4.663   6.305
 9002SOL    HW127905   6.075   4.652   6.221
 9002SOL    HW227906   5.939   4.608   6.299
 9003SOL     OW27907   6.482   2.892   6.955
 9003SOL    HW127908   6.499   2.796   6.934
 9003SOL    HW227909   6.456   2.901   0.026
 9004SOL     OW27910   4.662   6.478   1.437
 9004SOL    HW127911   4.670   6.570   1.398
 9004SOL    HW227912   4.655   6.486   1.537
 9005SOL     OW27913   4.956   2.281   3.355
 9005SOL    HW127914   5.017   2.337   3.298
 9005SOL    HW227915   4.862   2.315   3.344
 9006SOL     OW27916   1.345   5.167   1.184
 9006SOL    HW127917   1.265   5.186   1.240
 9006SOL    HW227918   1.403   5.248   1.179
 9007SOL     OW27919   3.391   5.575   3.902
 9007SOL    HW127920   3.427   5.664   3.874
 9007SOL    HW227921   3.412   5.559   3.999
 9008SOL     OW27922   0.053   4.156   1.764
 9008SOL    HW127923   0.117   4.202   1.826
 9008SOL    HW227924   0.020   4.221   1.696
 9009SOL     OW27925   2.675   6.162   0.768
 9009SOL    HW127926   2.757   6.207   0.805
 9009SOL    HW227927   2.695   6.128   0.676
 9010SOL     OW27928   0.206   6.450   5.060
 9010SOL    HW127929   0.256   6.520   5.009
 9010SOL    HW227930   0.247   6.360   5.041
 9011SOL     OW27931   4.174   1.976   0.941
 9011SOL    HW127932   4.252   1.930   0.897
 9011SOL    HW227933   4.183   2.075   0.929
 9012SOL     OW27934   0.769   5.169   1.960
 9012SOL    HW127935   0.743   5.098   2.025
 9012SOL    HW227936   0.701   5.173   1.887
 9013SOL     OW27937   6.477   5.841   3.340
 9013SOL    HW127938   6.573   5.867   3.329
 9013SOL    HW227939   6.419   5.914   3.304
 9014SOL     OW27940   1.482   0.643   0.733
 9014SOL    HW127941   1.543   0.569   0.763
 9014SOL    HW227942   1.455   0.627   0.638
 9015SOL     OW27943   0.370   1.254   6.037
 9015SOL    HW127944   0.334   1.218   5.951
 9015SOL    HW227945   0.464   1.224   6.049
 9016SOL     OW27946   6.368   5.874   5.965
 9016SOL    HW127947   6.273   5.860   5.936
 9016SOL    HW227948   6.373   5.955   6.023
 9017SOL     OW27949   6.048   2.169   3.876
 9017SOL    HW127950   6.041   2.072   3.899
 9017SOL    HW227951   6.119   2.212   3.933
 9018SOL     OW27952   3.137   1.883   5.211
 9018SOL    HW127953   3.099   1.940   5.139
 9018SOL    HW227954   3.220   1.839   5.178
 9019SOL     OW27955   2.692   6.027   0.520
 9019SOL    HW127956   2.679   6.115   0.473
 9019SOL    HW227957   2.651   5.954   0.465
 9020SOL     OW27958   1.837   4.514   2.677
 9020SOL    HW127959   1.856   4.525   2.580
 9020SOL    HW227960   1.773   4.438   2.691
 9021SOL     OW27961   6.933   5.487   4.291
 9021SOL    HW127962   7.012   5.503   4.350
 9021SOL    HW227963   6.965   5.452   4.203
 9022SOL     OW27964   2.649   0.600   0.356
 9022SOL    HW127965   2.647   0.588   0.257
 9022SOL    HW227966   2.655   0.698   0.378
 9023SOL     OW27967   3.372   3.391   3.792
 9023SOL    HW127968   3.442   3.359   3.856
 9023SOL    HW227969   3.363   3.491   3.799
 9024SOL     OW27970   1.474   6.480   5.815
 9024SOL    HW127971   1.525   6.404   5.855
 9024SOL    HW227972   1.469   6.555   5.880
 9025SOL     OW27973   6.089   4.945   1.977
 9025SOL    HW127974   6.115   4.912   2.067
 9025SOL    HW227975   5.997   4.914   1.955
 9026SOL     OW27976   3.589   2.849   4.751
 9026SOL    HW127977   3.649   2.770   4.737
 9026SOL    HW227978   3.603   2.887   4.842
 9027SOL     OW27979   2.889   2.211   2.980
 9027SOL    HW127980   2.861   2.273   3.054
 9027SOL    HW227981   2.856   2.248   2.893
 9028SOL     OW27982   2.628   4.678   5.227
 9028SOL    HW127983   2.653   4.626   5.308
 9028SOL    HW227984   2.696   4.662   5.155
 9029SOL     OW27985   5.103   5.779   3.509
 9029SOL    HW127986   5.047   5.697   3.522
 9029SOL    HW227987   5.060   5.839   3.442
 9030SOL     OW27988   2.283   0.944   2.401
 9030SOL    HW127989   2.349   1.009   2.437
 9030SOL    HW227990   2.194   0.958   2.446
 9031SOL     OW27991   2.269   6.418   5.969
 9031SOL    HW127992   2.289   6.376   5.880
 9031SOL    HW227993   2.352   6.460   6.005
 9032SOL     OW27994   2.725   2.197   1.725
 9032SOL    HW127995   2.723   2.101   1.699
 9032SOL    HW227996   2.813   2.237   1.702
 9033SOL     OW27997   1.650   3.420   3.840
 9033SOL    HW127998   1.692   3.398   3.928
 9033SOL    HW227999   1.713   3.477   3.786
 9034SOL     OW28000   2.904   6.236   5.672
 9034SOL    HW128001   2.877   6.283   5.588
 9034SOL    HW228002   2.864   6.283   5.750
 9035SOL     OW28003   6.956   0.904   4.102
 9035SOL    HW128004   6.967   0.924   4.200
 9035SOL    HW228005   0.021   0.894   4.059
 9036SOL     OW28006   1.339   2.826   5.749
 9036SOL    HW128007   1.380   2.773   5.823
 9036SOL    HW228008   1.392   2.811   5.665
 9037SOL     OW28009   2.800   4.302   6.821
 9037SOL    HW128010   2.776   4.240   6.745
 9037SOL    HW228011   2.725   4.304   6.887
 9038SOL     OW28012   4.741   6.559   4.984
 9038SOL    HW128013   4.698   6.543   4.895
 9038SOL    HW228014   4.799   6.640   4.978
 9039SOL     OW28015   2.104   4.990   4.842
 9039SOL    HW128016   2.016   4.987   4.796
 9039SOL    HW228017   2.104   5.064   4.910
 9040SOL     OW28018   2.246   2.074   2.474
 9040SOL    HW128019   2.232   2.020   2.557
 9040SOL    HW228020   2.343   2.096   2.463
 9041SOL     OW28021   1.295   2.682   0.942
 9041SOL    HW128022   1.296   2.748   0.867
 9041SOL    HW228023   1.218   2.702   1.002
 9042SOL     OW28024   2.765   5.189   2.948
 9042SOL    HW128025   2.716   5.173   2.863
 9042SOL    HW228026   2.815   5.106   2.973
 9043SOL     OW28027   1.095   2.839   5.916
 9043SOL    HW128028   1.090   2.938   5.933
 9043SOL    HW228029   1.144   2.823   5.830
 9044SOL     OW28030   6.118   0.498   0.553
 9044SOL    HW128031   6.154   0.506   0.646
 9044SOL    HW228032   6.154   0.415   0.510
 9045SOL     OW28033   3.124   0.219   3.295
 9045SOL    HW128034   3.072   0.304   3.289
 9045SOL    HW228035   3.172   0.216   3.383
 9046SOL     OW28036   3.450   4.388   5.606
 9046SOL    HW128037   3.446   4.306   5.663
 9046SOL    HW228038   3.376   4.451   5.631
 9047SOL     OW28039   1.416   4.190   4.148
 9047SOL    HW128040   1.349   4.181   4.074
 9047SOL    HW228041   1.444   4.099   4.179
 9048SOL     OW28042   1.541   3.651   4.783
 9048SOL    HW128043   1.568   3.597   4.863
 9048SOL    HW228044   1.444   3.672   4.787
 9049SOL     OW28045   5.642   6.324   5.853
 9049SOL    HW128046   5.583   6.249   5.822
 9049SOL    HW228047   5.731   6.316   5.807
 9050SOL     OW28048   0.170   4.865   6.997
 9050SOL    HW128049   0.225   4.798   6.946
 9050SOL    HW228050   0.212   4.955   6.990
 9051SOL     OW28051   5.313   6.029   0.065
 9051SOL    HW128052   5.341   6.033   0.161
 9051SOL    HW228053   5.230   6.084   0.053
 9052SOL     OW28054   2.625   4.865   4.684
 9052SOL    HW128055   2.553   4.931   4.706
 9052SOL    HW228056   2.617   4.837   4.589
 9053SOL     OW28057   2.354   2.769   3.978
 9053SOL    HW128058   2.414   2.690   3.995
 9053SOL    HW228059   2.283   2.772   4.048
 9054SOL     OW28060   1.711   0.522   1.946
 9054SOL    HW128061   1.630   0.570   1.911
 9054SOL    HW228062   1.718   0.537   2.044
 9055SOL     OW28063   0.920   2.510   3.949
 9055SOL    HW128064   0.957   2.500   4.041
 9055SOL    HW228065   0.996   2.513   3.883
 9056SOL     OW28066   4.741   0.323   2.677
 9056SOL    HW128067   4.835   0.353   2.689
 9056SOL    HW228068   4.738   0.246   2.612
 9057SOL     OW28069   6.215   5.693   0.339
 9057SOL    HW128070   6.150   5.677   0.413
 9057SOL    HW228071   6.169   5.680   0.251
 9058SOL     OW28072   1.905   2.768   5.147
 9058SOL    HW128073   2.001   2.796   5.145
 9058SOL    HW228074   1.857   2.821   5.217
 9059SOL     OW28075   6.630   1.883   3.167
 9059SOL    HW128076   6.597   1.959   3.112
 9059SOL    HW228077   6.560   1.856   3.233
 9060SOL     OW28078   6.886   3.318   2.003
 9060SOL    HW128079   6.789   3.315   2.024
 9060SOL    HW228080   6.913   3.413   1.983
 9061SOL     OW28081   4.831   5.978   2.550
 9061SOL    HW128082   4.922   5.942   2.530
 9061SOL    HW228083   4.766   5.947   2.480
 9062SOL     OW28084   1.005   4.397   3.376
 9062SOL    HW128085   0.951   4.421   3.456
 9062SOL    HW228086   1.099   4.378   3.404
 9063SOL     OW28087   2.957   0.841   2.695
 9063SOL    HW128088   3.034   0.791   2.657
 9063SOL    HW228089   2.990   0.911   2.759
 9064SOL     OW28090   0.291   3.975   3.709
 9064SOL    HW128091   0.324   3.894   3.661
 9064SOL    HW228092   0.343   3.986   3.794
 9065SOL     OW28093   2.937   6.180   4.962
 9065SOL    HW128094   2.990   6.230   4.894
 9065SOL    HW228095   2.996   6.155   5.040
 9066SOL     OW28096   5.825   5.720   6.328
 9066SOL    HW128097   5.899   5.771   6.372
 9066SOL    HW228098   5.819   5.746   6.232
 9067SOL     OW28099   6.267   0.060   4.326
 9067SOL    HW128100   6.346   0.110   4.362
 9067SOL    HW228101   6.183   0.105   4.357
 9068SOL     OW28102   5.125   0.339   4.960
 9068SOL    HW128103   5.120   0.433   4.994
 9068SOL    HW228104   5.196   0.289   5.010
 9069SOL     OW28105   4.798   2.137   2.063
 9069SOL    HW128106   4.789   2.178   2.154
 9069SOL    HW228107   4.850   2.052   2.069
 9070SOL     OW28108   1.281   2.048   5.834
 9070SOL    HW128109   1.210   2.114   5.807
 9070SOL    HW228110   1.337   2.088   5.906
 9071SOL     OW28111   4.464   1.392   5.702
 9071SOL    HW128112   4.537   1.451   5.737
 9071SOL    HW228113   4.465   1.305   5.750
 9072SOL     OW28114   5.254   0.173   1.458
 9072SOL    HW128115   5.228   0.264   1.489
 9072SOL    HW228116   5.326   0.181   1.388
 9073SOL     OW28117   3.959   0.304   6.974
 9073SOL    HW128118   4.051   0.281   6.943
 9073SOL    HW228119   3.959   0.314   0.049
 9074SOL     OW28120   1.274   0.215   1.163
 9074SOL    HW128121   1.228   0.203   1.075
 9074SOL    HW228122   1.368   0.245   1.148
 9075SOL     OW28123   6.712   0.760   1.575
 9075SOL    HW128124   6.719   0.739   1.673
 9075SOL    HW228125   6.793   0.728   1.528
 9076SOL     OW28126   5.004   0.459   2.658
 9076SOL    HW128127   5.074   0.437   2.590
 9076SOL    HW228128   5.049   0.487   2.743
 9077SOL     OW28129   5.215   0.926   5.878
 9077SOL    HW128130   5.261   0.944   5.791
 9077SOL    HW228131   5.266   0.971   5.952
 9078SOL     OW28132   4.855   5.537   6.777
 9078SOL    HW128133   4.925   5.608   6.794
 9078SOL    HW228134   4.840   5.485   6.861
 9079SOL     OW28135   1.448   0.623   5.467
 9079SOL    HW128136   1.515   0.692   5.441
 9079SOL    HW228137   1.397   0.594   5.385
 9080SOL     OW28138   6.666   3.737   0.740
 9080SOL    HW128139   6.600   3.707   0.809
 9080SOL    HW228140   6.652   3.685   0.656
 9081SOL     OW28141   3.668   1.553   1.921
 9081SOL    HW128142   3.698   1.642   1.956
 9081SOL    HW228143   3.569   1.555   1.905
 9082SOL     OW28144   3.312   5.856   6.083
 9082SOL    HW128145   3.340   5.951   6.101
 9082SOL    HW228146   3.248   5.826   6.154
 9083SOL     OW28147   5.173   5.001   5.879
 9083SOL    HW128148   5.122   5.085   5.899
 9083SOL    HW228149   5.110   4.924   5.875
 9084SOL     OW28150   0.771   2.741   5.631
 9084SOL    HW128151   0.867   2.771   5.634
 9084SOL    HW228152   0.723   2.775   5.712
 9085SOL     OW28153   2.987   4.788   7.012
 9085SOL    HW128154   2.894   4.823   7.003
 9085SOL    HW228155   3.004   4.720   6.940
 9086SOL     OW28156   6.639   4.146   0.683
 9086SOL    HW128157   6.705   4.094   0.739
 9086SOL    HW228158   6.549   4.141   0.726
 9087SOL     OW28159   5.811   2.681   2.199
 9087SOL    HW128160   5.800   2.712   2.105
 9087SOL    HW228161   5.896   2.628   2.207
 9088SOL     OW28162   6.141   0.507   1.652
 9088SOL    HW128163   6.185   0.440   1.592
 9088SOL    HW228164   6.047   0.478   1.671
 9089SOL     OW28165   4.408   5.389   3.842
 9089SOL    HW128166   4.340   5.444   3.890
 9089SOL    HW228167   4.375   5.368   3.750
 9090SOL     OW28168   5.617   6.163   4.209
 9090SOL    HW128169   5.616   6.098   4.133
 9090SOL    HW228170   5.647   6.117   4.293
 9091SOL     OW28171   3.413   2.317   0.656
 9091SOL    HW128172   3.456   2.230   0.682
 9091SOL    HW228173   3.316   2.314   0.680
 9092SOL     OW28174   1.369   0.023   5.717
 9092SOL    HW128175   1.342   0.029   5.621
 9092SOL    HW228176   1.307   6.987   5.766
 9093SOL     OW28177   1.426   5.939   0.221
 9093SOL    HW128178   1.495   5.920   0.291
 9093SOL    HW228179   1.425   6.037   0.202
 9094SOL     OW28180   0.134   5.943   2.078
 9094SOL    HW128181   0.228   5.923   2.053
 9094SOL    HW228182   0.108   6.033   2.043
 9095SOL     OW28183   5.053   3.138   6.588
 9095SOL    HW128184   5.050   3.225   6.637
 9095SOL    HW228185   5.138   3.090   6.612
 9096SOL     OW28186   5.466   3.117   2.889
 9096SOL    HW128187   5.536   3.059   2.929
 9096SOL    HW228188   5.375   3.084   2.916
 9097SOL     OW28189   1.156   3.516   6.757
 9097SOL    HW128190   1.078   3.571   6.728
 9097SOL    HW228191   1.240   3.552   6.715
 9098SOL     OW28192   3.882   3.949   1.891
 9098SOL    HW128193   3.804   3.888   1.907
 9098SOL    HW228194   3.872   3.993   1.802
 9099SOL     OW28195   3.377   3.369   0.999
 9099SOL    HW128196   3.470   3.388   1.030
 9099SOL    HW228197   3.377   3.285   0.945
 9100SOL     OW28198   0.626   3.036   1.878
 9100SOL    HW128199   0.654   3.115   1.933
 9100SOL    HW228200   0.679   2.956   1.906
 9101SOL     OW28201   2.005   3.076   2.946
 9101SOL    HW128202   1.915   3.080   2.990
 9101SOL    HW228203   2.012   2.992   2.893
 9102SOL     OW28204   3.827   5.659   2.749
 9102SOL    HW128205   3.815   5.607   2.833
 9102SOL    HW228206   3.763   5.736   2.747
 9103SOL     OW28207   0.303   3.450   0.683
 9103SOL    HW128208   0.278   3.531   0.630
 9103SOL    HW228209   0.339   3.380   0.621
 9104SOL     OW28210   3.741   6.078   2.003
 9104SOL    HW128211   3.709   6.137   2.077
 9104SOL    HW228212   3.815   6.122   1.954
 9105SOL     OW28213   1.636   0.653   6.668
 9105SOL    HW128214   1.704   0.698   6.610
 9105SOL    HW228215   1.547   0.655   6.623
 9106SOL     OW28216   5.963   4.585   0.429
 9106SOL    HW128217   5.897   4.511   0.441
 9106SOL    HW228218   6.013   4.571   0.344
 9107SOL     OW28219   4.413   6.814   6.809
 9107SOL    HW128220   4.478   6.875   6.764
 9107SOL    HW228221   4.351   6.776   6.740
 9108SOL     OW28222   4.904   4.531   5.254
 9108SOL    HW128223   4.967   4.505   5.328
 9108SOL    HW228224   4.957   4.557   5.173
 9109SOL     OW28225   1.933   2.068   3.148
 9109SOL    HW128226   1.900   2.028   3.062
 9109SOL    HW228227   2.021   2.112   3.133
 9110SOL     OW28228   2.517   4.677   3.789
 9110SOL    HW128229   2.502   4.642   3.696
 9110SOL    HW228230   2.483   4.611   3.856
 9111SOL     OW28231   3.642   3.738   1.056
 9111SOL    HW128232   3.657   3.661   1.118
 9111SOL    HW228233   3.703   3.813   1.081
 9112SOL     OW28234   0.402   3.811   3.518
 9112SOL    HW128235   0.436   3.835   3.427
 9112SOL    HW228236   0.469   3.752   3.563
 9113SOL     OW28237   4.532   0.884   0.275
 9113SOL    HW128238   4.611   0.859   0.330
 9113SOL    HW228239   4.521   0.983   0.276
 9114SOL     OW28240   1.891   4.769   2.487
 9114SOL    HW128241   1.977   4.809   2.520
 9114SOL    HW228242   1.817   4.791   2.552
 9115SOL     OW28243   1.015   5.253   4.982
 9115SOL    HW128244   1.060   5.333   5.021
 9115SOL    HW228245   1.082   5.198   4.933
 9116SOL     OW28246   6.890   1.858   6.976
 9116SOL    HW128247   6.864   1.932   6.915
 9116SOL    HW228248   6.811   1.799   6.993
 9117SOL     OW28249   6.107   3.183   6.737
 9117SOL    HW128250   6.032   3.161   6.799
 9117SOL    HW228251   6.193   3.152   6.777
 9118SOL     OW28252   5.647   6.647   0.644
 9118SOL    HW128253   5.682   6.681   0.732
 9118SOL    HW228254   5.723   6.635   0.581
 9119SOL     OW28255   5.905   1.542   2.723
 9119SOL    HW128256   5.916   1.545   2.624
 9119SOL    HW228257   5.841   1.469   2.747
 9120SOL     OW28258   5.865   2.997   5.829
 9120SOL    HW128259   5.879   2.899   5.821
 9120SOL    HW228260   5.802   3.028   5.759
 9121SOL     OW28261   0.860   3.123   5.688
 9121SOL    HW128262   0.863   3.123   5.788
 9121SOL    HW228263   0.943   3.081   5.653
 9122SOL     OW28264   1.987   2.470   1.585
 9122SOL    HW128265   1.968   2.545   1.522
 9122SOL    HW228266   1.991   2.506   1.678
 9123SOL     OW28267   3.496   0.089   5.355
 9123SOL    HW128268   3.562   0.072   5.281
 9123SOL    HW228269   3.405   0.100   5.316
 9124SOL     OW28270   5.674   6.053   5.621
 9124SOL    HW128271   5.657   5.972   5.565
 9124SOL    HW228272   5.762   6.093   5.596
 9125SOL     OW28273   4.383   4.625   3.885
 9125SOL    HW128274   4.421   4.568   3.813
 9125SOL    HW228275   4.448   4.699   3.907
 9126SOL     OW28276   5.949   1.493   2.446
 9126SOL    HW128277   5.877   1.437   2.404
 9126SOL    HW228278   6.038   1.470   2.407
 9127SOL     OW28279   6.156   0.440   5.776
 9127SOL    HW128280   6.222   0.371   5.806
 9127SOL    HW228281   6.105   0.405   5.697
 9128SOL     OW28282   3.763   1.992   5.213
 9128SOL    HW128283   3.754   1.894   5.232
 9128SOL    HW228284   3.745   2.045   5.296
 9129SOL     OW28285   1.914   3.377   0.856
 9129SOL    HW128286   1.970   3.429   0.792
 9129SOL    HW228287   1.970   3.349   0.934
 9130SOL     OW28288   0.112   4.117   0.120
 9130SOL    HW128289   0.193   4.153   0.074
 9130SOL    HW228290   0.139   4.076   0.207
 9131SOL     OW28291   0.421   4.315   5.040
 9131SOL    HW128292   0.389   4.376   5.112
 9131SOL    HW228293   0.347   4.253   5.014
 9132SOL     OW28294   0.200   4.377   3.903
 9132SOL    HW128295   0.132   4.327   3.849
 9132SOL    HW228296   0.170   4.382   3.998
 9133SOL     OW28297   3.225   5.493   1.003
 9133SOL    HW128298   3.247   5.442   0.920
 9133SOL    HW228299   3.239   5.435   1.083
 9134SOL     OW28300   3.322   7.001   1.018
 9134SOL    HW128301   3.357   0.059   1.062
 9134SOL    HW228302   3.322   7.014   0.919
 9135SOL     OW28303   0.026   6.341   1.699
 9135SOL    HW128304   6.993   6.421   1.685
 9135SOL    HW228305   0.031   6.289   1.613
 9136SOL     OW28306   4.962   5.434   5.514
 9136SOL    HW128307   4.951   5.530   5.492
 9136SOL    HW228308   5.008   5.387   5.439
 9137SOL     OW28309   5.263   1.951   0.792
 9137SOL    HW128310   5.197   1.975   0.862
 9137SOL    HW228311   5.347   1.917   0.835
 9138SOL     OW28312   6.615   4.795   6.312
 9138SOL    HW128313   6.558   4.781   6.231
 9138SOL    HW228314   6.649   4.889   6.313
 9139SOL     OW28315   2.337   1.291   4.368
 9139SOL    HW128316   2.322   1.228   4.444
 9139SOL    HW228317   2.409   1.254   4.308
 9140SOL     OW28318   6.520   2.970   2.704
 9140SOL    HW128319   6.589   2.917   2.656
 9140SOL    HW228320   6.553   2.992   2.796
 9141SOL     OW28321   5.554   0.367   6.651
 9141SOL    HW128322   5.463   0.366   6.609
 9141SOL    HW228323   5.552   0.315   6.736
 9142SOL     OW28324   0.488   2.721   6.154
 9142SOL    HW128325   0.438   2.651   6.205
 9142SOL    HW228326   0.581   2.728   6.188
 9143SOL     OW28327   5.018   3.892   0.158
 9143SOL    HW128328   5.112   3.887   0.190
 9143SOL    HW228329   4.967   3.811   0.187
 9144SOL     OW28330   2.381   5.577   6.035
 9144SOL    HW128331   2.461   5.528   6.000
 9144SOL    HW228332   2.304   5.564   5.972
 9145SOL     OW28333   6.878   5.209   1.003
 9145SOL    HW128334   6.958   5.266   1.024
 9145SOL    HW228335   6.869   5.138   1.072
 9146SOL     OW28336   5.075   1.919   1.933
 9146SOL    HW128337   5.053   1.904   1.836
 9146SOL    HW228338   4.995   1.893   1.989
 9147SOL     OW28339   5.829   7.008   4.149
 9147SOL    HW128340   5.842   6.963   4.060
 9147SOL    HW228341   5.731   7.010   4.171
 9148SOL     OW28342   5.385   0.111   1.055
 9148SOL    HW128343   5.300   0.064   1.031
 9148SOL    HW228344   5.416   0.081   1.146
 9149SOL     OW28345   5.053   2.882   3.783
 9149SOL    HW128346   5.110   2.962   3.765
 9149SOL    HW228347   5.102   2.819   3.843
 9150SOL     OW28348   3.461   5.324   3.618
 9150SOL    HW128349   3.497   5.233   3.598
 9150SOL    HW228350   3.511   5.363   3.695
 9151SOL     OW28351   1.287   4.021   3.176
 9151SOL    HW128352   1.278   3.937   3.229
 9151SOL    HW228353   1.199   4.047   3.138
 9152SOL     OW28354   3.102   5.369   4.744
 9152SOL    HW128355   3.132   5.375   4.649
 9152SOL    HW228356   3.070   5.276   4.763
 9153SOL     OW28357   1.546   3.310   1.230
 9153SOL    HW128358   1.603   3.293   1.311
 9153SOL    HW228359   1.485   3.231   1.216
 9154SOL     OW28360   3.065   4.975   0.163
 9154SOL    HW128361   3.053   4.926   0.076
 9154SOL    HW228362   3.152   4.947   0.205
 9155SOL     OW28363   2.056   3.110   0.599
 9155SOL    HW128364   2.018   3.154   0.518
 9155SOL    HW228365   2.001   3.133   0.679
 9156SOL     OW28366   2.803   2.840   1.065
 9156SOL    HW128367   2.791   2.777   1.142
 9156SOL    HW228368   2.715   2.882   1.042
 9157SOL     OW28369   5.933   4.919   6.357
 9157SOL    HW128370   5.837   4.912   6.331
 9157SOL    HW228371   5.982   4.836   6.331
 9158SOL     OW28372   5.959   3.317   4.751
 9158SOL    HW128373   6.050   3.352   4.772
 9158SOL    HW228374   5.890   3.385   4.777
 9159SOL     OW28375   1.131   0.003   3.397
 9159SOL    HW128376   1.156   0.084   3.343
 9159SOL    HW228377   1.035   0.011   3.426
 9160SOL     OW28378   6.505   0.233   5.102
 9160SOL    HW128379   6.530   0.306   5.165
 9160SOL    HW228380   6.471   0.155   5.154
 9161SOL     OW28381   4.663   4.283   4.495
 9161SOL    HW128382   4.580   4.322   4.533
 9161SOL    HW228383   4.646   4.255   4.400
 9162SOL     OW28384   4.859   1.534   3.803
 9162SOL    HW128385   4.844   1.465   3.874
 9162SOL    HW228386   4.790   1.522   3.730
 9163SOL     OW28387   2.123   3.465   4.091
 9163SOL    HW128388   2.110   3.515   4.177
 9163SOL    HW228389   2.109   3.527   4.014
 9164SOL     OW28390   2.506   0.208   0.012
 9164SOL    HW128391   2.558   0.162   6.964
 9164SOL    HW228392   2.408   0.195   7.020
 9165SOL     OW28393   5.756   1.596   5.368
 9165SOL    HW128394   5.830   1.564   5.309
 9165SOL    HW228395   5.671   1.551   5.341
 9166SOL     OW28396   4.512   6.090   0.960
 9166SOL    HW128397   4.467   6.151   0.894
 9166SOL    HW228398   4.527   6.139   1.046
 9167SOL     OW28399   1.673   2.688   6.426
 9167SOL    HW128400   1.717   2.615   6.479
 9167SOL    HW228401   1.696   2.678   6.330
 9168SOL     OW28402   0.737   0.562   6.040
 9168SOL    HW128403   0.719   0.634   5.973
 9168SOL    HW228404   0.830   0.527   6.027
 9169SOL     OW28405   6.519   1.407   5.171
 9169SOL    HW128406   6.499   1.399   5.269
 9169SOL    HW228407   6.538   1.316   5.134
 9170SOL     OW28408   0.869   5.175   0.712
 9170SOL    HW128409   0.920   5.142   0.633
 9170SOL    HW228410   0.875   5.108   0.786
 9171SOL     OW28411   3.413   4.862   1.276
 9171SOL    HW128412   3.320   4.894   1.295
 9171SOL    HW228413   3.441   4.896   1.186
 9172SOL     OW28414   3.239   0.152   4.997
 9172SOL    HW128415   3.270   0.214   5.069
 9172SOL    HW228416   3.149   0.115   5.021
 9173SOL     OW28417   5.956   4.269   4.866
 9173SOL    HW128418   5.874   4.250   4.811
 9173SOL    HW228419   6.011   4.339   4.821
 9174SOL     OW28420   5.699   4.978   1.151
 9174SOL    HW128421   5.765   4.971   1.076
 9174SOL    HW228422   5.651   4.891   1.161
 9175SOL     OW28423   1.170   6.715   4.454
 9175SOL    HW128424   1.148   6.646   4.386
 9175SOL    HW228425   1.212   6.794   4.409
 9176SOL     OW28426   2.993   0.888   4.805
 9176SOL    HW128427   3.071   0.884   4.868
 9176SOL    HW228428   2.919   0.940   4.847
 9177SOL     OW28429   1.641   4.526   4.993
 9177SOL    HW128430   1.676   4.613   5.028
 9177SOL    HW228431   1.646   4.457   5.066
 9178SOL     OW28432   2.247   5.818   0.129
 9178SOL    HW128433   2.217   5.902   0.083
 9178SOL    HW228434   2.309   5.768   0.069
 9179SOL     OW28435   3.173   5.349   3.952
 9179SOL    HW128436   3.255   5.361   3.897
 9179SOL    HW228437   3.184   5.270   4.012
 9180SOL     OW28438   5.541   2.045   3.124
 9180SOL    HW128439   5.471   2.087   3.065
 9180SOL    HW228440   5.623   2.101   3.123
 9181SOL     OW28441   3.914   2.104   3.955
 9181SOL    HW128442   3.939   2.125   4.050
 9181SOL    HW228443   3.993   2.118   3.896
 9182SOL     OW28444   2.203   6.567   2.377
 9182SOL    HW128445   2.115   6.607   2.350
 9182SOL    HW228446   2.187   6.481   2.425
 9183SOL     OW28447   5.378   6.613   0.579
 9183SOL    HW128448   5.359   6.675   0.503
 9183SOL    HW228449   5.474   6.623   0.606
 9184SOL     OW28450   5.204   2.025   0.118
 9184SOL    HW128451   5.112   1.986   0.124
 9184SOL    HW228452   5.197   2.121   0.092
 9185SOL     OW28453   3.865   7.011   5.216
 9185SOL    HW128454   3.958   0.015   5.191
 9185SOL    HW228455   3.836   6.936   5.156
 9186SOL     OW28456   5.644   0.118   3.793
 9186SOL    HW128457   5.599   0.205   3.774
 9186SOL    HW228458   5.730   0.134   3.842
 9187SOL     OW28459   2.674   1.174   1.198
 9187SOL    HW128460   2.604   1.220   1.251
 9187SOL    HW228461   2.707   1.237   1.126
 9188SOL     OW28462   1.890   6.503   1.778
 9188SOL    HW128463   1.873   6.601   1.766
 9188SOL    HW228464   1.896   6.481   1.875
 9189SOL     OW28465   4.537   5.844   1.046
 9189SOL    HW128466   4.554   5.936   1.009
 9189SOL    HW228467   4.449   5.811   1.014
 9190SOL     OW28468   1.907   4.192   0.024
 9190SOL    HW128469   1.941   4.115   6.994
 9190SOL    HW228470   1.915   4.169   0.121
 9191SOL     OW28471   5.822   1.083   6.039
 9191SOL    HW128472   5.752   1.111   5.973
 9191SOL    HW228473   5.837   0.984   6.032
 9192SOL     OW28474   0.720   3.883   6.015
 9192SOL    HW128475   0.627   3.921   6.021
 9192SOL    HW228476   0.784   3.943   6.064
 9193SOL     OW28477   4.369   4.219   0.519
 9193SOL    HW128478   4.439   4.151   0.544
 9193SOL    HW228479   4.408   4.285   0.455
 9194SOL     OW28480   2.938   0.427   3.282
 9194SOL    HW128481   2.914   0.524   3.276
 9194SOL    HW228482   2.870   0.372   3.233
 9195SOL     OW28483   2.067   2.209   4.280
 9195SOL    HW128484   2.139   2.163   4.227
 9195SOL    HW228485   2.017   2.141   4.334
 9196SOL     OW28486   4.482   0.342   4.184
 9196SOL    HW128487   4.390   0.376   4.204
 9196SOL    HW228488   4.550   0.405   4.221
 9197SOL     OW28489   2.112   4.550   2.305
 9197SOL    HW128490   2.132   4.541   2.402
 9197SOL    HW228491   2.139   4.466   2.257
 9198SOL     OW28492   6.752   4.950   6.593
 9198SOL    HW128493   6.796   4.937   6.505
 9198SOL    HW228494   6.685   4.877   6.608
 9199SOL     OW28495   1.603   3.837   5.754
 9199SOL    HW128496   1.695   3.802   5.771
 9199SOL    HW228497   1.597   3.932   5.785
 9200SOL     OW28498   2.987   6.902   0.883
 9200SOL    HW128499   3.083   6.911   0.859
 9200SOL    HW228500   2.931   6.956   0.820
 9201SOL     OW28501   0.432   2.807   0.495
 9201SOL    HW128502   0.389   2.818   0.585
 9201SOL    HW228503   0.451   2.897   0.456
 9202SOL     OW28504   1.438   6.183   3.099
 9202SOL    HW128505   1.524   6.227   3.073
 9202SOL    HW228506   1.362   6.245   3.079
 9203SOL     OW28507   0.534   4.956   6.996
 9203SOL    HW128508   0.523   4.865   6.955
 9203SOL    HW228509   0.602   4.952   0.044
 9204SOL     OW28510   4.207   2.890   6.030
 9204SOL    HW128511   4.189   2.793   6.048
 9204SOL    HW228512   4.268   2.899   5.951
 9205SOL     OW28513   6.496   4.583   2.527
 9205SOL    HW128514   6.457   4.612   2.439
 9205SOL    HW228515   6.488   4.484   2.535
 9206SOL     OW28516   4.186   5.380   1.935
 9206SOL    HW128517   4.172   5.312   2.007
 9206SOL    HW228518   4.102   5.389   1.882
 9207SOL     OW28519   4.619   5.124   6.304
 9207SOL    HW128520   4.584   5.087   6.390
 9207SOL    HW228521   4.544   5.164   6.252
 9208SOL     OW28522   6.067   4.039   4.257
 9208SOL    HW128523   5.970   4.022   4.271
 9208SOL    HW228524   6.100   3.983   4.181
 9209SOL     OW28525   3.138   0.367   6.863
 9209SOL    HW128526   3.045   0.396   6.839
 9209SOL    HW228527   3.194   0.448   6.882
 9210SOL     OW28528   7.010   0.740   2.804
 9210SOL    HW128529   6.939   0.771   2.868
 9210SOL    HW228530   6.967   0.694   2.726
 9211SOL     OW28531   6.978   2.715   4.905
 9211SOL    HW128532   6.899   2.725   4.844
 9211SOL    HW228533   0.008   2.637   4.877
 9212SOL     OW28534   4.652   5.421   4.668
 9212SOL    HW128535   4.578   5.370   4.624
 9212SOL    HW228536   4.619   5.512   4.694
 9213SOL     OW28537   5.464   3.877   5.774
 9213SOL    HW128538   5.450   3.927   5.860
 9213SOL    HW228539   5.494   3.784   5.794
 9214SOL     OW28540   0.120   4.640   5.754
 9214SOL    HW128541   0.152   4.640   5.849
 9214SOL    HW228542   0.072   4.555   5.735
 9215SOL     OW28543   1.271   2.328   0.191
 9215SOL    HW128544   1.293   2.409   0.137
 9215SOL    HW228545   1.299   2.246   0.142
 9216SOL     OW28546   2.524   0.296   2.439
 9216SOL    HW128547   2.552   0.391   2.452
 9216SOL    HW228548   2.559   0.240   2.513
 9217SOL     OW28549   0.451   1.427   6.414
 9217SOL    HW128550   0.532   1.372   6.392
 9217SOL    HW228551   0.375   1.368   6.440
 9218SOL     OW28552   2.845   6.673   0.938
 9218SOL    HW128553   2.919   6.610   0.962
 9218SOL    HW228554   2.880   6.766   0.939
 9219SOL     OW28555   6.921   2.570   1.722
 9219SOL    HW128556   6.894   2.480   1.756
 9219SOL    HW228557   7.018   2.570   1.699
 9220SOL     OW28558   1.777   6.550   0.592
 9220SOL    HW128559   1.848   6.615   0.619
 9220SOL    HW228560   1.806   6.457   0.614
 9221SOL     OW28561   2.784   1.237   4.325
 9221SOL    HW128562   2.692   1.240   4.288
 9221SOL    HW228563   2.807   1.143   4.351
 9222SOL     OW28564   2.305   6.922   6.446
 9222SOL    HW128565   2.210   6.899   6.424
 9222SOL    HW228566   2.324   7.016   6.417
 9223SOL     OW28567   1.777   1.312   3.856
 9223SOL    HW128568   1.769   1.213   3.867
 9223SOL    HW228569   1.759   1.357   3.944
 9224SOL     OW28570   2.085   5.147   5.054
 9224SOL    HW128571   2.177   5.164   5.091
 9224SOL    HW228572   2.020   5.140   5.130
 9225SOL     OW28573   3.636   6.493   6.327
 9225SOL    HW128574   3.653   6.584   6.291
 9225SOL    HW228575   3.713   6.465   6.385
 9226SOL     OW28576   5.450   6.916   1.691
 9226SOL    HW128577   5.371   6.858   1.676
 9226SOL    HW228578   5.456   6.942   1.788
 9227SOL     OW28579   1.069   5.029   1.140
 9227SOL    HW128580   1.084   5.030   1.239
 9227SOL    HW228581   1.023   4.944   1.113
 9228SOL     OW28582   1.735   1.071   5.797
 9228SOL    HW128583   1.655   1.032   5.842
 9228SOL    HW228584   1.778   1.138   5.857
 9229SOL     OW28585   1.246   5.147   4.853
 9229SOL    HW128586   1.274   5.198   4.772
 9229SOL    HW228587   1.235   5.051   4.830
 9230SOL     OW28588   5.622   1.227   3.293
 9230SOL    HW128589   5.653   1.321   3.305
 9230SOL    HW228590   5.643   1.174   3.374
 9231SOL     OW28591   1.077   4.691   4.655
 9231SOL    HW128592   1.143   4.668   4.726
 9231SOL    HW228593   1.012   4.615   4.644
 9232SOL     OW28594   3.566   5.273   6.943
 9232SOL    HW128595   3.595   5.178   6.955
 9232SOL    HW228596   3.596   5.327   7.022
 9233SOL     OW28597   5.646   4.991   1.840
 9233SOL    HW128598   5.646   5.050   1.921
 9233SOL    HW228599   5.658   5.047   1.758
 9234SOL     OW28600   3.447   5.401   5.300
 9234SOL    HW128601   3.493   5.485   5.269
 9234SOL    HW228602   3.512   5.346   5.352
 9235SOL     OW28603   0.976   2.762   3.695
 9235SOL    HW128604   1.067   2.778   3.732
 9235SOL    HW228605   0.975   2.678   3.641
 9236SOL     OW28606   3.116   4.178   5.553
 9236SOL    HW128607   3.107   4.230   5.468
 9236SOL    HW228608   3.179   4.102   5.538
 9237SOL     OW28609   1.884   5.265   4.925
 9237SOL    HW128610   1.976   5.255   4.962
 9237SOL    HW228611   1.886   5.325   4.845
 9238SOL     OW28612   3.853   1.651   6.412
 9238SOL    HW128613   3.810   1.619   6.496
 9238SOL    HW228614   3.794   1.630   6.334
 9239SOL     OW28615   0.446   4.052   0.444
 9239SOL    HW128616   0.487   4.036   0.534
 9239SOL    HW228617   0.518   4.056   0.375
 9240SOL     OW28618   4.984   1.928   0.460
 9240SOL    HW128619   5.017   2.002   0.519
 9240SOL    HW228620   4.982   1.842   0.512
 9241SOL     OW28621   0.703   5.385   6.145
 9241SOL    HW128622   0.776   5.451   6.124
 9241SOL    HW228623   0.728   5.334   6.227
 9242SOL     OW28624   0.117   5.334   0.397
 9242SOL    HW128625   0.177   5.367   0.470
 9242SOL    HW228626   0.165   5.265   0.343
 9243SOL     OW28627   5.440   6.984   2.562
 9243SOL    HW128628   5.343   7.010   2.569
 9243SOL    HW228629   5.496   0.041   2.555
 9244SOL     OW28630   4.733   5.007   6.079
 9244SOL    HW128631   4.691   5.029   6.167
 9244SOL    HW228632   4.829   4.982   6.094
 9245SOL     OW28633   1.890   5.374   3.642
 9245SOL    HW128634   1.954   5.447   3.617
 9245SOL    HW228635   1.826   5.359   3.567
 9246SOL     OW28636   0.193   4.450   2.989
 9246SOL    HW128637   0.219   4.356   3.011
 9246SOL    HW228638   0.093   4.457   2.986
 9247SOL     OW28639   1.276   0.166   3.572
 9247SOL    HW128640   1.248   0.087   3.517
 9247SOL    HW228641   1.233   0.161   3.662
 9248SOL     OW28642   2.031   2.754   6.112
 9248SOL    HW128643   2.075   2.673   6.073
 9248SOL    HW228644   2.090   2.793   6.183
 9249SOL     OW28645   4.832   3.310   6.435
 9249SOL    HW128646   4.889   3.240   6.478
 9249SOL    HW228647   4.746   3.318   6.484
 9250SOL     OW28648   5.382   3.350   4.911
 9250SOL    HW128649   5.352   3.258   4.938
 9250SOL    HW228650   5.476   3.345   4.876
 9251SOL     OW28651   3.979   2.130   3.078
 9251SOL    HW128652   4.031   2.064   3.023
 9251SOL    HW228653   3.893   2.088   3.107
 9252SOL     OW28654   6.151   0.199   3.826
 9252SOL    HW128655   6.201   0.226   3.908
 9252SOL    HW228656   6.069   0.255   3.816
 9253SOL     OW28657   5.403   6.332   6.357
 9253SOL    HW128658   5.466   6.265   6.395
 9253SOL    HW228659   5.336   6.358   6.428
 9254SOL     OW28660   6.283   4.287   2.386
 9254SOL    HW128661   6.287   4.208   2.325
 9254SOL    HW228662   6.196   4.288   2.435
 9255SOL     OW28663   5.029   3.765   0.547
 9255SOL    HW128664   5.076   3.845   0.510
 9255SOL    HW228665   5.054   3.684   0.495
 9256SOL     OW28666   3.973   5.153   3.093
 9256SOL    HW128667   3.940   5.159   2.999
 9256SOL    HW228668   3.988   5.245   3.130
 9257SOL     OW28669   0.824   3.173   2.567
 9257SOL    HW128670   0.770   3.125   2.636
 9257SOL    HW228671   0.846   3.110   2.492
 9258SOL     OW28672   3.895   3.039   3.411
 9258SOL    HW128673   3.835   2.973   3.365
 9258SOL    HW228674   3.971   3.063   3.351
 9259SOL     OW28675   1.595   1.896   0.827
 9259SOL    HW128676   1.522   1.848   0.777
 9259SOL    HW228677   1.649   1.950   0.763
 9260SOL     OW28678   5.013   1.559   5.321
 9260SOL    HW128679   5.023   1.609   5.236
 9260SOL    HW228680   5.098   1.510   5.341
 9261SOL     OW28681   4.865   0.917   6.556
 9261SOL    HW128682   4.808   0.881   6.481
 9261SOL    HW228683   4.860   1.017   6.556
 9262SOL     OW28684   6.810   3.424   5.351
 9262SOL    HW128685   6.858   3.485   5.286
 9262SOL    HW228686   6.765   3.479   5.421
 9263SOL     OW28687   5.991   4.782   1.449
 9263SOL    HW128688   5.990   4.755   1.353
 9263SOL    HW228689   5.981   4.701   1.506
 9264SOL     OW28690   5.484   4.404   0.424
 9264SOL    HW128691   5.498   4.433   0.519
 9264SOL    HW228692   5.399   4.352   0.417
 9265SOL     OW28693   2.579   1.583   0.356
 9265SOL    HW128694   2.641   1.548   0.426
 9265SOL    HW228695   2.624   1.655   0.304
 9266SOL     OW28696   2.084   6.341   2.467
 9266SOL    HW128697   2.111   6.250   2.497
 9266SOL    HW228698   2.046   6.337   2.374
 9267SOL     OW28699   6.883   4.441   5.784
 9267SOL    HW128700   6.932   4.528   5.793
 9267SOL    HW228701   6.813   4.449   5.713
 9268SOL     OW28702   1.526   5.632   0.829
 9268SOL    HW128703   1.480   5.595   0.749
 9268SOL    HW228704   1.619   5.596   0.834
 9269SOL     OW28705   3.288   2.724   6.072
 9269SOL    HW128706   3.237   2.662   6.012
 9269SOL    HW228707   3.229   2.802   6.096
 9270SOL     OW28708   5.209   0.147   5.884
 9270SOL    HW128709   5.200   0.246   5.890
 9270SOL    HW228710   5.185   0.105   5.971
 9271SOL     OW28711   1.572   4.930   6.347
 9271SOL    HW128712   1.652   4.989   6.356
 9271SOL    HW228713   1.518   4.959   6.268
 9272SOL     OW28714   2.138   5.580   5.487
 9272SOL    HW128715   2.105   5.561   5.579
 9272SOL    HW228716   2.107   5.670   5.457
 9273SOL     OW28717   5.621   6.128   3.925
 9273SOL    HW128718   5.651   6.199   3.862
 9273SOL    HW228719   5.699   6.070   3.950
 9274SOL     OW28720   6.603   3.112   0.131
 9274SOL    HW128721   6.553   3.198   0.146
 9274SOL    HW228722   6.565   3.065   0.051
 9275SOL     OW28723   0.367   2.233   6.824
 9275SOL    HW128724   0.292   2.175   6.793
 9275SOL    HW228725   0.445   2.176   6.850
 9276SOL     OW28726   2.828   4.737   4.117
 9276SOL    HW128727   2.802   4.710   4.024
 9276SOL    HW228728   2.750   4.724   4.179
 9277SOL     OW28729   4.525   3.464   0.547
 9277SOL    HW128730   4.589   3.434   0.477
 9277SOL    HW228731   4.550   3.555   0.579
 9278SOL     OW28732   1.760   0.741   4.466
 9278SOL    HW128733   1.687   0.721   4.531
 9278SOL    HW228734   1.849   0.736   4.512
 9279SOL     OW28735   4.171   0.543   1.431
 9279SOL    HW128736   4.244   0.478   1.413
 9279SOL    HW228737   4.130   0.524   1.521
 9280SOL     OW28738   1.506   0.446   2.911
 9280SOL    HW128739   1.429   0.395   2.950
 9280SOL    HW228740   1.551   0.499   2.982
 9281SOL     OW28741   3.361   4.293   1.695
 9281SOL    HW128742   3.374   4.196   1.675
 9281SOL    HW228743   3.267   4.319   1.674
 9282SOL     OW28744   4.683   2.071   4.748
 9282SOL    HW128745   4.762   2.114   4.792
 9282SOL    HW228746   4.713   1.989   4.700
 9283SOL     OW28747   5.560   0.784   3.329
 9283SOL    HW128748   5.462   0.779   3.312
 9283SOL    HW228749   5.593   0.695   3.361
 9284SOL     OW28750   3.618   5.127   6.024
 9284SOL    HW128751   3.595   5.155   5.931
 9284SOL    HW228752   3.629   5.208   6.081
 9285SOL     OW28753   4.796   2.890   0.499
 9285SOL    HW128754   4.761   2.983   0.510
 9285SOL    HW228755   4.810   2.849   0.589
 9286SOL     OW28756   5.446   0.048   6.106
 9286SOL    HW128757   5.352   0.080   6.120
 9286SOL    HW228758   5.509   0.111   6.151
 9287SOL     OW28759   3.067   5.367   0.352
 9287SOL    HW128760   3.023   5.406   0.433
 9287SOL    HW228761   2.998   5.320   0.296
 9288SOL     OW28762   2.864   1.236   5.119
 9288SOL    HW128763   2.841   1.272   5.209
 9288SOL    HW228764   2.878   1.137   5.125
 9289SOL     OW28765   3.839   1.817   2.456
 9289SOL    HW128766   3.802   1.907   2.431
 9289SOL    HW228767   3.765   1.751   2.460
 9290SOL     OW28768   5.144   1.588   3.774
 9290SOL    HW128769   5.219   1.572   3.711
 9290SOL    HW228770   5.057   1.568   3.729
 9291SOL     OW28771   2.605   0.045   5.548
 9291SOL    HW128772   2.694   0.034   5.504
 9291SOL    HW228773   2.532   0.032   5.481
 9292SOL     OW28774   0.044   3.294   6.202
 9292SOL    HW128775   0.039   3.263   6.107
 9292SOL    HW228776   0.092   3.226   6.257
 9293SOL     OW28777   5.959   3.884   0.631
 9293SOL    HW128778   5.936   3.968   0.680
 9293SOL    HW228779   6.057   3.885   0.609
 9294SOL     OW28780   3.449   6.647   5.652
 9294SOL    HW128781   3.471   6.716   5.583
 9294SOL    HW228782   3.482   6.678   5.741
 9295SOL     OW28783   5.727   2.270   4.133
 9295SOL    HW128784   5.693   2.200   4.070
 9295SOL    HW228785   5.791   2.228   4.197
 9296SOL     OW28786   0.475   6.067   6.560
 9296SOL    HW128787   0.528   6.063   6.476
 9296SOL    HW228788   0.431   6.157   6.567
 9297SOL     OW28789   6.823   0.702   0.830
 9297SOL    HW128790   6.734   0.710   0.785
 9297SOL    HW228791   6.892   0.749   0.775
 9298SOL     OW28792   1.291   0.316   5.197
 9298SOL    HW128793   1.278   0.271   5.109
 9298SOL    HW228794   1.322   0.249   5.265
 9299SOL     OW28795   0.920   2.777   4.403
 9299SOL    HW128796   0.821   2.787   4.390
 9299SOL    HW228797   0.942   2.786   4.500
 9300SOL     OW28798   0.055   4.839   5.078
 9300SOL    HW128799   6.997   4.788   5.103
 9300SOL    HW228800   0.069   4.914   5.142
 9301SOL     OW28801   4.835   4.237   3.667
 9301SOL    HW128802   4.911   4.171   3.672
 9301SOL    HW228803   4.784   4.222   3.582
 9302SOL     OW28804   2.047   3.030   4.177
 9302SOL    HW128805   2.041   3.074   4.266
 9302SOL    HW228806   1.958   2.992   4.151
 9303SOL     OW28807   3.803   6.225   0.722
 9303SOL    HW128808   3.816   6.307   0.778
 9303SOL    HW228809   3.778   6.148   0.780
 9304SOL     OW28810   4.765   4.205   0.697
 9304SOL    HW128811   4.855   4.171   0.725
 9304SOL    HW228812   4.719   4.246   0.776
 9305SOL     OW28813   3.763   1.761   2.064
 9305SOL    HW128814   3.708   1.753   2.147
 9305SOL    HW228815   3.837   1.826   2.079
 9306SOL     OW28816   0.612   4.465   4.916
 9306SOL    HW128817   0.552   4.401   4.965
 9306SOL    HW228818   0.562   4.550   4.898
 9307SOL     OW28819   1.154   3.198   1.986
 9307SOL    HW128820   1.225   3.202   2.056
 9307SOL    HW228821   1.167   3.274   1.922
 9308SOL     OW28822   1.168   3.732   0.881
 9308SOL    HW128823   1.104   3.801   0.914
 9308SOL    HW228824   1.251   3.734   0.937
 9309SOL     OW28825   3.484   4.979   5.407
 9309SOL    HW128826   3.465   4.911   5.477
 9309SOL    HW228827   3.409   5.045   5.403
 9310SOL     OW28828   4.626   5.454   6.321
 9310SOL    HW128829   4.576   5.380   6.366
 9310SOL    HW228830   4.693   5.416   6.258
 9311SOL     OW28831   5.383   4.757   2.001
 9311SOL    HW128832   5.344   4.665   2.001
 9311SOL    HW228833   5.380   4.794   2.094
 9312SOL     OW28834   1.220   3.804   1.648
 9312SOL    HW128835   1.165   3.883   1.677
 9312SOL    HW228836   1.254   3.756   1.728
 9313SOL     OW28837   0.012   0.765   0.621
 9313SOL    HW128838   0.058   0.690   0.669
 9313SOL    HW228839   7.006   0.733   0.532
 9314SOL     OW28840   4.302   5.652   6.279
 9314SOL    HW128841   4.226   5.717   6.273
 9314SOL    HW228842   4.382   5.691   6.233
 9315SOL     OW28843   6.722   0.687   5.136
 9315SOL    HW128844   6.797   0.714   5.075
 9315SOL    HW228845   6.725   0.588   5.151
 9316SOL     OW28846   3.801   5.575   5.631
 9316SOL    HW128847   3.715   5.539   5.667
 9316SOL    HW228848   3.782   5.631   5.550
 9317SOL     OW28849   6.537   5.603   3.149
 9317SOL    HW128850   6.522   5.685   3.203
 9317SOL    HW228851   6.602   5.543   3.196
 9318SOL     OW28852   6.309   0.976   5.004
 9318SOL    HW128853   6.225   0.929   4.980
 9318SOL    HW228854   6.327   0.966   5.102
 9319SOL     OW28855   0.590   2.753   5.886
 9319SOL    HW128856   0.622   2.660   5.905
 9319SOL    HW228857   0.539   2.788   5.964
 9320SOL     OW28858   4.342   1.366   5.999
 9320SOL    HW128859   4.396   1.305   6.058
 9320SOL    HW228860   4.252   1.325   5.982
 9321SOL     OW28861   6.348   0.066   2.569
 9321SOL    HW128862   6.265   0.099   2.613
 9321SOL    HW228863   6.416   0.139   2.568
 9322SOL     OW28864   0.187   5.318   6.827
 9322SOL    HW128865   0.254   5.246   6.814
 9322SOL    HW228866   0.101   5.291   6.784
 9323SOL     OW28867   1.662   0.150   5.218
 9323SOL    HW128868   1.596   0.195   5.279
 9323SOL    HW228869   1.711   0.220   5.165
 9324SOL     OW28870   2.290   5.202   0.273
 9324SOL    HW128871   2.300   5.105   0.249
 9324SOL    HW228872   2.368   5.231   0.329
 9325SOL     OW28873   4.965   1.548   6.983
 9325SOL    HW128874   4.878   1.582   7.018
 9325SOL    HW228875   5.009   1.619   6.928
 9326SOL     OW28876   2.107   6.780   1.003
 9326SOL    HW128877   2.016   6.758   0.967
 9326SOL    HW228878   2.132   6.711   1.072
 9327SOL     OW28879   5.054   6.967   2.460
 9327SOL    HW128880   5.064   6.955   2.361
 9327SOL    HW228881   5.046   6.877   2.504
 9328SOL     OW28882   3.390   1.121   6.154
 9328SOL    HW128883   3.345   1.122   6.065
 9328SOL    HW228884   3.329   1.082   6.222
 9329SOL     OW28885   6.701   4.094   2.020
 9329SOL    HW128886   6.745   4.181   2.039
 9329SOL    HW228887   6.700   4.078   1.921
 9330SOL     OW28888   0.500   6.300   0.039
 9330SOL    HW128889   0.595   6.298   0.070
 9330SOL    HW228890   0.443   6.253   0.107
 9331SOL     OW28891   1.525   1.890   5.775
 9331SOL    HW128892   1.451   1.957   5.771
 9331SOL    HW228893   1.601   1.927   5.829
 9332SOL     OW28894   3.557   4.136   2.681
 9332SOL    HW128895   3.642   4.135   2.627
 9332SOL    HW228896   3.580   4.141   2.778
 9333SOL     OW28897   4.331   3.963   1.350
 9333SOL    HW128898   4.270   4.007   1.284
 9333SOL    HW228899   4.409   4.023   1.369
 9334SOL     OW28900   4.341   6.464   3.794
 9334SOL    HW128901   4.305   6.481   3.886
 9334SOL    HW228902   4.376   6.549   3.756
 9335SOL     OW28903   1.048   1.547   5.808
 9335SOL    HW128904   1.039   1.574   5.712
 9335SOL    HW228905   1.140   1.510   5.824
 9336SOL     OW28906   3.534   5.185   5.774
 9336SOL    HW128907   3.592   5.209   5.696
 9336SOL    HW228908   3.493   5.095   5.759
 9337SOL     OW28909   4.905   0.824   3.461
 9337SOL    HW128910   4.910   0.787   3.553
 9337SOL    HW228911   4.810   0.848   3.439
 9338SOL     OW28912   3.940   0.442   1.990
 9338SOL    HW128913   4.020   0.385   2.010
 9338SOL    HW228914   3.876   0.390   1.933
 9339SOL     OW28915   5.157   7.021   0.918
 9339SOL    HW128916   5.170   6.968   0.835
 9339SOL    HW228917   5.134   6.959   0.994
 9340SOL     OW28918   5.566   3.955   5.047
 9340SOL    HW128919   5.614   3.962   4.960
 9340SOL    HW228920   5.568   3.860   5.079
 9341SOL     OW28921   0.332   5.868   6.688
 9341SOL    HW128922   0.364   5.948   6.638
 9341SOL    HW228923   0.256   5.825   6.639
 9342SOL     OW28924   2.140   0.892   3.560
 9342SOL    HW128925   2.215   0.837   3.595
 9342SOL    HW228926   2.105   0.851   3.475
 9343SOL     OW28927   5.985   4.418   3.119
 9343SOL    HW128928   6.054   4.346   3.125
 9343SOL    HW228929   5.909   4.386   3.061
 9344SOL     OW28930   4.734   6.090   1.556
 9344SOL    HW128931   4.795   6.033   1.501
 9344SOL    HW228932   4.775   6.105   1.646
 9345SOL     OW28933   6.463   3.748   2.165
 9345SOL    HW128934   6.396   3.722   2.234
 9345SOL    HW228935   6.554   3.755   2.206
 9346SOL     OW28936   6.316   0.583   0.798
 9346SOL    HW128937   6.339   0.502   0.851
 9346SOL    HW228938   6.244   0.635   0.844
 9347SOL     OW28939   1.072   5.239   0.933
 9347SOL    HW128940   1.096   5.171   1.003
 9347SOL    HW228941   1.073   5.196   0.843
 9348SOL     OW28942   3.702   5.559   1.892
 9348SOL    HW128943   3.613   5.548   1.937
 9348SOL    HW228944   3.704   5.504   1.809
 9349SOL     OW28945   0.947   6.448   2.286
 9349SOL    HW128946   0.963   6.366   2.342
 9349SOL    HW228947   0.912   6.421   2.197
 9350SOL     OW28948   0.717   3.495   5.354
 9350SOL    HW128949   0.670   3.477   5.441
 9350SOL    HW228950   0.715   3.414   5.297
 9351SOL     OW28951   3.200   1.362   6.215
 9351SOL    HW128952   3.231   1.406   6.300
 9351SOL    HW228953   3.257   1.283   6.196
 9352SOL     OW28954   2.595   2.539   0.355
 9352SOL    HW128955   2.570   2.634   0.373
 9352SOL    HW228956   2.688   2.523   0.386
 9353SOL     OW28957   0.651   5.319   1.384
 9353SOL    HW128958   0.679   5.271   1.300
 9353SOL    HW228959   0.694   5.409   1.388
 9354SOL     OW28960   6.571   2.326   6.913
 9354SOL    HW128961   6.589   2.359   6.820
 9354SOL    HW228962   6.540   2.231   6.909
 9355SOL     OW28963   0.381   2.372   5.004
 9355SOL    HW128964   0.438   2.307   4.955
 9355SOL    HW228965   0.401   2.368   5.102
 9356SOL     OW28966   3.759   0.256   1.030
 9356SOL    HW128967   3.756   0.292   1.124
 9356SOL    HW228968   3.758   0.156   1.033
 9357SOL     OW28969   1.099   3.470   6.029
 9357SOL    HW128970   1.192   3.464   6.065
 9357SOL    HW228971   1.096   3.429   5.937
 9358SOL     OW28972   7.021   4.080   2.097
 9358SOL    HW128973   7.023   4.033   2.185
 9358SOL    HW228974   6.999   4.177   2.111
 9359SOL     OW28975   1.870   4.194   6.329
 9359SOL    HW128976   1.937   4.266   6.312
 9359SOL    HW228977   1.835   4.203   6.422
 9360SOL     OW28978   1.404   6.024   6.303
 9360SOL    HW128979   1.394   6.025   6.402
 9360SOL    HW228980   1.433   5.934   6.273
 9361SOL     OW28981   2.049   5.461   3.056
 9361SOL    HW128982   1.972   5.460   2.992
 9361SOL    HW228983   2.082   5.555   3.068
 9362SOL     OW28984   1.570   1.689   2.346
 9362SOL    HW128985   1.598   1.671   2.440
 9362SOL    HW228986   1.475   1.719   2.345
 9363SOL     OW28987   3.448   5.480   1.541
 9363SOL    HW128988   3.351   5.456   1.544
 9363SOL    HW228989   3.465   5.537   1.461
 9364SOL     OW28990   2.360   1.717   1.392
 9364SOL    HW128991   2.394   1.660   1.466
 9364SOL    HW228992   2.262   1.734   1.405
 9365SOL     OW28993   2.944   2.286   3.685
 9365SOL    HW128994   2.875   2.318   3.750
 9365SOL    HW228995   3.020   2.244   3.735
 9366SOL     OW28996   3.111   6.043   0.272
 9366SOL    HW128997   3.200   6.082   0.296
 9366SOL    HW228998   3.123   5.954   0.228
 9367SOL     OW28999   6.094   6.994   1.185
 9367SOL    HW129000   6.127   6.972   1.093
 9367SOL    HW229001   5.995   6.998   1.185
 9368SOL     OW29002   3.699   6.875   2.552
 9368SOL    HW129003   3.788   6.916   2.533
 9368SOL    HW229004   3.634   6.903   2.482
 9369SOL     OW29005   0.384   5.939   4.996
 9369SOL    HW129006   0.366   5.909   5.090
 9369SOL    HW229007   0.360   6.036   4.987
 9370SOL     OW29008   5.137   1.229   3.475
 9370SOL    HW129009   5.193   1.287   3.416
 9370SOL    HW229010   5.084   1.286   3.538
 9371SOL     OW29011   2.999   5.613   1.138
 9371SOL    HW129012   2.980   5.709   1.118
 9371SOL    HW229013   3.090   5.590   1.103
 9372SOL     OW29014   4.090   6.761   1.886
 9372SOL    HW129015   4.142   6.737   1.804
 9372SOL    HW229016   3.999   6.792   1.859
 9373SOL     OW29017   6.127   2.705   0.494
 9373SOL    HW129018   6.134   2.685   0.396
 9373SOL    HW229019   6.061   2.643   0.536
 9374SOL     OW29020   0.453   3.753   6.090
 9374SOL    HW129021   0.514   3.685   6.130
 9374SOL    HW229022   0.486   3.845   6.113
 9375SOL     OW29023   0.017   1.741   0.667
 9375SOL    HW129024   0.097   1.684   0.686
 9375SOL    HW229025   6.985   1.748   0.749
 9376SOL     OW29026   2.095   3.231   2.025
 9376SOL    HW129027   2.109   3.212   1.928
 9376SOL    HW229028   2.136   3.319   2.049
 9377SOL     OW29029   2.998   5.381   2.948
 9377SOL    HW129030   3.012   5.430   3.034
 9377SOL    HW229031   2.932   5.307   2.962
 9378SOL     OW29032   3.503   1.315   3.936
 9378SOL    HW129033   3.577   1.354   3.881
 9378SOL    HW229034   3.432   1.278   3.876
 9379SOL     OW29035   4.649   0.329   4.701
 9379SOL    HW129036   4.685   0.244   4.663
 9379SOL    HW229037   4.709   0.359   4.775
 9380SOL     OW29038   3.515   5.846   5.826
 9380SOL    HW129039   3.418   5.825   5.814
 9380SOL    HW229040   3.566   5.813   5.746
 9381SOL     OW29041   5.366   2.097   4.274
 9381SOL    HW129042   5.324   2.010   4.299
 9381SOL    HW229043   5.393   2.146   4.357
 9382SOL     OW29044   4.249   0.714   4.480
 9382SOL    HW129045   4.321   0.737   4.545
 9382SOL    HW229046   4.291   0.682   4.395
 9383SOL     OW29047   4.613   4.323   4.093
 9383SOL    HW129048   4.688   4.269   4.131
 9383SOL    HW229049   4.624   4.332   3.994
 9384SOL     OW29050   2.317   6.978   1.922
 9384SOL    HW129051   2.297   0.051   1.931
 9384SOL    HW229052   2.311   6.935   2.012
 9385SOL     OW29053   3.909   1.904   4.337
 9385SOL    HW129054   4.002   1.940   4.326
 9385SOL    HW229055   3.879   1.861   4.252
 9386SOL     OW29056   3.332   6.107   5.415
 9386SOL    HW129057   3.365   6.022   5.456
 9386SOL    HW229058   3.329   6.097   5.316
 9387SOL     OW29059   3.611   2.091   0.068
 9387SOL    HW129060   3.523   2.045   0.077
 9387SOL    HW229061   3.650   2.108   0.159
 9388SOL     OW29062   1.613   6.360   4.179
 9388SOL    HW129063   1.622   6.328   4.085
 9388SOL    HW229064   1.684   6.428   4.199
 9389SOL     OW29065   2.962   5.465   2.154
 9389SOL    HW129066   2.910   5.507   2.229
 9389SOL    HW229067   2.966   5.366   2.168
 9390SOL     OW29068   5.547   4.656   5.752
 9390SOL    HW129069   5.634   4.696   5.723
 9390SOL    HW229070   5.539   4.663   5.852
 9391SOL     OW29071   0.504   0.312   5.004
 9391SOL    HW129072   0.449   0.373   5.062
 9391SOL    HW229073   0.552   0.246   5.061
 9392SOL     OW29074   4.851   4.485   3.659
 9392SOL    HW129075   4.840   4.386   3.671
 9392SOL    HW229076   4.798   4.515   3.579
 9393SOL     OW29077   3.362   6.116   6.210
 9393SOL    HW129078   3.326   6.209   6.202
 9393SOL    HW229079   3.450   6.118   6.259
 9394SOL     OW29080   5.160   0.858   1.417
 9394SOL    HW129081   5.191   0.952   1.404
 9394SOL    HW229082   5.109   0.851   1.503
 9395SOL     OW29083   2.364   1.791   0.702
 9395SOL    HW129084   2.360   1.778   0.801
 9395SOL    HW229085   2.306   1.868   0.676
 9396SOL     OW29086   1.864   5.953   5.748
 9396SOL    HW129087   1.766   5.962   5.765
 9396SOL    HW229088   1.915   5.972   5.832
 9397SOL     OW29089   3.405   6.587   6.334
 9397SOL    HW129090   3.396   6.667   6.394
 9397SOL    HW229091   3.495   6.545   6.347
 9398SOL     OW29092   6.142   1.435   6.238
 9398SOL    HW129093   6.094   1.422   6.325
 9398SOL    HW229094   6.098   1.380   6.167
 9399SOL     OW29095   1.165   2.446   3.829
 9399SOL    HW129096   1.194   2.436   3.925
 9399SOL    HW229097   1.208   2.374   3.774
 9400SOL     OW29098   4.998   1.660   0.511
 9400SOL    HW129099   4.927   1.626   0.450
 9400SOL    HW229100   5.078   1.687   0.458
 9401SOL     OW29101   0.302   3.120   2.066
 9401SOL    HW129102   0.396   3.089   2.079
 9401SOL    HW229103   0.249   3.048   2.022
 9402SOL     OW29104   1.940   5.677   3.771
 9402SOL    HW129105   1.952   5.774   3.793
 9402SOL    HW229106   1.998   5.622   3.831
 9403SOL     OW29107   6.879   1.122   2.177
 9403SOL    HW129108   6.886   1.155   2.271
 9403SOL    HW229109   6.890   1.023   2.175
 9404SOL     OW29110   0.936   3.043   1.379
 9404SOL    HW129111   0.952   3.141   1.361
 9404SOL    HW229112   0.843   3.030   1.414
 9405SOL     OW29113   0.298   4.851   4.861
 9405SOL    HW129114   0.241   4.773   4.838
 9405SOL    HW229115   0.263   4.934   4.817
 9406SOL     OW29116   0.647   2.968   6.476
 9406SOL    HW129117   0.552   2.961   6.507
 9406SOL    HW229118   0.675   2.881   6.437
 9407SOL     OW29119   2.897   5.129   5.015
 9407SOL    HW129120   2.856   5.039   5.030
 9407SOL    HW229121   2.850   5.175   4.940
 9408SOL     OW29122   6.730   3.512   5.638
 9408SOL    HW129123   6.652   3.453   5.621
 9408SOL    HW229124   6.700   3.599   5.678
 9409SOL     OW29125   6.468   5.977   2.469
 9409SOL    HW129126   6.532   5.912   2.512
 9409SOL    HW229127   6.517   6.032   2.401
 9410SOL     OW29128   4.795   0.784   1.830
 9410SOL    HW129129   4.856   0.804   1.906
 9410SOL    HW229130   4.722   0.722   1.861
 9411SOL     OW29131   3.367   3.230   3.554
 9411SOL    HW129132   3.414   3.144   3.572
 9411SOL    HW229133   3.371   3.289   3.635
 9412SOL     OW29134   0.512   0.611   0.964
 9412SOL    HW129135   0.479   0.517   0.961
 9412SOL    HW229136   0.473   0.659   1.043
 9413SOL     OW29137   4.402   5.009   4.689
 9413SOL    HW129138   4.317   4.956   4.693
 9413SOL    HW229139   4.471   4.957   4.638
 9414SOL     OW29140   2.324   2.513   4.954
 9414SOL    HW129141   2.334   2.603   4.910
 9414SOL    HW229142   2.324   2.442   4.884
 9415SOL     OW29143   3.313   0.533   2.157
 9415SOL    HW129144   3.404   0.566   2.131
 9415SOL    HW229145   3.244   0.576   2.098
 9416SOL     OW29146   0.589   6.977   5.971
 9416SOL    HW129147   0.523   6.929   5.913
 9416SOL    HW229148   0.604   6.925   6.055
 9417SOL     OW29149   3.652   6.402   1.384
 9417SOL    HW129150   3.700   6.370   1.302
 9417SOL    HW229151   3.554   6.405   1.367
 9418SOL     OW29152   3.090   1.939   3.992
 9418SOL    HW129153   3.072   2.027   3.948
 9418SOL    HW229154   3.111   1.954   4.088
 9419SOL     OW29155   2.806   2.587   6.555
 9419SOL    HW129156   2.818   2.631   6.466
 9419SOL    HW229157   2.887   2.531   6.575
 9420SOL     OW29158   5.578   4.274   0.189
 9420SOL    HW129159   5.631   4.303   0.109
 9420SOL    HW229160   5.603   4.330   0.267
 9421SOL     OW29161   3.942   6.281   5.013
 9421SOL    HW129162   4.019   6.300   5.074
 9421SOL    HW229163   3.913   6.365   4.968
 9422SOL     OW29164   2.803   5.756   4.502
 9422SOL    HW129165   2.815   5.843   4.550
 9422SOL    HW229166   2.858   5.685   4.546
 9423SOL     OW29167   3.979   5.788   3.408
 9423SOL    HW129168   4.036   5.763   3.486
 9423SOL    HW229169   4.022   5.756   3.324
 9424SOL     OW29170   5.398   1.486   4.435
 9424SOL    HW129171   5.397   1.577   4.476
 9424SOL    HW229172   5.321   1.433   4.470
 9425SOL     OW29173   6.037   4.543   1.597
 9425SOL    HW129174   6.086   4.569   1.680
 9425SOL    HW229175   6.042   4.444   1.585
 9426SOL     OW29176   0.732   2.349   6.261
 9426SOL    HW129177   0.783   2.407   6.323
 9426SOL    HW229178   0.636   2.345   6.290
 9427SOL     OW29179   3.169   5.652   3.001
 9427SOL    HW129180   3.254   5.608   2.974
 9427SOL    HW229181   3.175   5.680   3.097
 9428SOL     OW29182   6.333   6.233   6.857
 9428SOL    HW129183   6.423   6.276   6.859
 9428SOL    HW229184   6.343   6.134   6.866
 9429SOL     OW29185   1.464   2.651   3.963
 9429SOL    HW129186   1.370   2.618   3.949
 9429SOL    HW229187   1.526   2.573   3.964
 9430SOL     OW29188   0.644   2.085   4.161
 9430SOL    HW129189   0.599   2.024   4.095
 9430SOL    HW229190   0.681   2.164   4.113
 9431SOL     OW29191   0.124   4.167   0.677
 9431SOL    HW129192   0.042   4.215   0.646
 9431SOL    HW229193   0.117   4.148   0.775
 9432SOL     OW29194   6.992   1.358   3.585
 9432SOL    HW129195   7.014   1.329   3.492
 9432SOL    HW229196   6.922   1.297   3.624
 9433SOL     OW29197   3.998   5.796   3.057
 9433SOL    HW129198   3.899   5.806   3.052
 9433SOL    HW229199   4.036   5.793   2.965
 9434SOL     OW29200   5.510   5.590   4.045
 9434SOL    HW129201   5.579   5.591   3.973
 9434SOL    HW229202   5.456   5.506   4.039
 9435SOL     OW29203   0.764   2.716   2.360
 9435SOL    HW129204   0.780   2.807   2.323
 9435SOL    HW229205   0.825   2.701   2.438
 9436SOL     OW29206   0.415   0.951   2.469
 9436SOL    HW129207   0.363   1.029   2.433
 9436SOL    HW229208   0.447   0.895   2.393
 9437SOL     OW29209   0.024   5.134   3.808
 9437SOL    HW129210   6.974   5.194   3.835
 9437SOL    HW229211   0.110   5.170   3.844
 9438SOL     OW29212   2.119   6.181   1.887
 9438SOL    HW129213   2.159   6.271   1.868
 9438SOL    HW229214   2.189   6.110   1.872
 9439SOL     OW29215   1.285   3.180   0.238
 9439SOL    HW129216   1.363   3.218   0.287
 9439SOL    HW229217   1.201   3.203   0.287
 9440SOL     OW29218   3.295   5.030   3.435
 9440SOL    HW129219   3.389   5.008   3.460
 9440SOL    HW229220   3.232   4.975   3.491
 9441SOL     OW29221   6.748   5.709   4.578
 9441SOL    HW129222   6.720   5.637   4.641
 9441SOL    HW229223   6.717   5.687   4.486
 9442SOL     OW29224   4.948   3.587   1.227
 9442SOL    HW129225   4.987   3.520   1.290
 9442SOL    HW229226   4.853   3.564   1.207
 9443SOL     OW29227   3.248   5.150   1.806
 9443SOL    HW129228   3.335   5.197   1.818
 9443SOL    HW229229   3.226   5.145   1.709
 9444SOL     OW29230   2.128   3.666   0.372
 9444SOL    HW129231   2.073   3.712   0.441
 9444SOL    HW229232   2.073   3.596   0.326
 9445SOL     OW29233   0.574   1.405   3.686
 9445SOL    HW129234   0.489   1.458   3.677
 9445SOL    HW229235   0.652   1.466   3.677
 9446SOL     OW29236   6.182   4.939   3.787
 9446SOL    HW129237   6.195   4.875   3.711
 9446SOL    HW229238   6.134   5.020   3.754
 9447SOL     OW29239   5.406   5.336   2.629
 9447SOL    HW129240   5.357   5.303   2.549
 9447SOL    HW229241   5.476   5.401   2.601
 9448SOL     OW29242   5.836   6.891   5.951
 9448SOL    HW129243   5.911   6.910   5.887
 9448SOL    HW229244   5.770   6.966   5.948
 9449SOL     OW29245   5.279   0.101   0.514
 9449SOL    HW129246   5.231   0.133   0.432
 9449SOL    HW229247   5.287   0.176   0.579
 9450SOL     OW29248   1.559   5.821   4.629
 9450SOL    HW129249   1.649   5.834   4.587
 9450SOL    HW229250   1.569   5.814   4.728
 9451SOL     OW29251   3.818   5.780   5.951
 9451SOL    HW129252   3.728   5.799   5.912
 9451SOL    HW229253   3.878   5.858   5.937
 9452SOL     OW29254   0.716   4.222   0.864
 9452SOL    HW129255   0.790   4.267   0.814
 9452SOL    HW229256   0.640   4.286   0.876
 9453SOL     OW29257   3.643   5.080   3.076
 9453SOL    HW129258   3.716   5.069   3.143
 9453SOL    HW229259   3.630   5.177   3.057
 9454SOL     OW29260   4.638   4.321   0.918
 9454SOL    HW129261   4.647   4.288   1.012
 9454SOL    HW229262   4.641   4.421   0.917
 9455SOL     OW29263   2.861   2.256   2.308
 9455SOL    HW129264   2.892   2.274   2.215
 9455SOL    HW229265   2.930   2.201   2.356
 9456SOL     OW29266   6.300   3.611   2.356
 9456SOL    HW129267   6.298   3.516   2.388
 9456SOL    HW229268   6.286   3.672   2.434
 9457SOL     OW29269   1.517   4.822   4.240
 9457SOL    HW129270   1.612   4.851   4.228
 9457SOL    HW229271   1.504   4.789   4.333
 9458SOL     OW29272   6.952   4.303   0.540
 9458SOL    HW129273   6.981   4.356   0.460
 9458SOL    HW229274   6.877   4.242   0.514
 9459SOL     OW29275   4.963   4.873   4.902
 9459SOL    HW129276   5.047   4.908   4.860
 9459SOL    HW229277   4.987   4.804   4.970
 9460SOL     OW29278   1.285   3.129   3.740
 9460SOL    HW129279   1.293   3.124   3.840
 9460SOL    HW229280   1.373   3.103   3.699
 9461SOL     OW29281   1.167   2.413   0.843
 9461SOL    HW129282   1.069   2.418   0.827
 9461SOL    HW229283   1.202   2.504   0.866
 9462SOL     OW29284   2.047   2.000   3.912
 9462SOL    HW129285   1.964   1.994   3.967
 9462SOL    HW229286   2.057   2.093   3.876
 9463SOL     OW29287   5.257   6.616   1.253
 9463SOL    HW129288   5.308   6.560   1.188
 9463SOL    HW229289   5.321   6.668   1.310
 9464SOL     OW29290   6.921   0.566   1.769
 9464SOL    HW129291   7.019   0.584   1.783
 9464SOL    HW229292   6.868   0.642   1.805
 9465SOL     OW29293   0.463   3.995   1.068
 9465SOL    HW129294   0.399   3.950   1.131
 9465SOL    HW229295   0.429   4.087   1.046
 9466SOL     OW29296   4.100   5.552   6.510
 9466SOL    HW129297   4.196   5.542   6.539
 9466SOL    HW229298   4.097   5.572   6.412
 9467SOL     OW29299   1.600   2.782   1.101
 9467SOL    HW129300   1.549   2.744   1.178
 9467SOL    HW229301   1.583   2.728   1.019
 9468SOL     OW29302   6.697   4.163   0.142
 9468SOL    HW129303   6.694   4.187   0.239
 9468SOL    HW229304   6.771   4.098   0.126
 9469SOL     OW29305   0.010   6.332   0.505
 9469SOL    HW129306   7.003   6.237   0.512
 9469SOL    HW229307   0.108   6.333   0.483
 9470SOL     OW29308   4.792   3.623   6.952
 9470SOL    HW129309   4.844   3.672   6.882
 9470SOL    HW229310   4.855   3.573   7.011
 9471SOL     OW29311   6.075   2.193   5.385
 9471SOL    HW129312   6.033   2.116   5.433
 9471SOL    HW229313   6.025   2.211   5.300
 9472SOL     OW29314   1.497   4.597   5.829
 9472SOL    HW129315   1.402   4.573   5.848
 9472SOL    HW229316   1.499   4.682   5.776
 9473SOL     OW29317   2.815   4.233   0.202
 9473SOL    HW129318   2.801   4.319   0.154
 9473SOL    HW229319   2.870   4.248   0.284
 9474SOL     OW29320   5.876   3.519   1.842
 9474SOL    HW129321   5.816   3.500   1.920
 9474SOL    HW229322   5.951   3.578   1.872
 9475SOL     OW29323   4.889   3.655   5.588
 9475SOL    HW129324   4.862   3.745   5.553
 9475SOL    HW229325   4.986   3.656   5.611
 9476SOL     OW29326   3.985   4.384   5.699
 9476SOL    HW129327   3.886   4.391   5.689
 9476SOL    HW229328   4.029   4.465   5.659
 9477SOL     OW29329   1.991   3.553   1.831
 9477SOL    HW129330   2.059   3.528   1.900
 9477SOL    HW229331   2.034   3.552   1.740
 9478SOL     OW29332   4.693   2.811   0.792
 9478SOL    HW129333   4.696   2.874   0.870
 9478SOL    HW229334   4.713   2.718   0.823
 9479SOL     OW29335   4.592   0.944   1.380
 9479SOL    HW129336   4.623   1.018   1.321
 9479SOL    HW229337   4.587   0.976   1.474
 9480SOL     OW29338   5.975   5.791   6.945
 9480SOL    HW129339   5.916   5.866   6.974
 9480SOL    HW229340   6.016   5.749   0.001
 9481SOL     OW29341   4.615   1.676   3.440
 9481SOL    HW129342   4.540   1.726   3.396
 9481SOL    HW229343   4.702   1.715   3.413
 9482SOL     OW29344   5.425   1.321   0.925
 9482SOL    HW129345   5.348   1.274   0.968
 9482SOL    HW229346   5.478   1.257   0.870
 9483SOL     OW29347   0.684   0.926   6.806
 9483SOL    HW129348   0.760   0.930   6.740
 9483SOL    HW229349   0.706   0.983   6.885
 9484SOL     OW29350   2.516   6.549   4.701
 9484SOL    HW129351   2.463   6.494   4.766
 9484SOL    HW229352   2.561   6.624   4.750
 9485SOL     OW29353   6.140   1.339   0.593
 9485SOL    HW129354   6.181   1.428   0.574
 9485SOL    HW229355   6.044   1.339   0.565
 9486SOL     OW29356   4.506   5.762   0.591
 9486SOL    HW129357   4.503   5.679   0.647
 9486SOL    HW229358   4.561   5.745   0.509
 9487SOL     OW29359   3.281   3.959   4.290
 9487SOL    HW129360   3.260   4.001   4.378
 9487SOL    HW229361   3.331   3.874   4.304
 9488SOL     OW29362   1.472   1.377   1.340
 9488SOL    HW129363   1.569   1.398   1.354
 9488SOL    HW229364   1.417   1.440   1.395
 9489SOL     OW29365   5.148   4.449   1.212
 9489SOL    HW129366   5.089   4.478   1.136
 9489SOL    HW229367   5.095   4.449   1.297
 9490SOL     OW29368   6.019   5.136   3.692
 9490SOL    HW129369   5.931   5.088   3.691
 9490SOL    HW229370   6.042   5.167   3.600
 9491SOL     OW29371   5.159   6.606   3.905
 9491SOL    HW129372   5.070   6.570   3.876
 9491SOL    HW229373   5.231   6.557   3.857
 9492SOL     OW29374   4.632   2.766   4.926
 9492SOL    HW129375   4.576   2.713   4.990
 9492SOL    HW229376   4.679   2.839   4.975
 9493SOL     OW29377   3.685   6.396   4.328
 9493SOL    HW129378   3.652   6.452   4.404
 9493SOL    HW229379   3.608   6.372   4.270
 9494SOL     OW29380   5.390   2.957   2.058
 9494SOL    HW129381   5.364   3.033   2.118
 9494SOL    HW229382   5.447   2.893   2.108
 9495SOL     OW29383   0.113   0.678   2.135
 9495SOL    HW129384   0.190   0.641   2.187
 9495SOL    HW229385   0.088   0.613   2.062
 9496SOL     OW29386   4.443   2.061   2.234
 9496SOL    HW129387   4.415   2.083   2.141
 9496SOL    HW229388   4.399   2.125   2.298
 9497SOL     OW29389   5.651   5.673   5.217
 9497SOL    HW129390   5.554   5.672   5.240
 9497SOL    HW229391   5.691   5.584   5.236
 9498SOL     OW29392   6.694   4.866   4.527
 9498SOL    HW129393   6.698   4.902   4.620
 9498SOL    HW229394   6.707   4.767   4.530
 9499SOL     OW29395   6.595   5.412   5.089
 9499SOL    HW129396   6.526   5.403   5.018
 9499SOL    HW229397   6.554   5.450   5.172
 9500SOL     OW29398   4.139   0.190   0.961
 9500SOL    HW129399   4.158   0.103   0.915
 9500SOL    HW229400   4.045   0.190   0.996
 9501SOL     OW29401   1.888   1.663   4.369
 9501SOL    HW129402   1.956   1.634   4.301
 9501SOL    HW229403   1.933   1.680   4.456
 9502SOL     OW29404   5.040   4.686   5.089
 9502SOL    HW129405   4.980   4.748   5.139
 9502SOL    HW229406   5.130   4.728   5.079
 9503SOL     OW29407   0.737   2.282   0.248
 9503SOL    HW129408   0.650   2.281   0.198
 9503SOL    HW229409   0.812   2.259   0.185
 9504SOL     OW29410   0.495   4.251   1.667
 9504SOL    HW129411   0.474   4.261   1.570
 9504SOL    HW229412   0.423   4.294   1.721
 9505SOL     OW29413   4.636   5.174   5.788
 9505SOL    HW129414   4.621   5.249   5.852
 9505SOL    HW229415   4.555   5.115   5.786
 9506SOL     OW29416   2.241   2.256   1.148
 9506SOL    HW129417   2.266   2.189   1.218
 9506SOL    HW229418   2.149   2.237   1.115
 9507SOL     OW29419   5.921   0.460   1.168
 9507SOL    HW129420   5.822   0.475   1.169
 9507SOL    HW229421   5.943   0.389   1.101
 9508SOL     OW29422   4.672   1.718   2.138
 9508SOL    HW129423   4.643   1.740   2.231
 9508SOL    HW229424   4.611   1.649   2.100
 9509SOL     OW29425   6.483   0.674   2.748
 9509SOL    HW129426   6.430   0.593   2.772
 9509SOL    HW229427   6.552   0.650   2.679
 9510SOL     OW29428   0.542   3.592   3.574
 9510SOL    HW129429   0.619   3.534   3.549
 9510SOL    HW229430   0.475   3.538   3.624
 9511SOL     OW29431   1.084   0.929   0.772
 9511SOL    HW129432   1.125   1.016   0.798
 9511SOL    HW229433   0.984   0.935   0.784
 9512SOL     OW29434   6.557   3.206   1.082
 9512SOL    HW129435   6.547   3.193   1.181
 9512SOL    HW229436   6.647   3.173   1.053
 9513SOL     OW29437   3.981   4.935   6.296
 9513SOL    HW129438   4.075   4.923   6.328
 9513SOL    HW229439   3.926   4.977   6.368
 9514SOL     OW29440   3.371   3.015   6.872
 9514SOL    HW129441   3.465   3.046   6.864
 9514SOL    HW229442   3.317   3.050   6.795
 9515SOL     OW29443   2.720   5.271   3.974
 9515SOL    HW129444   2.674   5.244   3.890
 9515SOL    HW229445   2.754   5.364   3.965
 9516SOL     OW29446   6.357   4.559   0.470
 9516SOL    HW129447   6.343   4.480   0.411
 9516SOL    HW229448   6.452   4.589   0.462
 9517SOL     OW29449   1.144   4.573   1.297
 9517SOL    HW129450   1.108   4.540   1.209
 9517SOL    HW229451   1.080   4.640   1.335
 9518SOL     OW29452   2.586   1.060   0.559
 9518SOL    HW129453   2.609   1.156   0.575
 9518SOL    HW229454   2.533   1.025   0.636
 9519SOL     OW29455   1.332   2.356   5.341
 9519SOL    HW129456   1.428   2.380   5.354
 9519SOL    HW229457   1.279   2.387   5.419
 9520SOL     OW29458   2.435   0.233   2.828
 9520SOL    HW129459   2.483   0.170   2.766
 9520SOL    HW229460   2.342   0.247   2.795
 9521SOL     OW29461   6.002   6.108   3.914
 9521SOL    HW129462   5.980   6.180   3.980
 9521SOL    HW229463   6.066   6.044   3.955
 9522SOL     OW29464   3.260   5.987   1.117
 9522SOL    HW129465   3.232   5.924   1.045
 9522SOL    HW229466   3.182   6.044   1.144
 9523SOL     OW29467   3.630   5.093   4.230
 9523SOL    HW129468   3.709   5.048   4.271
 9523SOL    HW229469   3.549   5.033   4.239
 9524SOL     OW29470   3.305   2.918   1.204
 9524SOL    HW129471   3.319   2.978   1.283
 9524SOL    HW229472   3.276   2.828   1.236
 9525SOL     OW29473   2.010   1.396   6.263
 9525SOL    HW129474   2.103   1.370   6.236
 9525SOL    HW229475   2.008   1.491   6.292
 9526SOL     OW29476   4.898   6.216   3.240
 9526SOL    HW129477   4.833   6.216   3.316
 9526SOL    HW229478   4.946   6.303   3.237
 9527SOL     OW29479   0.546   0.862   2.090
 9527SOL    HW129480   0.594   0.948   2.075
 9527SOL    HW229481   0.505   0.831   2.004
 9528SOL     OW29482   6.590   6.963   0.927
 9528SOL    HW129483   6.589   7.001   0.834
 9528SOL    HW229484   6.527   7.015   0.985
 9529SOL     OW29485   1.064   3.247   6.353
 9529SOL    HW129486   1.109   3.175   6.299
 9529SOL    HW229487   1.120   3.267   6.434
 9530SOL     OW29488   1.809   2.685   2.652
 9530SOL    HW129489   1.800   2.774   2.607
 9530SOL    HW229490   1.807   2.613   2.583
 9531SOL     OW29491   3.923   6.363   3.229
 9531SOL    HW129492   3.907   6.269   3.200
 9531SOL    HW229493   3.869   6.426   3.174
 9532SOL     OW29494   1.818   6.350   1.017
 9532SOL    HW129495   1.778   6.280   1.078
 9532SOL    HW229496   1.806   6.440   1.058
 9533SOL     OW29497   0.657   1.068   4.999
 9533SOL    HW129498   0.647   1.109   4.908
 9533SOL    HW229499   0.655   0.968   4.991
 9534SOL     OW29500   5.334   1.741   4.562
 9534SOL    HW129501   5.277   1.707   4.636
 9534SOL    HW229502   5.401   1.806   4.599
 9535SOL     OW29503   2.836   1.045   5.977
 9535SOL    HW129504   2.904   1.116   5.991
 9535SOL    HW229505   2.832   1.020   5.880
 9536SOL     OW29506   1.927   5.710   5.637
 9536SOL    HW129507   1.914   5.805   5.667
 9536SOL    HW229508   1.840   5.661   5.643
 9537SOL     OW29509   3.382   0.192   2.356
 9537SOL    HW129510   3.306   0.128   2.356
 9537SOL    HW229511   3.443   0.172   2.279
 9538SOL     OW29512   6.327   2.398   4.282
 9538SOL    HW129513   6.416   2.355   4.266
 9538SOL    HW229514   6.338   2.479   4.339
 9539SOL     OW29515   1.413   5.569   6.742
 9539SOL    HW129516   1.367   5.618   6.668
 9539SOL    HW229517   1.362   5.485   6.763
 9540SOL     OW29518   4.510   4.972   5.325
 9540SOL    HW129519   4.565   4.944   5.403
 9540SOL    HW229520   4.435   4.907   5.312
 9541SOL     OW29521   1.764   2.773   4.289
 9541SOL    HW129522   1.744   2.684   4.330
 9541SOL    HW229523   1.736   2.846   4.351
 9542SOL     OW29524   4.901   3.190   4.862
 9542SOL    HW129525   4.872   3.175   4.956
 9542SOL    HW229526   4.906   3.288   4.843
 9543SOL     OW29527   4.481   1.077   3.793
 9543SOL    HW129528   4.575   1.063   3.826
 9543SOL    HW229529   4.442   0.988   3.766
 9544SOL     OW29530   5.511   0.749   2.102
 9544SOL    HW129531   5.514   0.845   2.128
 9544SOL    HW229532   5.594   0.704   2.135
 9545SOL     OW29533   6.477   0.202   3.206
 9545SOL    HW129534   6.517   0.293   3.201
 9545SOL    HW229535   6.456   0.179   3.302
 9546SOL     OW29536   2.802   5.620   6.558
 9546SOL    HW129537   2.813   5.522   6.539
 9546SOL    HW229538   2.745   5.661   6.487
 9547SOL     OW29539   1.286   6.151   4.364
 9547SOL    HW129540   1.339   6.074   4.399
 9547SOL    HW229541   1.226   6.185   4.436
 9548SOL     OW29542   5.985   5.686   4.498
 9548SOL    HW129543   5.970   5.735   4.412
 9548SOL    HW229544   5.898   5.649   4.531
 9549SOL     OW29545   3.285   5.240   0.549
 9549SOL    HW129546   3.285   5.160   0.489
 9549SOL    HW229547   3.232   5.313   0.507
 9550SOL     OW29548   0.640   1.109   0.244
 9550SOL    HW129549   0.562   1.059   0.206
 9550SOL    HW229550   0.707   1.125   0.172
 9551SOL     OW29551   0.344   0.185   4.805
 9551SOL    HW129552   0.388   0.177   4.716
 9551SOL    HW229553   0.398   0.245   4.864
 9552SOL     OW29554   1.506   6.422   3.858
 9552SOL    HW129555   1.564   6.348   3.892
 9552SOL    HW229556   1.462   6.394   3.773
 9553SOL     OW29557   5.718   4.897   6.581
 9553SOL    HW129558   5.672   4.985   6.577
 9553SOL    HW229559   5.682   4.836   6.510
 9554SOL     OW29560   2.573   1.072   2.111
 9554SOL    HW129561   2.604   1.141   2.046
 9554SOL    HW229562   2.577   0.982   2.069
 9555SOL     OW29563   6.671   2.546   0.963
 9555SOL    HW129564   6.657   2.580   1.056
 9555SOL    HW229565   6.583   2.517   0.924
 9556SOL     OW29566   2.228   0.853   1.081
 9556SOL    HW129567   2.173   0.770   1.080
 9556SOL    HW229568   2.175   0.929   1.044
 9557SOL     OW29569   6.002   0.320   2.120
 9557SOL    HW129570   5.912   0.275   2.117
 9557SOL    HW229571   6.051   0.290   2.201
 9558SOL     OW29572   6.492   5.014   3.076
 9558SOL    HW129573   6.398   5.040   3.051
 9558SOL    HW229574   6.521   4.938   3.019
 9559SOL     OW29575   0.004   3.380   2.440
 9559SOL    HW129576   0.069   3.365   2.515
 9559SOL    HW229577   0.050   3.366   2.352
 9560SOL     OW29578   2.631   1.003   3.137
 9560SOL    HW129579   2.565   0.982   3.209
 9560SOL    HW229580   2.718   0.958   3.157
 9561SOL     OW29581   3.829   6.689   0.537
 9561SOL    HW129582   3.775   6.659   0.459
 9561SOL    HW229583   3.913   6.635   0.542
 9562SOL     OW29584   4.627   5.400   2.547
 9562SOL    HW129585   4.702   5.458   2.517
 9562SOL    HW229586   4.570   5.376   2.469
 9563SOL     OW29587   6.794   5.911   6.142
 9563SOL    HW129588   6.789   5.974   6.064
 9563SOL    HW229589   6.704   5.871   6.158
 9564SOL     OW29590   3.216   6.767   6.745
 9564SOL    HW129591   3.182   6.758   6.839
 9564SOL    HW229592   3.263   6.683   6.718
 9565SOL     OW29593   3.719   6.578   4.542
 9565SOL    HW129594   3.680   6.650   4.485
 9565SOL    HW229595   3.812   6.603   4.568
 9566SOL     OW29596   2.909   4.520   5.971
 9566SOL    HW129597   2.933   4.498   5.876
 9566SOL    HW229598   2.926   4.617   5.988
 9567SOL     OW29599   6.460   5.751   6.714
 9567SOL    HW129600   6.542   5.715   6.671
 9567SOL    HW229601   6.423   5.683   6.778
 9568SOL     OW29602   4.953   3.570   6.442
 9568SOL    HW129603   4.882   3.614   6.389
 9568SOL    HW229604   4.933   3.472   6.451
 9569SOL     OW29605   6.493   0.643   0.060
 9569SOL    HW129606   6.521   0.732   0.025
 9569SOL    HW229607   6.539   0.570   0.010
 9570SOL     OW29608   0.524   1.640   0.156
 9570SOL    HW129609   0.586   1.714   0.128
 9570SOL    HW229610   0.479   1.665   0.242
 9571SOL     OW29611   1.699   2.959   6.855
 9571SOL    HW129612   1.797   2.939   6.864
 9571SOL    HW229613   1.647   2.875   6.866
 9572SOL     OW29614   1.380   4.358   1.897
 9572SOL    HW129615   1.378   4.450   1.937
 9572SOL    HW229616   1.441   4.300   1.951
 9573SOL     OW29617   1.838   1.512   6.978
 9573SOL    HW129618   1.889   1.506   6.892
 9573SOL    HW229619   1.742   1.529   6.959
 9574SOL     OW29620   3.567   3.409   5.983
 9574SOL    HW129621   3.522   3.476   6.043
 9574SOL    HW229622   3.498   3.366   5.925
 9575SOL     OW29623   5.145   1.188   1.912
 9575SOL    HW129624   5.073   1.257   1.911
 9575SOL    HW229625   5.107   1.098   1.892
 9576SOL     OW29626   3.429   1.334   4.604
 9576SOL    HW129627   3.401   1.307   4.512
 9576SOL    HW229628   3.510   1.391   4.599
 9577SOL     OW29629   0.916   5.833   2.762
 9577SOL    HW129630   1.000   5.779   2.754
 9577SOL    HW229631   0.919   5.886   2.847
 9578SOL     OW29632   6.626   2.971   2.268
 9578SOL    HW129633   6.562   3.045   2.288
 9578SOL    HW229634   6.591   2.886   2.307
 9579SOL     OW29635   1.433   6.832   2.599
 9579SOL    HW129636   1.432   6.734   2.583
 9579SOL    HW229637   1.493   6.854   2.675
 9580SOL     OW29638   4.575   3.516   0.027
 9580SOL    HW129639   4.657   3.558   7.011
 9580SOL    HW229640   4.511   3.588   0.053
 9581SOL     OW29641   1.011   4.492   6.267
 9581SOL    HW129642   0.956   4.513   6.186
 9581SOL    HW229643   1.102   4.533   6.257
 9582SOL     OW29644   4.048   4.796   4.354
 9582SOL    HW129645   4.079   4.766   4.444
 9582SOL    HW229646   4.119   4.775   4.287
 9583SOL     OW29647   2.113   3.517   2.281
 9583SOL    HW129648   2.186   3.568   2.327
 9583SOL    HW229649   2.137   3.502   2.186
 9584SOL     OW29650   6.022   5.400   0.051
 9584SOL    HW129651   5.990   5.342   7.001
 9584SOL    HW229652   6.083   5.347   0.111
 9585SOL     OW29653   6.022   0.334   3.451
 9585SOL    HW129654   6.018   0.409   3.517
 9585SOL    HW229655   6.035   0.248   3.500
 9586SOL     OW29656   5.540   3.539   3.518
 9586SOL    HW129657   5.452   3.581   3.497
 9586SOL    HW229658   5.525   3.445   3.548
 9587SOL     OW29659   5.151   0.610   2.291
 9587SOL    HW129660   5.060   0.645   2.313
 9587SOL    HW229661   5.217   0.686   2.291
 9588SOL     OW29662   0.380   0.740   1.197
 9588SOL    HW129663   0.288   0.739   1.236
 9588SOL    HW229664   0.391   0.822   1.141
 9589SOL     OW29665   2.598   0.724   6.128
 9589SOL    HW129666   2.584   0.809   6.077
 9589SOL    HW229667   2.640   0.745   6.217
 9590SOL     OW29668   6.857   4.285   3.114
 9590SOL    HW129669   6.897   4.364   3.159
 9590SOL    HW229670   6.774   4.312   3.066
 9591SOL     OW29671   1.601   5.036   0.894
 9591SOL    HW129672   1.645   5.044   0.983
 9591SOL    HW229673   1.637   4.956   0.846
 9592SOL     OW29674   4.383   5.539   2.162
 9592SOL    HW129675   4.410   5.629   2.197
 9592SOL    HW229676   4.386   5.540   2.062
 9593SOL     OW29677   6.988   2.716   4.434
 9593SOL    HW129678   6.992   2.721   4.534
 9593SOL    HW229679   6.926   2.643   4.406
 9594SOL     OW29680   6.618   6.884   2.348
 9594SOL    HW129681   6.598   6.881   2.446
 9594SOL    HW229682   6.694   6.823   2.327
 9595SOL     OW29683   2.035   5.642   4.473
 9595SOL    HW129684   1.984   5.579   4.531
 9595SOL    HW229685   2.121   5.666   4.517
 9596SOL     OW29686   6.067   5.818   5.313
 9596SOL    HW129687   6.067   5.796   5.216
 9596SOL    HW229688   6.157   5.796   5.352
 9597SOL     OW29689   1.750   4.173   1.525
 9597SOL    HW129690   1.722   4.145   1.617
 9597SOL    HW229691   1.686   4.242   1.491
 9598SOL     OW29692   0.156   5.506   6.040
 9598SOL    HW129693   0.188   5.462   6.124
 9598SOL    HW229694   0.062   5.538   6.053
 9599SOL     OW29695   4.602   1.248   5.382
 9599SOL    HW129696   4.540   1.172   5.405
 9599SOL    HW229697   4.674   1.255   5.452
 9600SOL     OW29698   1.524   0.414   6.453
 9600SOL    HW129699   1.487   0.326   6.425
 9600SOL    HW229700   1.455   0.465   6.505
 9601SOL     OW29701   0.368   5.127   5.644
 9601SOL    HW129702   0.459   5.117   5.603
 9601SOL    HW229703   0.363   5.214   5.692
 9602SOL     OW29704   1.138   5.303   6.561
 9602SOL    HW129705   1.070   5.370   6.592
 9602SOL    HW229706   1.222   5.315   6.614
 9603SOL     OW29707   1.883   6.086   4.667
 9603SOL    HW129708   1.837   6.156   4.613
 9603SOL    HW229709   1.833   6.070   4.752
 9604SOL     OW29710   5.864   1.761   6.712
 9604SOL    HW129711   5.943   1.789   6.766
 9604SOL    HW229712   5.827   1.841   6.663
 9605SOL     OW29713   1.952   5.796   6.423
 9605SOL    HW129714   1.978   5.739   6.502
 9605SOL    HW229715   1.917   5.737   6.350
 9606SOL     OW29716   0.056   6.714   4.026
 9606SOL    HW129717   0.026   6.686   4.118
 9606SOL    HW229718   0.117   6.644   3.989
 9607SOL     OW29719   1.252   1.713   1.977
 9607SOL    HW129720   1.340   1.730   1.933
 9607SOL    HW229721   1.268   1.667   2.065
 9608SOL     OW29722   0.831   6.720   2.451
 9608SOL    HW129723   0.788   6.789   2.509
 9608SOL    HW229724   0.771   6.697   2.375
 9609SOL     OW29725   2.023   4.311   4.451
 9609SOL    HW129726   1.955   4.290   4.521
 9609SOL    HW229727   2.001   4.399   4.409
 9610SOL     OW29728   2.075   1.911   5.894
 9610SOL    HW129729   2.175   1.907   5.899
 9610SOL    HW229730   2.044   2.004   5.918
 9611SOL     OW29731   6.092   6.994   0.775
 9611SOL    HW129732   5.998   6.967   0.796
 9611SOL    HW229733   6.094   0.066   0.751
 9612SOL     OW29734   6.136   3.025   1.903
 9612SOL    HW129735   6.196   3.040   1.825
 9612SOL    HW229736   6.041   3.024   1.873
 9613SOL     OW29737   6.211   6.756   4.993
 9613SOL    HW129738   6.199   6.671   5.044
 9613SOL    HW229739   6.287   6.746   4.929
 9614SOL     OW29740   3.568   3.761   2.383
 9614SOL    HW129741   3.513   3.713   2.315
 9614SOL    HW229742   3.533   3.739   2.475
 9615SOL     OW29743   1.112   5.880   2.499
 9615SOL    HW129744   1.162   5.845   2.578
 9615SOL    HW229745   1.029   5.925   2.531
 9616SOL     OW29746   3.766   2.832   1.069
 9616SOL    HW129747   3.667   2.841   1.063
 9616SOL    HW229748   3.804   2.815   0.978
 9617SOL     OW29749   0.859   3.136   3.814
 9617SOL    HW129750   0.836   3.040   3.832
 9617SOL    HW229751   0.790   3.175   3.753
 9618SOL     OW29752   3.844   6.158   6.673
 9618SOL    HW129753   3.899   6.148   6.756
 9618SOL    HW229754   3.844   6.071   6.623
 9619SOL     OW29755   2.910   6.317   0.770
 9619SOL    HW129756   2.938   6.385   0.837
 9619SOL    HW229757   2.980   6.309   0.699
 9620SOL     OW29758   3.349   1.602   6.575
 9620SOL    HW129759   3.405   1.631   6.497
 9620SOL    HW229760   3.258   1.642   6.568
 9621SOL     OW29761   0.614   0.462   1.439
 9621SOL    HW129762   0.555   0.540   1.416
 9621SOL    HW229763   0.656   0.426   1.356
 9622SOL     OW29764   6.021   0.713   6.363
 9622SOL    HW129765   5.972   0.646   6.306
 9622SOL    HW229766   5.979   0.716   6.454
 9623SOL     OW29767   4.665   6.015   6.324
 9623SOL    HW129768   4.733   6.042   6.391
 9623SOL    HW229769   4.694   6.044   6.233
 9624SOL     OW29770   4.198   5.312   5.050
 9624SOL    HW129771   4.126   5.321   4.981
 9624SOL    HW229772   4.270   5.252   5.016
 9625SOL     OW29773   5.055   4.348   6.378
 9625SOL    HW129774   5.032   4.445   6.371
 9625SOL    HW229775   5.031   4.314   6.469
 9626SOL     OW29776   1.777   4.209   5.966
 9626SOL    HW129777   1.771   4.170   5.875
 9626SOL    HW229778   1.733   4.148   6.032
 9627SOL     OW29779   0.959   4.907   6.952
 9627SOL    HW129780   0.897   4.874   7.023
 9627SOL    HW229781   0.991   4.830   6.897
 9628SOL     OW29782   5.412   3.282   0.161
 9628SOL    HW129783   5.460   3.364   0.191
 9628SOL    HW229784   5.449   3.202   0.208
 9629SOL     OW29785   0.257   5.639   3.344
 9629SOL    HW129786   0.292   5.546   3.351
 9629SOL    HW229787   0.217   5.666   3.431
 9630SOL     OW29788   6.600   5.839   5.776
 9630SOL    HW129789   6.671   5.876   5.836
 9630SOL    HW229790   6.511   5.870   5.808
 9631SOL     OW29791   4.262   1.554   0.641
 9631SOL    HW129792   4.299   1.461   0.650
 9631SOL    HW229793   4.316   1.605   0.574
 9632SOL     OW29794   3.725   6.309   1.145
 9632SOL    HW129795   3.765   6.226   1.184
 9632SOL    HW229796   3.630   6.291   1.119
 9633SOL     OW29797   3.796   3.030   2.892
 9633SOL    HW129798   3.727   3.025   2.965
 9633SOL    HW229799   3.823   3.125   2.878
 9634SOL     OW29800   5.277   4.561   2.288
 9634SOL    HW129801   5.233   4.483   2.332
 9634SOL    HW229802   5.283   4.637   2.353
 9635SOL     OW29803   0.808   3.740   3.514
 9635SOL    HW129804   0.842   3.814   3.573
 9635SOL    HW229805   0.720   3.708   3.549
 9636SOL     OW29806   4.300   2.337   4.502
 9636SOL    HW129807   4.349   2.420   4.477
 9636SOL    HW229808   4.365   2.269   4.535
 9637SOL     OW29809   2.575   2.956   1.006
 9637SOL    HW129810   2.522   3.012   1.069
 9637SOL    HW229811   2.565   2.991   0.913
 9638SOL     OW29812   0.046   4.561   5.419
 9638SOL    HW129813   0.125   4.620   5.403
 9638SOL    HW229814   0.050   4.483   5.357
 9639SOL     OW29815   4.413   1.575   1.844
 9639SOL    HW129816   4.437   1.513   1.918
 9639SOL    HW229817   4.411   1.669   1.878
 9640SOL     OW29818   3.565   0.491   2.612
 9640SOL    HW129819   3.476   0.506   2.571
 9640SOL    HW229820   3.609   0.579   2.631
 9641SOL     OW29821   6.045   4.073   2.703
 9641SOL    HW129822   6.057   3.990   2.758
 9641SOL    HW229823   6.050   4.153   2.763
 9642SOL     OW29824   2.380   0.638   3.356
 9642SOL    HW129825   2.361   0.612   3.262
 9642SOL    HW229826   2.393   0.555   3.411
 9643SOL     OW29827   5.279   4.338   4.360
 9643SOL    HW129828   5.262   4.248   4.402
 9643SOL    HW229829   5.288   4.327   4.261
 9644SOL     OW29830   1.474   5.260   4.992
 9644SOL    HW129831   1.404   5.209   4.943
 9644SOL    HW229832   1.556   5.204   5.002
 9645SOL     OW29833   1.300   5.746   6.535
 9645SOL    HW129834   1.212   5.780   6.567
 9645SOL    HW229835   1.364   5.822   6.524
 9646SOL     OW29836   3.461   6.380   5.650
 9646SOL    HW129837   3.442   6.478   5.651
 9646SOL    HW229838   3.375   6.329   5.640
 9647SOL     OW29839   6.109   6.221   3.324
 9647SOL    HW129840   6.120   6.289   3.397
 9647SOL    HW229841   6.097   6.268   3.236
 9648SOL     OW29842   4.787   2.537   0.853
 9648SOL    HW129843   4.843   2.568   0.776
 9648SOL    HW229844   4.827   2.570   0.939
 9649SOL     OW29845   2.612   3.504   0.563
 9649SOL    HW129846   2.691   3.563   0.576
 9649SOL    HW229847   2.563   3.531   0.481
 9650SOL     OW29848   0.009   4.845   4.504
 9650SOL    HW129849   0.010   4.849   4.604
 9650SOL    HW229850   6.951   4.798   4.473
 9651SOL     OW29851   3.256   1.237   0.295
 9651SOL    HW129852   3.337   1.271   0.341
 9651SOL    HW229853   3.188   1.208   0.363
 9652SOL     OW29854   0.003   3.798   0.815
 9652SOL    HW129855   0.100   3.807   0.793
 9652SOL    HW229856   6.981   3.746   0.744
 9653SOL     OW29857   4.678   4.113   6.130
 9653SOL    HW129858   4.774   4.140   6.144
 9653SOL    HW229859   4.635   4.177   6.067
 9654SOL     OW29860   3.490   3.332   4.027
 9654SOL    HW129861   3.543   3.252   4.001
 9654SOL    HW229862   3.428   3.309   4.102
 9655SOL     OW29863   5.302   1.138   2.122
 9655SOL    HW129864   5.248   1.166   2.042
 9655SOL    HW229865   5.340   1.219   2.167
 9656SOL     OW29866   5.345   4.161   1.601
 9656SOL    HW129867   5.431   4.183   1.646
 9656SOL    HW229868   5.270   4.209   1.647
 9657SOL     OW29869   6.430   3.680   3.397
 9657SOL    HW129870   6.372   3.605   3.429
 9657SOL    HW229871   6.504   3.643   3.340
 9658SOL     OW29872   4.958   1.595   2.092
 9658SOL    HW129873   4.861   1.620   2.097
 9658SOL    HW229874   4.995   1.589   2.184
 9659SOL     OW29875   3.211   2.698   1.306
 9659SOL    HW129876   3.158   2.673   1.387
 9659SOL    HW229877   3.267   2.620   1.278
 9660SOL     OW29878   0.752   5.972   1.099
 9660SOL    HW129879   0.827   5.944   1.158
 9660SOL    HW229880   0.671   5.991   1.154
 9661SOL     OW29881   4.972   4.732   1.327
 9661SOL    HW129882   4.972   4.820   1.375
 9661SOL    HW229883   4.882   4.688   1.338
 9662SOL     OW29884   5.137   4.111   6.670
 9662SOL    HW129885   5.064   4.177   6.654
 9662SOL    HW229886   5.098   4.019   6.676
 9663SOL     OW29887   0.640   4.408   3.278
 9663SOL    HW129888   0.719   4.387   3.336
 9663SOL    HW229889   0.633   4.507   3.266
 9664SOL     OW29890   5.470   4.242   3.579
 9664SOL    HW129891   5.456   4.342   3.579
 9664SOL    HW229892   5.496   4.212   3.670
 9665SOL     OW29893   5.783   6.319   6.480
 9665SOL    HW129894   5.722   6.373   6.538
 9665SOL    HW229895   5.821   6.243   6.533
 9666SOL     OW29896   6.178   4.373   1.307
 9666SOL    HW129897   6.221   4.449   1.354
 9666SOL    HW229898   6.245   4.327   1.249
 9667SOL     OW29899   4.955   5.345   1.240
 9667SOL    HW129900   5.036   5.299   1.276
 9667SOL    HW229901   4.912   5.399   1.312
 9668SOL     OW29902   1.069   5.969   5.871
 9668SOL    HW129903   1.115   5.945   5.956
 9668SOL    HW229904   1.096   6.061   5.843
 9669SOL     OW29905   3.297   6.549   0.581
 9669SOL    HW129906   3.341   6.572   0.668
 9669SOL    HW229907   3.225   6.616   0.562
 9670SOL     OW29908   0.000   0.019   6.106
 9670SOL    HW129909   6.995   6.950   6.122
 9670SOL    HW229910   0.034   0.028   6.012
 9671SOL     OW29911   1.265   4.959   6.776
 9671SOL    HW129912   1.347   4.951   6.719
 9671SOL    HW229913   1.292   4.980   6.870
 9672SOL     OW29914   0.607   4.384   4.020
 9672SOL    HW129915   0.553   4.399   4.103
 9672SOL    HW229916   0.559   4.320   3.960
 9673SOL     OW29917   2.609   4.092   1.352
 9673SOL    HW129918   2.684   4.064   1.291
 9673SOL    HW229919   2.609   4.191   1.360
 9674SOL     OW29920   3.126   6.076   3.212
 9674SOL    HW129921   3.203   6.137   3.194
 9674SOL    HW229922   3.082   6.052   3.126
 9675SOL     OW29923   4.781   3.951   1.447
 9675SOL    HW129924   4.871   3.947   1.403
 9675SOL    HW229925   4.752   3.860   1.474
 9676SOL     OW29926   1.290   3.310   5.860
 9676SOL    HW129927   1.319   3.223   5.820
 9676SOL    HW229928   1.247   3.366   5.789
 9677SOL     OW29929   6.287   5.036   0.618
 9677SOL    HW129930   6.239   5.120   0.595
 9677SOL    HW229931   6.245   4.959   0.570
 9678SOL     OW29932   3.397   4.072   4.990
 9678SOL    HW129933   3.457   4.015   5.046
 9678SOL    HW229934   3.451   4.115   4.917
 9679SOL     OW29935   1.999   1.591   4.799
 9679SOL    HW129936   1.953   1.554   4.880
 9679SOL    HW229937   2.014   1.517   4.733
 9680SOL     OW29938   4.620   6.468   2.885
 9680SOL    HW129939   4.597   6.389   2.942
 9680SOL    HW229940   4.679   6.530   2.937
 9681SOL     OW29941   1.760   0.512   1.354
 9681SOL    HW129942   1.790   0.601   1.389
 9681SOL    HW229943   1.693   0.526   1.280
 9682SOL     OW29944   5.852   6.038   4.670
 9682SOL    HW129945   5.772   6.017   4.726
 9682SOL    HW229946   5.931   5.988   4.705
 9683SOL     OW29947   2.266   6.998   1.076
 9683SOL    HW129948   2.294   6.987   1.172
 9683SOL    HW229949   2.222   6.913   1.045
 9684SOL     OW29950   1.594   4.318   5.211
 9684SOL    HW129951   1.510   4.297   5.262
 9684SOL    HW229952   1.621   4.238   5.157
 9685SOL     OW29953   3.881   3.845   0.515
 9685SOL    HW129954   3.788   3.810   0.533
 9685SOL    HW229955   3.878   3.945   0.507
 9686SOL     OW29956   6.221   2.323   6.037
 9686SOL    HW129957   6.223   2.403   5.977
 9686SOL    HW229958   6.139   2.268   6.017
 9687SOL     OW29959   6.207   0.201   2.294
 9687SOL    HW129960   6.300   0.194   2.258
 9687SOL    HW229961   6.155   0.119   2.269
 9688SOL     OW29962   1.700   4.826   1.612
 9688SOL    HW129963   1.715   4.866   1.522
 9688SOL    HW229964   1.623   4.871   1.657
 9689SOL     OW29965   1.329   6.215   0.017
 9689SOL    HW129966   1.318   6.125   6.999
 9689SOL    HW229967   1.268   6.222   0.096
 9690SOL     OW29968   5.853   6.002   5.335
 9690SOL    HW129969   5.792   5.951   5.396
 9690SOL    HW229970   5.942   5.956   5.330
 9691SOL     OW29971   3.196   3.691   1.933
 9691SOL    HW129972   3.213   3.789   1.939
 9691SOL    HW229973   3.226   3.657   1.844
 9692SOL     OW29974   4.386   4.789   0.190
 9692SOL    HW129975   4.351   4.882   0.198
 9692SOL    HW229976   4.417   4.757   0.280
 9693SOL     OW29977   5.869   3.987   3.957
 9693SOL    HW129978   5.967   3.987   3.976
 9693SOL    HW229979   5.850   3.923   3.882
 9694SOL     OW29980   2.798   6.575   2.054
 9694SOL    HW129981   2.810   6.640   1.979
 9694SOL    HW229982   2.700   6.556   2.065
 9695SOL     OW29983   0.056   3.591   4.317
 9695SOL    HW129984   0.028   3.558   4.227
 9695SOL    HW229985   0.075   3.689   4.312
 9696SOL     OW29986   6.096   2.038   2.918
 9696SOL    HW129987   6.006   2.005   2.947
 9696SOL    HW229988   6.153   2.055   2.998
 9697SOL     OW29989   0.147   5.882   0.301
 9697SOL    HW129990   0.076   5.944   0.268
 9697SOL    HW229991   0.134   5.866   0.399
 9698SOL     OW29992   4.932   3.417   0.391
 9698SOL    HW129993   4.955   3.337   0.335
 9698SOL    HW229994   5.005   3.485   0.384
 9699SOL     OW29995   1.195   5.056   0.207
 9699SOL    HW129996   1.218   5.152   0.193
 9699SOL    HW229997   1.099   5.048   0.235
 9700SOL     OW29998   6.065   6.693   4.118
 9700SOL    HW129999   6.045   6.727   4.210
 9700SOL    HW230000   6.148   6.737   4.084
 9701SOL     OW30001   4.855   2.960   6.509
 9701SOL    HW130002   4.929   3.013   6.553
 9701SOL    HW230003   4.828   2.885   6.570
 9702SOL     OW30004   3.385   2.983   0.554
 9702SOL    HW130005   3.448   3.000   0.630
 9702SOL    HW230006   3.334   3.067   0.534
 9703SOL     OW30007   6.183   4.205   5.281
 9703SOL    HW130008   6.283   4.207   5.293
 9703SOL    HW230009   6.153   4.110   5.268
 9704SOL     OW30010   2.740   4.775   2.803
 9704SOL    HW130011   2.641   4.786   2.809
 9704SOL    HW230012   2.765   4.744   2.711
 9705SOL     OW30013   6.235   4.415   5.482
 9705SOL    HW130014   6.209   4.408   5.386
 9705SOL    HW230015   6.161   4.455   5.535
 9706SOL     OW30016   1.155   1.406   1.759
 9706SOL    HW130017   1.064   1.408   1.800
 9706SOL    HW230018   1.224   1.408   1.831
 9707SOL     OW30019   6.156   4.789   2.370
 9707SOL    HW130020   6.073   4.828   2.329
 9707SOL    HW230021   6.131   4.716   2.432
 9708SOL     OW30022   1.408   0.786   2.398
 9708SOL    HW130023   1.497   0.782   2.443
 9708SOL    HW230024   1.379   0.694   2.372
 9709SOL     OW30025   5.948   3.065   2.320
 9709SOL    HW130026   5.929   3.008   2.240
 9709SOL    HW230027   6.041   3.048   2.351
 9710SOL     OW30028   5.897   6.278   5.735
 9710SOL    HW130029   5.938   6.368   5.716
 9710SOL    HW230030   5.949   6.233   5.807
 9711SOL     OW30031   4.174   6.244   6.874
 9711SOL    HW130032   4.268   6.211   6.869
 9711SOL    HW230033   4.158   6.310   6.801
 9712SOL     OW30034   6.191   2.883   0.688
 9712SOL    HW130035   6.171   2.812   0.621
 9712SOL    HW230036   6.247   2.844   0.761
 9713SOL     OW30037   1.808   6.119   3.663
 9713SOL    HW130038   1.709   6.101   3.661
 9713SOL    HW230039   1.824   6.217   3.672
 9714SOL     OW30040   4.129   5.156   4.470
 9714SOL    HW130041   4.199   5.129   4.403
 9714SOL    HW230042   4.047   5.188   4.421
 9715SOL     OW30043   6.052   4.733   1.055
 9715SOL    HW130044   6.115   4.673   1.005
 9715SOL    HW230045   5.975   4.679   1.089
 9716SOL     OW30046   3.829   4.430   7.018
 9716SOL    HW130047   3.900   4.493   6.989
 9716SOL    HW230048   3.787   4.388   6.937
 9717SOL     OW30049   4.630   0.881   5.966
 9717SOL    HW130050   4.548   0.865   6.021
 9717SOL    HW230051   4.624   0.830   5.880
 9718SOL     OW30052   3.210   1.911   0.381
 9718SOL    HW130053   3.256   1.823   0.367
 9718SOL    HW230054   3.247   1.978   0.317
 9719SOL     OW30055   4.462   6.200   4.912
 9719SOL    HW130056   4.479   6.119   4.966
 9719SOL    HW230057   4.527   6.205   4.836
 9720SOL     OW30058   1.701   4.073   3.081
 9720SOL    HW130059   1.681   4.052   3.177
 9720SOL    HW230060   1.722   3.989   3.032
 9721SOL     OW30061   0.986   1.696   0.261
 9721SOL    HW130062   0.930   1.633   0.314
 9721SOL    HW230063   1.047   1.746   0.323
 9722SOL     OW30064   3.675   2.682   5.310
 9722SOL    HW130065   3.625   2.737   5.243
 9722SOL    HW230066   3.614   2.657   5.385
 9723SOL     OW30067   6.045   4.467   4.681
 9723SOL    HW130068   5.989   4.550   4.676
 9723SOL    HW230069   6.128   4.480   4.627
 9724SOL     OW30070   1.642   5.419   0.103
 9724SOL    HW130071   1.630   5.518   0.114
 9724SOL    HW230072   1.731   5.401   0.060
 9725SOL     OW30073   3.344   5.414   5.674
 9725SOL    HW130074   3.380   5.322   5.660
 9725SOL    HW230075   3.412   5.469   5.722
 9726SOL     OW30076   5.826   0.691   3.828
 9726SOL    HW130077   5.827   0.635   3.910
 9726SOL    HW230078   5.837   0.787   3.853
 9727SOL     OW30079   0.692   2.376   6.949
 9727SOL    HW130080   0.779   2.401   6.993
 9727SOL    HW230081   0.616   2.403   7.009
 9728SOL     OW30082   5.942   0.469   6.235
 9728SOL    HW130083   5.898   0.468   6.145
 9728SOL    HW230084   5.872   0.461   6.306
 9729SOL     OW30085   0.749   4.201   3.456
 9729SOL    HW130086   0.834   4.154   3.479
 9729SOL    HW230087   0.697   4.147   3.390
 9730SOL     OW30088   0.390   4.619   3.082
 9730SOL    HW130089   0.325   4.548   3.055
 9730SOL    HW230090   0.344   4.708   3.081
 9731SOL     OW30091   5.159   3.798   2.742
 9731SOL    HW130092   5.174   3.779   2.645
 9731SOL    HW230093   5.090   3.869   2.752
 9732SOL     OW30094   1.792   2.890   2.463
 9732SOL    HW130095   1.719   2.933   2.409
 9732SOL    HW230096   1.877   2.890   2.411
 9733SOL     OW30097   6.100   5.643   2.921
 9733SOL    HW130098   6.143   5.688   2.844
 9733SOL    HW230099   6.058   5.557   2.890
 9734SOL     OW30100   6.110   6.431   6.299
 9734SOL    HW130101   6.112   6.333   6.318
 9734SOL    HW230102   6.021   6.468   6.325
 9735SOL     OW30103   1.592   1.630   2.687
 9735SOL    HW130104   1.691   1.624   2.700
 9735SOL    HW230105   1.552   1.538   2.691
 9736SOL     OW30106   4.988   1.854   4.902
 9736SOL    HW130107   5.051   1.886   4.831
 9736SOL    HW230108   4.930   1.930   4.932
 9737SOL     OW30109   6.094   1.710   2.396
 9737SOL    HW130110   6.027   1.654   2.444
 9737SOL    HW230111   6.172   1.654   2.367
 9738SOL     OW30112   2.337   5.997   1.003
 9738SOL    HW130113   2.328   5.942   0.920
 9738SOL    HW230114   2.255   5.986   1.060
 9739SOL     OW30115   4.782   6.884   6.941
 9739SOL    HW130116   4.779   6.943   6.861
 9739SOL    HW230117   4.761   6.937   7.023
 9740SOL     OW30118   6.261   1.086   2.469
 9740SOL    HW130119   6.309   1.061   2.553
 9740SOL    HW230120   6.299   1.036   2.392
 9741SOL     OW30121   3.072   1.732   4.444
 9741SOL    HW130122   3.067   1.642   4.400
 9741SOL    HW230123   3.007   1.734   4.521
 9742SOL     OW30124   4.366   1.384   6.408
 9742SOL    HW130125   4.398   1.403   6.315
 9742SOL    HW230126   4.268   1.402   6.413
 9743SOL     OW30127   6.650   2.921   3.361
 9743SOL    HW130128   6.672   3.013   3.328
 9743SOL    HW230129   6.714   2.855   3.322
 9744SOL     OW30130   2.073   6.906   3.720
 9744SOL    HW130131   1.988   6.943   3.683
 9744SOL    HW230132   2.074   6.806   3.709
 9745SOL     OW30133   5.665   1.497   5.603
 9745SOL    HW130134   5.711   1.455   5.681
 9745SOL    HW230135   5.688   1.446   5.520
 9746SOL     OW30136   4.825   6.223   6.818
 9746SOL    HW130137   4.804   6.305   6.872
 9746SOL    HW230138   4.785   6.231   6.727
 9747SOL     OW30139   2.282   1.978   2.027
 9747SOL    HW130140   2.289   2.060   1.970
 9747SOL    HW230141   2.231   1.999   2.110
 9748SOL     OW30142   6.987   0.301   3.025
 9748SOL    HW130143   0.026   0.251   2.966
 9748SOL    HW230144   6.956   0.241   3.099
 9749SOL     OW30145   0.570   1.630   2.066
 9749SOL    HW130146   0.601   1.561   2.001
 9749SOL    HW230147   0.579   1.721   2.026
 9750SOL     OW30148   5.981   4.778   4.307
 9750SOL    HW130149   5.993   4.876   4.291
 9750SOL    HW230150   5.905   4.744   4.251
 9751SOL     OW30151   2.632   0.158   1.757
 9751SOL    HW130152   2.602   0.158   1.853
 9751SOL    HW230153   2.709   0.221   1.746
 9752SOL     OW30154   4.365   2.361   0.258
 9752SOL    HW130155   4.400   2.403   0.342
 9752SOL    HW230156   4.369   2.427   0.183
 9753SOL     OW30157   0.176   5.924   6.289
 9753SOL    HW130158   0.086   5.920   6.331
 9753SOL    HW230159   0.232   5.848   6.321
 9754SOL     OW30160   3.965   0.814   0.639
 9754SOL    HW130161   4.008   0.822   0.549
 9754SOL    HW230162   3.872   0.778   0.629
 9755SOL     OW30163   3.386   4.245   5.361
 9755SOL    HW130164   3.481   4.225   5.339
 9755SOL    HW230165   3.382   4.308   5.439
 9756SOL     OW30166   5.379   1.470   6.051
 9756SOL    HW130167   5.286   1.440   6.072
 9756SOL    HW230168   5.430   1.484   6.136
 9757SOL     OW30169   5.561   4.101   4.329
 9757SOL    HW130170   5.516   4.017   4.358
 9757SOL    HW230171   5.643   4.079   4.276
 9758SOL     OW30172   0.945   0.672   0.413
 9758SOL    HW130173   0.975   0.589   0.366
 9758SOL    HW230174   0.923   0.743   0.345
 9759SOL     OW30175   0.949   1.554   0.585
 9759SOL    HW130176   0.990   1.484   0.527
 9759SOL    HW230177   0.876   1.601   0.535
 9760SOL     OW30178   4.736   2.474   0.056
 9760SOL    HW130179   4.716   2.511   6.991
 9760SOL    HW230180   4.691   2.385   0.066
 9761SOL     OW30181   1.159   0.972   1.848
 9761SOL    HW130182   1.067   0.937   1.867
 9761SOL    HW230183   1.153   1.050   1.787
 9762SOL     OW30184   3.014   1.576   4.827
 9762SOL    HW130185   3.053   1.529   4.747
 9762SOL    HW230186   2.918   1.551   4.838
 9763SOL     OW30187   6.603   1.704   1.702
 9763SOL    HW130188   6.517   1.713   1.752
 9763SOL    HW230189   6.584   1.686   1.606
 9764SOL     OW30190   5.719   2.413   2.344
 9764SOL    HW130191   5.751   2.502   2.311
 9764SOL    HW230192   5.668   2.366   2.271
 9765SOL     OW30193   6.425   1.417   1.996
 9765SOL    HW130194   6.369   1.491   2.033
 9765SOL    HW230195   6.437   1.429   1.898
 9766SOL     OW30196   2.617   0.634   3.613
 9766SOL    HW130197   2.588   0.610   3.521
 9766SOL    HW230198   2.715   0.652   3.614
 9767SOL     OW30199   2.180   3.194   5.971
 9767SOL    HW130200   2.215   3.215   5.880
 9767SOL    HW230201   2.150   3.278   6.015
 9768SOL     OW30202   5.937   2.548   0.595
 9768SOL    HW130203   5.939   2.596   0.683
 9768SOL    HW230204   5.849   2.500   0.585
 9769SOL     OW30205   3.165   1.296   5.452
 9769SOL    HW130206   3.096   1.343   5.398
 9769SOL    HW230207   3.246   1.278   5.395
 9770SOL     OW30208   3.632   2.531   6.145
 9770SOL    HW130209   3.631   2.519   6.046
 9770SOL    HW230210   3.687   2.612   6.168
 9771SOL     OW30211   2.494   6.563   2.366
 9771SOL    HW130212   2.524   6.544   2.459
 9771SOL    HW230213   2.394   6.574   2.365
 9772SOL     OW30214   1.467   5.817   2.202
 9772SOL    HW130215   1.491   5.743   2.139
 9772SOL    HW230216   1.383   5.794   2.250
 9773SOL     OW30217   5.322   5.709   2.862
 9773SOL    HW130218   5.420   5.717   2.883
 9773SOL    HW230219   5.281   5.800   2.858
 9774SOL     OW30220   0.981   5.564   3.677
 9774SOL    HW130221   1.047   5.498   3.642
 9774SOL    HW230222   0.932   5.606   3.601
 9775SOL     OW30223   2.906   0.693   3.653
 9775SOL    HW130224   2.934   0.769   3.710
 9775SOL    HW230225   2.930   0.607   3.698
 9776SOL     OW30226   1.599   4.965   5.998
 9776SOL    HW130227   1.660   4.911   6.056
 9776SOL    HW230228   1.504   4.940   6.019
 9777SOL     OW30229   5.387   0.041   6.753
 9777SOL    HW130230   5.293   0.011   6.737
 9777SOL    HW230231   5.451   7.001   6.711
 9778SOL     OW30232   0.322   2.100   4.692
 9778SOL    HW130233   0.402   2.070   4.640
 9778SOL    HW230234   0.350   2.126   4.785
 9779SOL     OW30235   0.524   2.048   3.101
 9779SOL    HW130236   0.614   2.027   3.138
 9779SOL    HW230237   0.498   1.978   3.034
 9780SOL     OW30238   1.465   1.784   1.475
 9780SOL    HW130239   1.465   1.697   1.525
 9780SOL    HW230240   1.443   1.766   1.379
 9781SOL     OW30241   1.415   3.682   3.755
 9781SOL    HW130242   1.330   3.724   3.726
 9781SOL    HW230243   1.407   3.582   3.747
 9782SOL     OW30244   0.385   2.558   0.358
 9782SOL    HW130245   0.409   2.632   0.422
 9782SOL    HW230246   0.321   2.495   0.403
 9783SOL     OW30247   4.081   1.834   3.301
 9783SOL    HW130248   4.078   1.874   3.393
 9783SOL    HW230249   4.004   1.771   3.290
 9784SOL     OW30250   2.985   1.112   6.804
 9784SOL    HW130251   3.043   1.194   6.799
 9784SOL    HW230252   2.898   1.135   6.846
 9785SOL     OW30253   6.841   2.663   4.689
 9785SOL    HW130254   6.830   2.575   4.643
 9785SOL    HW230255   6.763   2.721   4.668
 9786SOL     OW30256   3.282   4.596   0.539
 9786SOL    HW130257   3.284   4.539   0.621
 9786SOL    HW230258   3.189   4.599   0.503
 9787SOL     OW30259   3.776   3.724   3.842
 9787SOL    HW130260   3.714   3.689   3.912
 9787SOL    HW230261   3.734   3.715   3.752
 9788SOL     OW30262   0.834   5.695   2.090
 9788SOL    HW130263   0.830   5.722   2.187
 9788SOL    HW230264   0.904   5.749   2.044
 9789SOL     OW30265   3.401   6.980   6.788
 9789SOL    HW130266   3.313   6.932   6.783
 9789SOL    HW230267   3.386   0.047   6.823
 9790SOL     OW30268   6.584   4.075   5.122
 9790SOL    HW130269   6.604   3.986   5.164
 9790SOL    HW230270   6.534   4.061   5.037
 9791SOL     OW30271   0.496   6.327   0.347
 9791SOL    HW130272   0.556   6.351   0.271
 9791SOL    HW230273   0.546   6.269   0.411
 9792SOL     OW30274   3.341   5.286   0.858
 9792SOL    HW130275   3.392   5.206   0.893
 9792SOL    HW230276   3.271   5.255   0.794
 9793SOL     OW30277   4.383   1.121   1.803
 9793SOL    HW130278   4.469   1.170   1.814
 9793SOL    HW230279   4.329   1.165   1.731
 9794SOL     OW30280   4.906   4.570   4.700
 9794SOL    HW130281   4.922   4.658   4.657
 9794SOL    HW230282   4.903   4.498   4.630
 9795SOL     OW30283   0.882   3.451   4.014
 9795SOL    HW130284   0.885   3.465   3.915
 9795SOL    HW230285   0.808   3.387   4.036
 9796SOL     OW30286   4.065   3.720   3.752
 9796SOL    HW130287   3.966   3.731   3.765
 9796SOL    HW230288   4.111   3.807   3.771
 9797SOL     OW30289   3.345   6.126   6.780
 9797SOL    HW130290   3.432   6.167   6.753
 9797SOL    HW230291   3.271   6.164   6.725
 9798SOL     OW30292   2.242   2.514   1.087
 9798SOL    HW130293   2.162   2.564   1.120
 9798SOL    HW230294   2.229   2.416   1.102
 9799SOL     OW30295   2.837   5.347   6.514
 9799SOL    HW130296   2.791   5.262   6.537
 9799SOL    HW230297   2.881   5.339   6.424
 9800SOL     OW30298   5.763   2.764   4.206
 9800SOL    HW130299   5.753   2.850   4.257
 9800SOL    HW230300   5.696   2.762   4.132
 9801SOL     OW30301   5.139   4.913   6.862
 9801SOL    HW130302   5.108   4.848   6.931
 9801SOL    HW230303   5.239   4.920   6.865
 9802SOL     OW30304   4.029   4.993   0.578
 9802SOL    HW130305   4.004   5.065   0.642
 9802SOL    HW230306   4.122   4.962   0.597
 9803SOL     OW30307   1.747   3.057   6.344
 9803SOL    HW130308   1.693   3.116   6.404
 9803SOL    HW230309   1.772   2.974   6.392
 9804SOL     OW30310   6.381   5.733   2.918
 9804SOL    HW130311   6.406   5.687   3.002
 9804SOL    HW230312   6.345   5.824   2.939
 9805SOL     OW30313   0.804   6.445   3.164
 9805SOL    HW130314   0.833   6.483   3.076
 9805SOL    HW230315   0.705   6.440   3.168
 9806SOL     OW30316   3.769   2.080   6.029
 9806SOL    HW130317   3.795   2.150   6.095
 9806SOL    HW230318   3.669   2.076   6.022
 9807SOL     OW30319   3.305   3.053   2.731
 9807SOL    HW130320   3.258   2.978   2.685
 9807SOL    HW230321   3.395   3.022   2.762
 9808SOL     OW30322   4.139   6.000   3.925
 9808SOL    HW130323   4.204   6.072   3.902
 9808SOL    HW230324   4.180   5.937   3.991
 9809SOL     OW30325   0.525   3.048   0.397
 9809SOL    HW130326   0.621   3.072   0.411
 9809SOL    HW230327   0.509   3.036   0.299
 9810SOL     OW30328   2.620   1.893   4.795
 9810SOL    HW130329   2.696   1.862   4.738
 9810SOL    HW230330   2.540   1.910   4.738
 9811SOL     OW30331   6.639   3.900   4.257
 9811SOL    HW130332   6.729   3.895   4.214
 9811SOL    HW230333   6.626   3.821   4.317
 9812SOL     OW30334   2.640   6.758   4.812
 9812SOL    HW130335   2.708   6.791   4.747
 9812SOL    HW230336   2.679   6.756   4.904
 9813SOL     OW30337   5.446   2.672   0.592
 9813SOL    HW130338   5.369   2.613   0.619
 9813SOL    HW230339   5.504   2.689   0.671
 9814SOL     OW30340   5.847   1.887   0.202
 9814SOL    HW130341   5.833   1.961   0.268
 9814SOL    HW230342   5.759   1.850   0.174
 9815SOL     OW30343   4.797   2.462   4.267
 9815SOL    HW130344   4.873   2.501   4.319
 9815SOL    HW230345   4.711   2.478   4.315
 9816SOL     OW30346   1.191   6.906   5.882
 9816SOL    HW130347   1.149   6.816   5.894
 9816SOL    HW230348   1.154   6.970   5.950
 9817SOL     OW30349   0.895   6.607   2.963
 9817SOL    HW130350   0.981   6.657   2.975
 9817SOL    HW230351   0.899   6.555   2.878
 9818SOL     OW30352   5.755   1.743   4.839
 9818SOL    HW130353   5.775   1.687   4.919
 9818SOL    HW230354   5.725   1.685   4.764
 9819SOL     OW30355   4.248   2.371   3.063
 9819SOL    HW130356   4.282   2.453   3.111
 9819SOL    HW230357   4.168   2.336   3.111
 9820SOL     OW30358   3.236   4.200   6.490
 9820SOL    HW130359   3.234   4.127   6.423
 9820SOL    HW230360   3.282   4.169   6.573
 9821SOL     OW30361   5.989   6.520   6.686
 9821SOL    HW130362   5.975   6.585   6.760
 9821SOL    HW230363   6.052   6.559   6.619
 9822SOL     OW30364   0.403   6.944   2.974
 9822SOL    HW130365   0.369   0.011   2.953
 9822SOL    HW230366   0.490   6.928   2.927
 9823SOL     OW30367   3.509   0.617   1.425
 9823SOL    HW130368   3.540   0.585   1.336
 9823SOL    HW230369   3.490   0.538   1.484
 9824SOL     OW30370   1.173   4.154   5.962
 9824SOL    HW130371   1.237   4.228   5.941
 9824SOL    HW230372   1.224   4.073   5.991
 9825SOL     OW30373   3.394   5.833   5.425
 9825SOL    HW130374   3.299   5.804   5.431
 9825SOL    HW230375   3.451   5.755   5.400
 9826SOL     OW30376   4.813   6.061   6.097
 9826SOL    HW130377   4.766   6.144   6.069
 9826SOL    HW230378   4.879   6.034   6.027
 9827SOL     OW30379   1.772   4.251   4.577
 9827SOL    HW130380   1.777   4.167   4.631
 9827SOL    HW230381   1.797   4.329   4.634
 9828SOL     OW30382   3.552   2.885   6.257
 9828SOL    HW130383   3.551   2.985   6.260
 9828SOL    HW230384   3.462   2.851   6.285
 9829SOL     OW30385   3.561   6.345   0.831
 9829SOL    HW130386   3.485   6.388   0.880
 9829SOL    HW230387   3.645   6.395   0.850
 9830SOL     OW30388   5.989   1.907   1.775
 9830SOL    HW130389   6.085   1.923   1.749
 9830SOL    HW230390   5.941   1.864   1.699
 9831SOL     OW30391   1.209   6.034   0.507
 9831SOL    HW130392   1.280   6.077   0.450
 9831SOL    HW230393   1.119   6.060   0.472
 9832SOL     OW30394   4.800   5.037   2.445
 9832SOL    HW130395   4.829   5.117   2.393
 9832SOL    HW230396   4.851   4.956   2.413
 9833SOL     OW30397   3.297   3.180   5.074
 9833SOL    HW130398   3.323   3.156   5.167
 9833SOL    HW230399   3.271   3.098   5.023
 9834SOL     OW30400   2.867   3.782   5.836
 9834SOL    HW130401   2.770   3.805   5.836
 9834SOL    HW230402   2.909   3.812   5.750
 9835SOL     OW30403   4.547   2.143   5.001
 9835SOL    HW130404   4.555   2.108   5.094
 9835SOL    HW230405   4.548   2.067   4.936
 9836SOL     OW30406   6.595   3.753   3.606
 9836SOL    HW130407   6.531   3.740   3.530
 9836SOL    HW230408   6.587   3.846   3.641
 9837SOL     OW30409   1.332   6.763   3.308
 9837SOL    HW130410   1.413   6.799   3.263
 9837SOL    HW230411   1.253   6.773   3.247
 9838SOL     OW30412   0.498   0.166   5.773
 9838SOL    HW130413   0.412   0.153   5.722
 9838SOL    HW230414   0.536   0.077   5.798
 9839SOL     OW30415   6.685   1.485   2.623
 9839SOL    HW130416   6.744   1.469   2.702
 9839SOL    HW230417   6.740   1.520   2.547
 9840SOL     OW30418   0.205   0.184   0.744
 9840SOL    HW130419   0.298   0.148   0.755
 9840SOL    HW230420   0.157   0.180   0.831
 9841SOL     OW30421   1.564   4.545   4.742
 9841SOL    HW130422   1.617   4.554   4.827
 9841SOL    HW230423   1.616   4.584   4.666
 9842SOL     OW30424   3.327   3.862   3.408
 9842SOL    HW130425   3.396   3.792   3.393
 9842SOL    HW230426   3.248   3.823   3.455
 9843SOL     OW30427   6.574   1.994   1.517
 9843SOL    HW130428   6.500   1.933   1.489
 9843SOL    HW230429   6.659   1.966   1.474
 9844SOL     OW30430   4.760   6.969   3.210
 9844SOL    HW130431   4.670   7.000   3.240
 9844SOL    HW230432   4.817   6.952   3.290
 9845SOL     OW30433   2.264   1.297   5.234
 9845SOL    HW130434   2.212   1.350   5.167
 9845SOL    HW230435   2.204   1.228   5.276
 9846SOL     OW30436   3.742   4.046   3.186
 9846SOL    HW130437   3.834   4.066   3.220
 9846SOL    HW230438   3.686   4.010   3.261
 9847SOL     OW30439   2.501   2.458   6.016
 9847SOL    HW130440   2.534   2.417   5.931
 9847SOL    HW230441   2.402   2.446   6.023
 9848SOL     OW30442   3.476   2.570   6.556
 9848SOL    HW130443   3.424   2.497   6.599
 9848SOL    HW230444   3.447   2.580   6.461
 9849SOL     OW30445   5.989   0.539   6.942
 9849SOL    HW130446   6.038   0.515   0.001
 9849SOL    HW230447   5.906   0.590   6.966
 9850SOL     OW30448   5.036   5.946   2.265
 9850SOL    HW130449   4.982   5.890   2.201
 9850SOL    HW230450   5.038   5.901   2.355
 9851SOL     OW30451   4.377   2.000   5.420
 9851SOL    HW130452   4.441   1.923   5.420
 9851SOL    HW230453   4.369   2.036   5.327
 9852SOL     OW30454   4.043   2.159   3.379
 9852SOL    HW130455   4.033   2.139   3.282
 9852SOL    HW230456   4.008   2.082   3.433
 9853SOL     OW30457   4.734   4.109   3.433
 9853SOL    HW130458   4.700   4.122   3.340
 9853SOL    HW230459   4.760   4.013   3.446
 9854SOL     OW30460   6.197   5.201   5.065
 9854SOL    HW130461   6.128   5.191   4.995
 9854SOL    HW230462   6.156   5.186   5.155
 9855SOL     OW30463   1.512   4.342   1.526
 9855SOL    HW130464   1.490   4.374   1.434
 9855SOL    HW230465   1.437   4.286   1.562
 9856SOL     OW30466   4.397   3.723   0.070
 9856SOL    HW130467   4.445   3.732   0.158
 9856SOL    HW230468   4.355   3.811   0.046
 9857SOL     OW30469   5.408   2.368   3.295
 9857SOL    HW130470   5.455   2.401   3.213
 9857SOL    HW230471   5.310   2.378   3.282
 9858SOL     OW30472   5.998   0.315   1.417
 9858SOL    HW130473   5.951   0.350   1.335
 9858SOL    HW230474   6.064   0.245   1.390
 9859SOL     OW30475   6.501   6.533   1.104
 9859SOL    HW130476   6.568   6.476   1.057
 9859SOL    HW230477   6.547   6.613   1.143
 9860SOL     OW30478   0.303   0.988   1.588
 9860SOL    HW130479   0.267   1.021   1.676
 9860SOL    HW230480   0.392   1.029   1.571
 9861SOL     OW30481   3.251   7.009   3.841
 9861SOL    HW130482   3.261   6.953   3.758
 9861SOL    HW230483   3.291   0.074   3.825
 9862SOL     OW30484   2.742   3.738   0.824
 9862SOL    HW130485   2.644   3.721   0.830
 9862SOL    HW230486   2.784   3.672   0.762
 9863SOL     OW30487   3.218   6.770   3.293
 9863SOL    HW130488   3.272   6.843   3.250
 9863SOL    HW230489   3.280   6.699   3.326
 9864SOL     OW30490   3.950   5.968   3.731
 9864SOL    HW130491   3.959   6.027   3.651
 9864SOL    HW230492   4.021   5.991   3.798
 9865SOL     OW30493   0.989   0.853   4.223
 9865SOL    HW130494   1.035   0.782   4.170
 9865SOL    HW230495   0.941   0.916   4.162
 9866SOL     OW30496   4.917   4.403   4.500
 9866SOL    HW130497   4.841   4.338   4.495
 9866SOL    HW230498   4.925   4.452   4.414
 9867SOL     OW30499   4.927   0.585   1.554
 9867SOL    HW130500   4.837   0.564   1.592
 9867SOL    HW230501   4.946   0.683   1.565
 9868SOL     OW30502   1.792   4.707   5.777
 9868SOL    HW130503   1.879   4.658   5.772
 9868SOL    HW230504   1.726   4.654   5.829
 9869SOL     OW30505   2.146   3.912   2.733
 9869SOL    HW130506   2.132   3.815   2.756
 9869SOL    HW230507   2.176   3.961   2.814
 9870SOL     OW30508   4.028   5.810   2.582
 9870SOL    HW130509   4.070   5.870   2.650
 9870SOL    HW230510   3.957   5.755   2.625
 9871SOL     OW30511   0.812   6.477   5.830
 9871SOL    HW130512   0.724   6.507   5.792
 9871SOL    HW230513   0.831   6.384   5.799
 9872SOL     OW30514   2.936   5.205   3.257
 9872SOL    HW130515   2.986   5.178   3.175
 9872SOL    HW230516   2.842   5.173   3.251
 9873SOL     OW30517   1.985   2.628   1.162
 9873SOL    HW130518   1.905   2.570   1.151
 9873SOL    HW230519   1.960   2.723   1.144
 9874SOL     OW30520   0.774   2.742   4.114
 9874SOL    HW130521   0.781   2.644   4.134
 9874SOL    HW230522   0.721   2.787   4.186
 9875SOL     OW30523   0.166   6.578   2.185
 9875SOL    HW130524   0.084   6.533   2.221
 9875SOL    HW230525   0.198   6.530   2.104
 9876SOL     OW30526   7.016   1.241   1.961
 9876SOL    HW130527   6.976   1.226   2.052
 9876SOL    HW230528   6.968   1.184   1.894
 9877SOL     OW30529   0.945   5.479   2.967
 9877SOL    HW130530   1.034   5.503   3.006
 9877SOL    HW230531   0.877   5.547   2.993
 9878SOL     OW30532   2.531   5.273   4.963
 9878SOL    HW130533   2.526   5.373   4.964
 9878SOL    HW230534   2.479   5.236   5.040
 9879SOL     OW30535   5.999   5.189   4.874
 9879SOL    HW130536   5.913   5.164   4.829
 9879SOL    HW230537   6.074   5.179   4.810
 9880SOL     OW30538   1.981   2.081   5.231
 9880SOL    HW130539   1.967   1.986   5.206
 9880SOL    HW230540   1.895   2.120   5.265
 9881SOL     OW30541   1.822   1.483   4.969
 9881SOL    HW130542   1.803   1.472   5.066
 9881SOL    HW230543   1.740   1.462   4.916
 9882SOL     OW30544   0.675   2.130   3.521
 9882SOL    HW130545   0.745   2.141   3.592
 9882SOL    HW230546   0.590   2.096   3.562
 9883SOL     OW30547   1.627   5.654   0.352
 9883SOL    HW130548   1.532   5.630   0.333
 9883SOL    HW230549   1.675   5.671   0.266
 9884SOL     OW30550   4.322   1.780   3.161
 9884SOL    HW130551   4.338   1.685   3.189
 9884SOL    HW230552   4.231   1.808   3.192
 9885SOL     OW30553   0.144   3.508   5.494
 9885SOL    HW130554   0.161   3.463   5.406
 9885SOL    HW230555   0.225   3.558   5.522
 9886SOL     OW30556   1.099   4.042   1.722
 9886SOL    HW130557   1.024   4.057   1.658
 9886SOL    HW230558   1.088   4.102   1.801
 9887SOL     OW30559   3.114   1.773   6.531
 9887SOL    HW130560   3.110   1.721   6.445
 9887SOL    HW230561   3.103   1.871   6.511
 9888SOL     OW30562   6.975   4.318   1.585
 9888SOL    HW130563   6.904   4.388   1.581
 9888SOL    HW230564   6.954   4.246   1.519
 9889SOL     OW30565   6.512   4.912   1.351
 9889SOL    HW130566   6.426   4.898   1.401
 9889SOL    HW230567   6.495   4.974   1.274
 9890SOL     OW30568   1.603   2.249   0.359
 9890SOL    HW130569   1.657   2.324   0.399
 9890SOL    HW230570   1.509   2.280   0.346
 9891SOL     OW30571   6.047   3.255   1.361
 9891SOL    HW130572   5.979   3.304   1.415
 9891SOL    HW230573   6.001   3.197   1.294
 9892SOL     OW30574   6.733   5.242   0.732
 9892SOL    HW130575   6.649   5.189   0.740
 9892SOL    HW230576   6.787   5.232   0.816
 9893SOL     OW30577   0.918   0.296   1.024
 9893SOL    HW130578   1.006   0.338   1.004
 9893SOL    HW230579   0.885   0.330   1.112
 9894SOL     OW30580   1.822   2.165   1.599
 9894SOL    HW130581   1.887   2.122   1.661
 9894SOL    HW230582   1.792   2.098   1.531
 9895SOL     OW30583   6.126   3.677   5.380
 9895SOL    HW130584   6.160   3.603   5.322
 9895SOL    HW230585   6.104   3.641   5.471
 9896SOL     OW30586   6.229   0.458   6.530
 9896SOL    HW130587   6.187   0.409   6.607
 9896SOL    HW230588   6.254   0.550   6.559
 9897SOL     OW30589   5.948   5.542   3.592
 9897SOL    HW130590   6.024   5.546   3.527
 9897SOL    HW230591   5.862   5.532   3.543
 9898SOL     OW30592   2.165   6.613   5.513
 9898SOL    HW130593   2.204   6.656   5.432
 9898SOL    HW230594   2.098   6.675   5.555
 9899SOL     OW30595   0.722   5.559   6.831
 9899SOL    HW130596   0.793   5.495   6.861
 9899SOL    HW230597   0.643   5.508   6.797
 9900SOL     OW30598   1.766   3.917   3.418
 9900SOL    HW130599   1.859   3.945   3.392
 9900SOL    HW230600   1.760   3.818   3.417
 9901SOL     OW30601   3.107   1.642   6.294
 9901SOL    HW130602   3.161   1.648   6.209
 9901SOL    HW230603   3.014   1.611   6.272
 9902SOL     OW30604   3.190   4.645   0.240
 9902SOL    HW130605   3.097   4.683   0.240
 9902SOL    HW230606   3.235   4.668   0.326
 9903SOL     OW30607   4.700   1.261   1.361
 9903SOL    HW130608   4.621   1.302   1.316
 9903SOL    HW230609   4.784   1.307   1.330
 9904SOL     OW30610   0.768   3.833   0.087
 9904SOL    HW130611   0.827   3.762   0.126
 9904SOL    HW230612   0.745   3.810   7.018
 9905SOL     OW30613   2.629   0.549   6.644
 9905SOL    HW130614   2.634   0.450   6.631
 9905SOL    HW230615   2.713   0.591   6.609
 9906SOL     OW30616   2.669   3.032   1.627
 9906SOL    HW130617   2.613   3.090   1.687
 9906SOL    HW230618   2.734   3.089   1.577
 9907SOL     OW30619   6.579   0.433   0.787
 9907SOL    HW130620   6.638   0.444   0.867
 9907SOL    HW230621   6.537   0.521   0.765
 9908SOL     OW30622   5.436   1.402   4.186
 9908SOL    HW130623   5.365   1.455   4.139
 9908SOL    HW230624   5.435   1.424   4.284
 9909SOL     OW30625   4.275   0.529   4.010
 9909SOL    HW130626   4.291   0.554   3.915
 9909SOL    HW230627   4.240   0.435   4.014
 9910SOL     OW30628   1.724   3.625   2.701
 9910SOL    HW130629   1.626   3.616   2.681
 9910SOL    HW230630   1.755   3.545   2.753
 9911SOL     OW30631   2.966   6.359   1.868
 9911SOL    HW130632   2.951   6.439   1.926
 9911SOL    HW230633   2.888   6.297   1.878
 9912SOL     OW30634   3.824   1.395   1.739
 9912SOL    HW130635   3.801   1.411   1.835
 9912SOL    HW230636   3.775   1.461   1.682
 9913SOL     OW30637   6.405   4.169   0.828
 9913SOL    HW130638   6.394   4.093   0.892
 9913SOL    HW230639   6.322   4.224   0.827
 9914SOL     OW30640   5.818   2.267   4.582
 9914SOL    HW130641   5.775   2.286   4.671
 9914SOL    HW230642   5.838   2.353   4.535
 9915SOL     OW30643   5.576   0.803   4.030
 9915SOL    HW130644   5.563   0.736   4.103
 9915SOL    HW230645   5.565   0.896   4.067
 9916SOL     OW30646   1.632   2.559   2.906
 9916SOL    HW130647   1.661   2.577   3.000
 9916SOL    HW230648   1.651   2.463   2.883
 9917SOL     OW30649   5.380   4.130   0.027
 9917SOL    HW130650   5.419   4.189   0.098
 9917SOL    HW230651   5.361   4.039   0.066
 9918SOL     OW30652   2.983   1.251   3.387
 9918SOL    HW130653   3.019   1.244   3.480
 9918SOL    HW230654   2.884   1.260   3.391
 9919SOL     OW30655   6.483   5.105   1.165
 9919SOL    HW130656   6.570   5.135   1.127
 9919SOL    HW230657   6.450   5.173   1.231
 9920SOL     OW30658   5.257   1.565   2.121
 9920SOL    HW130659   5.285   1.661   2.117
 9920SOL    HW230660   5.157   1.558   2.117
 9921SOL     OW30661   4.339   0.321   6.063
 9921SOL    HW130662   4.292   0.317   5.975
 9921SOL    HW230663   4.274   0.304   6.137
 9922SOL     OW30664   2.625   4.534   0.424
 9922SOL    HW130665   2.707   4.485   0.453
 9922SOL    HW230666   2.618   4.620   0.476
 9923SOL     OW30667   4.825   4.512   0.267
 9923SOL    HW130668   4.787   4.423   0.241
 9923SOL    HW230669   4.894   4.539   0.201
 9924SOL     OW30670   6.577   1.922   5.168
 9924SOL    HW130671   6.539   1.842   5.122
 9924SOL    HW230672   6.505   1.971   5.215
 9925SOL     OW30673   6.422   3.208   3.861
 9925SOL    HW130674   6.334   3.159   3.865
 9925SOL    HW230675   6.409   3.295   3.814
 9926SOL     OW30676   4.053   2.579   0.756
 9926SOL    HW130677   4.015   2.586   0.664
 9926SOL    HW230678   4.045   2.485   0.788
 9927SOL     OW30679   6.737   6.692   0.446
 9927SOL    HW130680   6.705   6.738   0.363
 9927SOL    HW230681   6.795   6.755   0.499
 9928SOL     OW30682   5.289   5.755   2.022
 9928SOL    HW130683   5.294   5.837   2.079
 9928SOL    HW230684   5.194   5.740   1.995
 9929SOL     OW30685   3.119   4.966   5.349
 9929SOL    HW130686   3.145   5.034   5.281
 9929SOL    HW230687   3.042   4.912   5.315
 9930SOL     OW30688   6.899   0.006   4.468
 9930SOL    HW130689   6.874   6.956   4.407
 9930SOL    HW230690   6.906   6.996   4.562
 9931SOL     OW30691   1.124   5.001   4.162
 9931SOL    HW130692   1.126   4.935   4.088
 9931SOL    HW230693   1.171   4.963   4.242
 9932SOL     OW30694   2.401   5.720   6.936
 9932SOL    HW130695   2.324   5.661   6.912
 9932SOL    HW230696   2.453   5.742   6.853
 9933SOL     OW30697   0.785   5.540   3.903
 9933SOL    HW130698   0.731   5.456   3.890
 9933SOL    HW230699   0.851   5.548   3.828
 9934SOL     OW30700   5.272   1.488   5.432
 9934SOL    HW130701   5.314   1.517   5.518
 9934SOL    HW230702   5.322   1.530   5.355
 9935SOL     OW30703   2.705   6.611   0.298
 9935SOL    HW130704   2.791   6.652   0.330
 9935SOL    HW230705   2.642   6.601   0.375
 9936SOL     OW30706   6.756   5.259   6.706
 9936SOL    HW130707   6.679   5.236   6.645
 9936SOL    HW230708   6.733   5.339   6.760
 9937SOL     OW30709   0.009   1.896   0.181
 9937SOL    HW130710   6.993   1.830   0.243
 9937SOL    HW230711   6.997   1.883   0.089
 9938SOL     OW30712   6.827   5.076   2.411
 9938SOL    HW130713   6.891   5.080   2.488
 9938SOL    HW230714   6.861   5.132   2.336
 9939SOL     OW30715   4.490   2.550   0.975
 9939SOL    HW130716   4.532   2.549   1.066
 9939SOL    HW230717   4.560   2.531   0.906
 9940SOL     OW30718   0.706   0.351   1.217
 9940SOL    HW130719   0.656   0.305   1.143
 9940SOL    HW230720   0.739   0.440   1.185
 9941SOL     OW30721   2.942   3.884   5.587
 9941SOL    HW130722   2.947   3.851   5.493
 9941SOL    HW230723   2.870   3.952   5.595
 9942SOL     OW30724   2.453   5.305   2.112
 9942SOL    HW130725   2.459   5.206   2.123
 9942SOL    HW230726   2.471   5.329   2.016
 9943SOL     OW30727   6.803   5.138   5.247
 9943SOL    HW130728   6.745   5.144   5.166
 9943SOL    HW230729   6.780   5.212   5.310
 9944SOL     OW30730   1.750   4.020   6.163
 9944SOL    HW130731   1.786   4.103   6.206
 9944SOL    HW230732   1.819   3.948   6.169
 9945SOL     OW30733   6.300   5.461   6.533
 9945SOL    HW130734   6.285   5.459   6.632
 9945SOL    HW230735   6.220   5.423   6.487
 9946SOL     OW30736   4.743   1.043   3.847
 9946SOL    HW130737   4.817   1.018   3.785
 9946SOL    HW230738   4.773   1.031   3.942
 9947SOL     OW30739   1.285   2.959   5.077
 9947SOL    HW130740   1.202   2.904   5.061
 9947SOL    HW230741   1.335   2.922   5.155
 9948SOL     OW30742   5.287   4.678   4.702
 9948SOL    HW130743   5.324   4.613   4.635
 9948SOL    HW230744   5.356   4.748   4.721
 9949SOL     OW30745   5.614   5.019   4.085
 9949SOL    HW130746   5.650   4.927   4.075
 9949SOL    HW230747   5.610   5.044   4.182
 9950SOL     OW30748   5.715   6.239   4.920
 9950SOL    HW130749   5.688   6.157   4.868
 9950SOL    HW230750   5.708   6.319   4.861
 9951SOL     OW30751   6.531   1.137   5.090
 9951SOL    HW130752   6.549   1.063   5.153
 9951SOL    HW230753   6.461   1.109   5.024
 9952SOL     OW30754   0.654   3.720   1.302
 9952SOL    HW130755   0.586   3.788   1.330
 9952SOL    HW230756   0.690   3.673   1.383
 9953SOL     OW30757   6.122   2.753   4.157
 9953SOL    HW130758   6.208   2.722   4.117
 9953SOL    HW230759   6.060   2.675   4.170
 9954SOL     OW30760   6.448   0.586   6.215
 9954SOL    HW130761   6.450   0.509   6.279
 9954SOL    HW230762   6.373   0.648   6.241
 9955SOL     OW30763   6.215   3.439   5.234
 9955SOL    HW130764   6.211   3.353   5.285
 9955SOL    HW230765   6.151   3.435   5.157
 9956SOL     OW30766   1.432   0.314   2.107
 9956SOL    HW130767   1.388   0.225   2.119
 9956SOL    HW230768   1.368   0.377   2.063
 9957SOL     OW30769   5.285   5.628   2.595
 9957SOL    HW130770   5.277   5.634   2.695
 9957SOL    HW230771   5.348   5.698   2.563
 9958SOL     OW30772   3.277   5.405   1.262
 9958SOL    HW130773   3.323   5.324   1.299
 9958SOL    HW230774   3.327   5.487   1.291
 9959SOL     OW30775   4.162   3.617   5.431
 9959SOL    HW130776   4.257   3.636   5.457
 9959SOL    HW230777   4.160   3.578   5.339
 9960SOL     OW30778   6.872   6.507   2.575
 9960SOL    HW130779   6.813   6.510   2.655
 9960SOL    HW230780   6.819   6.478   2.495
 9961SOL     OW30781   1.788   5.320   3.897
 9961SOL    HW130782   1.697   5.279   3.906
 9961SOL    HW230783   1.805   5.343   3.801
 9962SOL     OW30784   6.350   6.935   2.888
 9962SOL    HW130785   6.263   6.948   2.841
 9962SOL    HW230786   6.343   6.969   2.982
 9963SOL     OW30787   3.354   2.712   6.900
 9963SOL    HW130788   3.356   2.807   6.871
 9963SOL    HW230789   3.271   2.695   6.954
 9964SOL     OW30790   4.861   5.117   5.650
 9964SOL    HW130791   4.775   5.116   5.701
 9964SOL    HW230792   4.846   5.078   5.559
 9965SOL     OW30793   4.116   6.707   0.078
 9965SOL    HW130794   4.136   6.712   7.005
 9965SOL    HW230795   4.060   6.626   0.096
 9966SOL     OW30796   1.668   5.530   1.609
 9966SOL    HW130797   1.724   5.609   1.585
 9966SOL    HW230798   1.725   5.448   1.608
 9967SOL     OW30799   0.224   6.436   1.945
 9967SOL    HW130800   0.218   6.357   1.884
 9967SOL    HW230801   0.313   6.437   1.989
 9968SOL     OW30802   3.430   3.500   1.261
 9968SOL    HW130803   3.380   3.586   1.274
 9968SOL    HW230804   3.520   3.520   1.222
 9969SOL     OW30805   1.838   2.844   2.133
 9969SOL    HW130806   1.840   2.860   2.034
 9969SOL    HW230807   1.893   2.914   2.178
 9970SOL     OW30808   4.884   3.731   3.134
 9970SOL    HW130809   4.791   3.727   3.172
 9970SOL    HW230810   4.880   3.761   3.038
 9971SOL     OW30811   1.707   5.179   1.449
 9971SOL    HW130812   1.754   5.228   1.521
 9971SOL    HW230813   1.764   5.102   1.418
 9972SOL     OW30814   5.734   5.045   1.410
 9972SOL    HW130815   5.825   5.022   1.444
 9972SOL    HW230816   5.729   5.026   1.312
 9973SOL     OW30817   6.189   1.782   3.776
 9973SOL    HW130818   6.196   1.823   3.867
 9973SOL    HW230819   6.170   1.685   3.785
 9974SOL     OW30820   1.084   2.510   2.662
 9974SOL    HW130821   1.053   2.545   2.750
 9974SOL    HW230822   1.029   2.429   2.638
 9975SOL     OW30823   5.765   4.075   0.362
 9975SOL    HW130824   5.808   4.062   0.273
 9975SOL    HW230825   5.753   3.986   0.406
 9976SOL     OW30826   0.926   6.819   5.684
 9976SOL    HW130827   0.829   6.822   5.662
 9976SOL    HW230828   0.971   6.751   5.627
 9977SOL     OW30829   6.736   5.619   5.422
 9977SOL    HW130830   6.792   5.666   5.354
 9977SOL    HW230831   6.752   5.521   5.416
 9978SOL     OW30832   0.562   2.582   4.474
 9978SOL    HW130833   0.562   2.633   4.560
 9978SOL    HW230834   0.541   2.486   4.493
 9979SOL     OW30835   6.205   4.780   5.802
 9979SOL    HW130836   6.214   4.682   5.818
 9979SOL    HW230837   6.185   4.796   5.705
 9980SOL     OW30838   2.077   0.867   6.408
 9980SOL    HW130839   2.158   0.810   6.414
 9980SOL    HW230840   2.077   0.916   6.320
 9981SOL     OW30841   2.441   1.386   3.010
 9981SOL    HW130842   2.383   1.420   3.083
 9981SOL    HW230843   2.386   1.334   2.944
 9982SOL     OW30844   6.220   6.128   4.297
 9982SOL    HW130845   6.236   6.184   4.215
 9982SOL    HW230846   6.307   6.103   4.338
 9983SOL     OW30847   6.826   2.043   2.647
 9983SOL    HW130848   6.764   1.987   2.702
 9983SOL    HW230849   6.916   1.999   2.642
 9984SOL     OW30850   2.784   0.907   0.110
 9984SOL    HW130851   2.877   0.887   0.139
 9984SOL    HW230852   2.770   0.875   0.016
 9985SOL     OW30853   1.161   0.798   0.567
 9985SOL    HW130854   1.137   0.854   0.646
 9985SOL    HW230855   1.078   0.754   0.531
 9986SOL     OW30856   5.716   4.750   6.012
 9986SOL    HW130857   5.634   4.801   6.039
 9986SOL    HW230858   5.729   4.673   6.074
 9987SOL     OW30859   0.062   3.226   4.354
 9987SOL    HW130860   7.004   3.263   4.312
 9987SOL    HW230861   0.127   3.200   4.283
 9988SOL     OW30862   0.710   5.838   4.310
 9988SOL    HW130863   0.615   5.843   4.341
 9988SOL    HW230864   0.732   5.743   4.285
 9989SOL     OW30865   6.704   3.513   4.047
 9989SOL    HW130866   6.675   3.462   3.966
 9989SOL    HW230867   6.640   3.588   4.064
 9990SOL     OW30868   2.193   4.814   2.842
 9990SOL    HW130869   2.121   4.746   2.857
 9990SOL    HW230870   2.173   4.896   2.895
 9991SOL     OW30871   2.565   2.079   3.739
 9991SOL    HW130872   2.498   2.009   3.715
 9991SOL    HW230873   2.581   2.139   3.661
 9992SOL     OW30874   5.655   5.153   0.444
 9992SOL    HW130875   5.593   5.091   0.395
 9992SOL    HW230876   5.699   5.215   0.379
 9993SOL     OW30877   2.711   0.713   0.740
 9993SOL    HW130878   2.640   0.727   0.810
 9993SOL    HW230879   2.775   0.789   0.741
 9994SOL     OW30880   6.012   4.669   3.181
 9994SOL    HW130881   5.990   4.574   3.159
 9994SOL    HW230882   6.085   4.671   3.250
 9995SOL     OW30883   4.827   1.625   3.107
 9995SOL    HW130884   4.784   1.561   3.171
 9995SOL    HW230885   4.796   1.718   3.127
 9996SOL     OW30886   3.127   3.857   0.255
 9996SOL    HW130887   3.154   3.768   0.293
 9996SOL    HW230888   3.193   3.926   0.281
 9997SOL     OW30889   3.073   1.715   5.797
 9997SOL    HW130890   3.031   1.713   5.707
 9997SOL    HW230891   3.153   1.654   5.798
 9998SOL     OW30892   6.052   4.999   6.116
 9998SOL    HW130893   6.138   5.049   6.126
 9998SOL    HW230894   6.009   4.987   6.205
 9999SOL     OW30895   6.203   2.913   5.778
 9999SOL    HW130896   6.137   2.895   5.852
 9999SOL    HW230897   6.186   3.004   5.740
10000SOL     OW30898   6.755   4.309   6.914
10000SOL    HW130899   6.680   4.320   6.848
10000SOL    HW230900   6.720   4.265   6.997
10001SOL     OW30901   4.782   6.988   2.050
10001SOL    HW130902   4.735   6.900   2.058
10001SOL    HW230903   4.861   6.979   1.990
10002SOL     OW30904   1.271   6.673   1.885
10002SOL    HW130905   1.311   6.644   1.798
10002SOL    HW230906   1.199   6.609   1.911
10003SOL     OW30907   3.775   2.155   3.540
10003SOL    HW130908   3.758   2.092   3.465
10003SOL    HW230909   3.849   2.218   3.514
10004SOL     OW30910   6.747   2.560   4.127
10004SOL    HW130911   6.817   2.488   4.130
10004SOL    HW230912   6.661   2.522   4.095
10005SOL     OW30913   5.944   0.349   3.818
10005SOL    HW130914   5.962   0.399   3.902
10005SOL    HW230915   5.856   0.376   3.780
10006SOL     OW30916   5.192   5.908   4.598
10006SOL    HW130917   5.274   5.869   4.640
10006SOL    HW230918   5.111   5.864   4.635
10007SOL     OW30919   0.159   4.199   4.998
10007SOL    HW130920   0.163   4.156   5.088
10007SOL    HW230921   0.074   4.252   4.990
10008SOL     OW30922   3.912   1.336   4.995
10008SOL    HW130923   3.951   1.427   4.978
10008SOL    HW230924   3.957   1.269   4.936
10009SOL     OW30925   1.828   3.316   2.090
10009SOL    HW130926   1.812   3.288   2.185
10009SOL    HW230927   1.922   3.295   2.065
10010SOL     OW30928   2.578   1.294   5.869
10010SOL    HW130929   2.564   1.227   5.942
10010SOL    HW230930   2.675   1.320   5.865
10011SOL     OW30931   6.639   0.548   5.730
10011SOL    HW130932   6.668   0.642   5.716
10011SOL    HW230933   6.719   0.491   5.750
10012SOL     OW30934   6.145   1.083   2.840
10012SOL    HW130935   6.134   0.997   2.890
10012SOL    HW230936   6.077   1.149   2.871
10013SOL     OW30937   0.220   0.793   2.920
10013SOL    HW130938   0.139   0.780   2.864
10013SOL    HW230939   0.269   0.875   2.892
10014SOL     OW30940   0.824   4.481   6.916
10014SOL    HW130941   0.780   4.439   6.995
10014SOL    HW230942   0.796   4.433   6.833
10015SOL     OW30943   2.411   4.706   1.054
10015SOL    HW130944   2.476   4.647   1.100
10015SOL    HW230945   2.358   4.652   0.987
10016SOL     OW30946   1.011   1.632   6.272
10016SOL    HW130947   0.934   1.614   6.211
10016SOL    HW230948   1.094   1.648   6.219
10017SOL     OW30949   3.364   2.040   3.341
10017SOL    HW130950   3.280   2.094   3.332
10017SOL    HW230951   3.424   2.084   3.408
10018SOL     OW30952   4.991   0.413   6.694
10018SOL    HW130953   4.961   0.509   6.692
10018SOL    HW230954   4.914   0.354   6.670
10019SOL     OW30955   0.795   1.788   2.976
10019SOL    HW130956   0.868   1.825   3.034
10019SOL    HW230957   0.784   1.691   2.995
10020SOL     OW30958   1.239   1.984   1.642
10020SOL    HW130959   1.335   2.010   1.630
10020SOL    HW230960   1.192   1.986   1.554
10021SOL     OW30961   6.801   3.154   0.952
10021SOL    HW130962   6.900   3.162   0.961
10021SOL    HW230963   6.774   3.173   0.858
10022SOL     OW30964   2.384   1.678   5.772
10022SOL    HW130965   2.447   1.746   5.734
10022SOL    HW230966   2.357   1.614   5.700
10023SOL     OW30967   6.919   4.402   0.786
10023SOL    HW130968   6.910   4.334   0.859
10023SOL    HW230969   6.930   4.355   0.698
10024SOL     OW30970   1.407   5.946   3.461
10024SOL    HW130971   1.502   5.915   3.455
10024SOL    HW230972   1.404   6.046   3.465
10025SOL     OW30973   1.620   0.398   0.769
10025SOL    HW130974   1.588   0.360   0.682
10025SOL    HW230975   1.685   0.336   0.811
10026SOL     OW30976   5.170   0.441   3.600
10026SOL    HW130977   5.208   0.352   3.624
10026SOL    HW230978   5.070   0.436   3.600
10027SOL     OW30979   5.655   3.179   4.522
10027SOL    HW130980   5.752   3.200   4.537
10027SOL    HW230981   5.646   3.090   4.477
10028SOL     OW30982   0.850   0.672   0.697
10028SOL    HW130983   0.855   0.705   0.603
10028SOL    HW230984   0.883   0.578   0.701
10029SOL     OW30985   5.684   1.992   3.706
10029SOL    HW130986   5.693   2.036   3.616
10029SOL    HW230987   5.773   1.957   3.735
10030SOL     OW30988   1.755   0.316   2.959
10030SOL    HW130989   1.782   0.358   3.045
10030SOL    HW230990   1.676   0.365   2.920
10031SOL     OW30991   5.518   4.693   3.539
10031SOL    HW130992   5.485   4.767   3.597
10031SOL    HW230993   5.603   4.656   3.577
10032SOL     OW30994   2.875   1.371   5.386
10032SOL    HW130995   2.895   1.454   5.333
10032SOL    HW230996   2.823   1.396   5.467
10033SOL     OW30997   6.447   3.187   4.154
10033SOL    HW130998   6.468   3.201   4.058
10033SOL    HW230999   6.523   3.221   4.210
10034SOL     OW31000   3.425   0.746   4.289
10034SOL    HW131001   3.479   0.703   4.216
10034SOL    HW231002   3.484   0.806   4.342
10035SOL     OW31003   6.405   5.306   2.176
10035SOL    HW131004   6.315   5.317   2.133
10035SOL    HW231005   6.410   5.362   2.259
10036SOL     OW31006   6.772   2.328   0.540
10036SOL    HW131007   6.737   2.417   0.567
10036SOL    HW231008   6.710   2.286   0.474
10037SOL     OW31009   6.759   1.538   6.471
10037SOL    HW131010   6.687   1.530   6.402
10037SOL    HW231011   6.778   1.635   6.488
10038SOL     OW31012   6.463   7.006   0.348
10038SOL    HW131013   6.422   0.034   0.274
10038SOL    HW231014   6.546   6.962   0.315
10039SOL     OW31015   3.343   7.001   3.477
10039SOL    HW131016   3.248   6.977   3.459
10039SOL    HW231017   3.390   7.021   3.391
10040SOL     OW31018   5.774   4.267   6.975
10040SOL    HW131019   5.811   4.353   7.010
10040SOL    HW231020   5.848   4.210   6.941
10041SOL     OW31021   3.576   6.220   0.517
10041SOL    HW131022   3.611   6.260   0.602
10041SOL    HW231023   3.646   6.229   0.446
10042SOL     OW31024   6.849   2.023   3.287
10042SOL    HW131025   6.834   2.122   3.280
10042SOL    HW231026   6.784   1.975   3.228
10043SOL     OW31027   6.679   2.249   5.867
10043SOL    HW131028   6.749   2.320   5.855
10043SOL    HW231029   6.680   2.188   5.787
10044SOL     OW31030   2.837   3.068   5.838
10044SOL    HW131031   2.894   3.129   5.893
10044SOL    HW231032   2.894   2.993   5.802
10045SOL     OW31033   4.396   1.300   0.681
10045SOL    HW131034   4.352   1.233   0.622
10045SOL    HW231035   4.367   1.286   0.775
10046SOL     OW31036   1.587   4.295   1.148
10046SOL    HW131037   1.621   4.209   1.185
10046SOL    HW231038   1.544   4.349   1.220
10047SOL     OW31039   1.031   3.573   6.290
10047SOL    HW131040   1.031   3.560   6.191
10047SOL    HW231041   1.056   3.487   6.334
10048SOL     OW31042   6.716   6.589   2.816
10048SOL    HW131043   6.802   6.565   2.860
10048SOL    HW231044   6.677   6.670   2.860
10049SOL     OW31045   6.990   2.705   6.015
10049SOL    HW131046   0.055   2.667   6.036
10049SOL    HW231047   6.955   2.755   6.094
10050SOL     OW31048   5.332   3.546   5.104
10050SOL    HW131049   5.236   3.554   5.080
10050SOL    HW231050   5.378   3.486   5.037
10051SOL     OW31051   1.022   4.029   4.761
10051SOL    HW131052   1.110   4.014   4.806
10051SOL    HW231053   1.008   3.960   4.690
10052SOL     OW31054   1.040   0.721   3.468
10052SOL    HW131055   0.950   0.728   3.512
10052SOL    HW231056   1.099   0.661   3.522
10053SOL     OW31057   4.779   5.198   4.505
10053SOL    HW131058   4.706   5.256   4.544
10053SOL    HW231059   4.846   5.255   4.459
10054SOL     OW31060   5.325   3.986   4.946
10054SOL    HW131061   5.352   3.944   4.859
10054SOL    HW231062   5.398   3.972   5.013
10055SOL     OW31063   6.653   2.423   6.665
10055SOL    HW131064   6.632   2.398   6.571
10055SOL    HW231065   6.752   2.416   6.680
10056SOL     OW31066   5.502   3.269   3.582
10056SOL    HW131067   5.446   3.196   3.545
10056SOL    HW231068   5.475   3.289   3.676
10057SOL     OW31069   5.506   4.322   6.483
10057SOL    HW131070   5.462   4.243   6.526
10057SOL    HW231071   5.523   4.302   6.387
10058SOL     OW31072   6.331   3.131   5.160
10058SOL    HW131073   6.381   3.086   5.086
10058SOL    HW231074   6.304   3.063   5.228
10059SOL     OW31075   6.714   1.440   0.066
10059SOL    HW131076   6.686   1.346   0.051
10059SOL    HW231077   6.813   1.444   0.077
10060SOL     OW31078   2.695   2.073   2.419
10060SOL    HW131079   2.666   2.035   2.331
10060SOL    HW231080   2.747   2.157   2.403
10061SOL     OW31081   3.861   0.981   3.629
10061SOL    HW131082   3.864   0.882   3.622
10061SOL    HW231083   3.942   1.020   3.586
10062SOL     OW31084   0.610   0.025   3.621
10062SOL    HW131085   0.588   0.086   3.697
10062SOL    HW231086   0.682   6.987   3.649
10063SOL     OW31087   1.677   2.553   4.725
10063SOL    HW131088   1.705   2.568   4.819
10063SOL    HW231089   1.737   2.484   4.683
10064SOL     OW31090   3.146   6.325   0.486
10064SOL    HW131091   3.156   6.393   0.558
10064SOL    HW231092   3.052   6.325   0.452
10065SOL     OW31093   0.965   0.626   2.101
10065SOL    HW131094   1.063   0.625   2.123
10065SOL    HW231095   0.944   0.707   2.046
10066SOL     OW31096   6.558   3.692   4.748
10066SOL    HW131097   6.579   3.789   4.760
10066SOL    HW231098   6.559   3.670   4.651
10067SOL     OW31099   0.445   2.342   5.954
10067SOL    HW131100   0.360   2.386   5.926
10067SOL    HW231101   0.513   2.411   5.978
10068SOL     OW31102   2.311   2.866   2.892
10068SOL    HW131103   2.293   2.883   2.989
10068SOL    HW231104   2.357   2.778   2.881
10069SOL     OW31105   3.521   5.128   1.638
10069SOL    HW131106   3.528   5.194   1.712
10069SOL    HW231107   3.428   5.092   1.633
10070SOL     OW31108   3.233   5.802   4.968
10070SOL    HW131109   3.154   5.820   5.027
10070SOL    HW231110   3.233   5.706   4.940
10071SOL     OW31111   0.186   0.018   3.341
10071SOL    HW131112   0.226   6.954   3.362
10071SOL    HW231113   0.240   0.090   3.387
10072SOL     OW31114   6.764   1.690   2.202
10072SOL    HW131115   6.681   1.638   2.184
10072SOL    HW231116   6.844   1.632   2.187
10073SOL     OW31117   5.962   2.877   4.598
10073SOL    HW131118   5.935   2.970   4.624
10073SOL    HW231119   5.884   2.815   4.608
10074SOL     OW31120   2.065   4.829   0.602
10074SOL    HW131121   2.165   4.830   0.600
10074SOL    HW231122   2.031   4.751   0.550
10075SOL     OW31123   1.907   2.561   2.201
10075SOL    HW131124   1.901   2.647   2.150
10075SOL    HW231125   1.827   2.505   2.179
10076SOL     OW31126   4.958   5.123   3.334
10076SOL    HW131127   5.030   5.092   3.271
10076SOL    HW231128   4.960   5.067   3.417
10077SOL     OW31129   6.513   3.283   6.846
10077SOL    HW131130   6.590   3.336   6.881
10077SOL    HW231131   6.442   3.276   6.916
10078SOL     OW31132   0.071   6.283   4.771
10078SOL    HW131133   7.024   6.309   4.834
10078SOL    HW231134   0.037   6.212   4.709
10079SOL     OW31135   5.157   2.656   3.113
10079SOL    HW131136   5.065   2.686   3.137
10079SOL    HW231137   5.170   2.664   3.014
10080SOL     OW31138   5.837   0.688   5.787
10080SOL    HW131139   5.758   0.636   5.820
10080SOL    HW231140   5.886   0.727   5.864
10081SOL     OW31141   1.794   2.655   0.656
10081SOL    HW131142   1.787   2.753   0.637
10081SOL    HW231143   1.879   2.637   0.706
10082SOL     OW31144   1.344   4.393   2.426
10082SOL    HW131145   1.430   4.368   2.469
10082SOL    HW231146   1.301   4.312   2.386
10083SOL     OW31147   4.149   5.089   3.787
10083SOL    HW131148   4.197   5.166   3.745
10083SOL    HW231149   4.216   5.016   3.808
10084SOL     OW31150   1.133   0.569   5.251
10084SOL    HW131151   1.189   0.504   5.200
10084SOL    HW231152   1.037   0.554   5.230
10085SOL     OW31153   4.386   6.642   0.483
10085SOL    HW131154   4.369   6.713   0.414
10085SOL    HW231155   4.476   6.601   0.467
10086SOL     OW31156   7.018   5.898   1.793
10086SOL    HW131157   6.976   5.928   1.707
10086SOL    HW231158   0.029   5.805   1.781
10087SOL     OW31159   1.602   6.714   4.643
10087SOL    HW131160   1.515   6.682   4.605
10087SOL    HW231161   1.607   6.689   4.740
10088SOL     OW31162   6.904   3.155   0.231
10088SOL    HW131163   6.959   3.182   0.153
10088SOL    HW231164   6.808   3.147   0.203
10089SOL     OW31165   4.032   1.648   2.258
10089SOL    HW131166   4.047   1.668   2.161
10089SOL    HW231167   3.997   1.730   2.304
10090SOL     OW31168   1.483   5.789   1.050
10090SOL    HW131169   1.486   5.887   1.028
10090SOL    HW231170   1.500   5.736   0.966
10091SOL     OW31171   6.477   4.446   6.157
10091SOL    HW131172   6.441   4.536   6.133
10091SOL    HW231173   6.491   4.440   6.256
10092SOL     OW31174   0.421   2.769   5.396
10092SOL    HW131175   0.358   2.704   5.353
10092SOL    HW231176   0.402   2.773   5.494
10093SOL     OW31177   5.379   4.411   6.186
10093SOL    HW131178   5.285   4.376   6.188
10093SOL    HW231179   5.443   4.334   6.179
10094SOL     OW31180   3.307   0.860   0.904
10094SOL    HW131181   3.279   0.764   0.912
10094SOL    HW231182   3.403   0.864   0.877
10095SOL     OW31183   4.749   2.558   5.188
10095SOL    HW131184   4.660   2.541   5.231
10095SOL    HW231185   4.769   2.656   5.189
10096SOL     OW31186   4.947   0.976   2.851
10096SOL    HW131187   4.903   0.887   2.866
10096SOL    HW231188   5.040   0.961   2.817
10097SOL     OW31189   1.341   1.517   6.649
10097SOL    HW131190   1.354   1.539   6.552
10097SOL    HW231191   1.265   1.570   6.685
10098SOL     OW31192   3.499   5.326   4.347
10098SOL    HW131193   3.486   5.308   4.444
10098SOL    HW231194   3.566   5.262   4.310
10099SOL     OW31195   6.632   4.759   1.593
10099SOL    HW131196   6.535   4.736   1.583
10099SOL    HW231197   6.645   4.856   1.576
10100SOL     OW31198   4.827   5.280   4.839
10100SOL    HW131199   4.755   5.310   4.776
10100SOL    HW231200   4.890   5.219   4.791
10101SOL     OW31201   1.248   2.025   0.648
10101SOL    HW131202   1.325   2.052   0.591
10101SOL    HW231203   1.275   2.031   0.745
10102SOL     OW31204   6.391   6.123   1.740
10102SOL    HW131205   6.401   6.154   1.646
10102SOL    HW231206   6.471   6.069   1.766
10103SOL     OW31207   6.945   6.679   6.296
10103SOL    HW131208   6.999   6.743   6.350
10103SOL    HW231209   7.005   6.625   6.237
10104SOL     OW31210   1.676   0.825   5.354
10104SOL    HW131211   1.673   0.854   5.450
10104SOL    HW231212   1.750   0.760   5.341
10105SOL     OW31213   2.604   0.914   5.941
10105SOL    HW131214   2.524   0.973   5.929
10105SOL    HW231215   2.682   0.969   5.971
10106SOL     OW31216   4.927   5.954   1.424
10106SOL    HW131217   5.002   5.888   1.416
10106SOL    HW231218   4.961   6.045   1.399
10107SOL     OW31219   5.054   3.870   6.624
10107SOL    HW131220   5.137   3.841   6.576
10107SOL    HW231221   4.975   3.860   6.563
10108SOL     OW31222   1.785   2.424   0.480
10108SOL    HW131223   1.851   2.369   0.530
10108SOL    HW231224   1.753   2.499   0.538
10109SOL     OW31225   1.285   1.524   0.515
10109SOL    HW131226   1.255   1.486   0.428
10109SOL    HW231227   1.289   1.452   0.584
10110SOL     OW31228   4.877   6.616   2.940
10110SOL    HW131229   4.827   6.700   2.923
10110SOL    HW231230   4.896   6.570   2.853
10111SOL     OW31231   1.430   1.252   2.144
10111SOL    HW131232   1.517   1.302   2.148
10111SOL    HW231233   1.370   1.284   2.216
10112SOL     OW31234   6.333   2.299   3.822
10112SOL    HW131235   6.269   2.342   3.758
10112SOL    HW231236   6.351   2.205   3.793
10113SOL     OW31237   5.681   1.297   6.688
10113SOL    HW131238   5.667   1.339   6.778
10113SOL    HW231239   5.675   1.198   6.696
10114SOL     OW31240   4.067   1.741   2.624
10114SOL    HW131241   3.989   1.722   2.564
10114SOL    HW231242   4.095   1.657   2.670
10115SOL     OW31243   3.457   2.604   5.504
10115SOL    HW131244   3.381   2.599   5.439
10115SOL    HW231245   3.462   2.696   5.542
10116SOL     OW31246   6.217   0.246   4.553
10116SOL    HW131247   6.171   0.163   4.584
10116SOL    HW231248   6.308   0.223   4.518
10117SOL     OW31249   6.412   5.042   4.127
10117SOL    HW131250   6.377   5.112   4.065
10117SOL    HW231251   6.339   5.011   4.187
10118SOL     OW31252   3.472   5.242   4.595
10118SOL    HW131253   3.410   5.240   4.674
10118SOL    HW231254   3.564   5.219   4.625
10119SOL     OW31255   0.557   5.050   4.752
10119SOL    HW131256   0.631   4.986   4.772
10119SOL    HW231257   0.491   5.005   4.691
10120SOL     OW31258   2.285   2.766   1.981
10120SOL    HW131259   2.307   2.784   2.077
10120SOL    HW231260   2.351   2.813   1.923
10121SOL     OW31261   6.147   4.292   0.727
10121SOL    HW131262   6.087   4.229   0.776
10121SOL    HW231263   6.108   4.384   0.730
10122SOL     OW31264   1.311   0.679   3.799
10122SOL    HW131265   1.363   0.710   3.720
10122SOL    HW231266   1.371   0.671   3.878
10123SOL     OW31267   5.777   5.478   0.568
10123SOL    HW131268   5.689   5.430   0.564
10123SOL    HW231269   5.781   5.533   0.651
10124SOL     OW31270   1.446   4.053   2.940
10124SOL    HW131271   1.532   4.059   2.991
10124SOL    HW231272   1.370   4.040   3.003
10125SOL     OW31273   1.223   1.593   6.079
10125SOL    HW131274   1.235   1.676   6.023
10125SOL    HW231275   1.201   1.516   6.019
10126SOL     OW31276   6.512   6.414   6.673
10126SOL    HW131277   6.501   6.490   6.609
10126SOL    HW231278   6.607   6.413   6.706
10127SOL     OW31279   2.078   5.298   6.127
10127SOL    HW131280   2.005   5.230   6.133
10127SOL    HW231281   2.147   5.267   6.063
10128SOL     OW31282   3.083   0.687   7.013
10128SOL    HW131283   3.116   0.723   0.076
10128SOL    HW231284   3.161   0.660   6.957
10129SOL     OW31285   6.129   1.512   3.970
10129SOL    HW131286   6.085   1.423   3.984
10129SOL    HW231287   6.188   1.532   4.048
10130SOL     OW31288   1.685   1.989   2.726
10130SOL    HW131289   1.746   1.956   2.653
10130SOL    HW231290   1.738   2.041   2.793
10131SOL     OW31291   2.058   0.679   4.307
10131SOL    HW131292   1.999   0.678   4.226
10131SOL    HW231293   2.001   0.671   4.389
10132SOL     OW31294   6.747   0.753   1.845
10132SOL    HW131295   6.686   0.692   1.895
10132SOL    HW231296   6.720   0.848   1.862
10133SOL     OW31297   5.059   0.201   0.313
10133SOL    HW131298   5.032   0.143   0.236
10133SOL    HW231299   5.046   0.297   0.289
10134SOL     OW31300   6.332   1.010   1.852
10134SOL    HW131301   6.354   0.912   1.851
10134SOL    HW231302   6.233   1.021   1.858
10135SOL     OW31303   6.434   0.525   2.325
10135SOL    HW131304   6.354   0.487   2.371
10135SOL    HW231305   6.460   0.466   2.248
10136SOL     OW31306   5.535   1.742   2.987
10136SOL    HW131307   5.572   1.748   3.080
10136SOL    HW231308   5.451   1.688   2.989
10137SOL     OW31309   6.221   5.569   5.511
10137SOL    HW131310   6.302   5.625   5.526
10137SOL    HW231311   6.139   5.622   5.534
10138SOL     OW31312   6.684   1.799   0.367
10138SOL    HW131313   6.618   1.749   0.311
10138SOL    HW231314   6.649   1.892   0.382
10139SOL     OW31315   3.425   3.544   6.169
10139SOL    HW131316   3.402   3.641   6.164
10139SOL    HW231317   3.434   3.518   6.265
10140SOL     OW31318   0.034   5.981   5.813
10140SOL    HW131319   0.072   6.065   5.774
10140SOL    HW231320   0.079   5.963   5.901
10141SOL     OW31321   2.226   1.999   4.173
10141SOL    HW131322   2.312   2.036   4.139
10141SOL    HW231323   2.216   1.904   4.144
10142SOL     OW31324   5.550   6.393   4.311
10142SOL    HW131325   5.581   6.368   4.403
10142SOL    HW231326   5.587   6.327   4.245
10143SOL     OW31327   5.276   3.548   6.642
10143SOL    HW131328   5.248   3.604   6.565
10143SOL    HW231329   5.336   3.475   6.610
10144SOL     OW31330   3.745   6.630   5.715
10144SOL    HW131331   3.685   6.607   5.638
10144SOL    HW231332   3.690   6.668   5.789
10145SOL     OW31333   5.585   6.199   6.716
10145SOL    HW131334   5.647   6.141   6.769
10145SOL    HW231335   5.611   6.295   6.728
10146SOL     OW31336   0.265   2.517   4.509
10146SOL    HW131337   0.217   2.577   4.573
10146SOL    HW231338   0.321   2.451   4.559
10147SOL     OW31339   5.076   5.779   6.098
10147SOL    HW131340   5.059   5.834   6.180
10147SOL    HW231341   5.037   5.687   6.110
10148SOL     OW31342   1.239   4.644   6.788
10148SOL    HW131343   1.175   4.633   6.711
10148SOL    HW231344   1.187   4.654   6.873
10149SOL     OW31345   4.220   4.455   0.302
10149SOL    HW131346   4.211   4.411   0.391
10149SOL    HW231347   4.188   4.393   0.230
10150SOL     OW31348   4.295   4.622   7.010
10150SOL    HW131349   4.337   4.685   0.050
10150SOL    HW231350   4.359   4.604   6.935
10151SOL     OW31351   5.885   6.811   5.525
10151SOL    HW131352   5.848   6.750   5.597
10151SOL    HW231353   5.809   6.858   5.481
10152SOL     OW31354   5.228   6.271   3.089
10152SOL    HW131355   5.291   6.296   3.163
10152SOL    HW231356   5.155   6.339   3.083
10153SOL     OW31357   5.077   4.119   3.528
10153SOL    HW131358   5.062   4.029   3.568
10153SOL    HW231359   5.149   4.114   3.459
10154SOL     OW31360   5.355   5.461   5.177
10154SOL    HW131361   5.392   5.419   5.094
10154SOL    HW231362   5.293   5.398   5.222
10155SOL     OW31363   4.289   2.059   4.858
10155SOL    HW131364   4.233   2.129   4.813
10155SOL    HW231365   4.292   1.977   4.801
10156SOL     OW31366   5.014   2.265   6.802
10156SOL    HW131367   4.914   2.261   6.801
10156SOL    HW231368   5.047   2.308   6.718
10157SOL     OW31369   0.343   2.645   1.221
10157SOL    HW131370   0.304   2.732   1.191
10157SOL    HW231371   0.391   2.658   1.308
10158SOL     OW31372   5.865   5.732   1.303
10158SOL    HW131373   5.773   5.767   1.323
10158SOL    HW231374   5.877   5.644   1.349
10159SOL     OW31375   3.755   3.355   2.536
10159SOL    HW131376   3.812   3.288   2.583
10159SOL    HW231377   3.784   3.363   2.441
10160SOL     OW31378   1.698   5.389   3.437
10160SOL    HW131379   1.635   5.457   3.474
10160SOL    HW231380   1.734   5.421   3.349
10161SOL     OW31381   5.304   3.291   5.612
10161SOL    HW131382   5.214   3.268   5.574
10161SOL    HW231383   5.318   3.390   5.606
10162SOL     OW31384   1.301   3.326   2.620
10162SOL    HW131385   1.305   3.412   2.671
10162SOL    HW231386   1.281   3.251   2.683
10163SOL     OW31387   1.333   6.109   5.281
10163SOL    HW131388   1.432   6.097   5.276
10163SOL    HW231389   1.288   6.020   5.271
10164SOL     OW31390   1.012   2.802   2.958
10164SOL    HW131391   1.029   2.703   2.951
10164SOL    HW231392   1.015   2.843   2.867
10165SOL     OW31393   6.827   3.333   4.634
10165SOL    HW131394   6.770   3.279   4.572
10165SOL    HW231395   6.921   3.334   4.601
10166SOL     OW31396   1.424   0.903   0.788
10166SOL    HW131397   1.324   0.905   0.781
10166SOL    HW231398   1.457   0.810   0.770
10167SOL     OW31399   2.241   0.324   6.713
10167SOL    HW131400   2.265   0.420   6.700
10167SOL    HW231401   2.292   0.268   6.647
10168SOL     OW31402   0.030   1.032   0.622
10168SOL    HW131403   0.042   0.937   0.594
10168SOL    HW231404   7.022   1.035   0.716
10169SOL     OW31405   6.408   2.690   3.557
10169SOL    HW131406   6.437   2.786   3.550
10169SOL    HW231407   6.355   2.677   3.641
10170SOL     OW31408   6.235   5.547   6.128
10170SOL    HW131409   6.177   5.496   6.192
10170SOL    HW231410   6.295   5.484   6.080
10171SOL     OW31411   2.168   3.649   5.789
10171SOL    HW131412   2.139   3.705   5.866
10171SOL    HW231413   2.181   3.554   5.820
10172SOL     OW31414   6.523   0.280   2.615
10172SOL    HW131415   6.622   0.291   2.608
10172SOL    HW231416   6.480   0.369   2.631
10173SOL     OW31417   3.172   4.463   5.569
10173SOL    HW131418   3.134   4.412   5.646
10173SOL    HW231419   3.134   4.430   5.484
10174SOL     OW31420   4.758   6.013   3.063
10174SOL    HW131421   4.836   5.987   3.121
10174SOL    HW231422   4.744   5.942   2.994
10175SOL     OW31423   0.283   1.087   3.971
10175SOL    HW131424   0.368   1.130   3.938
10175SOL    HW231425   0.205   1.139   3.936
10176SOL     OW31426   5.820   1.960   5.925
10176SOL    HW131427   5.743   1.952   5.988
10176SOL    HW231428   5.786   1.963   5.831
10177SOL     OW31429   2.339   0.586   2.646
10177SOL    HW131430   2.387   0.643   2.713
10177SOL    HW231431   2.357   0.620   2.554
10178SOL     OW31432   2.249   1.679   0.213
10178SOL    HW131433   2.181   1.609   0.192
10178SOL    HW231434   2.266   1.680   0.311
10179SOL     OW31435   1.093   4.198   1.111
10179SOL    HW131436   1.087   4.148   1.197
10179SOL    HW231437   1.190   4.214   1.089
10180SOL     OW31438   4.401   0.323   6.376
10180SOL    HW131439   4.332   0.291   6.441
10180SOL    HW231440   4.391   0.274   6.290
10181SOL     OW31441   0.001   3.570   1.997
10181SOL    HW131442   0.093   3.568   2.037
10181SOL    HW231443   7.011   3.658   1.953
10182SOL     OW31444   5.614   2.360   7.013
10182SOL    HW131445   5.638   2.328   0.080
10182SOL    HW231446   5.657   2.301   6.944
10183SOL     OW31447   6.261   2.549   6.775
10183SOL    HW131448   6.227   2.636   6.740
10183SOL    HW231449   6.325   2.510   6.709
10184SOL     OW31450   5.608   3.550   6.110
10184SOL    HW131451   5.654   3.633   6.139
10184SOL    HW231452   5.552   3.514   6.184
10185SOL     OW31453   3.950   5.790   2.324
10185SOL    HW131454   4.015   5.731   2.277
10185SOL    HW231455   3.974   5.798   2.420
10186SOL     OW31456   3.976   3.284   5.993
10186SOL    HW131457   3.960   3.333   5.907
10186SOL    HW231458   4.061   3.316   6.035
10187SOL     OW31459   1.700   5.574   5.815
10187SOL    HW131460   1.601   5.581   5.829
10187SOL    HW231461   1.748   5.612   5.894
10188SOL     OW31462   2.936   0.012   6.886
10188SOL    HW131463   2.927   6.991   6.974
10188SOL    HW231464   3.030   0.046   6.875
10189SOL     OW31465   1.181   1.850   5.965
10189SOL    HW131466   1.085   1.827   5.950
10189SOL    HW231467   1.207   1.928   5.907
10190SOL     OW31468   2.842   5.462   1.913
10190SOL    HW131469   2.900   5.486   1.991
10190SOL    HW231470   2.862   5.368   1.884
10191SOL     OW31471   5.510   5.397   0.134
10191SOL    HW131472   5.580   5.343   0.181
10191SOL    HW231473   5.514   5.378   0.036
10192SOL     OW31474   2.139   1.754   4.607
10192SOL    HW131475   2.105   1.720   4.695
10192SOL    HW231476   2.159   1.676   4.547
10193SOL     OW31477   3.824   4.028   3.531
10193SOL    HW131478   3.754   3.985   3.474
10193SOL    HW231479   3.783   4.100   3.586
10194SOL     OW31480   3.584   7.003   3.972
10194SOL    HW131481   3.613   6.979   3.879
10194SOL    HW231482   3.485   7.007   3.976
10195SOL     OW31483   3.948   6.173   1.868
10195SOL    HW131484   4.044   6.150   1.887
10195SOL    HW231485   3.942   6.270   1.842
10196SOL     OW31486   6.198   1.647   3.171
10196SOL    HW131487   6.155   1.639   3.081
10196SOL    HW231488   6.159   1.578   3.232
10197SOL     OW31489   5.565   0.896   2.445
10197SOL    HW131490   5.549   0.979   2.500
10197SOL    HW231491   5.539   0.914   2.350
10198SOL     OW31492   2.691   0.319   1.225
10198SOL    HW131493   2.692   0.396   1.161
10198SOL    HW231494   2.606   0.267   1.214
10199SOL     OW31495   0.394   1.012   6.851
10199SOL    HW131496   0.481   0.972   6.823
10199SOL    HW231497   0.402   1.048   6.944
10200SOL     OW31498   5.272   4.365   5.276
10200SOL    HW131499   5.236   4.272   5.268
10200SOL    HW231500   5.356   4.373   5.221
10201SOL     OW31501   1.341   4.700   2.417
10201SOL    HW131502   1.334   4.600   2.426
10201SOL    HW231503   1.291   4.729   2.335
10202SOL     OW31504   1.575   2.992   2.345
10202SOL    HW131505   1.492   2.979   2.400
10202SOL    HW231506   1.558   2.965   2.251
10203SOL     OW31507   2.248   2.944   2.639
10203SOL    HW131508   2.280   2.927   2.732
10203SOL    HW231509   2.184   3.021   2.640
10204SOL     OW31510   2.930   4.772   5.315
10204SOL    HW131511   2.916   4.769   5.414
10204SOL    HW231512   2.923   4.680   5.277
10205SOL     OW31513   5.149   2.405   3.197
10205SOL    HW131514   5.116   2.352   3.119
10205SOL    HW231515   5.144   2.503   3.176
10206SOL     OW31516   5.153   0.115   6.154
10206SOL    HW131517   5.138   0.061   6.237
10206SOL    HW231518   5.089   0.191   6.152
10207SOL     OW31519   3.503   0.949   3.160
10207SOL    HW131520   3.474   1.028   3.106
10207SOL    HW231521   3.502   0.867   3.102
10208SOL     OW31522   6.362   4.225   5.632
10208SOL    HW131523   6.456   4.215   5.600
10208SOL    HW231524   6.312   4.287   5.572
10209SOL     OW31525   6.384   6.415   6.202
10209SOL    HW131526   6.383   6.496   6.144
10209SOL    HW231527   6.294   6.404   6.245
10210SOL     OW31528   5.210   5.970   2.723
10210SOL    HW131529   5.197   6.002   2.817
10210SOL    HW231530   5.298   6.003   2.688
10211SOL     OW31531   3.901   6.024   4.867
10211SOL    HW131532   3.860   5.938   4.897
10211SOL    HW231533   3.956   6.063   4.941
10212SOL     OW31534   0.054   1.007   4.759
10212SOL    HW131535   0.014   0.958   4.681
10212SOL    HW231536   0.054   1.105   4.741
10213SOL     OW31537   6.454   1.415   3.290
10213SOL    HW131538   6.434   1.478   3.365
10213SOL    HW231539   6.466   1.468   3.205
10214SOL     OW31540   6.642   1.005   1.794
10214SOL    HW131541   6.661   1.094   1.835
10214SOL    HW231542   6.547   1.003   1.762
10215SOL     OW31543   3.925   4.392   6.165
10215SOL    HW131544   3.912   4.312   6.107
10215SOL    HW231545   3.839   4.443   6.172
10216SOL     OW31546   5.300   0.533   1.103
10216SOL    HW131547   5.380   0.507   1.049
10216SOL    HW231548   5.248   0.604   1.054
10217SOL     OW31549   2.651   1.561   4.502
10217SOL    HW131550   2.579   1.544   4.568
10217SOL    HW231551   2.614   1.611   4.423
10218SOL     OW31552   1.689   1.047   0.417
10218SOL    HW131553   1.603   1.062   0.465
10218SOL    HW231554   1.742   0.977   0.464
10219SOL     OW31555   0.808   2.530   1.319
10219SOL    HW131556   0.903   2.501   1.327
10219SOL    HW231557   0.770   2.496   1.233
10220SOL     OW31558   4.308   1.996   1.276
10220SOL    HW131559   4.255   2.081   1.270
10220SOL    HW231560   4.245   1.918   1.276
10221SOL     OW31561   2.866   0.266   5.262
10221SOL    HW131562   2.921   0.335   5.308
10221SOL    HW231563   2.769   0.286   5.275
10222SOL     OW31564   1.695   4.899   5.327
10222SOL    HW131565   1.625   4.969   5.344
10222SOL    HW231566   1.725   4.859   5.413
10223SOL     OW31567   1.559   3.896   0.131
10223SOL    HW131568   1.624   3.950   0.185
10223SOL    HW231569   1.468   3.938   0.137
10224SOL     OW31570   1.445   0.242   4.158
10224SOL    HW131571   1.354   0.280   4.143
10224SOL    HW231572   1.485   0.216   4.070
10225SOL     OW31573   6.663   5.526   4.769
10225SOL    HW131574   6.580   5.577   4.795
10225SOL    HW231575   6.721   5.516   4.850
10226SOL     OW31576   1.883   1.085   6.615
10226SOL    HW131577   1.946   1.125   6.548
10226SOL    HW231578   1.818   1.156   6.645
10227SOL     OW31579   4.753   5.073   6.805
10227SOL    HW131580   4.831   5.081   6.867
10227SOL    HW231581   4.756   5.148   6.738
10228SOL     OW31582   1.352   5.293   3.662
10228SOL    HW131583   1.340   5.294   3.762
10228SOL    HW231584   1.274   5.338   3.619
10229SOL     OW31585   0.972   0.154   3.038
10229SOL    HW131586   0.887   0.129   3.084
10229SOL    HW231587   0.960   0.241   2.990
10230SOL     OW31588   6.555   0.603   3.683
10230SOL    HW131589   6.614   0.638   3.755
10230SOL    HW231590   6.487   0.672   3.658
10231SOL     OW31591   5.603   6.760   4.969
10231SOL    HW131592   5.544   6.744   5.049
10231SOL    HW231593   5.560   6.827   4.909
10232SOL     OW31594   3.359   2.058   5.038
10232SOL    HW131595   3.332   1.990   4.970
10232SOL    HW231596   3.292   2.133   5.038
10233SOL     OW31597   4.548   2.152   5.567
10233SOL    HW131598   4.469   2.116   5.517
10233SOL    HW231599   4.519   2.223   5.630
10234SOL     OW31600   5.850   0.082   1.460
10234SOL    HW131601   5.909   0.162   1.471
10234SOL    HW231602   5.761   0.099   1.503
10235SOL     OW31603   5.104   1.487   0.215
10235SOL    HW131604   5.157   1.405   0.194
10235SOL    HW231605   5.075   1.531   0.129
10236SOL     OW31606   2.054   5.970   2.105
10236SOL    HW131607   2.116   5.949   2.180
10236SOL    HW231608   1.980   5.902   2.102
10237SOL     OW31609   6.279   3.716   2.624
10237SOL    HW131610   6.197   3.672   2.661
10237SOL    HW231611   6.286   3.809   2.660
10238SOL     OW31612   4.162   4.971   4.983
10238SOL    HW131613   4.068   4.987   4.954
10238SOL    HW231614   4.218   5.050   4.959
10239SOL     OW31615   0.424   4.089   4.346
10239SOL    HW131616   0.442   4.106   4.443
10239SOL    HW231617   0.452   3.996   4.322
10240SOL     OW31618   1.313   3.779   3.330
10240SOL    HW131619   1.410   3.759   3.322
10240SOL    HW231620   1.261   3.693   3.328
10241SOL     OW31621   1.117   1.826   2.651
10241SOL    HW131622   1.098   1.821   2.553
10241SOL    HW231623   1.036   1.857   2.699
10242SOL     OW31624   0.042   1.247   5.919
10242SOL    HW131625   0.024   1.334   5.965
10242SOL    HW231626   0.076   1.181   5.986
10243SOL     OW31627   0.446   5.505   2.069
10243SOL    HW131628   0.542   5.490   2.045
10243SOL    HW231629   0.409   5.422   2.110
10244SOL     OW31630   2.201   5.518   6.860
10244SOL    HW131631   2.170   5.471   6.778
10244SOL    HW231632   2.227   5.450   6.930
10245SOL     OW31633   1.543   2.904   6.086
10245SOL    HW131634   1.577   2.887   6.178
10245SOL    HW231635   1.609   2.961   6.036
10246SOL     OW31636   3.208   3.977   4.791
10246SOL    HW131637   3.122   3.958   4.838
10246SOL    HW231638   3.282   3.981   4.858
10247SOL     OW31639   6.866   5.162   5.877
10247SOL    HW131640   6.962   5.133   5.870
10247SOL    HW231641   6.846   5.189   5.971
10248SOL     OW31642   2.792   6.977   2.138
10248SOL    HW131643   2.752   6.943   2.054
10248SOL    HW231644   2.892   6.980   2.129
10249SOL     OW31645   4.786   1.210   5.578
10249SOL    HW131646   4.748   1.135   5.632
10249SOL    HW231647   4.886   1.209   5.584
10250SOL     OW31648   6.021   1.312   0.831
10250SOL    HW131649   6.049   1.354   0.917
10250SOL    HW231650   6.093   1.325   0.763
10251SOL     OW31651   2.537   2.646   0.115
10251SOL    HW131652   2.587   2.602   0.041
10251SOL    HW231653   2.553   2.595   0.200
10252SOL     OW31654   5.969   6.519   1.037
10252SOL    HW131655   6.041   6.493   0.972
10252SOL    HW231656   6.002   6.503   1.130
10253SOL     OW31657   4.807   4.274   0.030
10253SOL    HW131658   4.894   4.229   0.010
10253SOL    HW231659   4.800   4.358   7.002
10254SOL     OW31660   2.969   1.609   5.222
10254SOL    HW131661   2.906   1.664   5.168
10254SOL    HW231662   3.050   1.664   5.244
10255SOL     OW31663   2.505   5.437   2.332
10255SOL    HW131664   2.484   5.381   2.252
10255SOL    HW231665   2.472   5.530   2.318
10256SOL     OW31666   4.754   0.555   0.361
10256SOL    HW131667   4.709   0.644   0.370
10256SOL    HW231668   4.806   0.535   0.444
10257SOL     OW31669   1.396   5.657   5.884
10257SOL    HW131670   1.397   5.576   5.942
10257SOL    HW231671   1.318   5.715   5.909
10258SOL     OW31672   4.506   0.030   3.288
10258SOL    HW131673   4.476   6.976   3.341
10258SOL    HW231674   4.426   0.082   3.257
10259SOL     OW31675   0.421   4.256   3.846
10259SOL    HW131676   0.341   4.313   3.864
10259SOL    HW231677   0.439   4.255   3.747
10260SOL     OW31678   0.845   7.022   2.335
10260SOL    HW131679   0.830   6.974   2.249
10260SOL    HW231680   0.815   6.965   2.412
10261SOL     OW31681   0.960   5.432   2.320
10261SOL    HW131682   0.932   5.511   2.374
10261SOL    HW231683   1.005   5.463   2.236
10262SOL     OW31684   3.178   4.921   4.348
10262SOL    HW131685   3.121   4.861   4.404
10262SOL    HW231686   3.166   4.897   4.251
10263SOL     OW31687   5.199   1.771   5.617
10263SOL    HW131688   5.224   1.714   5.696
10263SOL    HW231689   5.118   1.733   5.573
10264SOL     OW31690   6.299   1.106   6.347
10264SOL    HW131691   6.243   1.158   6.411
10264SOL    HW231692   6.298   1.009   6.373
10265SOL     OW31693   3.520   1.558   2.987
10265SOL    HW131694   3.472   1.559   3.075
10265SOL    HW231695   3.588   1.484   2.987
10266SOL     OW31696   3.495   4.052   6.329
10266SOL    HW131697   3.465   4.011   6.415
10266SOL    HW231698   3.439   4.017   6.254
10267SOL     OW31699   0.095   2.182   6.688
10267SOL    HW131700   0.102   2.236   6.604
10267SOL    HW231701   0.074   2.087   6.666
10268SOL     OW31702   5.153   5.567   1.559
10268SOL    HW131703   5.203   5.593   1.642
10268SOL    HW231704   5.139   5.468   1.558
10269SOL     OW31705   2.280   2.435   6.393
10269SOL    HW131706   2.349   2.464   6.460
10269SOL    HW231707   2.323   2.374   6.326
10270SOL     OW31708   2.006   5.767   0.606
10270SOL    HW131709   2.076   5.729   0.666
10270SOL    HW231710   1.946   5.693   0.573
10271SOL     OW31711   4.174   3.576   1.574
10271SOL    HW131712   4.158   3.655   1.515
10271SOL    HW231713   4.218   3.503   1.521
10272SOL     OW31714   0.488   0.870   4.347
10272SOL    HW131715   0.511   0.875   4.444
10272SOL    HW231716   0.441   0.784   4.328
10273SOL     OW31717   3.786   5.742   4.410
10273SOL    HW131718   3.727   5.723   4.488
10273SOL    HW231719   3.749   5.819   4.358
10274SOL     OW31720   0.822   4.914   5.755
10274SOL    HW131721   0.794   4.919   5.851
10274SOL    HW231722   0.806   4.822   5.720
10275SOL     OW31723   0.860   6.406   2.738
10275SOL    HW131724   0.910   6.430   2.655
10275SOL    HW231725   0.780   6.351   2.714
10276SOL     OW31726   6.861   5.515   4.972
10276SOL    HW131727   6.868   5.548   5.067
10276SOL    HW231728   6.930   5.561   4.916
10277SOL     OW31729   3.136   6.672   4.490
10277SOL    HW131730   3.183   6.602   4.437
10277SOL    HW231731   3.051   6.698   4.444
10278SOL     OW31732   6.205   0.402   6.272
10278SOL    HW131733   6.225   0.445   6.360
10278SOL    HW231734   6.125   0.446   6.231
10279SOL     OW31735   2.780   0.095   4.607
10279SOL    HW131736   2.863   0.128   4.563
10279SOL    HW231737   2.703   0.152   4.579
10280SOL     OW31738   1.781   3.999   0.589
10280SOL    HW131739   1.732   4.078   0.553
10280SOL    HW231740   1.722   3.918   0.583
10281SOL     OW31741   4.450   1.112   2.915
10281SOL    HW131742   4.536   1.103   2.864
10281SOL    HW231743   4.462   1.179   2.988
10282SOL     OW31744   0.909   1.710   3.671
10282SOL    HW131745   0.952   1.797   3.645
10282SOL    HW231746   0.977   1.651   3.715
10283SOL     OW31747   1.589   3.516   1.063
10283SOL    HW131748   1.594   3.463   0.978
10283SOL    HW231749   1.564   3.456   1.139
10284SOL     OW31750   5.438   3.774   5.399
10284SOL    HW131751   5.501   3.750   5.325
10284SOL    HW231752   5.454   3.868   5.428
10285SOL     OW31753   4.753   1.240   0.738
10285SOL    HW131754   4.852   1.230   0.748
10285SOL    HW231755   4.708   1.154   0.762
10286SOL     OW31756   4.139   0.743   2.845
10286SOL    HW131757   4.194   0.801   2.786
10286SOL    HW231758   4.143   0.649   2.812
10287SOL     OW31759   1.580   6.828   1.655
10287SOL    HW131760   1.499   6.878   1.626
10287SOL    HW231761   1.556   6.760   1.723
10288SOL     OW31762   5.752   5.638   3.218
10288SOL    HW131763   5.756   5.674   3.125
10288SOL    HW231764   5.777   5.710   3.283
10289SOL     OW31765   2.822   1.488   1.420
10289SOL    HW131766   2.902   1.546   1.406
10289SOL    HW231767   2.746   1.522   1.366
10290SOL     OW31768   4.078   3.556   3.070
10290SOL    HW131769   4.066   3.626   3.140
10290SOL    HW231770   4.085   3.466   3.114
10291SOL     OW31771   3.421   0.562   4.520
10291SOL    HW131772   3.342   0.543   4.579
10291SOL    HW231773   3.392   0.619   4.443
10292SOL     OW31774   0.407   1.878   4.309
10292SOL    HW131775   0.421   1.862   4.211
10292SOL    HW231776   0.347   1.807   4.345
10293SOL     OW31777   2.529   6.249   3.376
10293SOL    HW131778   2.595   6.251   3.302
10293SOL    HW231779   2.438   6.227   3.340
10294SOL     OW31780   4.704   1.329   2.774
10294SOL    HW131781   4.691   1.244   2.723
10294SOL    HW231782   4.796   1.331   2.813
10295SOL     OW31783   0.084   5.088   5.784
10295SOL    HW131784   0.178   5.117   5.769
10295SOL    HW231785   0.055   5.029   5.709
10296SOL     OW31786   6.580   3.727   6.960
10296SOL    HW131787   6.538   3.719   6.870
10296SOL    HW231788   6.558   3.646   7.015
10297SOL     OW31789   1.058   5.551   4.701
10297SOL    HW131790   0.999   5.614   4.651
10297SOL    HW231791   1.032   5.551   4.798
10298SOL     OW31792   5.459   4.063   3.998
10298SOL    HW131793   5.431   3.980   4.046
10298SOL    HW231794   5.404   4.074   3.915
10299SOL     OW31795   4.289   4.676   3.450
10299SOL    HW131796   4.294   4.630   3.361
10299SOL    HW231797   4.198   4.716   3.462
10300SOL     OW31798   0.904   3.720   2.382
10300SOL    HW131799   0.963   3.687   2.308
10300SOL    HW231800   0.870   3.642   2.434
10301SOL     OW31801   5.815   1.538   3.197
10301SOL    HW131802   5.858   1.618   3.156
10301SOL    HW231803   5.735   1.566   3.250
10302SOL     OW31804   1.513   5.698   3.121
10302SOL    HW131805   1.610   5.698   3.097
10302SOL    HW231806   1.462   5.647   3.053
10303SOL     OW31807   4.053   3.601   1.155
10303SOL    HW131808   4.087   3.557   1.238
10303SOL    HW231809   3.997   3.680   1.180
10304SOL     OW31810   6.972   6.518   2.900
10304SOL    HW131811   6.971   6.477   2.991
10304SOL    HW231812   0.035   6.562   2.884
10305SOL     OW31813   1.802   6.080   6.617
10305SOL    HW131814   1.724   6.136   6.645
10305SOL    HW231815   1.883   6.107   6.670
10306SOL     OW31816   4.162   5.425   0.547
10306SOL    HW131817   4.230   5.389   0.483
10306SOL    HW231818   4.081   5.455   0.497
10307SOL     OW31819   1.390   0.739   6.324
10307SOL    HW131820   1.445   0.674   6.272
10307SOL    HW231821   1.411   0.832   6.293
10308SOL     OW31822   3.419   5.802   3.770
10308SOL    HW131823   3.470   5.787   3.685
10308SOL    HW231824   3.346   5.869   3.753
10309SOL     OW31825   6.630   6.371   2.950
10309SOL    HW131826   6.710   6.341   3.002
10309SOL    HW231827   6.653   6.456   2.902
10310SOL     OW31828   3.472   3.712   2.634
10310SOL    HW131829   3.396   3.764   2.674
10310SOL    HW231830   3.559   3.750   2.665
10311SOL     OW31831   0.550   5.125   0.332
10311SOL    HW131832   0.569   5.132   0.430
10311SOL    HW231833   0.613   5.058   0.292
10312SOL     OW31834   2.913   4.399   0.572
10312SOL    HW131835   2.965   4.385   0.656
10312SOL    HW231836   2.919   4.495   0.544
10313SOL     OW31837   4.542   0.450   2.510
10313SOL    HW131838   4.613   0.408   2.567
10313SOL    HW231839   4.456   0.401   2.524
10314SOL     OW31840   6.482   6.719   0.796
10314SOL    HW131841   6.556   6.770   0.839
10314SOL    HW231842   6.447   6.770   0.717
10315SOL     OW31843   6.222   6.054   4.619
10315SOL    HW131844   6.190   6.087   4.707
10315SOL    HW231845   6.153   6.074   4.549
10316SOL     OW31846   0.469   3.788   4.338
10316SOL    HW131847   0.524   3.728   4.280
10316SOL    HW231848   0.467   3.751   4.431
10317SOL     OW31849   4.475   5.272   6.127
10317SOL    HW131850   4.385   5.307   6.154
10317SOL    HW231851   4.508   5.324   6.048
10318SOL     OW31852   5.989   5.208   1.725
10318SOL    HW131853   5.998   5.199   1.825
10318SOL    HW231854   6.077   5.232   1.685
10319SOL     OW31855   6.617   5.588   3.593
10319SOL    HW131856   6.555   5.665   3.582
10319SOL    HW231857   6.631   5.570   3.690
10320SOL     OW31858   6.982   6.144   1.182
10320SOL    HW131859   6.910   6.193   1.231
10320SOL    HW231860   6.999   6.188   1.094
10321SOL     OW31861   4.808   5.561   4.184
10321SOL    HW131862   4.818   5.463   4.171
10321SOL    HW231863   4.792   5.581   4.281
10322SOL     OW31864   6.313   4.200   0.546
10322SOL    HW131865   6.243   4.236   0.607
10322SOL    HW231866   6.389   4.265   0.542
10323SOL     OW31867   5.332   3.226   6.055
10323SOL    HW131868   5.282   3.312   6.053
10323SOL    HW231869   5.276   3.153   6.016
10324SOL     OW31870   3.161   3.635   3.586
10324SOL    HW131871   3.104   3.713   3.563
10324SOL    HW231872   3.156   3.567   3.513
10325SOL     OW31873   0.470   2.752   2.994
10325SOL    HW131874   0.490   2.693   2.917
10325SOL    HW231875   0.460   2.847   2.963
10326SOL     OW31876   5.247   2.822   0.458
10326SOL    HW131877   5.219   2.742   0.406
10326SOL    HW231878   5.329   2.800   0.512
10327SOL     OW31879   0.532   0.453   2.764
10327SOL    HW131880   0.445   0.500   2.751
10327SOL    HW231881   0.555   0.452   2.862
10328SOL     OW31882   6.080   3.292   2.281
10328SOL    HW131883   6.028   3.351   2.342
10328SOL    HW231884   6.024   3.215   2.252
10329SOL     OW31885   2.907   0.019   3.125
10329SOL    HW131886   2.904   6.975   3.053
10329SOL    HW231887   2.999   0.058   3.130
10330SOL     OW31888   4.209   5.029   2.301
10330SOL    HW131889   4.221   5.112   2.355
10330SOL    HW231890   4.298   4.993   2.274
10331SOL     OW31891   5.483   1.136   3.644
10331SOL    HW131892   5.424   1.103   3.570
10331SOL    HW231893   5.542   1.062   3.675
10332SOL     OW31894   0.075   1.974   6.438
10332SOL    HW131895   0.112   1.914   6.508
10332SOL    HW231896   0.036   1.918   6.364
10333SOL     OW31897   5.876   5.700   4.221
10333SOL    HW131898   5.903   5.641   4.144
10333SOL    HW231899   5.781   5.682   4.245
10334SOL     OW31900   2.054   4.517   4.250
10334SOL    HW131901   2.039   4.459   4.170
10334SOL    HW231902   2.114   4.593   4.225
10335SOL     OW31903   1.646   5.271   1.197
10335SOL    HW131904   1.727   5.227   1.159
10335SOL    HW231905   1.652   5.273   1.297
10336SOL     OW31906   4.016   6.441   1.896
10336SOL    HW131907   4.053   6.479   1.811
10336SOL    HW231908   4.092   6.412   1.955
10337SOL     OW31909   0.783   5.327   4.908
10337SOL    HW131910   0.696   5.282   4.929
10337SOL    HW231911   0.853   5.297   4.972
10338SOL     OW31912   2.604   6.479   2.930
10338SOL    HW131913   2.662   6.554   2.961
10338SOL    HW231914   2.640   6.442   2.844
10339SOL     OW31915   2.198   6.163   1.585
10339SOL    HW131916   2.141   6.135   1.662
10339SOL    HW231917   2.195   6.094   1.513
10340SOL     OW31918   1.939   6.545   0.353
10340SOL    HW131919   1.866   6.547   0.421
10340SOL    HW231920   1.965   6.639   0.330
10341SOL     OW31921   2.244   1.687   2.300
10341SOL    HW131922   2.274   1.602   2.342
10341SOL    HW231923   2.317   1.755   2.304
10342SOL     OW31924   1.784   0.440   5.413
10342SOL    HW131925   1.843   0.359   5.411
10342SOL    HW231926   1.733   0.441   5.499
10343SOL     OW31927   2.881   3.558   5.997
10343SOL    HW131928   2.874   3.618   5.918
10343SOL    HW231929   2.964   3.580   6.049
10344SOL     OW31930   4.004   3.542   4.983
10344SOL    HW131931   4.059   3.484   4.923
10344SOL    HW231932   3.912   3.504   4.990
10345SOL     OW31933   2.196   1.582   6.583
10345SOL    HW131934   2.175   1.484   6.594
10345SOL    HW231935   2.191   1.626   6.673
10346SOL     OW31936   5.253   6.809   0.421
10346SOL    HW131937   5.267   6.885   0.358
10346SOL    HW231938   5.161   6.814   0.459
10347SOL     OW31939   5.449   1.819   1.751
10347SOL    HW131940   5.421   1.724   1.764
10347SOL    HW231941   5.537   1.835   1.795
10348SOL     OW31942   6.452   0.290   5.782
10348SOL    HW131943   6.476   0.363   5.846
10348SOL    HW231944   6.477   0.316   5.689
10349SOL     OW31945   6.699   1.538   1.132
10349SOL    HW131946   6.644   1.505   1.209
10349SOL    HW231947   6.690   1.637   1.125
10350SOL     OW31948   2.944   5.075   4.162
10350SOL    HW131949   2.983   5.158   4.203
10350SOL    HW231950   2.855   5.095   4.122
10351SOL     OW31951   5.620   5.119   5.120
10351SOL    HW131952   5.702   5.164   5.156
10351SOL    HW231953   5.554   5.105   5.194
10352SOL     OW31954   6.116   2.316   0.253
10352SOL    HW131955   6.156   2.312   0.344
10352SOL    HW231956   6.186   2.291   0.185
10353SOL     OW31957   0.056   2.352   3.341
10353SOL    HW131958   0.116   2.402   3.403
10353SOL    HW231959   0.034   2.263   3.380
10354SOL     OW31960   0.697   3.390   0.429
10354SOL    HW131961   0.630   3.384   0.503
10354SOL    HW231962   0.788   3.404   0.467
10355SOL     OW31963   1.138   0.437   0.924
10355SOL    HW131964   1.084   0.520   0.940
10355SOL    HW231965   1.171   0.438   0.830
10356SOL     OW31966   0.040   4.271   6.915
10356SOL    HW131967   0.056   4.201   6.986
10356SOL    HW231968   6.967   4.281   6.901
10357SOL     OW31969   1.131   3.113   5.987
10357SOL    HW131970   1.190   3.086   6.063
10357SOL    HW231971   1.166   3.197   5.946
10358SOL     OW31972   0.713   2.197   2.849
10358SOL    HW131973   0.639   2.139   2.815
10358SOL    HW231974   0.741   2.260   2.776
10359SOL     OW31975   5.710   1.946   2.333
10359SOL    HW131976   5.669   1.997   2.409
10359SOL    HW231977   5.698   1.998   2.248
10360SOL     OW31978   5.963   4.563   2.391
10360SOL    HW131979   5.938   4.550   2.295
10360SOL    HW231980   6.000   4.478   2.428
10361SOL     OW31981   0.624   1.764   1.087
10361SOL    HW131982   0.527   1.787   1.095
10361SOL    HW231983   0.664   1.757   1.178
10362SOL     OW31984   1.413   4.788   2.671
10362SOL    HW131985   1.414   4.884   2.700
10362SOL    HW231986   1.364   4.780   2.584
10363SOL     OW31987   5.013   4.120   0.770
10363SOL    HW131988   5.110   4.106   0.751
10363SOL    HW231989   4.989   4.072   0.854
10364SOL     OW31990   5.872   4.440   2.157
10364SOL    HW131991   5.911   4.350   2.138
10364SOL    HW231992   5.797   4.431   2.222
10365SOL     OW31993   5.697   5.846   0.227
10365SOL    HW131994   5.708   5.904   0.307
10365SOL    HW231995   5.754   5.880   0.152
10366SOL     OW31996   2.942   6.619   3.269
10366SOL    HW131997   3.010   6.692   3.265
10366SOL    HW231998   2.984   6.537   3.310
10367SOL     OW31999   6.457   2.456   0.813
10367SOL    HW132000   6.494   2.491   0.726
10367SOL    HW232001   6.430   2.361   0.801
10368SOL     OW32002   1.959   6.505   2.051
10368SOL    HW132003   1.949   6.405   2.052
10368SOL    HW232004   1.876   6.547   2.086
10369SOL     OW32005   3.360   6.670   6.044
10369SOL    HW132006   3.292   6.608   6.006
10369SOL    HW232007   3.376   6.648   6.140
10370SOL     OW32008   0.486   1.457   4.302
10370SOL    HW132009   0.444   1.504   4.380
10370SOL    HW232010   0.420   1.453   4.226
10371SOL     OW32011   3.010   6.101   3.469
10371SOL    HW132012   2.963   6.013   3.475
10371SOL    HW232013   3.055   6.109   3.380
10372SOL     OW32014   2.532   6.828   1.479
10372SOL    HW132015   2.542   6.907   1.419
10372SOL    HW232016   2.537   6.858   1.574
10373SOL     OW32017   0.242   1.969   5.286
10373SOL    HW132018   0.234   2.043   5.353
10373SOL    HW232019   0.236   1.881   5.334
10374SOL     OW32020   3.000   6.743   4.846
10374SOL    HW132021   3.076   6.693   4.805
10374SOL    HW232022   2.963   6.808   4.780
10375SOL     OW32023   3.749   3.163   0.309
10375SOL    HW132024   3.706   3.074   0.316
10375SOL    HW232025   3.847   3.155   0.330
10376SOL     OW32026   2.214   5.787   2.895
10376SOL    HW132027   2.131   5.807   2.843
10376SOL    HW232028   2.276   5.865   2.891
10377SOL     OW32029   1.057   1.162   2.457
10377SOL    HW132030   0.975   1.208   2.423
10377SOL    HW232031   1.041   1.063   2.456
10378SOL     OW32032   6.743   4.981   5.449
10378SOL    HW132033   6.803   4.901   5.457
10378SOL    HW232034   6.755   5.023   5.359
10379SOL     OW32035   2.391   6.657   4.485
10379SOL    HW132036   2.340   6.597   4.423
10379SOL    HW232037   2.445   6.601   4.549
10380SOL     OW32038   1.451   2.412   4.621
10380SOL    HW132039   1.510   2.480   4.665
10380SOL    HW232040   1.415   2.451   4.536
10381SOL     OW32041   4.600   4.368   1.601
10381SOL    HW132042   4.676   4.304   1.612
10381SOL    HW232043   4.535   4.356   1.676
10382SOL     OW32044   3.239   4.594   1.582
10382SOL    HW132045   3.275   4.653   1.655
10382SOL    HW232046   3.166   4.537   1.618
10383SOL     OW32047   2.131   4.336   0.076
10383SOL    HW132048   2.200   4.277   0.120
10383SOL    HW232049   2.041   4.295   0.087
10384SOL     OW32050   5.760   6.533   1.512
10384SOL    HW132051   5.726   6.600   1.579
10384SOL    HW232052   5.858   6.520   1.525
10385SOL     OW32053   3.847   4.678   6.569
10385SOL    HW132054   3.903   4.658   6.488
10385SOL    HW232055   3.806   4.593   6.602
10386SOL     OW32056   0.011   0.666   6.116
10386SOL    HW132057   6.971   0.591   6.131
10386SOL    HW232058   0.083   0.662   6.185
10387SOL     OW32059   4.930   3.268   2.870
10387SOL    HW132060   5.021   3.232   2.851
10387SOL    HW232061   4.938   3.359   2.911
10388SOL     OW32062   2.897   0.429   5.718
10388SOL    HW132063   2.817   0.422   5.659
10388SOL    HW232064   2.932   0.523   5.717
10389SOL     OW32065   0.565   3.400   0.168
10389SOL    HW132066   0.636   3.385   0.099
10389SOL    HW232067   0.606   3.396   0.259
10390SOL     OW32068   2.358   2.131   0.934
10390SOL    HW132069   2.391   2.041   0.962
10390SOL    HW232070   2.351   2.190   1.014
10391SOL     OW32071   0.485   6.868   3.432
10391SOL    HW132072   0.548   6.915   3.495
10391SOL    HW232073   0.468   6.925   3.352
10392SOL     OW32074   6.680   4.981   4.787
10392SOL    HW132075   6.685   5.069   4.741
10392SOL    HW232076   6.594   4.975   4.839
10393SOL     OW32077   2.059   4.042   4.224
10393SOL    HW132078   2.137   4.088   4.268
10393SOL    HW232079   1.995   4.011   4.294
10394SOL     OW32080   3.443   6.133   4.366
10394SOL    HW132081   3.436   6.227   4.333
10394SOL    HW232082   3.357   6.085   4.349
10395SOL     OW32083   6.774   6.227   1.320
10395SOL    HW132084   6.770   6.326   1.333
10395SOL    HW232085   6.681   6.190   1.322
10396SOL     OW32086   2.926   2.216   4.104
10396SOL    HW132087   2.994   2.207   4.031
10396SOL    HW232088   2.834   2.209   4.066
10397SOL     OW32089   3.065   2.173   2.472
10397SOL    HW132090   3.092   2.256   2.423
10397SOL    HW232091   3.136   2.103   2.461
10398SOL     OW32092   0.344   3.607   1.512
10398SOL    HW132093   0.369   3.584   1.418
10398SOL    HW232094   0.260   3.559   1.537
10399SOL     OW32095   6.202   2.841   2.807
10399SOL    HW132096   6.283   2.870   2.858
10399SOL    HW232097   6.121   2.889   2.842
10400SOL     OW32098   4.219   0.171   0.607
10400SOL    HW132099   4.289   0.136   0.544
10400SOL    HW232100   4.256   0.249   0.657
10401SOL     OW32101   6.962   0.447   3.816
10401SOL    HW132102   6.924   0.375   3.759
10401SOL    HW232103   6.901   0.526   3.816
10402SOL     OW32104   6.060   3.175   4.981
10402SOL    HW132105   6.108   3.224   4.908
10402SOL    HW232106   6.111   3.185   5.067
10403SOL     OW32107   3.276   0.768   3.329
10403SOL    HW132108   3.318   0.684   3.363
10403SOL    HW232109   3.324   0.847   3.367
10404SOL     OW32110   5.644   0.165   5.382
10404SOL    HW132111   5.719   0.182   5.446
10404SOL    HW232112   5.676   0.178   5.288
10405SOL     OW32113   0.897   1.746   5.951
10405SOL    HW132114   0.947   1.661   5.935
10405SOL    HW232115   0.842   1.768   5.870
10406SOL     OW32116   3.023   4.786   2.359
10406SOL    HW132117   3.021   4.690   2.385
10406SOL    HW232118   3.020   4.794   2.259
10407SOL     OW32119   3.074   5.705   5.395
10407SOL    HW132120   3.118   5.617   5.415
10407SOL    HW232121   2.979   5.702   5.425
10408SOL     OW32122   4.601   1.448   0.652
10408SOL    HW132123   4.523   1.386   0.645
10408SOL    HW232124   4.683   1.396   0.675
10409SOL     OW32125   0.265   4.807   0.902
10409SOL    HW132126   0.191   4.866   0.935
10409SOL    HW232127   0.324   4.782   0.979
10410SOL     OW32128   5.705   1.072   0.145
10410SOL    HW132129   5.732   0.978   0.169
10410SOL    HW232130   5.763   1.105   0.072
10411SOL     OW32131   3.220   6.508   3.059
10411SOL    HW132132   3.155   6.571   3.103
10411SOL    HW232133   3.277   6.559   2.995
10412SOL     OW32134   6.093   0.742   0.456
10412SOL    HW132135   6.122   0.751   0.361
10412SOL    HW232136   6.102   0.646   0.485
10413SOL     OW32137   6.800   2.026   1.343
10413SOL    HW132138   6.893   2.009   1.312
10413SOL    HW232139   6.767   2.113   1.308
10414SOL     OW32140   4.475   4.135   5.587
10414SOL    HW132141   4.428   4.187   5.659
10414SOL    HW232142   4.517   4.198   5.522
10415SOL     OW32143   0.379   4.613   5.561
10415SOL    HW132144   0.311   4.646   5.626
10415SOL    HW232145   0.434   4.690   5.528
10416SOL     OW32146   6.837   1.122   3.217
10416SOL    HW132147   6.833   1.033   3.261
10416SOL    HW232148   6.893   1.116   3.135
10417SOL     OW32149   3.967   5.306   4.298
10417SOL    HW132150   3.946   5.399   4.266
10417SOL    HW232151   3.937   5.240   4.229
10418SOL     OW32152   6.813   4.699   6.011
10418SOL    HW132153   6.835   4.601   6.012
10418SOL    HW232154   6.897   4.752   6.024
10419SOL     OW32155   1.219   0.160   6.729
10419SOL    HW132156   1.267   0.235   6.774
10419SOL    HW232157   1.148   0.124   6.789
10420SOL     OW32158   6.452   3.145   2.338
10420SOL    HW132159   6.396   3.122   2.418
10420SOL    HW232160   6.415   3.226   2.293
10421SOL     OW32161   0.422   1.627   3.461
10421SOL    HW132162   0.381   1.589   3.378
10421SOL    HW232163   0.382   1.582   3.541
10422SOL     OW32164   6.291   2.504   5.839
10422SOL    HW132165   6.369   2.562   5.818
10422SOL    HW232166   6.320   2.408   5.838
10423SOL     OW32167   4.971   5.104   4.689
10423SOL    HW132168   4.913   5.144   4.618
10423SOL    HW232169   5.004   5.015   4.658
10424SOL     OW32170   5.513   3.230   0.681
10424SOL    HW132171   5.451   3.274   0.746
10424SOL    HW232172   5.601   3.212   0.725
10425SOL     OW32173   2.214   6.830   2.240
10425SOL    HW132174   2.272   6.905   2.271
10425SOL    HW232175   2.170   6.787   2.319
10426SOL     OW32176   6.244   3.943   0.545
10426SOL    HW132177   6.257   4.039   0.568
10426SOL    HW232178   6.310   3.915   0.476
10427SOL     OW32179   3.965   1.536   0.053
10427SOL    HW132180   3.961   1.446   0.008
10427SOL    HW232181   3.941   1.607   7.011
10428SOL     OW32182   3.053   2.026   5.002
10428SOL    HW132183   3.103   2.109   4.976
10428SOL    HW232184   3.033   1.972   4.921
10429SOL     OW32185   0.514   5.610   1.245
10429SOL    HW132186   0.607   5.649   1.242
10429SOL    HW232187   0.476   5.623   1.336
10430SOL     OW32188   4.231   0.020   3.826
10430SOL    HW132189   4.289   6.981   3.876
10430SOL    HW232190   4.143   7.001   3.805
10431SOL     OW32191   3.156   6.918   5.315
10431SOL    HW132192   3.174   6.991   5.380
10431SOL    HW232193   3.083   6.859   5.349
10432SOL     OW32194   6.400   0.600   4.122
10432SOL    HW132195   6.412   0.638   4.031
10432SOL    HW232196   6.489   0.577   4.161
10433SOL     OW32197   1.846   6.253   1.923
10433SOL    HW132198   1.772   6.207   1.874
10433SOL    HW232199   1.934   6.216   1.893
10434SOL     OW32200   3.774   6.414   2.921
10434SOL    HW132201   3.844   6.346   2.900
10434SOL    HW232202   3.774   6.485   2.850
10435SOL     OW32203   6.769   0.427   5.114
10435SOL    HW132204   6.858   0.390   5.138
10435SOL    HW232205   6.752   0.413   5.016
10436SOL     OW32206   0.388   5.394   5.131
10436SOL    HW132207   0.424   5.322   5.072
10436SOL    HW232208   0.442   5.400   5.214
10437SOL     OW32209   6.139   4.908   5.257
10437SOL    HW132210   6.087   4.993   5.247
10437SOL    HW232211   6.234   4.923   5.232
10438SOL     OW32212   5.407   6.684   6.951
10438SOL    HW132213   5.505   6.701   6.960
10438SOL    HW232214   5.389   6.640   6.863
10439SOL     OW32215   3.690   1.569   6.201
10439SOL    HW132216   3.662   1.474   6.212
10439SOL    HW232217   3.730   1.581   6.110
10440SOL     OW32218   0.967   6.061   0.383
10440SOL    HW132219   0.936   6.025   0.295
10440SOL    HW232220   0.921   6.011   0.457
10441SOL     OW32221   5.511   1.663   6.964
10441SOL    HW132222   5.428   1.712   6.940
10441SOL    HW232223   5.563   1.716   0.006
10442SOL     OW32224   2.816   5.707   5.462
10442SOL    HW132225   2.792   5.623   5.412
10442SOL    HW232226   2.786   5.698   5.557
10443SOL     OW32227   5.209   3.466   4.711
10443SOL    HW132228   5.239   3.466   4.807
10443SOL    HW232229   5.249   3.387   4.664
10444SOL     OW32230   4.404   5.817   4.573
10444SOL    HW132231   4.456   5.809   4.659
10444SOL    HW232232   4.315   5.858   4.593
10445SOL     OW32233   0.831   4.982   4.128
10445SOL    HW132234   0.771   4.994   4.208
10445SOL    HW232235   0.926   4.990   4.157
10446SOL     OW32236   1.160   3.675   5.651
10446SOL    HW132237   1.081   3.684   5.712
10446SOL    HW232238   1.157   3.747   5.583
10447SOL     OW32239   0.252   1.497   1.677
10447SOL    HW132240   0.182   1.547   1.626
10447SOL    HW232241   0.238   1.511   1.775
10448SOL     OW32242   4.135   2.965   1.382
10448SOL    HW132243   4.091   2.878   1.361
10448SOL    HW232244   4.188   2.995   1.303
10449SOL     OW32245   2.651   5.253   4.534
10449SOL    HW132246   2.712   5.186   4.491
10449SOL    HW232247   2.557   5.218   4.533
10450SOL     OW32248   0.588   2.758   6.999
10450SOL    HW132249   0.499   2.774   6.956
10450SOL    HW232250   0.658   2.751   6.928
10451SOL     OW32251   2.727   5.283   2.509
10451SOL    HW132252   2.789   5.349   2.551
10451SOL    HW232253   2.780   5.210   2.465
10452SOL     OW32254   6.323   3.415   3.440
10452SOL    HW132255   6.229   3.387   3.421
10452SOL    HW232256   6.383   3.377   3.369
10453SOL     OW32257   5.281   6.233   1.674
10453SOL    HW132258   5.218   6.255   1.748
10453SOL    HW232259   5.320   6.317   1.637
10454SOL     OW32260   5.502   2.822   1.600
10454SOL    HW132261   5.591   2.858   1.573
10454SOL    HW232262   5.503   2.799   1.698
10455SOL     OW32263   0.567   4.882   3.150
10455SOL    HW132264   0.536   4.887   3.055
10455SOL    HW232265   0.637   4.812   3.159
10456SOL     OW32266   2.949   6.402   1.604
10456SOL    HW132267   2.878   6.468   1.579
10456SOL    HW232268   2.942   6.382   1.701
10457SOL     OW32269   3.413   2.890   3.935
10457SOL    HW132270   3.404   2.876   4.034
10457SOL    HW232271   3.330   2.934   3.900
10458SOL     OW32272   0.091   7.014   0.116
10458SOL    HW132273   0.033   0.069   0.101
10458SOL    HW232274   0.087   6.988   0.213
10459SOL     OW32275   5.328   5.429   2.891
10459SOL    HW132276   5.310   5.528   2.886
10459SOL    HW232277   5.352   5.395   2.801
10460SOL     OW32278   1.723   5.559   1.271
10460SOL    HW132279   1.633   5.597   1.292
10460SOL    HW232280   1.713   5.465   1.239
10461SOL     OW32281   0.998   6.250   5.502
10461SOL    HW132282   1.095   6.273   5.499
10461SOL    HW232283   0.981   6.167   5.448
10462SOL     OW32284   6.058   1.036   1.880
10462SOL    HW132285   5.983   1.073   1.826
10462SOL    HW232286   6.059   1.080   1.970
10463SOL     OW32287   3.497   4.009   5.911
10463SOL    HW132288   3.589   4.041   5.933
10463SOL    HW232289   3.443   4.084   5.874
10464SOL     OW32290   4.728   0.590   0.883
10464SOL    HW132291   4.815   0.544   0.864
10464SOL    HW232292   4.687   0.551   0.966
10465SOL     OW32293   0.049   0.159   6.350
10465SOL    HW132294   0.015   0.110   6.270
10465SOL    HW232295   0.011   0.252   6.351
10466SOL     OW32296   4.776   5.699   4.909
10466SOL    HW132297   4.792   5.661   5.000
10466SOL    HW232298   4.860   5.695   4.855
10467SOL     OW32299   1.920   1.806   5.199
10467SOL    HW132300   1.983   1.757   5.260
10467SOL    HW232301   1.826   1.790   5.229
10468SOL     OW32302   3.794   6.162   4.420
10468SOL    HW132303   3.855   6.173   4.499
10468SOL    HW232304   3.734   6.242   4.413
10469SOL     OW32305   3.013   3.812   1.413
10469SOL    HW132306   3.053   3.851   1.496
10469SOL    HW232307   3.036   3.870   1.334
10470SOL     OW32308   2.366   2.213   3.348
10470SOL    HW132309   2.314   2.128   3.343
10470SOL    HW232310   2.403   2.235   3.258
10471SOL     OW32311   2.127   3.729   1.273
10471SOL    HW132312   2.050   3.737   1.210
10471SOL    HW232313   2.210   3.709   1.221
10472SOL     OW32314   3.847   6.823   1.792
10472SOL    HW132315   3.763   6.817   1.846
10472SOL    HW232316   3.827   6.865   1.704
10473SOL     OW32317   5.515   6.859   0.903
10473SOL    HW132318   5.487   6.891   0.812
10473SOL    HW232319   5.469   6.773   0.923
10474SOL     OW32320   4.481   0.502   4.540
10474SOL    HW132321   4.550   0.457   4.596
10474SOL    HW232322   4.467   0.595   4.573
10475SOL     OW32323   4.530   5.893   1.328
10475SOL    HW132324   4.527   5.872   1.230
10475SOL    HW232325   4.520   5.992   1.341
10476SOL     OW32326   6.630   5.694   6.990
10476SOL    HW132327   6.680   5.730   6.911
10476SOL    HW232328   6.623   5.765   0.035
10477SOL     OW32329   5.737   3.517   5.208
10477SOL    HW132330   5.810   3.464   5.164
10477SOL    HW232331   5.705   3.468   5.290
10478SOL     OW32332   1.170   6.758   6.556
10478SOL    HW132333   1.099   6.743   6.625
10478SOL    HW232334   1.161   6.849   6.517
10479SOL     OW32335   1.393   2.237   1.914
10479SOL    HW132336   1.471   2.265   1.858
10479SOL    HW232337   1.386   2.137   1.912
10480SOL     OW32338   4.961   6.558   1.625
10480SOL    HW132339   4.959   6.574   1.526
10480SOL    HW232340   5.049   6.518   1.650
10481SOL     OW32341   2.102   1.174   4.660
10481SOL    HW132342   2.200   1.194   4.657
10481SOL    HW232343   2.083   1.091   4.608
10482SOL     OW32344   0.579   6.148   4.849
10482SOL    HW132345   0.642   6.070   4.856
10482SOL    HW232346   0.632   6.232   4.835
10483SOL     OW32347   6.434   5.449   0.719
10483SOL    HW132348   6.508   5.516   0.727
10483SOL    HW232349   6.391   5.457   0.629
10484SOL     OW32350   0.116   0.733   1.254
10484SOL    HW132351   0.095   0.781   1.339
10484SOL    HW232352   0.038   0.740   1.192
10485SOL     OW32353   3.347   4.058   3.074
10485SOL    HW132354   3.352   4.122   3.150
10485SOL    HW232355   3.261   4.071   3.024
10486SOL     OW32356   6.717   0.146   5.796
10486SOL    HW132357   6.783   0.180   5.862
10486SOL    HW232358   6.624   0.169   5.825
10487SOL     OW32359   4.643   1.597   1.703
10487SOL    HW132360   4.661   1.500   1.692
10487SOL    HW232361   4.556   1.610   1.751
10488SOL     OW32362   0.870   2.412   4.979
10488SOL    HW132363   0.884   2.393   5.077
10488SOL    HW232364   0.929   2.488   4.951
10489SOL     OW32365   6.373   5.622   3.840
10489SOL    HW132366   6.352   5.680   3.919
10489SOL    HW232367   6.367   5.677   3.756
10490SOL     OW32368   5.661   0.254   0.697
10490SOL    HW132369   5.666   0.258   0.797
10490SOL    HW232370   5.571   0.222   0.669
10491SOL     OW32371   1.408   3.007   6.432
10491SOL    HW132372   1.473   2.940   6.467
10491SOL    HW232373   1.385   3.073   6.503
10492SOL     OW32374   4.438   0.054   0.400
10492SOL    HW132375   4.463   0.151   0.407
10492SOL    HW232376   4.513   7.023   0.435
10493SOL     OW32377   4.128   5.313   1.215
10493SOL    HW132378   4.127   5.223   1.172
10493SOL    HW232379   4.211   5.363   1.188
10494SOL     OW32380   0.910   4.601   6.023
10494SOL    HW132381   1.007   4.584   6.009
10494SOL    HW232382   0.894   4.699   6.031
10495SOL     OW32383   6.773   6.272   6.521
10495SOL    HW132384   6.721   6.267   6.436
10495SOL    HW232385   6.735   6.207   6.587
10496SOL     OW32386   0.087   3.894   5.561
10496SOL    HW132387   0.037   3.810   5.581
10496SOL    HW232388   0.143   3.882   5.479
10497SOL     OW32389   2.573   6.970   2.314
10497SOL    HW132390   2.664   6.965   2.274
10497SOL    HW232391   2.563   6.896   2.381
10498SOL     OW32392   4.926   5.382   0.808
10498SOL    HW132393   4.972   5.345   0.727
10498SOL    HW232394   4.974   5.463   0.840
10499SOL     OW32395   6.000   5.789   1.915
10499SOL    HW132396   5.932   5.805   1.986
10499SOL    HW232397   6.017   5.874   1.865
10500SOL     OW32398   5.460   4.408   4.864
10500SOL    HW132399   5.529   4.477   4.844
10500SOL    HW232400   5.369   4.447   4.850
10501SOL     OW32401   2.379   5.663   2.277
10501SOL    HW132402   2.309   5.615   2.223
10501SOL    HW232403   2.334   5.723   2.343
10502SOL     OW32404   2.880   3.332   2.678
10502SOL    HW132405   2.781   3.321   2.665
10502SOL    HW232406   2.928   3.266   2.620
10503SOL     OW32407   6.624   3.793   6.306
10503SOL    HW132408   6.624   3.705   6.257
10503SOL    HW232409   6.714   3.808   6.347
10504SOL     OW32410   2.183   3.604   6.250
10504SOL    HW132411   2.093   3.602   6.294
10504SOL    HW232412   2.237   3.677   6.290
10505SOL     OW32413   5.606   6.415   2.028
10505SOL    HW132414   5.593   6.393   1.931
10505SOL    HW232415   5.704   6.427   2.046
10506SOL     OW32416   0.745   3.148   6.688
10506SOL    HW132417   0.705   3.109   6.604
10506SOL    HW232418   0.807   3.081   6.730
10507SOL     OW32419   2.504   5.014   0.048
10507SOL    HW132420   2.556   5.092   0.082
10507SOL    HW232421   2.550   4.976   6.993
10508SOL     OW32422   1.062   5.573   5.352
10508SOL    HW132423   1.152   5.544   5.385
10508SOL    HW232424   1.010   5.611   5.428
10509SOL     OW32425   5.115   3.669   4.208
10509SOL    HW132426   5.165   3.723   4.276
10509SOL    HW232427   5.047   3.728   4.163
10510SOL     OW32428   4.825   6.228   5.611
10510SOL    HW132429   4.899   6.162   5.596
10510SOL    HW232430   4.863   6.318   5.631
10511SOL     OW32431   2.804   1.099   1.740
10511SOL    HW132432   2.832   1.144   1.655
10511SOL    HW232433   2.792   1.167   1.812
10512SOL     OW32434   4.117   0.590   5.869
10512SOL    HW132435   4.138   0.492   5.875
10512SOL    HW232436   4.123   0.631   5.960
10513SOL     OW32437   5.438   2.736   2.289
10513SOL    HW132438   5.382   2.800   2.342
10513SOL    HW232439   5.523   2.718   2.338
10514SOL     OW32440   1.219   2.438   1.532
10514SOL    HW132441   1.167   2.391   1.604
10514SOL    HW232442   1.317   2.418   1.543
10515SOL     OW32443   2.029   2.812   4.847
10515SOL    HW132444   2.017   2.838   4.943
10515SOL    HW232445   1.940   2.797   4.805
10516SOL     OW32446   3.304   2.565   0.342
10516SOL    HW132447   3.294   2.634   0.413
10516SOL    HW232448   3.399   2.561   0.312
10517SOL     OW32449   1.492   2.970   3.376
10517SOL    HW132450   1.522   3.009   3.289
10517SOL    HW232451   1.497   3.039   3.448
10518SOL     OW32452   0.985   5.167   2.414
10518SOL    HW132453   0.989   5.161   2.514
10518SOL    HW232454   0.962   5.260   2.387
10519SOL     OW32455   2.217   5.907   1.471
10519SOL    HW132456   2.153   5.915   1.395
10519SOL    HW232457   2.304   5.871   1.438
10520SOL     OW32458   6.604   1.870   6.056
10520SOL    HW132459   6.622   1.861   5.958
10520SOL    HW232460   6.666   1.937   6.096
10521SOL     OW32461   5.992   3.392   1.626
10521SOL    HW132462   5.963   3.436   1.711
10521SOL    HW232463   6.082   3.350   1.639
10522SOL     OW32464   5.778   2.192   3.071
10522SOL    HW132465   5.810   2.259   3.138
10522SOL    HW232466   5.731   2.240   2.996
10523SOL     OW32467   0.680   4.112   3.801
10523SOL    HW132468   0.728   4.197   3.821
10523SOL    HW232469   0.608   4.130   3.734
10524SOL     OW32470   6.884   5.234   3.584
10524SOL    HW132471   6.945   5.306   3.618
10524SOL    HW232472   6.827   5.271   3.510
10525SOL     OW32473   4.435   1.004   4.951
10525SOL    HW132474   4.386   1.019   4.865
10525SOL    HW232475   4.455   1.093   4.994
10526SOL     OW32476   0.681   5.543   0.201
10526SOL    HW132477   0.754   5.561   0.268
10526SOL    HW232478   0.662   5.445   0.198
10527SOL     OW32479   0.744   1.602   5.212
10527SOL    HW132480   0.823   1.659   5.191
10527SOL    HW232481   0.702   1.570   5.127
10528SOL     OW32482   0.693   5.024   6.762
10528SOL    HW132483   0.654   5.034   6.853
10528SOL    HW232484   0.748   4.940   6.758
10529SOL     OW32485   1.641   6.270   5.919
10529SOL    HW132486   1.717   6.296   5.860
10529SOL    HW232487   1.676   6.236   6.006
10530SOL     OW32488   0.741   6.648   6.038
10530SOL    HW132489   0.715   6.574   5.976
10530SOL    HW232490   0.807   6.707   5.993
10531SOL     OW32491   3.002   2.586   5.385
10531SOL    HW132492   3.088   2.574   5.336
10531SOL    HW232493   2.959   2.497   5.400
10532SOL     OW32494   5.916   6.735   6.179
10532SOL    HW132495   5.873   6.645   6.178
10532SOL    HW232496   5.865   6.798   6.121
10533SOL     OW32497   3.707   5.438   4.041
10533SOL    HW132498   3.625   5.494   4.046
10533SOL    HW232499   3.776   5.474   4.104
10534SOL     OW32500   0.169   5.521   2.974
10534SOL    HW132501   0.155   5.456   3.049
10534SOL    HW232502   0.266   5.535   2.959
10535SOL     OW32503   3.010   1.331   2.264
10535SOL    HW132504   2.984   1.403   2.200
10535SOL    HW232505   3.104   1.344   2.294
10536SOL     OW32506   4.869   0.968   4.087
10536SOL    HW132507   4.942   0.902   4.072
10536SOL    HW232508   4.824   0.949   4.174
10537SOL     OW32509   4.676   6.838   2.965
10537SOL    HW132510   4.577   6.847   2.977
10537SOL    HW232511   4.721   6.862   3.051
10538SOL     OW32512   5.975   3.642   2.613
10538SOL    HW132513   5.934   3.702   2.543
10538SOL    HW232514   5.970   3.547   2.582
10539SOL     OW32515   5.805   6.069   2.565
10539SOL    HW132516   5.854   6.121   2.635
10539SOL    HW232517   5.717   6.113   2.546
10540SOL     OW32518   2.682   4.204   6.501
10540SOL    HW132519   2.634   4.166   6.422
10540SOL    HW232520   2.761   4.147   6.523
10541SOL     OW32521   2.927   3.082   5.117
10541SOL    HW132522   2.859   3.036   5.174
10541SOL    HW232523   3.018   3.063   5.153
10542SOL     OW32524   6.420   0.058   4.786
10542SOL    HW132525   6.343   0.002   4.759
10542SOL    HW232526   6.394   0.155   4.783
10543SOL     OW32527   6.843   3.135   5.521
10543SOL    HW132528   6.876   3.201   5.590
10543SOL    HW232529   6.790   3.064   5.566
10544SOL     OW32530   0.931   0.810   3.797
10544SOL    HW132531   1.003   0.785   3.862
10544SOL    HW232532   0.962   0.884   3.738
10545SOL     OW32533   1.683   2.269   2.870
10545SOL    HW132534   1.683   2.259   2.970
10545SOL    HW232535   1.774   2.246   2.835
10546SOL     OW32536   3.381   6.405   1.049
10546SOL    HW132537   3.397   6.480   1.114
10546SOL    HW232538   3.362   6.321   1.099
10547SOL     OW32539   4.631   0.112   4.987
10547SOL    HW132540   4.558   0.178   5.004
10547SOL    HW232541   4.647   0.105   4.889
10548SOL     OW32542   0.733   4.737   4.705
10548SOL    HW132543   0.651   4.756   4.758
10548SOL    HW232544   0.805   4.802   4.731
10549SOL     OW32545   0.532   1.216   0.461
10549SOL    HW132546   0.556   1.164   0.379
10549SOL    HW232547   0.445   1.181   0.497
10550SOL     OW32548   3.715   5.901   3.428
10550SOL    HW132549   3.803   5.886   3.383
10550SOL    HW232550   3.650   5.939   3.362
10551SOL     OW32551   3.177   1.954   5.883
10551SOL    HW132552   3.143   1.861   5.873
10551SOL    HW232553   3.259   1.966   5.828
10552SOL     OW32554   3.564   0.923   4.425
10552SOL    HW132555   3.474   0.937   4.466
10552SOL    HW232556   3.605   1.011   4.402
10553SOL     OW32557   0.326   5.233   0.719
10553SOL    HW132558   0.374   5.305   0.668
10553SOL    HW232559   0.391   5.163   0.746
10554SOL     OW32560   6.351   5.100   2.716
10554SOL    HW132561   6.321   5.119   2.809
10554SOL    HW232562   6.382   5.005   2.711
10555SOL     OW32563   3.157   2.375   0.721
10555SOL    HW132564   3.194   2.440   0.787
10555SOL    HW232565   3.058   2.391   0.712
10556SOL     OW32566   1.892   1.189   2.827
10556SOL    HW132567   1.948   1.204   2.746
10556SOL    HW232568   1.815   1.253   2.826
10557SOL     OW32569   1.776   4.100   4.173
10557SOL    HW132570   1.688   4.051   4.179
10557SOL    HW232571   1.850   4.034   4.165
10558SOL     OW32572   3.311   5.174   5.501
10558SOL    HW132573   3.259   5.226   5.433
10558SOL    HW232574   3.249   5.141   5.572
10559SOL     OW32575   3.678   0.033   0.402
10559SOL    HW132576   3.593   7.025   0.360
10559SOL    HW232577   3.710   6.991   0.469
10560SOL     OW32578   4.373   6.396   1.572
10560SOL    HW132579   4.302   6.404   1.502
10560SOL    HW232580   4.388   6.485   1.615
10561SOL     OW32581   5.557   4.265   1.316
10561SOL    HW132582   5.649   4.295   1.338
10561SOL    HW232583   5.522   4.207   1.390
10562SOL     OW32584   3.006   6.943   1.688
10562SOL    HW132585   2.974   6.886   1.612
10562SOL    HW232586   2.986   0.014   1.669
10563SOL     OW32587   0.575   6.831   0.674
10563SOL    HW132588   0.526   6.831   0.586
10563SOL    HW232589   0.545   6.909   0.729
10564SOL     OW32590   6.635   5.599   4.352
10564SOL    HW132591   6.670   5.505   4.356
10564SOL    HW232592   6.572   5.607   4.274
10565SOL     OW32593   6.565   6.799   5.219
10565SOL    HW132594   6.660   6.767   5.213
10565SOL    HW232595   6.510   6.732   5.269
10566SOL     OW32596   2.639   2.419   7.023
10566SOL    HW132597   2.646   2.350   0.070
10566SOL    HW232598   2.548   2.416   6.982
10567SOL     OW32599   1.772   2.623   6.116
10567SOL    HW132600   1.864   2.653   6.091
10567SOL    HW232601   1.774   2.526   6.140
10568SOL     OW32602   5.435   2.952   6.341
10568SOL    HW132603   5.527   2.924   6.314
10568SOL    HW232604   5.430   3.052   6.345
10569SOL     OW32605   5.280   0.302   1.863
10569SOL    HW132606   5.227   0.227   1.905
10569SOL    HW232607   5.289   0.377   1.929
10570SOL     OW32608   0.307   4.948   3.807
10570SOL    HW132609   0.270   5.040   3.813
10570SOL    HW232610   0.394   4.950   3.756
10571SOL     OW32611   6.948   4.670   6.470
10571SOL    HW132612   6.884   4.616   6.416
10571SOL    HW232613   6.933   4.652   6.568
10572SOL     OW32614   6.768   4.523   1.539
10572SOL    HW132615   6.720   4.610   1.553
10572SOL    HW232616   6.706   4.459   1.493
10573SOL     OW32617   5.693   0.535   3.625
10573SOL    HW132618   5.609   0.583   3.598
10573SOL    HW232619   5.737   0.585   3.700
10574SOL     OW32620   7.009   0.871   3.369
10574SOL    HW132621   6.966   0.874   3.279
10574SOL    HW232622   6.962   0.802   3.425
10575SOL     OW32623   5.896   1.007   2.683
10575SOL    HW132624   5.992   1.002   2.710
10575SOL    HW232625   5.849   0.923   2.710
10576SOL     OW32626   2.370   4.879   3.198
10576SOL    HW132627   2.311   4.899   3.120
10576SOL    HW232628   2.449   4.940   3.197
10577SOL     OW32629   3.860   5.865   0.712
10577SOL    HW132630   3.940   5.882   0.655
10577SOL    HW232631   3.889   5.830   0.802
10578SOL     OW32632   6.500   2.081   3.690
10578SOL    HW132633   6.414   2.038   3.660
10578SOL    HW232634   6.560   2.012   3.731
10579SOL     OW32635   2.811   3.315   0.984
10579SOL    HW132636   2.715   3.339   0.970
10579SOL    HW232637   2.854   3.299   0.895
10580SOL     OW32638   6.372   6.780   6.278
10580SOL    HW132639   6.417   6.713   6.336
10580SOL    HW232640   6.430   6.861   6.269
10581SOL     OW32641   5.631   6.778   3.223
10581SOL    HW132642   5.728   6.786   3.249
10581SOL    HW232643   5.583   6.862   3.248
10582SOL     OW32644   5.353   4.516   6.634
10582SOL    HW132645   5.402   4.450   6.578
10582SOL    HW232646   5.352   4.485   6.729
10583SOL     OW32647   2.979   6.775   4.052
10583SOL    HW132648   2.935   6.685   4.051
10583SOL    HW232649   2.959   6.822   3.966
10584SOL     OW32650   6.602   0.373   5.347
10584SOL    HW132651   6.672   0.416   5.290
10584SOL    HW232652   6.639   0.357   5.439
10585SOL     OW32653   0.480   1.868   5.999
10585SOL    HW132654   0.402   1.840   5.943
10585SOL    HW232655   0.452   1.869   6.095
10586SOL     OW32656   4.917   4.320   5.605
10586SOL    HW132657   4.916   4.246   5.671
10586SOL    HW232658   4.906   4.284   5.513
10587SOL     OW32659   0.747   5.859   5.377
10587SOL    HW132660   0.655   5.862   5.418
10587SOL    HW232661   0.812   5.826   5.445
10588SOL     OW32662   1.154   3.310   4.200
10588SOL    HW132663   1.065   3.293   4.244
10588SOL    HW232664   1.150   3.396   4.150
10589SOL     OW32665   5.072   6.128   4.507
10589SOL    HW132666   5.121   6.176   4.433
10589SOL    HW232667   5.128   6.052   4.540
10590SOL     OW32668   0.757   6.051   1.752
10590SOL    HW132669   0.754   5.953   1.769
10590SOL    HW232670   0.776   6.067   1.655
10591SOL     OW32671   0.787   1.564   1.350
10591SOL    HW132672   0.781   1.467   1.371
10591SOL    HW232673   0.878   1.598   1.374
10592SOL     OW32674   6.019   2.258   5.101
10592SOL    HW132675   6.060   2.319   5.033
10592SOL    HW232676   5.924   2.285   5.117
10593SOL     OW32677   2.534   6.305   1.374
10593SOL    HW132678   2.444   6.326   1.336
10593SOL    HW232679   2.605   6.344   1.314
10594SOL     OW32680   3.978   0.898   3.211
10594SOL    HW132681   3.952   0.855   3.125
10594SOL    HW232682   3.900   0.948   3.248
10595SOL     OW32683   6.148   0.746   0.968
10595SOL    HW132684   6.050   0.752   0.950
10595SOL    HW232685   6.182   0.834   1.000
10596SOL     OW32686   5.052   1.982   6.695
10596SOL    HW132687   5.112   1.985   6.615
10596SOL    HW232688   5.035   2.074   6.728
10597SOL     OW32689   2.438   0.491   6.062
10597SOL    HW132690   2.466   0.480   5.967
10597SOL    HW232691   2.491   0.566   6.104
10598SOL     OW32692   2.849   1.715   5.949
10598SOL    HW132693   2.930   1.728   5.893
10598SOL    HW232694   2.767   1.734   5.894
10599SOL     OW32695   6.577   4.205   6.073
10599SOL    HW132696   6.518   4.163   6.004
10599SOL    HW232697   6.530   4.283   6.114
10600SOL     OW32698   2.669   1.596   1.949
10600SOL    HW132699   2.690   1.566   1.856
10600SOL    HW232700   2.609   1.676   1.946
10601SOL     OW32701   0.364   6.649   6.646
10601SOL    HW132702   0.394   6.608   6.732
10601SOL    HW232703   0.274   6.692   6.659
10602SOL     OW32704   0.285   0.089   6.925
10602SOL    HW132705   0.218   0.085   6.999
10602SOL    HW232706   0.264   0.166   6.866
10603SOL     OW32707   4.306   6.869   2.037
10603SOL    HW132708   4.213   6.845   2.010
10603SOL    HW232709   4.359   6.893   1.955
10604SOL     OW32710   0.157   6.836   4.698
10604SOL    HW132711   0.068   6.873   4.672
10604SOL    HW232712   0.150   6.738   4.712
10605SOL     OW32713   2.491   0.542   0.653
10605SOL    HW132714   2.483   0.532   0.554
10605SOL    HW232715   2.572   0.595   0.676
10606SOL     OW32716   5.978   0.736   1.544
10606SOL    HW132717   5.933   0.685   1.471
10606SOL    HW232718   5.933   0.716   1.631
10607SOL     OW32719   4.349   4.601   6.526
10607SOL    HW132720   4.417   4.656   6.478
10607SOL    HW232721   4.294   4.660   6.586
10608SOL     OW32722   6.260   2.722   3.177
10608SOL    HW132723   6.338   2.685   3.228
10608SOL    HW232724   6.291   2.798   3.120
10609SOL     OW32725   3.733   0.246   0.264
10609SOL    HW132726   3.738   0.315   0.336
10609SOL    HW232727   3.717   0.156   0.305
10610SOL     OW32728   0.254   1.718   4.432
10610SOL    HW132729   0.208   1.758   4.511
10610SOL    HW232730   0.193   1.723   4.352
10611SOL     OW32731   2.806   5.685   4.964
10611SOL    HW132732   2.730   5.750   4.971
10611SOL    HW232733   2.874   5.705   5.034
10612SOL     OW32734   5.435   1.368   3.820
10612SOL    HW132735   5.355   1.422   3.847
10612SOL    HW232736   5.405   1.284   3.775
10613SOL     OW32737   6.482   6.038   4.386
10613SOL    HW132738   6.449   5.943   4.385
10613SOL    HW232739   6.575   6.039   4.423
10614SOL     OW32740   5.419   0.473   6.081
10614SOL    HW132741   5.481   0.534   6.033
10614SOL    HW232742   5.470   0.395   6.116
10615SOL     OW32743   2.747   2.367   6.329
10615SOL    HW132744   2.674   2.382   6.396
10615SOL    HW232745   2.727   2.284   6.276
10616SOL     OW32746   3.569   5.859   6.262
10616SOL    HW132747   3.489   5.812   6.225
10616SOL    HW232748   3.576   5.840   6.360
10617SOL     OW32749   2.721   3.468   1.740
10617SOL    HW132750   2.793   3.429   1.681
10617SOL    HW232751   2.762   3.500   1.825
10618SOL     OW32752   0.020   5.583   5.357
10618SOL    HW132753   0.069   5.567   5.443
10618SOL    HW232754   0.003   5.680   5.346
10619SOL     OW32755   0.321   1.682   2.846
10619SOL    HW132756   0.299   1.705   2.940
10619SOL    HW232757   0.237   1.660   2.796
10620SOL     OW32758   2.295   0.154   5.760
10620SOL    HW132759   2.301   0.080   5.693
10620SOL    HW232760   2.225   0.220   5.731
10621SOL     OW32761   1.322   3.809   2.919
10621SOL    HW132762   1.365   3.894   2.889
10621SOL    HW232763   1.362   3.732   2.869
10622SOL     OW32764   4.543   3.069   1.019
10622SOL    HW132765   4.633   3.025   1.032
10622SOL    HW232766   4.526   3.080   0.921
10623SOL     OW32767   6.013   6.115   5.937
10623SOL    HW132768   6.078   6.052   5.895
10623SOL    HW232769   5.937   6.064   5.977
10624SOL     OW32770   0.803   2.704   5.084
10624SOL    HW132771   0.900   2.682   5.083
10624SOL    HW232772   0.791   2.799   5.056
10625SOL     OW32773   6.917   3.974   0.096
10625SOL    HW132774   6.959   3.892   0.057
10625SOL    HW232775   6.984   4.048   0.098
10626SOL     OW32776   3.856   2.935   1.916
10626SOL    HW132777   3.887   2.863   1.853
10626SOL    HW232778   3.770   2.908   1.959
10627SOL     OW32779   5.573   7.001   5.883
10627SOL    HW132780   5.532   7.021   5.971
10627SOL    HW232781   5.529   6.920   5.843
10628SOL     OW32782   4.195   0.561   0.527
10628SOL    HW132783   4.117   0.519   0.573
10628SOL    HW232784   4.183   0.552   0.428
10629SOL     OW32785   3.590   5.498   4.903
10629SOL    HW132786   3.523   5.530   4.836
10629SOL    HW232787   3.553   5.420   4.954
10630SOL     OW32788   4.640   0.681   2.653
10630SOL    HW132789   4.588   0.626   2.589
10630SOL    HW232790   4.587   0.696   2.736
10631SOL     OW32791   4.794   5.266   6.625
10631SOL    HW132792   4.695   5.269   6.619
10631SOL    HW232793   4.830   5.359   6.632
10632SOL     OW32794   5.008   5.952   3.256
10632SOL    HW132795   5.024   5.925   3.161
10632SOL    HW232796   4.987   6.049   3.259
10633SOL     OW32797   2.000   2.914   1.626
10633SOL    HW132798   1.960   3.002   1.601
10633SOL    HW232799   2.023   2.914   1.723
10634SOL     OW32800   1.487   4.932   6.621
10634SOL    HW132801   1.496   4.927   6.522
10634SOL    HW232802   1.543   4.861   6.663
10635SOL     OW32803   1.993   3.245   0.152
10635SOL    HW132804   1.931   3.172   0.123
10635SOL    HW232805   2.087   3.217   0.133
10636SOL     OW32806   6.688   2.616   0.114
10636SOL    HW132807   6.640   2.594   0.029
10636SOL    HW232808   6.724   2.709   0.109
10637SOL     OW32809   2.563   6.057   6.407
10637SOL    HW132810   2.648   6.060   6.354
10637SOL    HW232811   2.558   6.137   6.466
10638SOL     OW32812   6.605   5.755   2.080
10638SOL    HW132813   6.697   5.785   2.057
10638SOL    HW232814   6.541   5.787   2.009
10639SOL     OW32815   2.319   3.643   1.719
10639SOL    HW132816   2.327   3.551   1.757
10639SOL    HW232817   2.366   3.647   1.631
10640SOL     OW32818   3.872   0.724   3.535
10640SOL    HW132819   3.944   0.717   3.465
10640SOL    HW232820   3.785   0.695   3.496
10641SOL     OW32821   1.419   0.639   3.305
10641SOL    HW132822   1.339   0.698   3.292
10641SOL    HW232823   1.391   0.553   3.346
10642SOL     OW32824   6.448   2.471   0.193
10642SOL    HW132825   6.458   2.372   0.206
10642SOL    HW232826   6.538   2.513   0.187
10643SOL     OW32827   2.048   5.572   5.056
10643SOL    HW132828   2.009   5.504   5.118
10643SOL    HW232829   1.982   5.645   5.042
10644SOL     OW32830   6.119   2.757   1.933
10644SOL    HW132831   6.201   2.744   1.990
10644SOL    HW232832   6.118   2.851   1.898
10645SOL     OW32833   1.793   3.043   3.616
10645SOL    HW132834   1.861   2.983   3.658
10645SOL    HW232835   1.820   3.139   3.629
10646SOL     OW32836   5.201   1.314   4.507
10646SOL    HW132837   5.227   1.308   4.603
10646SOL    HW232838   5.191   1.222   4.469
10647SOL     OW32839   4.175   5.383   5.522
10647SOL    HW132840   4.113   5.340   5.457
10647SOL    HW232841   4.200   5.474   5.489
10648SOL     OW32842   6.274   5.168   6.207
10648SOL    HW132843   6.282   5.232   6.130
10648SOL    HW232844   6.212   5.206   6.276
10649SOL     OW32845   0.320   3.173   3.811
10649SOL    HW132846   0.391   3.140   3.873
10649SOL    HW232847   0.269   3.095   3.774
10650SOL     OW32848   7.015   0.205   4.082
10650SOL    HW132849   0.058   0.142   4.119
10650SOL    HW232850   6.924   0.180   4.116
10651SOL     OW32851   5.410   6.816   6.270
10651SOL    HW132852   5.422   6.899   6.215
10651SOL    HW232853   5.434   6.736   6.216
10652SOL     OW32854   1.503   6.642   6.139
10652SOL    HW132855   1.410   6.605   6.137
10652SOL    HW232856   1.557   6.592   6.207
10653SOL     OW32857   3.966   6.196   4.638
10653SOL    HW132858   3.924   6.138   4.708
10653SOL    HW232859   4.062   6.171   4.627
10654SOL     OW32860   5.161   1.484   4.036
10654SOL    HW132861   5.147   1.525   3.946
10654SOL    HW232862   5.130   1.548   4.106
10655SOL     OW32863   1.776   4.582   1.478
10655SOL    HW132864   1.758   4.640   1.558
10655SOL    HW232865   1.701   4.518   1.465
10656SOL     OW32866   6.159   1.354   2.355
10656SOL    HW132867   6.200   1.321   2.270
10656SOL    HW232868   6.177   1.288   2.428
10657SOL     OW32869   5.947   0.754   4.401
10657SOL    HW132870   6.029   0.765   4.345
10657SOL    HW232871   5.971   0.766   4.497
10658SOL     OW32872   5.779   3.976   5.410
10658SOL    HW132873   5.822   3.916   5.342
10658SOL    HW232874   5.775   3.929   5.498
10659SOL     OW32875   1.164   4.847   0.821
10659SOL    HW132876   1.221   4.926   0.843
10659SOL    HW232877   1.152   4.841   0.722
10660SOL     OW32878   6.066   3.566   5.619
10660SOL    HW132879   6.005   3.493   5.590
10660SOL    HW232880   6.042   3.595   5.712
10661SOL     OW32881   1.641   4.922   0.581
10661SOL    HW132882   1.585   4.958   0.506
10661SOL    HW232883   1.580   4.889   0.654
10662SOL     OW32884   3.259   1.387   2.331
10662SOL    HW132885   3.307   1.329   2.396
10662SOL    HW232886   3.323   1.452   2.290
10663SOL     OW32887   1.246   1.350   3.596
10663SOL    HW132888   1.268   1.262   3.637
10663SOL    HW232889   1.242   1.340   3.496
10664SOL     OW32890   0.747   5.443   4.614
10664SOL    HW132891   0.741   5.344   4.596
10664SOL    HW232892   0.818   5.460   4.682
10665SOL     OW32893   1.961   2.861   6.880
10665SOL    HW132894   1.962   2.802   6.962
10665SOL    HW232895   2.055   2.885   6.856
10666SOL     OW32896   3.959   3.487   2.011
10666SOL    HW132897   3.888   3.454   1.949
10666SOL    HW232898   4.041   3.429   2.002
10667SOL     OW32899   4.785   1.262   3.440
10667SOL    HW132900   4.744   1.314   3.515
10667SOL    HW232901   4.879   1.238   3.462
10668SOL     OW32902   3.398   1.926   5.375
10668SOL    HW132903   3.416   2.024   5.372
10668SOL    HW232904   3.299   1.910   5.365
10669SOL     OW32905   5.904   0.718   0.845
10669SOL    HW132906   5.849   0.642   0.810
10669SOL    HW232907   5.845   0.798   0.858
10670SOL     OW32908   5.326   4.088   4.479
10670SOL    HW132909   5.422   4.105   4.501
10670SOL    HW232910   5.268   4.138   4.544
10671SOL     OW32911   1.006   1.515   4.382
10671SOL    HW132912   1.082   1.505   4.447
10671SOL    HW232913   1.042   1.523   4.289
10672SOL     OW32914   6.333   4.374   1.615
10672SOL    HW132915   6.356   4.399   1.709
10672SOL    HW232916   6.237   4.347   1.610
10673SOL     OW32917   2.119   0.003   0.475
10673SOL    HW132918   2.114   7.019   0.376
10673SOL    HW232919   2.200   0.057   0.499
10674SOL     OW32920   4.105   3.457   4.339
10674SOL    HW132921   4.126   3.370   4.382
10674SOL    HW232922   4.139   3.457   4.245
10675SOL     OW32923   3.011   1.142   6.468
10675SOL    HW132924   2.971   1.111   6.554
10675SOL    HW232925   3.066   1.224   6.485
10676SOL     OW32926   0.051   5.681   4.832
10676SOL    HW132927   0.052   5.779   4.813
10676SOL    HW232928   0.107   5.662   4.913
10677SOL     OW32929   1.306   0.978   1.055
10677SOL    HW132930   1.378   0.994   0.988
10677SOL    HW232931   1.311   1.047   1.127
10678SOL     OW32932   4.230   4.795   3.731
10678SOL    HW132933   4.290   4.841   3.666
10678SOL    HW232934   4.284   4.749   3.801
10679SOL     OW32935   4.000   4.988   6.874
10679SOL    HW132936   4.026   4.974   6.969
10679SOL    HW232937   3.952   4.907   6.840
10680SOL     OW32938   3.508   1.786   3.909
10680SOL    HW132939   3.477   1.734   3.988
10680SOL    HW232940   3.563   1.864   3.940
10681SOL     OW32941   0.164   3.516   7.005
10681SOL    HW132942   0.074   3.555   7.019
10681SOL    HW232943   0.173   3.432   0.034
10682SOL     OW32944   0.083   3.159   5.001
10682SOL    HW132945   0.085   3.123   4.908
10682SOL    HW232946   0.172   3.145   5.044
10683SOL     OW32947   4.460   0.815   3.627
10683SOL    HW132948   4.443   0.742   3.693
10683SOL    HW232949   4.374   0.863   3.609
10684SOL     OW32950   4.220   5.152   1.533
10684SOL    HW132951   4.307   5.198   1.516
10684SOL    HW232952   4.146   5.208   1.497
10685SOL     OW32953   0.135   5.787   1.022
10685SOL    HW132954   0.102   5.864   1.078
10685SOL    HW232955   0.124   5.702   1.072
10686SOL     OW32956   2.433   4.368   6.531
10686SOL    HW132957   2.512   4.314   6.561
10686SOL    HW232958   2.428   4.367   6.431
10687SOL     OW32959   6.193   4.752   3.584
10687SOL    HW132960   6.099   4.720   3.575
10687SOL    HW232961   6.228   4.780   3.495
10688SOL     OW32962   5.689   2.053   2.603
10688SOL    HW132963   5.621   2.126   2.602
10688SOL    HW232964   5.679   1.999   2.686
10689SOL     OW32965   6.946   6.908   1.382
10689SOL    HW132966   6.912   6.967   1.456
10689SOL    HW232967   6.982   6.823   1.422
10690SOL     OW32968   0.077   5.085   3.485
10690SOL    HW132969   0.050   5.062   3.578
10690SOL    HW232970   0.042   5.016   3.422
10691SOL     OW32971   1.888   1.493   1.775
10691SOL    HW132972   1.888   1.564   1.846
10691SOL    HW232973   1.916   1.534   1.688
10692SOL     OW32974   2.772   0.576   4.534
10692SOL    HW132975   2.800   0.514   4.607
10692SOL    HW232976   2.692   0.537   4.487
10693SOL     OW32977   0.688   6.189   1.274
10693SOL    HW132978   0.699   6.288   1.262
10693SOL    HW232979   0.599   6.171   1.316
10694SOL     OW32980   5.129   6.986   6.706
10694SOL    HW132981   5.100   0.002   6.619
10694SOL    HW232982   5.084   0.008   6.782
10695SOL     OW32983   1.054   2.410   1.320
10695SOL    HW132984   1.051   2.336   1.252
10695SOL    HW232985   1.132   2.397   1.380
10696SOL     OW32986   6.277   3.651   4.766
10696SOL    HW132987   6.377   3.650   4.758
10696SOL    HW232988   6.246   3.745   4.779
10697SOL     OW32989   6.970   6.793   5.829
10697SOL    HW132990   6.928   6.724   5.770
10697SOL    HW232991   6.927   6.790   5.920
10698SOL     OW32992   4.730   3.939   0.304
10698SOL    HW132993   4.734   4.027   0.353
10698SOL    HW232994   4.822   3.905   0.290
10699SOL     OW32995   3.785   4.866   0.850
10699SOL    HW132996   3.703   4.814   0.873
10699SOL    HW232997   3.762   4.934   0.781
10700SOL     OW32998   5.450   6.927   0.654
10700SOL    HW132999   5.362   6.945   0.611
10700SOL    HW233000   5.512   6.884   0.588
10701SOL     OW33001   3.341   0.134   6.265
10701SOL    HW133002   3.280   0.109   6.340
10701SOL    HW233003   3.371   0.051   6.218
10702SOL     OW33004   5.099   3.601   2.507
10702SOL    HW133005   5.123   3.693   2.474
10702SOL    HW233006   5.012   3.572   2.467
10703SOL     OW33007   1.912   2.743   5.484
10703SOL    HW133008   2.007   2.756   5.453
10703SOL    HW233009   1.851   2.792   5.423
10704SOL     OW33010   6.842   4.865   2.706
10704SOL    HW133011   6.818   4.786   2.649
10704SOL    HW233012   6.940   4.864   2.725
10705SOL     OW33013   5.644   5.493   1.513
10705SOL    HW133014   5.608   5.403   1.538
10705SOL    HW233015   5.744   5.490   1.513
10706SOL     OW33016   3.883   0.031   1.928
10706SOL    HW133017   3.977   0.058   1.948
10706SOL    HW233018   3.883   6.970   1.878
10707SOL     OW33019   0.709   6.655   4.155
10707SOL    HW133020   0.617   6.695   4.162
10707SOL    HW233021   0.770   6.698   4.221
10708SOL     OW33022   4.262   1.246   1.581
10708SOL    HW133023   4.196   1.195   1.526
10708SOL    HW233024   4.344   1.263   1.527
10709SOL     OW33025   5.311   4.786   5.061
10709SOL    HW133026   5.345   4.774   5.154
10709SOL    HW233027   5.383   4.762   4.995
10710SOL     OW33028   6.148   1.179   3.981
10710SOL    HW133029   6.063   1.214   4.020
10710SOL    HW233030   6.136   1.168   3.882
10711SOL     OW33031   2.088   6.577   4.095
10711SOL    HW133032   2.090   6.671   4.130
10711SOL    HW233033   2.160   6.524   4.140
10712SOL     OW33034   2.943   0.135   2.761
10712SOL    HW133035   2.938   0.188   2.676
10712SOL    HW233036   2.987   0.190   2.832
10713SOL     OW33037   0.881   2.749   1.008
10713SOL    HW133038   0.870   2.677   0.940
10713SOL    HW233039   0.797   2.756   1.063
10714SOL     OW33040   4.373   3.259   5.562
10714SOL    HW133041   4.443   3.234   5.495
10714SOL    HW233042   4.371   3.359   5.571
10715SOL     OW33043   4.583   0.160   2.036
10715SOL    HW133044   4.655   0.092   2.050
10715SOL    HW233045   4.622   0.252   2.044
10716SOL     OW33046   5.982   2.917   3.236
10716SOL    HW133047   5.929   2.836   3.262
10716SOL    HW233048   6.060   2.928   3.298
10717SOL     OW33049   1.991   3.108   1.326
10717SOL    HW133050   2.085   3.076   1.326
10717SOL    HW233051   1.955   3.106   1.233
10718SOL     OW33052   1.168   3.490   0.021
10718SOL    HW133053   1.232   3.413   0.020
10718SOL    HW233054   1.164   3.530   6.955
10719SOL     OW33055   6.847   5.380   2.828
10719SOL    HW133056   6.806   5.290   2.811
10719SOL    HW233057   6.865   5.390   2.926
10720SOL     OW33058   6.412   4.946   4.811
10720SOL    HW133059   6.341   4.959   4.880
10720SOL    HW233060   6.452   4.854   4.821
10721SOL     OW33061   5.191   3.673   5.442
10721SOL    HW133062   5.173   3.630   5.530
10721SOL    HW233063   5.287   3.702   5.438
10722SOL     OW33064   0.573   5.133   1.151
10722SOL    HW133065   0.588   5.034   1.145
10722SOL    HW233066   0.480   5.151   1.183
10723SOL     OW33067   0.191   2.552   6.028
10723SOL    HW133068   0.256   2.562   5.953
10723SOL    HW233069   0.241   2.535   6.113
10724SOL     OW33070   5.916   0.064   6.196
10724SOL    HW133071   5.824   0.024   6.201
10724SOL    HW233072   5.982   7.017   6.177
10725SOL     OW33073   1.810   6.224   5.073
10725SOL    HW133074   1.761   6.165   5.009
10725SOL    HW233075   1.844   6.305   5.026
10726SOL     OW33076   5.854   0.982   3.891
10726SOL    HW133077   5.869   0.993   3.989
10726SOL    HW233078   5.935   1.010   3.841
10727SOL     OW33079   0.644   5.139   5.541
10727SOL    HW133080   0.677   5.160   5.633
10727SOL    HW233081   0.706   5.176   5.473
10728SOL     OW33082   1.924   5.048   6.556
10728SOL    HW133083   1.849   5.103   6.517
10728SOL    HW233084   1.957   4.983   6.487
10729SOL     OW33085   5.349   1.346   3.363
10729SOL    HW133086   5.386   1.401   3.438
10729SOL    HW233087   5.425   1.305   3.312
10730SOL     OW33088   2.054   0.652   1.070
10730SOL    HW133089   2.035   0.615   0.980
10730SOL    HW233090   2.027   0.586   1.140
10731SOL     OW33091   3.388   1.334   1.055
10731SOL    HW133092   3.353   1.265   0.991
10731SOL    HW233093   3.471   1.300   1.098
10732SOL     OW33094   6.945   4.346   5.019
10732SOL    HW133095   6.967   4.442   5.005
10732SOL    HW233096   6.868   4.338   5.083
10733SOL     OW33097   6.962   1.861   6.676
10733SOL    HW133098   6.901   1.860   6.597
10733SOL    HW233099   6.936   1.936   6.738
10734SOL     OW33100   0.909   0.724   0.019
10734SOL    HW133101   0.882   0.631   7.022
10734SOL    HW233102   0.837   0.766   0.075
10735SOL     OW33103   0.057   2.783   2.317
10735SOL    HW133104   0.020   2.876   2.312
10735SOL    HW233105   0.129   2.773   2.248
10736SOL     OW33106   1.162   0.447   3.710
10736SOL    HW133107   1.210   0.529   3.740
10736SOL    HW233108   1.114   0.406   3.788
10737SOL     OW33109   1.147   1.675   6.801
10737SOL    HW133110   1.062   1.666   6.749
10737SOL    HW233111   1.133   1.642   6.894
10738SOL     OW33112   2.381   6.987   2.940
10738SOL    HW133113   2.301   6.995   2.999
10738SOL    HW233114   2.437   0.045   2.947
10739SOL     OW33115   1.760   1.134   1.069
10739SOL    HW133116   1.761   1.049   1.017
10739SOL    HW233117   1.679   1.187   1.045
10740SOL     OW33118   0.449   5.203   4.963
10740SOL    HW133119   0.437   5.126   5.026
10740SOL    HW233120   0.451   5.169   4.869
10741SOL     OW33121   4.589   0.970   1.062
10741SOL    HW133122   4.623   0.883   1.099
10741SOL    HW233123   4.645   0.996   0.983
10742SOL     OW33124   5.433   6.821   1.374
10742SOL    HW133125   5.529   6.800   1.358
10742SOL    HW233126   5.426   6.904   1.430
10743SOL     OW33127   1.470   2.176   5.585
10743SOL    HW133128   1.407   2.106   5.553
10743SOL    HW233129   1.462   2.257   5.528
10744SOL     OW33130   3.058   1.348   1.207
10744SOL    HW133131   3.127   1.342   1.134
10744SOL    HW233132   2.991   1.276   1.196
10745SOL     OW33133   6.713   5.499   6.105
10745SOL    HW133134   6.686   5.500   6.009
10745SOL    HW233135   6.658   5.565   6.157
10746SOL     OW33136   2.374   4.425   1.133
10746SOL    HW133137   2.390   4.326   1.130
10746SOL    HW233138   2.457   4.471   1.164
10747SOL     OW33139   4.022   1.454   4.661
10747SOL    HW133140   4.081   1.456   4.742
10747SOL    HW233141   4.022   1.544   4.617
10748SOL     OW33142   5.521   1.103   0.409
10748SOL    HW133143   5.553   1.081   0.317
10748SOL    HW233144   5.464   1.185   0.406
10749SOL     OW33145   0.035   5.493   3.534
10749SOL    HW133146   0.031   5.444   3.447
10749SOL    HW233147   0.119   5.470   3.582
10750SOL     OW33148   4.690   6.230   4.131
10750SOL    HW133149   4.727   6.145   4.093
10750SOL    HW233150   4.721   6.240   4.226
10751SOL     OW33151   2.163   4.711   4.775
10751SOL    HW133152   2.108   4.686   4.696
10751SOL    HW233153   2.145   4.807   4.799
10752SOL     OW33154   6.399   4.792   5.468
10752SOL    HW133155   6.440   4.742   5.544
10752SOL    HW233156   6.305   4.760   5.454
10753SOL     OW33157   5.681   4.540   4.560
10753SOL    HW133158   5.675   4.462   4.497
10753SOL    HW233159   5.737   4.612   4.519
10754SOL     OW33160   0.585   0.306   3.316
10754SOL    HW133161   0.684   0.306   3.331
10754SOL    HW233162   0.565   0.280   3.222
10755SOL     OW33163   6.980   0.455   0.846
10755SOL    HW133164   6.922   0.536   0.843
10755SOL    HW233165   6.926   0.375   0.872
10756SOL     OW33166   6.463   5.069   6.785
10756SOL    HW133167   6.404   5.066   6.705
10756SOL    HW233168   6.417   5.120   6.858
10757SOL     OW33169   1.877   2.497   0.239
10757SOL    HW133170   1.894   2.412   0.190
10757SOL    HW233171   1.852   2.477   0.334
10758SOL     OW33172   0.820   5.901   4.846
10758SOL    HW133173   0.883   5.822   4.849
10758SOL    HW233174   0.873   5.985   4.845
10759SOL     OW33175   1.762   3.410   1.812
10759SOL    HW133176   1.733   3.402   1.907
10759SOL    HW233177   1.842   3.470   1.807
10760SOL     OW33178   5.198   0.392   2.461
10760SOL    HW133179   5.188   0.467   2.396
10760SOL    HW233180   5.296   0.378   2.480
10761SOL     OW33181   0.416   6.115   5.905
10761SOL    HW133182   0.412   6.036   5.966
10761SOL    HW233183   0.474   6.093   5.826
10762SOL     OW33184   3.160   1.945   4.279
10762SOL    HW133185   3.126   1.864   4.325
10762SOL    HW233186   3.183   2.015   4.346
10763SOL     OW33187   4.489   6.623   2.658
10763SOL    HW133188   4.391   6.631   2.641
10763SOL    HW233189   4.504   6.575   2.744
10764SOL     OW33190   5.307   2.183   5.801
10764SOL    HW133191   5.368   2.142   5.868
10764SOL    HW233192   5.354   2.255   5.751
10765SOL     OW33193   5.265   2.517   0.709
10765SOL    HW133194   5.209   2.560   0.780
10765SOL    HW233195   5.286   2.423   0.734
10766SOL     OW33196   4.304   4.718   0.663
10766SOL    HW133197   4.313   4.817   0.679
10766SOL    HW233198   4.325   4.669   0.747
10767SOL     OW33199   2.038   0.205   1.053
10767SOL    HW133200   2.097   0.146   1.108
10767SOL    HW233201   2.011   0.285   1.107
10768SOL     OW33202   5.237   5.227   1.313
10768SOL    HW133203   5.293   5.162   1.363
10768SOL    HW233204   5.268   5.232   1.218
10769SOL     OW33205   2.173   3.989   5.337
10769SOL    HW133206   2.249   3.978   5.273
10769SOL    HW233207   2.200   3.957   5.428
10770SOL     OW33208   5.143   6.550   4.308
10770SOL    HW133209   5.156   6.489   4.230
10770SOL    HW233210   5.126   6.495   4.390
10771SOL     OW33211   5.219   0.214   3.335
10771SOL    HW133212   5.168   0.227   3.420
10771SOL    HW233213   5.316   0.234   3.351
10772SOL     OW33214   6.381   0.245   3.989
10772SOL    HW133215   6.446   0.315   3.960
10772SOL    HW233216   6.429   0.159   4.007
10773SOL     OW33217   5.817   5.325   6.318
10773SOL    HW133218   5.743   5.384   6.351
10773SOL    HW233219   5.797   5.296   6.224
10774SOL     OW33220   2.349   1.899   5.956
10774SOL    HW133221   2.361   1.821   5.895
10774SOL    HW233222   2.436   1.922   5.999
10775SOL     OW33223   0.139   4.406   2.244
10775SOL    HW133224   0.149   4.505   2.249
10775SOL    HW233225   0.123   4.370   2.336
10776SOL     OW33226   0.481   0.690   6.213
10776SOL    HW133227   0.520   0.704   6.304
10776SOL    HW233228   0.544   0.635   6.158
10777SOL     OW33229   3.903   5.445   2.143
10777SOL    HW133230   3.833   5.448   2.215
10777SOL    HW233231   3.918   5.351   2.114
10778SOL     OW33232   4.620   0.315   3.953
10778SOL    HW133233   4.572   0.261   3.884
10778SOL    HW233234   4.574   0.306   4.041
10779SOL     OW33235   5.898   2.704   3.423
10779SOL    HW133236   5.973   2.640   3.407
10779SOL    HW233237   5.810   2.656   3.415
10780SOL     OW33238   1.918   0.448   4.012
10780SOL    HW133239   1.878   0.472   3.924
10780SOL    HW233240   1.876   0.503   4.084
10781SOL     OW33241   4.546   1.296   4.296
10781SOL    HW133242   4.558   1.219   4.359
10781SOL    HW233243   4.584   1.272   4.206
10782SOL     OW33244   6.706   0.477   2.819
10782SOL    HW133245   6.694   0.444   2.725
10782SOL    HW233246   6.659   0.564   2.830
10783SOL     OW33247   0.709   1.887   2.422
10783SOL    HW133248   0.723   1.842   2.334
10783SOL    HW233249   0.777   1.960   2.433
10784SOL     OW33250   4.118   6.907   4.164
10784SOL    HW133251   4.093   6.861   4.249
10784SOL    HW233252   4.211   6.881   4.138
10785SOL     OW33253   0.525   4.398   0.316
10785SOL    HW133254   0.503   4.316   0.369
10785SOL    HW233255   0.459   4.470   0.337
10786SOL     OW33256   6.252   4.640   3.324
10786SOL    HW133257   6.342   4.684   3.324
10786SOL    HW233258   6.262   4.542   3.341
10787SOL     OW33259   1.807   1.290   5.949
10787SOL    HW133260   1.896   1.325   5.921
10787SOL    HW233261   1.777   1.336   6.033
10788SOL     OW33262   1.431   4.271   0.395
10788SOL    HW133263   1.369   4.306   0.325
10788SOL    HW233264   1.379   4.220   0.463
10789SOL     OW33265   6.289   3.816   6.757
10789SOL    HW133266   6.235   3.786   6.835
10789SOL    HW233267   6.283   3.748   6.684
10790SOL     OW33268   1.078   0.309   2.086
10790SOL    HW133269   1.133   0.228   2.107
10790SOL    HW233270   1.131   0.371   2.029
10791SOL     OW33271   0.349   5.758   1.763
10791SOL    HW133272   0.333   5.680   1.824
10791SOL    HW233273   0.360   5.841   1.818
10792SOL     OW33274   3.159   2.961   4.984
10792SOL    HW133275   3.060   2.969   4.987
10792SOL    HW233276   3.187   2.931   4.893
10793SOL     OW33277   5.993   3.511   6.141
10793SOL    HW133278   5.984   3.568   6.222
10793SOL    HW233279   6.005   3.415   6.169
10794SOL     OW33280   4.079   3.612   4.604
10794SOL    HW133281   4.109   3.625   4.510
10794SOL    HW233282   4.105   3.521   4.635
10795SOL     OW33283   6.759   5.139   2.690
10795SOL    HW133284   6.801   5.049   2.681
10795SOL    HW233285   6.677   5.132   2.748
10796SOL     OW33286   6.736   6.941   5.619
10796SOL    HW133287   6.664   6.997   5.577
10796SOL    HW233288   6.772   6.988   5.699
10797SOL     OW33289   2.788   2.440   1.447
10797SOL    HW133290   2.807   2.364   1.386
10797SOL    HW233291   2.708   2.420   1.503
10798SOL     OW33292   2.944   0.588   0.428
10798SOL    HW133293   2.955   0.682   0.461
10798SOL    HW233294   2.870   0.585   0.360
10799SOL     OW33295   4.427   1.240   2.151
10799SOL    HW133296   4.436   1.202   2.243
10799SOL    HW233297   4.336   1.281   2.141
10800SOL     OW33298   0.713   6.502   5.530
10800SOL    HW133299   0.721   6.473   5.435
10800SOL    HW233300   0.803   6.499   5.574
10801SOL     OW33301   1.140   6.795   6.933
10801SOL    HW133302   1.094   6.707   6.943
10801SOL    HW233303   1.238   6.784   6.951
10802SOL     OW33304   0.404   0.165   2.011
10802SOL    HW133305   0.330   0.181   1.946
10802SOL    HW233306   0.419   0.067   2.021
10803SOL     OW33307   1.428   5.792   5.363
10803SOL    HW133308   1.527   5.801   5.352
10803SOL    HW233309   1.405   5.700   5.393
10804SOL     OW33310   5.828   3.463   2.914
10804SOL    HW133311   5.885   3.426   2.840
10804SOL    HW233312   5.776   3.541   2.881
10805SOL     OW33313   4.841   0.455   5.275
10805SOL    HW133314   4.835   0.465   5.176
10805SOL    HW233315   4.933   0.482   5.305
10806SOL     OW33316   3.699   4.099   6.135
10806SOL    HW133317   3.694   4.125   6.231
10806SOL    HW233318   3.795   4.090   6.108
10807SOL     OW33319   1.274   6.396   3.672
10807SOL    HW133320   1.213   6.319   3.653
10807SOL    HW233321   1.295   6.445   3.587
10808SOL     OW33322   0.411   2.856   5.719
10808SOL    HW133323   0.492   2.833   5.773
10808SOL    HW233324   0.434   2.927   5.653
10809SOL     OW33325   2.425   4.495   3.977
10809SOL    HW133326   2.335   4.536   3.993
10809SOL    HW233327   2.424   4.400   4.009
10810SOL     OW33328   0.218   0.432   4.316
10810SOL    HW133329   0.176   0.344   4.339
10810SOL    HW233330   0.150   0.490   4.270
10811SOL     OW33331   4.684   4.688   5.283
10811SOL    HW133332   4.728   4.598   5.284
10811SOL    HW233333   4.602   4.685   5.226
10812SOL     OW33334   0.349   3.799   0.378
10812SOL    HW133335   0.375   3.890   0.408
10812SOL    HW233336   0.406   3.772   0.301
10813SOL     OW33337   0.792   3.413   6.296
10813SOL    HW133338   0.824   3.478   6.364
10813SOL    HW233339   0.813   3.320   6.326
10814SOL     OW33340   2.250   0.153   6.944
10814SOL    HW133341   2.287   0.221   6.882
10814SOL    HW233342   2.152   0.169   6.956
10815SOL     OW33343   4.946   3.242   3.172
10815SOL    HW133344   4.955   3.283   3.081
10815SOL    HW233345   5.035   3.245   3.218
10816SOL     OW33346   3.206   3.257   2.871
10816SOL    HW133347   3.253   3.196   2.807
10816SOL    HW233348   3.144   3.317   2.821
10817SOL     OW33349   3.961   0.389   3.716
10817SOL    HW133350   3.910   0.365   3.634
10817SOL    HW233351   3.963   0.488   3.727
10818SOL     OW33352   4.906   4.107   5.813
10818SOL    HW133353   4.957   4.157   5.882
10818SOL    HW233354   4.810   4.098   5.841
10819SOL     OW33355   5.996   5.304   6.817
10819SOL    HW133356   5.930   5.364   6.772
10819SOL    HW233357   5.978   5.210   6.790
10820SOL     OW33358   0.146   5.212   4.298
10820SOL    HW133359   0.234   5.170   4.273
10820SOL    HW233360   0.162   5.284   4.365
10821SOL     OW33361   4.184   6.924   3.119
10821SOL    HW133362   4.244   6.928   3.039
10821SOL    HW233363   4.161   6.828   3.138
10822SOL     OW33364   6.175   1.863   2.167
10822SOL    HW133365   6.148   1.810   2.247
10822SOL    HW233366   6.184   1.960   2.192
10823SOL     OW33367   0.640   0.262   2.589
10823SOL    HW133368   0.618   0.337   2.651
10823SOL    HW233369   0.563   0.246   2.527
10824SOL     OW33370   0.042   0.930   2.426
10824SOL    HW133371   7.019   0.889   2.503
10824SOL    HW233372   7.017   0.912   2.341
10825SOL     OW33373   1.980   1.960   0.376
10825SOL    HW133374   1.994   1.912   0.463
10825SOL    HW233375   2.022   1.907   0.302
10826SOL     OW33376   1.102   1.368   2.630
10826SOL    HW133377   1.189   1.411   2.608
10826SOL    HW233378   1.110   1.269   2.619
10827SOL     OW33379   0.071   3.385   4.853
10827SOL    HW133380   0.058   3.299   4.901
10827SOL    HW233381   0.046   3.373   4.757
10828SOL     OW33382   1.656   4.305   0.741
10828SOL    HW133383   1.627   4.211   0.761
10828SOL    HW233384   1.639   4.363   0.821
10829SOL     OW33385   4.791   2.800   7.013
10829SOL    HW133386   4.814   2.876   6.952
10829SOL    HW233387   4.833   2.815   0.077
10830SOL     OW33388   4.509   1.913   3.294
10830SOL    HW133389   4.449   1.882   3.221
10830SOL    HW233390   4.470   1.993   3.339
10831SOL     OW33391   2.951   6.373   2.150
10831SOL    HW133392   2.905   6.462   2.142
10831SOL    HW233393   2.889   6.301   2.118
10832SOL     OW33394   6.591   3.870   6.642
10832SOL    HW133395   6.610   3.843   6.548
10832SOL    HW233396   6.676   3.867   6.695
10833SOL     OW33397   0.838   2.002   0.371
10833SOL    HW133398   0.916   2.056   0.341
10833SOL    HW233399   0.857   1.960   0.460
10834SOL     OW33400   6.322   1.756   6.974
10834SOL    HW133401   6.373   1.744   6.890
10834SOL    HW233402   6.336   1.677   0.009
10835SOL     OW33403   5.302   3.629   0.179
10835SOL    HW133404   5.254   3.553   0.134
10835SOL    HW233405   5.401   3.612   0.177
10836SOL     OW33406   0.503   1.240   2.725
10836SOL    HW133407   0.456   1.254   2.638
10836SOL    HW233408   0.517   1.329   2.769
10837SOL     OW33409   6.595   4.929   1.929
10837SOL    HW133410   6.689   4.959   1.946
10837SOL    HW233411   6.591   4.882   1.841
10838SOL     OW33412   5.830   6.575   3.980
10838SOL    HW133413   5.916   6.622   3.960
10838SOL    HW233414   5.767   6.586   3.903
10839SOL     OW33415   4.231   3.647   0.927
10839SOL    HW133416   4.168   3.649   1.004
10839SOL    HW233417   4.274   3.557   0.922
10840SOL     OW33418   3.505   6.475   2.282
10840SOL    HW133419   3.415   6.496   2.244
10840SOL    HW233420   3.569   6.548   2.257
10841SOL     OW33421   6.234   4.714   4.985
10841SOL    HW133422   6.192   4.712   5.076
10841SOL    HW233423   6.170   4.752   4.919
10842SOL     OW33424   5.092   2.544   1.119
10842SOL    HW133425   5.030   2.466   1.108
10842SOL    HW233426   5.047   2.615   1.172
10843SOL     OW33427   1.364   1.143   1.280
10843SOL    HW133428   1.421   1.073   1.324
10843SOL    HW233429   1.398   1.233   1.306
10844SOL     OW33430   6.759   4.690   3.384
10844SOL    HW133431   6.796   4.613   3.332
10844SOL    HW233432   6.788   4.682   3.480
10845SOL     OW33433   4.118   6.104   5.454
10845SOL    HW133434   4.057   6.177   5.485
10845SOL    HW233435   4.178   6.076   5.530
10846SOL     OW33436   5.472   0.603   0.023
10846SOL    HW133437   5.405   0.592   6.974
10846SOL    HW233438   5.430   0.575   0.110
10847SOL     OW33439   2.972   2.202   0.247
10847SOL    HW133440   2.999   2.203   0.151
10847SOL    HW233441   3.020   2.275   0.296
10848SOL     OW33442   0.677   4.408   1.161
10848SOL    HW133443   0.684   4.312   1.133
10848SOL    HW233444   0.641   4.462   1.085
10849SOL     OW33445   2.563   4.662   4.190
10849SOL    HW133446   2.518   4.574   4.174
10849SOL    HW233447   2.497   4.729   4.222
10850SOL     OW33448   3.857   6.350   6.449
10850SOL    HW133449   3.860   6.291   6.530
10850SOL    HW233450   3.950   6.363   6.414
10851SOL     OW33451   3.286   4.038   1.001
10851SOL    HW133452   3.354   3.990   0.945
10851SOL    HW233453   3.257   4.121   0.954
10852SOL     OW33454   1.639   1.216   6.664
10852SOL    HW133455   1.662   1.309   6.636
10852SOL    HW233456   1.591   1.170   6.589
10853SOL     OW33457   2.604   3.114   5.717
10853SOL    HW133458   2.559   3.203   5.712
10853SOL    HW233459   2.691   3.123   5.764
10854SOL     OW33460   4.386   5.469   5.193
10854SOL    HW133461   4.460   5.430   5.138
10854SOL    HW233462   4.298   5.437   5.158
10855SOL     OW33463   3.808   0.918   0.207
10855SOL    HW133464   3.722   0.928   0.256
10855SOL    HW233465   3.882   0.961   0.260
10856SOL     OW33466   5.889   1.435   0.326
10856SOL    HW133467   5.905   1.423   0.424
10856SOL    HW233468   5.945   1.511   0.292
10857SOL     OW33469   0.879   2.461   2.269
10857SOL    HW133470   0.832   2.548   2.255
10857SOL    HW233471   0.822   2.387   2.235
10858SOL     OW33472   0.866   0.017   0.357
10858SOL    HW133473   0.900   6.966   0.303
10858SOL    HW233474   0.872   7.020   0.454
10859SOL     OW33475   0.716   4.753   4.383
10859SOL    HW133476   0.718   4.745   4.483
10859SOL    HW233477   0.758   4.672   4.342
10860SOL     OW33478   0.386   2.977   4.315
10860SOL    HW133479   0.365   2.880   4.296
10860SOL    HW233480   0.346   3.034   4.243
10861SOL     OW33481   3.523   3.645   3.363
10861SOL    HW133482   3.510   3.659   3.265
10861SOL    HW233483   3.526   3.547   3.382
10862SOL     OW33484   1.063   0.984   5.551
10862SOL    HW133485   1.004   1.056   5.515
10862SOL    HW233486   1.009   0.920   5.605
10863SOL     OW33487   2.221   0.579   4.849
10863SOL    HW133488   2.262   0.618   4.766
10863SOL    HW233489   2.292   0.532   4.902
10864SOL     OW33490   3.411   5.776   0.366
10864SOL    HW133491   3.391   5.817   0.278
10864SOL    HW233492   3.445   5.683   0.352
10865SOL     OW33493   6.553   1.304   0.560
10865SOL    HW133494   6.477   1.241   0.545
10865SOL    HW233495   6.519   1.391   0.594
10866SOL     OW33496   5.022   4.553   0.999
10866SOL    HW133497   4.992   4.554   0.904
10866SOL    HW233498   5.060   4.643   1.022
10867SOL     OW33499   3.146   4.270   0.980
10867SOL    HW133500   3.193   4.304   1.061
10867SOL    HW233501   3.047   4.269   0.997
10868SOL     OW33502   4.860   1.800   3.732
10868SOL    HW133503   4.872   1.717   3.787
10868SOL    HW233504   4.896   1.785   3.640
10869NA      NA33505   6.739   3.219   5.309
10870NA      NA33506   4.561   4.422   4.970
10871NA      NA33507   1.246   2.860   1.673
10872NA      NA33508   5.027   3.769   5.296
10873NA      NA33509   4.200   2.276   5.224
10874NA      NA33510   3.566   4.899   1.782
10875NA      NA33511   6.748   5.036   6.816
10876NA      NA33512   3.145   3.447   4.812
10877NA      NA33513   4.542   6.046   0.008
10878NA      NA33514   4.278   6.522   5.091
10879NA      NA33515   6.353   5.249   2.516
10880NA      NA33516   2.317   0.186   3.834
10881NA      NA33517   3.927   5.634   1.992
10882NA      NA33518   3.709   3.879   2.236
   7.02495   7.02495   7.02495
