Generated by trjconv : CNT in water t= 448.00000
33518
    1C        C    1   2.845   2.770   4.746
    1C        C    2   2.899   2.720   4.866
    1C        C    3   2.844   2.774   4.983
    1C        C    4   2.851   2.774   4.259
    1C        C    5   2.903   2.725   4.381
    1C        C    6   2.844   2.769   4.502
    1C        C    7   3.011   2.639   4.626
    1C        C    8   2.897   2.722   4.624
    1C        C    9   3.075   2.598   4.745
    1C        C   10   3.009   2.631   4.866
    1C        C   11   3.183   2.492   4.980
    1C        C   12   3.060   2.560   4.976
    1C        C   13   2.853   2.770   3.771
    1C        C   14   2.903   2.722   3.893
    1C        C   15   2.849   2.773   4.013
    1C        C   16   3.015   2.642   4.137
    1C        C   17   2.902   2.728   4.136
    1C        C   18   3.076   2.605   4.259
    1C        C   19   3.018   2.643   4.382
    1C        C   20   3.206   2.549   4.505
    1C        C   21   3.076   2.605   4.505
    1C        C   22   3.276   2.527   4.625
    1C        C   23   3.207   2.545   4.747
    1C        C   24   3.411   2.479   4.864
    1C        C   25   3.270   2.500   4.866
    1C        C   26   3.488   2.476   4.980
    1C        C   27   2.851   2.767   3.280
    1C        C   28   2.908   2.727   3.403
    1C        C   29   2.857   2.778   3.525
    1C        C   30   3.017   2.640   3.648
    1C        C   31   2.903   2.724   3.647
    1C        C   32   3.074   2.598   3.770
    1C        C   33   3.013   2.632   3.893
    1C        C   34   3.204   2.545   4.017
    1C        C   35   3.074   2.601   4.016
    1C        C   36   3.272   2.523   4.139
    1C        C   37   3.204   2.546   4.261
    1C        C   38   3.413   2.504   4.381
    1C        C   39   3.273   2.525   4.383
    1C        C   40   3.485   2.500   4.503
    1C        C   41   3.415   2.501   4.625
    1C        C   42   3.630   2.482   4.743
    1C        C   43   3.488   2.481   4.744
    1C        C   44   3.706   2.486   4.862
    1C        C   45   3.627   2.475   4.978
    1C        C   46   2.842   2.755   2.794
    1C        C   47   2.897   2.713   2.917
    1C        C   48   2.848   2.766   3.038
    1C        C   49   3.017   2.634   3.158
    1C        C   50   2.902   2.717   3.158
    1C        C   51   3.079   2.601   3.281
    1C        C   52   3.020   2.641   3.403
    1C        C   53   3.205   2.542   3.527
    1C        C   54   3.077   2.601   3.526
    1C        C   55   3.273   2.525   3.649
    1C        C   56   3.205   2.545   3.772
    1C        C   57   3.411   2.501   3.895
    1C        C   58   3.272   2.524   3.895
    1C        C   59   3.483   2.496   4.017
    1C        C   60   3.412   2.505   4.138
    1C        C   61   3.625   2.495   4.261
    1C        C   62   3.484   2.498   4.260
    1C        C   63   3.699   2.505   4.381
    1C        C   64   3.626   2.498   4.502
    1C        C   65   3.835   2.544   4.620
    1C        C   66   3.700   2.500   4.622
    1C        C   67   3.901   2.569   4.742
    1C        C   68   3.840   2.529   4.863
    1C        C   69   4.051   2.584   4.975
    1C        C   70   3.924   2.526   4.976
    1C        C   71   2.826   2.734   2.308
    1C        C   72   2.884   2.690   2.430
    1C        C   73   2.840   2.751   2.550
    1C        C   74   3.009   2.624   2.671
    1C        C   75   2.893   2.705   2.672
    1C        C   76   3.070   2.586   2.794
    1C        C   77   3.010   2.628   2.915
    1C        C   78   3.206   2.541   3.037
    1C        C   79   3.077   2.598   3.036
    1C        C   80   3.275   2.525   3.160
    1C        C   81   3.208   2.545   3.283
    1C        C   82   3.413   2.497   3.404
    1C        C   83   3.274   2.520   3.405
    1C        C   84   3.482   2.489   3.527
    1C        C   85   3.411   2.498   3.649
    1C        C   86   3.622   2.495   3.770
    1C        C   87   3.481   2.497   3.772
    1C        C   88   3.693   2.508   3.892
    1C        C   89   3.624   2.505   4.015
    1C        C   90   3.829   2.550   4.135
    1C        C   91   3.694   2.507   4.138
    1C        C   92   3.898   2.575   4.256
    1C        C   93   3.834   2.549   4.379
    1C        C   94   4.026   2.641   4.501
    1C        C   95   3.903   2.571   4.500
    1C        C   96   4.091   2.675   4.621
    1C        C   97   4.028   2.634   4.740
    1C        C   98   4.192   2.766   4.863
    1C        C   99   4.097   2.659   4.862
    1C        C  100   4.212   2.845   4.977
    1C        C  101   2.821   2.726   2.070
    1C        C  102   2.991   2.591   2.188
    1C        C  103   2.877   2.677   2.188
    1C        C  104   3.065   2.573   2.309
    1C        C  105   3.005   2.617   2.429
    1C        C  106   3.198   2.525   2.551
    1C        C  107   3.072   2.588   2.550
    1C        C  108   3.269   2.511   2.672
    1C        C  109   3.200   2.532   2.794
    1C        C  110   3.410   2.490   2.915
    1C        C  111   3.270   2.513   2.915
    1C        C  112   3.481   2.488   3.036
    1C        C  113   3.414   2.501   3.160
    1C        C  114   3.626   2.501   3.279
    1C        C  115   3.485   2.495   3.282
    1C        C  116   3.693   2.512   3.403
    1C        C  117   3.623   2.498   3.525
    1C        C  118   3.828   2.545   3.646
    1C        C  119   3.693   2.502   3.648
    1C        C  120   3.892   2.575   3.768
    1C        C  121   3.828   2.549   3.891
    1C        C  122   4.017   2.645   4.013
    1C        C  123   3.895   2.574   4.013
    1C        C  124   4.080   2.681   4.134
    1C        C  125   4.023   2.641   4.257
    1C        C  126   4.194   2.768   4.377
    1C        C  127   4.085   2.679   4.378
    1C        C  128   4.243   2.821   4.498
    1C        C  129   4.194   2.772   4.621
    1C        C  130   4.325   2.939   4.740
    1C        C  131   4.244   2.823   4.743
    1C        C  132   4.355   3.005   4.861
    1C        C  133   4.285   2.964   4.975
    1C        C  134   3.176   2.469   2.081
    1C        C  135   3.041   2.507   2.084
    1C        C  136   3.262   2.476   2.191
    1C        C  137   3.196   2.518   2.309
    1C        C  138   3.402   2.466   2.428
    1C        C  139   3.263   2.492   2.430
    1C        C  140   3.477   2.478   2.547
    1C        C  141   3.409   2.494   2.670
    1C        C  142   3.620   2.491   2.789
    1C        C  143   3.479   2.479   2.792
    1C        C  144   3.691   2.507   2.910
    1C        C  145   3.622   2.500   3.033
    1C        C  146   3.831   2.537   3.156
    1C        C  147   3.693   2.507   3.155
    1C        C  148   3.898   2.563   3.278
    1C        C  149   3.830   2.545   3.401
    1C        C  150   4.019   2.636   3.522
    1C        C  151   3.895   2.567   3.524
    1C        C  152   4.077   2.674   3.645
    1C        C  153   4.018   2.640   3.768
    1C        C  154   4.188   2.768   3.885
    1C        C  155   4.074   2.685   3.890
    1C        C  156   4.242   2.814   4.007
    1C        C  157   4.190   2.770   4.131
    1C        C  158   4.339   2.920   4.251
    1C        C  159   4.243   2.817   4.253
    1C        C  160   4.377   2.984   4.372
    1C        C  161   4.332   2.931   4.495
    1C        C  162   4.438   3.116   4.616
    1C        C  163   4.366   2.994   4.616
    1C        C  164   4.470   3.184   4.735
    1C        C  165   4.435   3.122   4.857
    1C        C  166   4.513   3.318   4.971
    1C        C  167   4.480   3.183   4.975
    1C        C  168   3.479   2.440   2.070
    1C        C  169   3.401   2.453   2.186
    1C        C  170   3.615   2.463   2.304
    1C        C  171   3.473   2.451   2.307
    1C        C  172   3.689   2.486   2.422
    1C        C  173   3.618   2.480   2.544
    1C        C  174   3.824   2.539   2.665
    1C        C  175   3.687   2.501   2.666
    1C        C  176   3.890   2.569   2.786
    1C        C  177   3.827   2.544   2.910
    1C        C  178   4.021   2.626   3.028
    1C        C  179   3.895   2.563   3.032
    1C        C  180   4.077   2.669   3.151
    1C        C  181   4.021   2.632   3.275
    1C        C  182   4.189   2.758   3.397
    1C        C  183   4.078   2.671   3.398
    1C        C  184   4.240   2.809   3.518
    1C        C  185   4.188   2.761   3.641
    1C        C  186   4.335   2.918   3.764
    1C        C  187   4.240   2.813   3.762
    1C        C  188   4.378   2.977   3.884
    1C        C  189   4.332   2.923   4.006
    1C        C  190   4.441   3.105   4.128
    1C        C  191   4.376   2.979   4.128
    1C        C  192   4.471   3.171   4.249
    1C        C  193   4.442   3.109   4.373
    1C        C  194   4.511   3.313   4.491
    1C        C  195   4.471   3.178   4.493
    1C        C  196   4.525   3.387   4.611
    1C        C  197   4.507   3.321   4.735
    1C        C  198   4.555   3.535   4.853
    1C        C  199   4.530   3.394   4.855
    1C        C  200   4.584   3.622   4.962
    1C        C  201   3.617   2.416   2.069
    1C        C  202   3.826   2.506   2.184
    1C        C  203   3.691   2.457   2.184
    1C        C  204   3.899   2.531   2.303
    1C        C  205   3.825   2.522   2.423
    1C        C  206   4.019   2.617   2.542
    1C        C  207   3.892   2.554   2.543
    1C        C  208   4.080   2.659   2.662
    1C        C  209   4.019   2.628   2.785
    1C        C  210   4.195   2.749   2.906
    1C        C  211   4.082   2.664   2.906
    1C        C  212   4.244   2.799   3.029
    1C        C  213   4.190   2.754   3.151
    1C        C  214   4.330   2.914   3.274
    1C        C  215   4.240   2.805   3.274
    1C        C  216   4.370   2.974   3.395
    1C        C  217   4.331   2.917   3.519
    1C        C  218   4.440   3.100   3.640
    1C        C  219   4.372   2.977   3.640
    1C        C  220   4.471   3.166   3.761
    1C        C  221   4.448   3.100   3.884
    1C        C  222   4.503   3.306   4.003
    1C        C  223   4.470   3.169   4.006
    1C        C  224   4.517   3.377   4.124
    1C        C  225   4.506   3.308   4.246
    1C        C  226   4.519   3.522   4.366
    1C        C  227   4.516   3.381   4.367
    1C        C  228   4.523   3.595   4.487
    1C        C  229   4.534   3.528   4.610
    1C        C  230   4.504   3.742   4.726
    1C        C  231   4.537   3.604   4.729
    1C        C  232   4.493   3.817   4.845
    1C        C  233   4.537   3.754   4.963
    1C        C  234   4.012   2.616   2.063
    1C        C  235   3.892   2.545   2.067
    1C        C  236   4.082   2.644   2.181
    1C        C  237   4.024   2.600   2.302
    1C        C  238   4.195   2.735   2.422
    1C        C  239   4.086   2.644   2.420
    1C        C  240   4.248   2.790   2.541
    1C        C  241   4.193   2.744   2.663
    1C        C  242   4.341   2.901   2.785
    1C        C  243   4.246   2.797   2.783
    1C        C  244   4.380   2.962   2.906
    1C        C  245   4.332   2.909   3.029
    1C        C  246   4.442   3.090   3.148
    1C        C  247   4.375   2.966   3.151
    1C        C  248   4.464   3.159   3.270
    1C        C  249   4.432   3.101   3.395
    1C        C  250   4.503   3.301   3.514
    1C        C  251   4.462   3.166   3.517
    1C        C  252   4.521   3.371   3.636
    1C        C  253   4.507   3.303   3.759
    1C        C  254   4.526   3.515   3.877
    1C        C  255   4.518   3.374   3.880
    1C        C  256   4.518   3.589   3.998
    1C        C  257   4.518   3.519   4.121
    1C        C  258   4.493   3.730   4.241
    1C        C  259   4.518   3.591   4.242
    1C        C  260   4.473   3.800   4.362
    1C        C  261   4.492   3.733   4.485
    1C        C  262   4.427   3.940   4.601
    1C        C  263   4.477   3.808   4.604
    1C        C  264   4.392   4.004   4.722
    1C        C  265   4.426   3.941   4.843
    1C        C  266   4.314   4.130   4.958
    1C        C  267   4.386   4.012   4.958
    1C        C  268   4.262   2.776   2.065
    1C        C  269   4.196   2.728   2.179
    1C        C  270   4.336   2.892   2.298
    1C        C  271   4.248   2.781   2.299
    1C        C  272   4.377   2.956   2.417
    1C        C  273   4.341   2.895   2.540
    1C        C  274   4.451   3.079   2.659
    1C        C  275   4.382   2.956   2.661
    1C        C  276   4.476   3.149   2.779
    1C        C  277   4.448   3.085   2.902
    1C        C  278   4.509   3.288   3.025
    1C        C  279   4.474   3.151   3.024
    1C        C  280   4.514   3.363   3.145
    1C        C  281   4.502   3.295   3.268
    1C        C  282   4.515   3.508   3.390
    1C        C  283   4.513   3.367   3.390
    1C        C  284   4.518   3.581   3.511
    1C        C  285   4.526   3.512   3.634
    1C        C  286   4.486   3.723   3.751
    1C        C  287   4.516   3.585   3.755
    1C        C  288   4.468   3.791   3.874
    1C        C  289   4.496   3.728   3.997
    1C        C  290   4.426   3.930   4.115
    1C        C  291   4.478   3.798   4.119
    1C        C  292   4.392   3.994   4.236
    1C        C  293   4.424   3.933   4.359
    1C        C  294   4.322   4.122   4.478
    1C        C  295   4.400   4.004   4.478
    1C        C  296   4.280   4.183   4.598
    1C        C  297   4.323   4.129   4.722
    1C        C  298   4.196   4.312   4.839
    1C        C  299   4.282   4.197   4.839
    1C        C  300   4.165   4.400   4.948
    1C        C  301   4.354   2.880   2.059
    1C        C  302   4.469   3.064   2.176
    1C        C  303   4.396   2.941   2.178
    1C        C  304   4.483   3.141   2.296
    1C        C  305   4.449   3.077   2.417
    1C        C  306   4.509   3.284   2.537
    1C        C  307   4.476   3.146   2.538
    1C        C  308   4.520   3.356   2.658
    1C        C  309   4.509   3.287   2.781
    1C        C  310   4.526   3.498   2.899
    1C        C  311   4.522   3.357   2.903
    1C        C  312   4.513   3.571   3.019
    1C        C  313   4.516   3.504   3.143
    1C        C  314   4.486   3.714   3.261
    1C        C  315   4.511   3.575   3.265
    1C        C  316   4.472   3.784   3.383
    1C        C  317   4.495   3.720   3.506
    1C        C  318   4.423   3.921   3.625
    1C        C  319   4.472   3.789   3.627
    1C        C  320   4.396   3.986   3.748
    1C        C  321   4.419   3.923   3.872
    1C        C  322   4.310   4.108   3.989
    1C        C  323   4.388   3.990   3.993
    1C        C  324   4.271   4.166   4.112
    1C        C  325   4.317   4.114   4.234
    1C        C  326   4.182   4.280   4.352
    1C        C  327   4.276   4.175   4.355
    1C        C  328   4.132   4.334   4.473
    1C        C  329   4.187   4.289   4.595
    1C        C  330   4.025   4.434   4.713
    1C        C  331   4.138   4.348   4.714
    1C        C  332   3.963   4.484   4.829
    1C        C  333   4.046   4.473   4.942
    1C        C  334   4.548   3.266   2.061
    1C        C  335   4.527   3.127   2.062
    1C        C  336   4.538   3.349   2.173
    1C        C  337   4.515   3.279   2.293
    1C        C  338   4.530   3.492   2.411
    1C        C  339   4.525   3.351   2.414
    1C        C  340   4.528   3.566   2.532
    1C        C  341   4.526   3.497   2.655
    1C        C  342   4.491   3.707   2.771
    1C        C  343   4.521   3.569   2.776
    1C        C  344   4.470   3.777   2.891
    1C        C  345   4.485   3.709   3.014
    1C        C  346   4.419   3.910   3.136
    1C        C  347   4.471   3.779   3.136
    1C        C  348   4.386   3.976   3.257
    1C        C  349   4.421   3.916   3.380
    1C        C  350   4.309   4.097   3.501
    1C        C  351   4.390   3.981   3.501
    1C        C  352   4.269   4.156   3.623
    1C        C  353   4.315   4.102   3.745
    1C        C  354   4.169   4.261   3.867
    1C        C  355   4.264   4.157   3.865
    1C        C  356   4.119   4.315   3.987
    1C        C  357   4.170   4.265   4.109
    1C        C  358   4.008   4.403   4.231
    1C        C  359   4.122   4.320   4.230
    1C        C  360   3.951   4.446   4.353
    1C        C  361   4.016   4.415   4.475
    1C        C  362   3.825   4.516   4.590
    1C        C  363   3.956   4.463   4.593
    1C        C  364   3.760   4.551   4.710
    1C        C  365   3.833   4.538   4.831
    1C        C  366   3.625   4.593   4.952
    1C        C  367   3.762   4.573   4.946
    1C        C  368   4.514   3.562   2.051
    1C        C  369   4.528   3.490   2.170
    1C        C  370   4.501   3.704   2.287
    1C        C  371   4.522   3.564   2.290
    1C        C  372   4.480   3.775   2.407
    1C        C  373   4.496   3.703   2.528
    1C        C  374   4.418   3.904   2.644
    1C        C  375   4.477   3.775   2.648
    1C        C  376   4.388   3.968   2.766
    1C        C  377   4.418   3.909   2.891
    1C        C  378   4.313   4.092   3.012
    1C        C  379   4.389   3.973   3.013
    1C        C  380   4.270   4.150   3.133
    1C        C  381   4.312   4.096   3.257
    1C        C  382   4.169   4.254   3.374
    1C        C  383   4.263   4.149   3.378
    1C        C  384   4.117   4.299   3.498
    1C        C  385   4.170   4.258   3.622
    1C        C  386   4.004   4.392   3.742
    1C        C  387   4.117   4.307   3.743
    1C        C  388   3.944   4.431   3.863
    1C        C  389   4.004   4.398   3.987
    1C        C  390   3.815   4.490   4.108
    1C        C  391   3.944   4.434   4.109
    1C        C  392   3.749   4.518   4.230
    1C        C  393   3.823   4.507   4.349
    1C        C  394   3.614   4.555   4.473
    1C        C  395   3.754   4.534   4.469
    1C        C  396   3.544   4.569   4.595
    1C        C  397   3.620   4.569   4.714
    1C        C  398   3.410   4.549   4.840
    1C        C  399   3.549   4.575   4.836
    1C        C  400   3.342   4.511   4.957
    1C        C  401   4.498   3.700   2.051
    1C        C  402   4.450   3.914   2.163
    1C        C  403   4.485   3.777   2.167
    1C        C  404   4.407   3.976   2.282
    1C        C  405   4.436   3.909   2.403
    1C        C  406   4.322   4.093   2.525
    1C        C  407   4.397   3.974   2.523
    1C        C  408   4.276   4.148   2.646
    1C        C  409   4.316   4.089   2.768
    1C        C  410   4.172   4.248   2.886
    1C        C  411   4.270   4.146   2.889
    1C        C  412   4.120   4.298   3.007
    1C        C  413   4.173   4.254   3.130
    1C        C  414   4.001   4.381   3.252
    1C        C  415   4.118   4.302   3.251
    1C        C  416   3.941   4.415   3.376
    1C        C  417   4.002   4.380   3.498
    1C        C  418   3.812   4.481   3.617
    1C        C  419   3.940   4.420   3.619
    1C        C  420   3.745   4.506   3.739
    1C        C  421   3.813   4.485   3.861
    1C        C  422   3.610   4.538   3.985
    1C        C  423   3.749   4.509   3.984
    1C        C  424   3.541   4.541   4.108
    1C        C  425   3.609   4.539   4.232
    1C        C  426   3.398   4.552   4.356
    1C        C  427   3.539   4.557   4.353
    1C        C  428   3.329   4.551   4.480
    1C        C  429   3.403   4.564   4.600
    1C        C  430   3.194   4.521   4.722
    1C        C  431   3.333   4.551   4.722
    1C        C  432   3.125   4.491   4.843
    1C        C  433   3.205   4.490   4.958
    1C        C  434   4.380   4.118   2.046
    1C        C  435   4.442   3.993   2.047
    1C        C  436   4.301   4.160   2.158
    1C        C  437   4.334   4.098   2.281
    1C        C  438   4.177   4.246   2.400
    1C        C  439   4.278   4.147   2.402
    1C        C  440   4.120   4.294   2.520
    1C        C  441   4.174   4.246   2.642
    1C        C  442   4.005   4.376   2.763
    1C        C  443   4.121   4.296   2.763
    1C        C  444   3.945   4.413   2.885
    1C        C  445   4.002   4.375   3.009
    1C        C  446   3.810   4.471   3.129
    1C        C  447   3.940   4.416   3.129
    1C        C  448   3.744   4.493   3.252
    1C        C  449   3.812   4.472   3.374
    1C        C  450   3.607   4.532   3.495
    1C        C  451   3.746   4.505   3.495
    1C        C  452   3.538   4.543   3.618
    1C        C  453   3.607   4.535   3.742
    1C        C  454   3.396   4.547   3.864
    1C        C  455   3.538   4.545   3.865
    1C        C  456   3.328   4.535   3.987
    1C        C  457   3.399   4.540   4.109
    1C        C  458   3.194   4.504   4.235
    1C        C  459   3.333   4.532   4.233
    1C        C  460   3.128   4.485   4.358
    1C        C  461   3.193   4.513   4.480
    1C        C  462   2.996   4.437   4.600
    1C        C  463   3.126   4.492   4.602
    1C        C  464   2.929   4.402   4.720
    1C        C  465   2.991   4.442   4.841
    1C        C  466   2.805   4.332   4.959
    1C        C  467   2.909   4.424   4.958
    1C        C  468   4.118   4.282   2.041
    1C        C  469   4.188   4.248   2.158
    1C        C  470   4.008   4.373   2.276
    1C        C  471   4.127   4.294   2.278
    1C        C  472   3.941   4.407   2.396
    1C        C  473   4.002   4.373   2.518
    1C        C  474   3.810   4.461   2.644
    1C        C  475   3.940   4.406   2.641
    1C        C  476   3.745   4.491   2.765
    1C        C  477   3.814   4.466   2.886
    1C        C  478   3.606   4.524   3.006
    1C        C  479   3.744   4.492   3.006
    1C        C  480   3.538   4.537   3.129
    1C        C  481   3.606   4.525   3.252
    1C        C  482   3.394   4.535   3.376
    1C        C  483   3.535   4.538   3.374
    1C        C  484   3.326   4.534   3.500
    1C        C  485   3.397   4.550   3.621
    1C        C  486   3.187   4.509   3.745
    1C        C  487   3.324   4.543   3.742
    1C        C  488   3.126   4.478   3.868
    1C        C  489   3.193   4.496   3.992
    1C        C  490   3.003   4.407   4.117
    1C        C  491   3.126   4.475   4.115
    1C        C  492   2.939   4.378   4.240
    1C        C  493   3.002   4.421   4.359
    1C        C  494   2.826   4.301   4.483
    1C        C  495   2.937   4.390   4.481
    1C        C  496   2.772   4.255   4.605
    1C        C  497   2.818   4.314   4.725
    1C        C  498   2.659   4.167   4.840
    1C        C  499   2.752   4.273   4.843
    1C        C  500   2.588   4.121   4.952
    1C        C  501   4.002   4.357   2.038
    1C        C  502   3.815   4.466   2.153
    1C        C  503   3.941   4.404   2.156
    1C        C  504   3.747   4.485   2.275
    1C        C  505   3.812   4.463   2.398
    1C        C  506   3.606   4.513   2.521
    1C        C  507   3.744   4.482   2.521
    1C        C  508   3.533   4.523   2.641
    1C        C  509   3.606   4.518   2.761
    1C        C  510   3.395   4.530   2.885
    1C        C  511   3.536   4.527   2.884
    1C        C  512   3.326   4.527   3.009
    1C        C  513   3.397   4.540   3.131
    1C        C  514   3.190   4.492   3.254
    1C        C  515   3.326   4.527   3.252
    1C        C  516   3.124   4.470   3.377
    1C        C  517   3.190   4.498   3.499
    1C        C  518   3.001   4.412   3.623
    1C        C  519   3.122   4.484   3.622
    1C        C  520   2.944   4.371   3.746
    1C        C  521   3.004   4.407   3.869
    1C        C  522   2.835   4.283   3.994
    1C        C  523   2.948   4.367   3.992
    1C        C  524   2.782   4.237   4.116
    1C        C  525   2.829   4.290   4.238
    1C        C  526   2.694   4.133   4.362
    1C        C  527   2.780   4.245   4.363
    1C        C  528   2.652   4.075   4.484
    1C        C  529   2.686   4.142   4.603
    1C        C  530   2.583   3.957   4.730
    1C        C  531   2.639   4.088   4.725
    1C        C  532   2.538   3.902   4.853
    1C        C  533   2.530   3.995   4.962
    1C        C  534   3.614   4.551   2.038
    1C        C  535   3.748   4.510   2.038
    1C        C  536   3.536   4.532   2.157
    1C        C  537   3.607   4.510   2.278
    1C        C  538   3.394   4.514   2.398
    1C        C  539   3.535   4.521   2.399
    1C        C  540   3.323   4.507   2.521
    1C        C  541   3.391   4.522   2.643
    1C        C  542   3.184   4.485   2.764
    1C        C  543   3.321   4.517   2.766
    1C        C  544   3.121   4.463   2.889
    1C        C  545   3.191   4.486   3.010
    1C        C  546   2.999   4.399   3.134
    1C        C  547   3.122   4.468   3.132
    1C        C  548   2.941   4.362   3.258
    1C        C  549   2.999   4.405   3.379
    1C        C  550   2.834   4.276   3.507
    1C        C  551   2.941   4.369   3.503
    1C        C  552   2.779   4.231   3.629
    1C        C  553   2.832   4.285   3.749
    1C        C  554   2.695   4.124   3.873
    1C        C  555   2.782   4.236   3.871
    1C        C  556   2.656   4.068   3.996
    1C        C  557   2.691   4.129   4.118
    1C        C  558   2.600   3.939   4.245
    1C        C  559   2.657   4.069   4.241
    1C        C  560   2.572   3.876   4.368
    1C        C  561   2.590   3.948   4.488
    1C        C  562   2.529   3.747   4.616
    1C        C  563   2.565   3.883   4.611
    1C        C  564   2.510   3.679   4.738
    1C        C  565   2.516   3.760   4.854
    1C        C  566   2.517   3.547   4.978
    1C        C  567   2.516   3.686   4.973
    1C        C  568   3.325   4.473   2.039
    1C        C  569   3.396   4.510   2.155
    1C        C  570   3.185   4.471   2.280
    1C        C  571   3.323   4.505   2.277
    1C        C  572   3.116   4.452   2.401
    1C        C  573   3.185   4.477   2.522
    1C        C  574   2.986   4.403   2.647
    1C        C  575   3.114   4.461   2.643
    1C        C  576   2.933   4.359   2.770
    1C        C  577   2.997   4.396   2.890
    1C        C  578   2.830   4.268   3.016
    1C        C  579   2.938   4.359   3.013
    1C        C  580   2.781   4.219   3.140
    1C        C  581   2.835   4.269   3.260
    1C        C  582   2.698   4.113   3.384
    1C        C  583   2.788   4.222   3.385
    1C        C  584   2.657   4.056   3.507
    1C        C  585   2.695   4.118   3.628
    1C        C  586   2.592   3.936   3.754
    1C        C  587   2.657   4.062   3.752
    1C        C  588   2.569   3.873   3.879
    1C        C  589   2.598   3.939   4.000
    1C        C  590   2.541   3.735   4.128
    1C        C  591   2.577   3.872   4.123
    1C        C  592   2.522   3.669   4.251
    1C        C  593   2.528   3.741   4.373
    1C        C  594   2.507   3.533   4.497
    1C        C  595   2.514   3.674   4.496
    1C        C  596   2.515   3.464   4.620
    1C        C  597   2.513   3.537   4.741
    1C        C  598   2.533   3.326   4.863
    1C        C  599   2.528   3.467   4.863
    1C        C  600   2.541   3.249   4.979
    1C        C  601   3.195   4.428   2.042
    1C        C  602   2.986   4.385   2.162
    1C        C  603   3.118   4.440   2.158
    1C        C  604   2.923   4.353   2.285
    1C        C  605   2.987   4.393   2.404
    1C        C  606   2.819   4.269   2.529
    1C        C  607   2.925   4.362   2.526
    1C        C  608   2.770   4.220   2.652
    1C        C  609   2.823   4.270   2.773
    1C        C  610   2.685   4.111   2.896
    1C        C  611   2.775   4.220   2.896
    1C        C  612   2.649   4.053   3.020
    1C        C  613   2.691   4.110   3.142
    1C        C  614   2.590   3.926   3.266
    1C        C  615   2.653   4.052   3.265
    1C        C  616   2.565   3.864   3.390
    1C        C  617   2.596   3.928   3.512
    1C        C  618   2.524   3.731   3.637
    1C        C  619   2.564   3.866   3.635
    1C        C  620   2.516   3.665   3.762
    1C        C  621   2.529   3.738   3.883
    1C        C  622   2.508   3.527   4.005
    1C        C  623   2.522   3.668   4.005
    1C        C  624   2.510   3.457   4.128
    1C        C  625   2.509   3.528   4.250
    1C        C  626   2.534   3.322   4.379
    1C        C  627   2.510   3.462   4.375
    1C        C  628   2.557   3.255   4.501
    1C        C  629   2.538   3.324   4.622
    1C        C  630   2.600   3.119   4.743
    1C        C  631   2.554   3.254   4.744
    1C        C  632   2.617   3.048   4.865
    1C        C  633   2.567   3.111   4.984
    1C        C  634   2.788   4.294   2.049
    1C        C  635   2.894   4.386   2.052
    1C        C  636   2.749   4.226   2.165
    1C        C  637   2.807   4.271   2.286
    1C        C  638   2.675   4.108   2.409
    1C        C  639   2.764   4.217   2.410
    1C        C  640   2.636   4.050   2.533
    1C        C  641   2.684   4.107   2.653
    1C        C  642   2.587   3.921   2.778
    1C        C  643   2.644   4.050   2.775
    1C        C  644   2.560   3.857   2.901
    1C        C  645   2.588   3.926   3.021
    1C        C  646   2.523   3.725   3.146
    1C        C  647   2.567   3.859   3.144
    1C        C  648   2.508   3.658   3.270
    1C        C  649   2.519   3.730   3.392
    1C        C  650   2.503   3.521   3.518
    1C        C  651   2.507   3.662   3.515
    1C        C  652   2.510   3.450   3.640
    1C        C  653   2.508   3.524   3.760
    1C        C  654   2.537   3.317   3.888
    1C        C  655   2.511   3.456   3.884
    1C        C  656   2.557   3.250   4.011
    1C        C  657   2.539   3.319   4.133
    1C        C  658   2.605   3.122   4.258
    1C        C  659   2.552   3.253   4.257
    1C        C  660   2.639   3.055   4.378
    1C        C  661   2.607   3.123   4.498
    1C        C  662   2.711   2.938   4.624
    1C        C  663   2.637   3.059   4.621
    1C        C  664   2.748   2.875   4.744
    1C        C  665   2.695   2.929   4.865
    1C        C  666   2.743   2.870   4.982
    1C        C  667   2.672   4.023   2.051
    1C        C  668   2.677   4.105   2.166
    1C        C  669   2.583   3.915   2.291
    1C        C  670   2.637   4.046   2.288
    1C        C  671   2.556   3.849   2.413
    1C        C  672   2.585   3.919   2.533
    1C        C  673   2.516   3.721   2.658
    1C        C  674   2.559   3.855   2.656
    1C        C  675   2.507   3.651   2.780
    1C        C  676   2.521   3.721   2.902
    1C        C  677   2.503   3.512   3.030
    1C        C  678   2.509   3.653   3.025
    1C        C  679   2.504   3.445   3.154
    1C        C  680   2.501   3.517   3.275
    1C        C  681   2.528   3.307   3.400
    1C        C  682   2.507   3.447   3.398
    1C        C  683   2.548   3.240   3.523
    1C        C  684   2.535   3.311   3.644
    1C        C  685   2.607   3.114   3.770
    1C        C  686   2.554   3.245   3.768
    1C        C  687   2.646   3.055   3.893
    1C        C  688   2.608   3.119   4.013
    1C        C  689   2.710   2.936   4.138
    1C        C  690   2.635   3.056   4.137
    1C        C  691   2.758   2.881   4.259
    1C        C  692   2.718   2.938   4.381
    1C        C  693   2.755   2.879   4.504
    1C        C  694   2.629   3.890   2.055
    1C        C  695   2.525   3.706   2.178
    1C        C  696   2.575   3.838   2.174
    1C        C  697   2.506   3.634   2.298
    1C        C  698   2.518   3.713   2.415
    1C        C  699   2.487   3.506   2.543
    1C        C  700   2.498   3.647   2.538
    1C        C  701   2.497   3.437   2.665
    1C        C  702   2.498   3.510   2.786
    1C        C  703   2.525   3.300   2.910
    1C        C  704   2.504   3.440   2.908
    1C        C  705   2.543   3.234   3.034
    1C        C  706   2.530   3.306   3.155
    1C        C  707   2.600   3.108   3.276
    1C        C  708   2.547   3.239   3.278
    1C        C  709   2.638   3.050   3.399
    1C        C  710   2.609   3.112   3.523
    1C        C  711   2.717   2.935   3.648
    1C        C  712   2.636   3.052   3.647
    1C        C  713   2.761   2.878   3.769
    1C        C  714   2.720   2.935   3.892
    1C        C  715   2.756   2.880   4.017
    1C        C  716   2.446   3.499   2.063
    1C        C  717   2.484   3.634   2.065
    1C        C  718   2.460   3.421   2.182
    1C        C  719   2.475   3.495   2.302
    1C        C  720   2.513   3.290   2.425
    1C        C  721   2.481   3.428   2.426
    1C        C  722   2.537   3.224   2.547
    1C        C  723   2.530   3.299   2.666
    1C        C  724   2.595   3.098   2.790
    1C        C  725   2.546   3.231   2.789
    1C        C  726   2.625   3.037   2.913
    1C        C  727   2.594   3.102   3.034
    1C        C  728   2.709   2.923   3.158
    1C        C  729   2.628   3.039   3.156
    1C        C  730   2.759   2.874   3.280
    1C        C  731   2.715   2.931   3.402
    1C        C  732   2.759   2.880   3.526
    1C        C  733   2.490   3.199   2.070
    1C        C  734   2.491   3.281   2.183
    1C        C  735   2.586   3.088   2.304
    1C        C  736   2.526   3.217   2.305
    1C        C  737   2.617   3.022   2.425
    1C        C  738   2.590   3.093   2.544
    1C        C  739   2.700   2.915   2.670
    1C        C  740   2.623   3.033   2.668
    1C        C  741   2.746   2.859   2.792
    1C        C  742   2.700   2.918   2.912
    1C        C  743   2.749   2.867   3.035
    1C        C  744   2.549   3.073   2.075
    1C        C  745   2.686   2.895   2.185
    1C        C  746   2.613   3.016   2.186
    1C        C  747   2.733   2.841   2.307
    1C        C  748   2.694   2.903   2.428
    1C        C  749   2.742   2.853   2.551
    1C        C  750   2.741   2.840   2.069
    1C        C  751   3.657   2.297   1.990
    1C        O  752   3.680   2.187   2.047
    1C        O  753   3.641   2.296   1.851
    1C        C  754   4.621   3.062   1.968
    1C        O  755   4.599   3.043   1.846
    1C        O  756   4.759   3.058   1.992
    1C        C  757   4.435   4.222   1.956
    1C        O  758   4.544   4.282   1.978
    1C        O  759   4.399   4.241   1.822
    1C        C  760   3.587   4.668   1.951
    1C        O  761   3.669   4.763   1.956
    1C        O  762   3.542   4.632   1.823
    1C        C  763   2.875   4.508   1.971
    1C        O  764   2.896   4.495   1.848
    1C        O  765   2.779   4.602   2.013
    1C        C  766   2.333   3.464   1.974
    1C        O  767   2.354   3.398   1.869
    1C        O  768   2.197   3.474   2.007
    1C        C  769   4.688   3.581   5.060
    1C        O  770   4.692   3.630   5.176
    1C        O  771   4.796   3.499   5.024
    1C        C  772   4.279   4.464   5.018
    1C        O  773   4.309   4.459   5.141
    1C        O  774   4.349   4.567   4.955
    1C        C  775   4.149   2.507   5.055
    1C        O  776   4.197   2.398   5.014
    1C        O  777   4.145   2.520   5.194
    1C        C  778   2.886   4.526   5.063
    1C        O  779   2.807   4.623   5.048
    1C        O  780   2.920   4.510   5.198
    1C        C  781   2.461   3.045   5.063
    1C        O  782   2.377   2.965   5.014
    1C        O  783   2.462   3.047   5.202
    1C        C  784   2.487   3.966   5.101
    1C        O  785   2.363   3.962   5.123
    1C        O  786   2.573   3.930   5.205
    1C        C  787   2.954   2.402   2.025
    1C        O  788   2.921   2.416   1.904
    1C        O  789   2.930   2.282   2.091
    1C        C  790   3.181   2.363   5.052
    1C        O  791   3.093   2.277   5.026
    1C        O  792   3.226   2.355   5.185
    1C        H  793   4.257   3.036   5.048
    1C        H  794   4.227   2.787   5.065
    1C        H  795   4.474   3.134   5.070
    1C        H  796   4.545   3.356   5.065
    1C        H  797   4.563   3.816   5.046
    1C        H  798   4.390   3.961   5.052
    1C        H  799   4.252   4.140   5.045
    1C        H  800   4.029   4.535   5.027
    1C        H  801   3.814   4.636   5.015
    1C        H  802   3.582   4.641   5.038
    1C        H  803   3.397   4.478   5.043
    1C        H  804   3.163   4.464   5.053
    1C        H  805   3.897   2.463   5.058
    1C        H  806   3.675   2.481   5.074
    1C        H  807   2.993   2.541   5.057
    1C        H  808   3.444   2.428   5.066
    1C        H  809   2.871   2.728   5.076
    1C        H  810   2.708   2.904   5.077
    1C        H  811   2.536   3.304   5.071
    1C        H  812   2.459   3.499   5.054
    1C        H  813   2.548   3.731   5.065
    1C        H  814   2.583   4.178   5.043
    1C        H  815   2.770   4.297   5.055
    1C        H  816   2.693   2.861   1.976
    1C        H  817   2.851   2.686   1.975
    1C        H  818   3.211   2.423   1.990
    1C        H  819   3.427   2.426   1.978
    1C        H  820   3.878   2.483   1.981
    1C        H  821   4.024   2.686   1.984
    1C        H  822   4.257   2.714   1.978
    1C        H  823   4.408   2.897   1.968
    1C        H  824   4.609   3.307   1.983
    1C        H  825   4.542   3.513   1.960
    1C        H  826   4.465   3.745   1.959
    1C        H  827   3.809   4.544   1.957
    1C        H  828   3.962   4.383   1.942
    1C        H  829   4.172   4.270   1.949
    1C        H  830   4.459   3.952   1.950
    1C        H  831   2.691   3.829   1.994
    1C        H  832   2.650   4.076   1.961
    1C        H  833   2.716   4.307   1.972
    1C        H  834   3.354   4.528   1.952
    1C        H  835   3.180   4.336   1.990
    1C        H  836   2.543   3.012   1.987
    1C        H  837   2.405   3.212   2.007
    1C        H  838   2.506   3.670   1.967
    2V3OU   H29  839   2.800   3.552   5.084
    2V3OU   C27  840   2.781   3.504   5.183
    2V3OU   H27  841   2.725   3.564   5.259
    2V3OU   H28  842   2.733   3.404   5.167
    2V3OU   O11  843   2.909   3.482   5.244
    2V3OU   C15  844   2.920   3.401   5.355
    2V3OU   C13  845   3.049   3.373   5.402
    2V3OU   C14  846   3.077   3.267   5.490
    2V3OU   C16  847   2.968   3.188   5.525
    2V3OU    H6  848   2.991   3.099   5.585
    2V3OU   C12  849   3.218   3.233   5.517
    2V3OU    O2  850   3.242   3.129   5.582
    2V3OU   C10  851   3.328   3.307   5.453
    2V3OU    C8  852   3.460   3.267   5.468
    2V3OU   O10  853   3.485   3.154   5.541
    2V3OU   H26  854   3.399   3.122   5.572
    2V3OU    C6  855   3.566   3.349   5.419
    2V3OU    C5  856   3.539   3.466   5.349
    2V3OU    C4  857   3.704   3.292   5.416
    2V3OU    H4  858   3.725   3.219   5.500
    2V3OU    H5  859   3.711   3.221   5.329
    2V3OU    C2  860   3.816   3.395   5.422
    2V3OU    O6  861   3.812   3.471   5.543
    2V3OU   H21  862   3.768   3.553   5.513
    2V3OU    C3  863   3.781   3.493   5.310
    2V3OU    H2  864   3.859   3.573   5.304
    2V3OU    H3  865   3.778   3.430   5.218
    2V3OU   C25  866   3.951   3.323   5.410
    2V3OU    O7  867   4.003   3.289   5.304
    2V3OU   C26  868   4.029   3.287   5.535
    2V3OU   H22  869   4.059   3.379   5.592
    2V3OU   H23  870   4.115   3.220   5.510
    2V3OU    O8  871   3.961   3.204   5.627
    2V3OU   H24  872   3.922   3.262   5.695
    2V3OU    C1  873   3.648   3.565   5.325
    2V3OU    H1  874   3.626   3.620   5.228
    2V3OU    O3  875   3.656   3.655   5.436
    2V3OU   C19  876   3.620   3.794   5.433
    2V3OU    H9  877   3.520   3.807   5.383
    2V3OU    O4  878   3.716   3.853   5.350
    2V3OU   C20  879   3.844   3.873   5.412
    2V3OU   H10  880   3.889   3.770   5.423
    2V3OU   C24  881   3.611   3.854   5.574
    2V3OU   H16  882   3.545   3.792   5.639
    2V3OU   H17  883   3.570   3.958   5.563
    2V3OU   C23  884   3.750   3.869   5.636
    2V3OU   H15  885   3.793   3.764   5.649
    2V3OU    N1  886   3.736   3.951   5.755
    2V3OU   H19  887   3.802   3.923   5.824
    2V3OU   H20  888   3.643   3.932   5.788
    2V3OU   C21  889   3.852   3.946   5.546
    2V3OU   H11  890   3.956   3.929   5.586
    2V3OU    O5  891   3.827   4.086   5.551
    2V3OU   H18  892   3.786   4.103   5.637
    2V3OU   C22  893   3.914   3.946   5.299
    2V3OU   H12  894   3.864   4.045   5.283
    2V3OU   H13  895   3.905   3.886   5.204
    2V3OU   H14  896   4.023   3.957   5.319
    2V3OU   C11  897   3.157   3.471   5.386
    2V3OU    O1  898   3.136   3.593   5.368
    2V3OU    C9  899   3.298   3.425   5.380
    2V3OU    C7  900   3.402   3.501   5.327
    2V3OU    O9  901   3.390   3.610   5.243
    2V3OU   H25  902   3.296   3.630   5.232
    2V3OU   C17  903   2.817   3.312   5.393
    2V3OU    H7  904   2.714   3.347   5.384
    2V3OU   C18  905   2.838   3.202   5.476
    2V3OU    H8  906   2.753   3.147   5.518
    3SOL     OW  907   4.100   3.761   4.086
    3SOL    HW1  908   4.018   3.771   4.030
    3SOL    HW2  909   4.176   3.808   4.042
    4SOL     OW  910   6.859   0.166   0.410
    4SOL    HW1  911   6.884   0.190   0.504
    4SOL    HW2  912   6.797   0.235   0.373
    5SOL     OW  913   5.140   1.796   1.329
    5SOL    HW1  914   5.071   1.848   1.380
    5SOL    HW2  915   5.218   1.777   1.388
    6SOL     OW  916   5.933   0.598   2.564
    6SOL    HW1  917   5.859   0.535   2.584
    6SOL    HW2  918   5.947   0.659   2.642
    7SOL     OW  919   2.023   3.891   4.395
    7SOL    HW1  920   2.048   3.942   4.478
    7SOL    HW2  921   2.066   3.933   4.315
    8SOL     OW  922   1.755   3.711   5.368
    8SOL    HW1  923   1.770   3.628   5.315
    8SOL    HW2  924   1.839   3.733   5.419
    9SOL     OW  925   6.799   0.903   6.369
    9SOL    HW1  926   6.809   0.923   6.466
    9SOL    HW2  927   6.702   0.903   6.345
   10SOL     OW  928   4.975   4.440   2.749
   10SOL    HW1  929   4.879   4.413   2.745
   10SOL    HW2  930   5.019   4.422   2.661
   11SOL     OW  931   2.334   1.485   7.008
   11SOL    HW1  932   2.318   1.571   0.034
   11SOL    HW2  933   2.393   1.426   0.042
   12SOL     OW  934   3.171   4.887   3.427
   12SOL    HW1  935   3.204   4.891   3.521
   12SOL    HW2  936   3.233   4.940   3.368
   13SOL     OW  937   4.894   6.577   1.198
   13SOL    HW1  938   4.938   6.568   1.287
   13SOL    HW2  939   4.930   6.657   1.150
   14SOL     OW  940   4.495   5.333   5.145
   14SOL    HW1  941   4.581   5.377   5.121
   14SOL    HW2  942   4.496   5.305   5.241
   15SOL     OW  943   6.754   6.075   5.867
   15SOL    HW1  944   6.727   6.135   5.792
   15SOL    HW2  945   6.718   6.112   5.953
   16SOL     OW  946   0.994   3.949   5.021
   16SOL    HW1  947   0.934   3.871   5.009
   16SOL    HW2  948   0.953   4.031   4.981
   17SOL     OW  949   6.122   1.943   5.292
   17SOL    HW1  950   6.074   1.856   5.281
   17SOL    HW2  951   6.216   1.932   5.260
   18SOL     OW  952   2.603   1.234   5.644
   18SOL    HW1  953   2.614   1.271   5.736
   18SOL    HW2  954   2.685   1.253   5.590
   19SOL     OW  955   2.398   0.951   3.049
   19SOL    HW1  956   2.480   0.893   3.055
   19SOL    HW2  957   2.365   0.951   2.955
   20SOL     OW  958   6.301   1.706   5.619
   20SOL    HW1  959   6.293   1.796   5.575
   20SOL    HW2  960   6.221   1.651   5.595
   21SOL     OW  961   2.689   4.678   3.363
   21SOL    HW1  962   2.608   4.732   3.343
   21SOL    HW2  963   2.766   4.711   3.309
   22SOL     OW  964   1.777   6.989   6.645
   22SOL    HW1  965   1.712   6.924   6.685
   22SOL    HW2  966   1.787   6.970   6.547
   23SOL     OW  967   5.988   4.636   1.116
   23SOL    HW1  968   6.013   4.578   1.038
   23SOL    HW2  969   6.035   4.604   1.198
   24SOL     OW  970   4.565   1.321   0.930
   24SOL    HW1  971   4.610   1.247   0.879
   24SOL    HW2  972   4.635   1.384   0.966
   25SOL     OW  973   1.184   0.906   4.747
   25SOL    HW1  974   1.123   0.955   4.809
   25SOL    HW2  975   1.251   0.854   4.800
   26SOL     OW  976   1.186   2.647   6.969
   26SOL    HW1  977   1.242   2.590   0.008
   26SOL    HW2  978   1.241   2.721   6.931
   27SOL     OW  979   6.355   0.913   1.079
   27SOL    HW1  980   6.333   0.986   1.014
   27SOL    HW2  981   6.355   0.825   1.031
   28SOL     OW  982   2.687   0.719   5.273
   28SOL    HW1  983   2.783   0.704   5.298
   28SOL    HW2  984   2.656   0.644   5.214
   29SOL     OW  985   0.759   0.534   1.071
   29SOL    HW1  986   0.766   0.630   1.098
   29SOL    HW2  987   0.848   0.490   1.079
   30SOL     OW  988   4.528   0.334   5.215
   30SOL    HW1  989   4.626   0.351   5.223
   30SOL    HW2  990   4.479   0.380   5.288
   31SOL     OW  991   0.864   3.935   5.722
   31SOL    HW1  992   0.773   3.912   5.687
   31SOL    HW2  993   0.933   3.877   5.678
   32SOL     OW  994   3.039   0.568   1.093
   32SOL    HW1  995   2.999   0.568   1.185
   32SOL    HW2  996   3.024   0.478   1.051
   33SOL     OW  997   1.240   5.421   5.727
   33SOL    HW1  998   1.259   5.487   5.799
   33SOL    HW2  999   1.206   5.336   5.766
   34SOL     OW 1000   2.087   5.335   5.488
   34SOL    HW1 1001   2.176   5.289   5.488
   34SOL    HW2 1002   2.057   5.347   5.393
   35SOL     OW 1003   2.582   3.263   6.895
   35SOL    HW1 1004   2.638   3.188   6.860
   35SOL    HW2 1005   2.641   3.342   6.915
   36SOL     OW 1006   4.571   1.178   5.018
   36SOL    HW1 1007   4.558   1.179   4.919
   36SOL    HW2 1008   4.596   1.085   5.047
   37SOL     OW 1009   3.037   0.648   4.422
   37SOL    HW1 1010   3.131   0.683   4.423
   37SOL    HW2 1011   3.010   0.627   4.328
   38SOL     OW 1012   0.085   4.302   2.853
   38SOL    HW1 1013   0.071   4.239   2.929
   38SOL    HW2 1014   0.089   4.396   2.889
   39SOL     OW 1015   6.709   5.450   6.842
   39SOL    HW1 1016   6.781   5.501   6.888
   39SOL    HW2 1017   6.622   5.500   6.851
   40SOL     OW 1018   3.899   1.121   6.413
   40SOL    HW1 1019   3.993   1.124   6.449
   40SOL    HW2 1020   3.876   1.027   6.388
   41SOL     OW 1021   5.845   4.113   1.493
   41SOL    HW1 1022   5.879   4.167   1.416
   41SOL    HW2 1023   5.825   4.173   1.570
   42SOL     OW 1024   2.275   5.687   6.289
   42SOL    HW1 1025   2.199   5.623   6.299
   42SOL    HW2 1026   2.247   5.764   6.232
   43SOL     OW 1027   3.798   6.988   4.515
   43SOL    HW1 1028   3.855   0.049   4.525
   43SOL    HW2 1029   3.849   6.918   4.466
   44SOL     OW 1030   6.860   1.118   5.945
   44SOL    HW1 1031   6.838   1.178   6.022
   44SOL    HW2 1032   6.814   1.151   5.863
   45SOL     OW 1033   2.924   5.477   0.183
   45SOL    HW1 1034   3.022   5.459   0.187
   45SOL    HW2 1035   2.891   5.463   0.089
   46SOL     OW 1036   0.482   2.756   4.293
   46SOL    HW1 1037   0.512   2.741   4.199
   46SOL    HW2 1038   0.531   2.834   4.331
   47SOL     OW 1039   5.500   3.104   0.700
   47SOL    HW1 1040   5.524   3.104   0.797
   47SOL    HW2 1041   5.563   3.044   0.650
   48SOL     OW 1042   0.021   3.652   1.009
   48SOL    HW1 1043   0.046   3.639   1.105
   48SOL    HW2 1044   6.945   3.675   1.003
   49SOL     OW 1045   3.841   4.091   0.103
   49SOL    HW1 1046   3.896   4.033   0.042
   49SOL    HW2 1047   3.899   4.160   0.145
   50SOL     OW 1048   6.208   3.256   0.132
   50SOL    HW1 1049   6.279   3.323   0.109
   50SOL    HW2 1050   6.121   3.304   0.144
   51SOL     OW 1051   2.672   6.116   3.108
   51SOL    HW1 1052   2.661   6.026   3.066
   51SOL    HW2 1053   2.668   6.186   3.036
   52SOL     OW 1054   5.521   2.618   1.383
   52SOL    HW1 1055   5.551   2.523   1.374
   52SOL    HW2 1056   5.489   2.634   1.477
   53SOL     OW 1057   4.266   0.111   2.326
   53SOL    HW1 1058   4.342   0.136   2.266
   53SOL    HW2 1059   4.273   0.014   2.349
   54SOL     OW 1060   5.563   6.778   6.634
   54SOL    HW1 1061   5.468   6.763   6.661
   54SOL    HW2 1062   5.578   6.739   6.543
   55SOL     OW 1063   0.902   3.473   6.972
   55SOL    HW1 1064   0.981   3.412   6.983
   55SOL    HW2 1065   0.935   3.567   6.957
   56SOL     OW 1066   0.935   2.780   6.943
   56SOL    HW1 1067   0.941   2.872   6.984
   56SOL    HW2 1068   1.017   2.728   6.966
   57SOL     OW 1069   4.634   6.843   6.958
   57SOL    HW1 1070   4.600   6.750   6.947
   57SOL    HW2 1071   4.694   6.866   6.881
   58SOL     OW 1072   0.951   0.208   6.633
   58SOL    HW1 1073   0.961   0.199   6.732
   58SOL    HW2 1074   0.992   0.129   6.588
   59SOL     OW 1075   5.067   2.980   5.638
   59SOL    HW1 1076   5.148   2.924   5.657
   59SOL    HW2 1077   5.001   2.926   5.586
   60SOL     OW 1078   5.392   0.643   3.031
   60SOL    HW1 1079   5.315   0.581   3.017
   60SOL    HW2 1080   5.422   0.637   3.126
   61SOL     OW 1081   6.292   5.699   4.687
   61SOL    HW1 1082   6.377   5.684   4.737
   61SOL    HW2 1083   6.276   5.621   4.626
   62SOL     OW 1084   6.167   2.692   2.046
   62SOL    HW1 1085   6.231   2.661   1.976
   62SOL    HW2 1086   6.157   2.620   2.115
   63SOL     OW 1087   4.414   6.489   5.137
   63SOL    HW1 1088   4.352   6.513   5.212
   63SOL    HW2 1089   4.376   6.413   5.084
   64SOL     OW 1090   0.717   4.292   6.008
   64SOL    HW1 1091   0.672   4.203   6.011
   64SOL    HW2 1092   0.803   4.285   5.958
   65SOL     OW 1093   0.755   6.782   5.496
   65SOL    HW1 1094   0.686   6.818   5.560
   65SOL    HW2 1095   0.842   6.828   5.514
   66SOL     OW 1096   4.289   0.841   2.111
   66SOL    HW1 1097   4.256   0.908   2.177
   66SOL    HW2 1098   4.264   0.869   2.019
   67SOL     OW 1099   0.527   2.884   1.444
   67SOL    HW1 1100   0.463   2.888   1.520
   67SOL    HW2 1101   0.610   2.836   1.472
   68SOL     OW 1102   6.873   2.076   5.234
   68SOL    HW1 1103   6.856   2.158   5.179
   68SOL    HW2 1104   6.964   2.081   5.275
   69SOL     OW 1105   0.706   6.145   6.216
   69SOL    HW1 1106   0.740   6.115   6.305
   69SOL    HW2 1107   0.768   6.215   6.179
   70SOL     OW 1108   4.999   3.316   4.318
   70SOL    HW1 1109   5.096   3.298   4.334
   70SOL    HW2 1110   4.963   3.248   4.254
   71SOL     OW 1111   5.118   1.586   4.918
   71SOL    HW1 1112   5.055   1.532   4.975
   71SOL    HW2 1113   5.118   1.681   4.950
   72SOL     OW 1114   0.270   0.847   3.479
   72SOL    HW1 1115   0.221   0.920   3.431
   72SOL    HW2 1116   0.315   0.788   3.413
   73SOL     OW 1117   3.117   1.095   1.176
   73SOL    HW1 1118   3.020   1.083   1.195
   73SOL    HW2 1119   3.159   1.151   1.247
   74SOL     OW 1120   1.797   2.273   0.668
   74SOL    HW1 1121   1.813   2.336   0.744
   74SOL    HW2 1122   1.801   2.323   0.582
   75SOL     OW 1123   3.556   3.613   0.279
   75SOL    HW1 1124   3.511   3.695   0.242
   75SOL    HW2 1125   3.565   3.623   0.378
   76SOL     OW 1126   3.278   4.993   5.233
   76SOL    HW1 1127   3.369   5.019   5.267
   76SOL    HW2 1128   3.276   4.894   5.217
   77SOL     OW 1129   1.134   4.368   4.591
   77SOL    HW1 1130   1.214   4.426   4.576
   77SOL    HW2 1131   1.077   4.408   4.663
   78SOL     OW 1132   4.745   1.933   0.812
   78SOL    HW1 1133   4.648   1.937   0.787
   78SOL    HW2 1134   4.779   1.840   0.797
   79SOL     OW 1135   1.500   4.524   3.219
   79SOL    HW1 1136   1.475   4.481   3.306
   79SOL    HW2 1137   1.479   4.463   3.144
   80SOL     OW 1138   4.258   1.009   5.164
   80SOL    HW1 1139   4.319   1.042   5.093
   80SOL    HW2 1140   4.305   0.940   5.219
   81SOL     OW 1141   3.998   5.881   1.200
   81SOL    HW1 1142   4.002   5.875   1.300
   81SOL    HW2 1143   3.903   5.894   1.172
   82SOL     OW 1144   2.552   6.322   1.958
   82SOL    HW1 1145   2.556   6.277   2.047
   82SOL    HW2 1146   2.577   6.257   1.886
   83SOL     OW 1147   5.501   0.666   4.814
   83SOL    HW1 1148   5.533   0.739   4.754
   83SOL    HW2 1149   5.451   0.598   4.761
   84SOL     OW 1150   5.168   2.053   1.689
   84SOL    HW1 1151   5.212   2.003   1.763
   84SOL    HW2 1152   5.215   2.140   1.675
   85SOL     OW 1153   1.925   0.237   4.165
   85SOL    HW1 1154   2.012   0.189   4.148
   85SOL    HW2 1155   1.929   0.281   4.255
   86SOL     OW 1156   6.131   0.089   6.737
   86SOL    HW1 1157   6.189   0.145   6.677
   86SOL    HW2 1158   6.039   0.127   6.737
   87SOL     OW 1159   2.646   4.354   6.503
   87SOL    HW1 1160   2.592   4.282   6.547
   87SOL    HW2 1161   2.639   4.344   6.404
   88SOL     OW 1162   3.263   4.243   7.005
   88SOL    HW1 1163   3.178   4.191   6.996
   88SOL    HW2 1164   3.332   4.205   6.942
   89SOL     OW 1165   2.989   3.880   4.078
   89SOL    HW1 1166   3.043   3.921   4.004
   89SOL    HW2 1167   2.997   3.937   4.160
   90SOL     OW 1168   4.837   3.976   2.668
   90SOL    HW1 1169   4.848   3.893   2.614
   90SOL    HW2 1170   4.822   4.054   2.606
   91SOL     OW 1171   4.487   5.272   5.442
   91SOL    HW1 1172   4.400   5.307   5.478
   91SOL    HW2 1173   4.563   5.322   5.482
   92SOL     OW 1174   5.681   3.330   6.272
   92SOL    HW1 1175   5.654   3.312   6.366
   92SOL    HW2 1176   5.676   3.429   6.254
   93SOL     OW 1177   2.909   3.420   2.542
   93SOL    HW1 1178   2.958   3.333   2.548
   93SOL    HW2 1179   2.875   3.434   2.450
   94SOL     OW 1180   2.525   1.682   5.142
   94SOL    HW1 1181   2.449   1.620   5.122
   94SOL    HW2 1182   2.490   1.775   5.156
   95SOL     OW 1183   0.681   0.800   4.115
   95SOL    HW1 1184   0.600   0.743   4.100
   95SOL    HW2 1185   0.755   0.769   4.055
   96SOL     OW 1186   6.208   5.047   0.502
   96SOL    HW1 1187   6.159   5.032   0.588
   96SOL    HW2 1188   6.149   5.021   0.426
   97SOL     OW 1189   1.928   5.071   5.727
   97SOL    HW1 1190   1.935   5.171   5.726
   97SOL    HW2 1191   1.868   5.043   5.803
   98SOL     OW 1192   1.619   2.081   3.345
   98SOL    HW1 1193   1.540   2.141   3.359
   98SOL    HW2 1194   1.619   2.047   3.251
   99SOL     OW 1195   3.849   3.445   4.987
   99SOL    HW1 1196   3.882   3.350   4.980
   99SOL    HW2 1197   3.912   3.506   4.939
  100SOL     OW 1198   6.629   1.042   4.710
  100SOL    HW1 1199   6.700   0.987   4.755
  100SOL    HW2 1200   6.549   0.985   4.694
  101SOL     OW 1201   6.634   3.427   2.445
  101SOL    HW1 1202   6.586   3.399   2.362
  101SOL    HW2 1203   6.699   3.500   2.423
  102SOL     OW 1204   4.023   0.107   0.099
  102SOL    HW1 1205   4.104   0.135   0.048
  102SOL    HW2 1206   3.992   0.181   0.158
  103SOL     OW 1207   3.378   0.758   2.153
  103SOL    HW1 1208   3.338   0.849   2.157
  103SOL    HW2 1209   3.451   0.756   2.084
  104SOL     OW 1210   6.874   4.393   2.024
  104SOL    HW1 1211   6.909   4.302   2.003
  104SOL    HW2 1212   6.919   4.428   2.106
  105SOL     OW 1213   5.977   1.042   5.306
  105SOL    HW1 1214   5.908   1.042   5.378
  105SOL    HW2 1215   6.067   1.061   5.346
  106SOL     OW 1216   5.258   4.594   1.659
  106SOL    HW1 1217   5.243   4.678   1.711
  106SOL    HW2 1218   5.326   4.538   1.706
  107SOL     OW 1219   6.073   6.834   1.201
  107SOL    HW1 1220   6.158   6.883   1.223
  107SOL    HW2 1221   5.997   6.899   1.199
  108SOL     OW 1222   2.038   1.274   4.748
  108SOL    HW1 1223   1.992   1.213   4.685
  108SOL    HW2 1224   2.020   1.369   4.722
  109SOL     OW 1225   1.582   1.085   4.073
  109SOL    HW1 1226   1.668   1.053   4.111
  109SOL    HW2 1227   1.506   1.040   4.120
  110SOL     OW 1228   3.479   4.314   5.628
  110SOL    HW1 1229   3.543   4.293   5.554
  110SOL    HW2 1230   3.396   4.354   5.590
  111SOL     OW 1231   6.483   1.908   1.330
  111SOL    HW1 1232   6.394   1.942   1.299
  111SOL    HW2 1233   6.547   1.984   1.340
  112SOL     OW 1234   5.043   6.141   6.903
  112SOL    HW1 1235   5.019   6.085   6.824
  112SOL    HW2 1236   5.035   6.238   6.879
  113SOL     OW 1237   0.541   5.997   2.251
  113SOL    HW1 1238   0.578   5.904   2.253
  113SOL    HW2 1239   0.594   6.055   2.313
  114SOL     OW 1240   0.274   3.773   3.038
  114SOL    HW1 1241   0.344   3.814   3.096
  114SOL    HW2 1242   0.261   3.677   3.062
  115SOL     OW 1243   5.633   6.998   3.685
  115SOL    HW1 1244   5.542   6.987   3.725
  115SOL    HW2 1245   5.702   7.000   3.757
  116SOL     OW 1246   0.104   4.901   0.255
  116SOL    HW1 1247   0.065   4.993   0.260
  116SOL    HW2 1248   0.141   4.875   0.345
  117SOL     OW 1249   2.030   2.426   0.442
  117SOL    HW1 1250   2.116   2.453   0.399
  117SOL    HW2 1251   2.013   2.330   0.425
  118SOL     OW 1252   1.458   2.096   3.914
  118SOL    HW1 1253   1.393   2.034   3.872
  118SOL    HW2 1254   1.540   2.046   3.942
  119SOL     OW 1255   6.507   6.560   6.048
  119SOL    HW1 1256   6.442   6.621   6.002
  119SOL    HW2 1257   6.472   6.467   6.045
  120SOL     OW 1258   4.916   2.313   4.878
  120SOL    HW1 1259   4.837   2.257   4.903
  120SOL    HW2 1260   4.943   2.293   4.783
  121SOL     OW 1261   1.234   4.865   6.763
  121SOL    HW1 1262   1.237   4.818   6.852
  121SOL    HW2 1263   1.270   4.958   6.773
  122SOL     OW 1264   0.437   4.291   6.392
  122SOL    HW1 1265   0.429   4.376   6.339
  122SOL    HW2 1266   0.505   4.303   6.464
  123SOL     OW 1267   1.165   1.564   1.519
  123SOL    HW1 1268   1.099   1.633   1.486
  123SOL    HW2 1269   1.174   1.572   1.618
  124SOL     OW 1270   2.175   2.574   0.692
  124SOL    HW1 1271   2.157   2.548   0.787
  124SOL    HW2 1272   2.135   2.507   0.631
  125SOL     OW 1273   4.082   3.743   0.249
  125SOL    HW1 1274   4.070   3.698   0.337
  125SOL    HW2 1275   4.107   3.675   0.180
  126SOL     OW 1276   4.090   3.820   4.585
  126SOL    HW1 1277   4.183   3.855   4.601
  126SOL    HW2 1278   4.090   3.763   4.503
  127SOL     OW 1279   0.516   5.593   5.245
  127SOL    HW1 1280   0.526   5.563   5.340
  127SOL    HW2 1281   0.431   5.646   5.235
  128SOL     OW 1282   4.264   3.294   6.806
  128SOL    HW1 1283   4.267   3.257   6.899
  128SOL    HW2 1284   4.181   3.260   6.760
  129SOL     OW 1285   1.186   5.390   1.746
  129SOL    HW1 1286   1.192   5.307   1.692
  129SOL    HW2 1287   1.278   5.422   1.770
  130SOL     OW 1288   6.238   3.108   4.808
  130SOL    HW1 1289   6.141   3.133   4.805
  130SOL    HW2 1290   6.294   3.190   4.802
  131SOL     OW 1291   0.561   2.211   3.689
  131SOL    HW1 1292   0.542   2.121   3.650
  131SOL    HW2 1293   0.637   2.254   3.640
  132SOL     OW 1294   3.945   3.671   2.450
  132SOL    HW1 1295   3.932   3.767   2.426
  132SOL    HW2 1296   3.991   3.665   2.539
  133SOL     OW 1297   5.611   6.158   6.388
  133SOL    HW1 1298   5.548   6.143   6.464
  133SOL    HW2 1299   5.675   6.231   6.410
  134SOL     OW 1300   5.207   1.518   1.622
  134SOL    HW1 1301   5.151   1.530   1.704
  134SOL    HW2 1302   5.238   1.424   1.615
  135SOL     OW 1303   4.727   2.787   3.564
  135SOL    HW1 1304   4.764   2.714   3.506
  135SOL    HW2 1305   4.725   2.872   3.512
  136SOL     OW 1306   3.679   0.031   6.400
  136SOL    HW1 1307   3.749   6.990   6.434
  136SOL    HW2 1308   3.633   0.075   6.478
  137SOL     OW 1309   3.134   2.814   6.007
  137SOL    HW1 1310   3.092   2.900   6.036
  137SOL    HW2 1311   3.148   2.816   5.908
  138SOL     OW 1312   0.483   5.437   6.245
  138SOL    HW1 1313   0.551   5.363   6.242
  138SOL    HW2 1314   0.470   5.474   6.153
  139SOL     OW 1315   2.279   6.076   0.816
  139SOL    HW1 1316   2.361   6.097   0.869
  139SOL    HW2 1317   2.306   6.043   0.725
  140SOL     OW 1318   3.130   0.295   1.310
  140SOL    HW1 1319   3.075   0.226   1.357
  140SOL    HW2 1320   3.096   0.386   1.333
  141SOL     OW 1321   6.732   2.858   0.583
  141SOL    HW1 1322   6.654   2.918   0.600
  141SOL    HW2 1323   6.725   2.777   0.640
  142SOL     OW 1324   1.371   4.276   2.185
  142SOL    HW1 1325   1.455   4.295   2.235
  142SOL    HW2 1326   1.373   4.182   2.151
  143SOL     OW 1327   4.920   6.323   2.014
  143SOL    HW1 1328   5.005   6.272   2.001
  143SOL    HW2 1329   4.850   6.286   1.954
  144SOL     OW 1330   3.379   5.377   4.244
  144SOL    HW1 1331   3.417   5.284   4.246
  144SOL    HW2 1332   3.389   5.415   4.152
  145SOL     OW 1333   6.636   5.130   3.131
  145SOL    HW1 1334   6.692   5.152   3.210
  145SOL    HW2 1335   6.694   5.113   3.052
  146SOL     OW 1336   5.732   1.268   6.335
  146SOL    HW1 1337   5.818   1.319   6.335
  146SOL    HW2 1338   5.740   1.190   6.273
  147SOL     OW 1339   5.125   0.790   4.860
  147SOL    HW1 1340   5.064   0.804   4.782
  147SOL    HW2 1341   5.153   0.695   4.865
  148SOL     OW 1342   0.895   5.384   0.722
  148SOL    HW1 1343   0.914   5.316   0.651
  148SOL    HW2 1344   0.798   5.382   0.744
  149SOL     OW 1345   2.102   2.627   5.279
  149SOL    HW1 1346   2.058   2.596   5.195
  149SOL    HW2 1347   2.191   2.667   5.258
  150SOL     OW 1348   4.314   1.628   4.863
  150SOL    HW1 1349   4.251   1.555   4.837
  150SOL    HW2 1350   4.290   1.663   4.953
  151SOL     OW 1351   3.668   2.608   0.884
  151SOL    HW1 1352   3.630   2.539   0.823
  151SOL    HW2 1353   3.639   2.588   0.978
  152SOL     OW 1354   0.450   2.419   0.775
  152SOL    HW1 1355   0.501   2.485   0.830
  152SOL    HW2 1356   0.476   2.428   0.679
  153SOL     OW 1357   3.097   1.231   3.572
  153SOL    HW1 1358   3.124   1.176   3.651
  153SOL    HW2 1359   3.006   1.270   3.588
  154SOL     OW 1360   6.387   1.642   2.269
  154SOL    HW1 1361   6.415   1.560   2.220
  154SOL    HW2 1362   6.344   1.616   2.356
  155SOL     OW 1363   0.969   6.707   2.192
  155SOL    HW1 1364   1.065   6.685   2.208
  155SOL    HW2 1365   0.955   6.728   2.095
  156SOL     OW 1366   4.986   2.247   0.420
  156SOL    HW1 1367   4.929   2.322   0.453
  156SOL    HW2 1368   5.030   2.274   0.334
  157SOL     OW 1369   3.788   5.264   0.599
  157SOL    HW1 1370   3.700   5.271   0.551
  157SOL    HW2 1371   3.861   5.302   0.542
  158SOL     OW 1372   0.466   2.497   3.628
  158SOL    HW1 1373   0.449   2.514   3.531
  158SOL    HW2 1374   0.487   2.583   3.674
  159SOL     OW 1375   6.008   5.143   0.759
  159SOL    HW1 1376   6.045   5.159   0.851
  159SOL    HW2 1377   5.915   5.180   0.755
  160SOL     OW 1378   6.677   0.078   1.892
  160SOL    HW1 1379   6.706   0.169   1.921
  160SOL    HW2 1380   6.615   0.086   1.813
  161SOL     OW 1381   0.258   6.660   0.718
  161SOL    HW1 1382   0.355   6.681   0.706
  161SOL    HW2 1383   0.211   6.670   0.630
  162SOL     OW 1384   4.594   6.974   0.198
  162SOL    HW1 1385   4.611   6.926   0.111
  162SOL    HW2 1386   4.496   6.971   0.219
  163SOL     OW 1387   6.939   3.933   3.045
  163SOL    HW1 1388   6.845   3.926   3.080
  163SOL    HW2 1389   6.988   3.849   3.065
  164SOL     OW 1390   2.242   2.349   3.837
  164SOL    HW1 1391   2.337   2.375   3.820
  164SOL    HW2 1392   2.198   2.419   3.894
  165SOL     OW 1393   0.226   6.202   3.328
  165SOL    HW1 1394   0.236   6.294   3.292
  165SOL    HW2 1395   0.133   6.189   3.361
  166SOL     OW 1396   7.018   4.304   3.526
  166SOL    HW1 1397   6.933   4.338   3.567
  166SOL    HW2 1398   6.999   4.222   3.473
  167SOL     OW 1399   3.416   1.858   0.025
  167SOL    HW1 1400   3.374   1.944   0.052
  167SOL    HW2 1401   3.383   1.831   6.956
  168SOL     OW 1402   5.072   4.140   1.793
  168SOL    HW1 1403   5.152   4.083   1.775
  168SOL    HW2 1404   4.999   4.115   1.730
  169SOL     OW 1405   5.227   2.628   1.098
  169SOL    HW1 1406   5.297   2.688   1.138
  169SOL    HW2 1407   5.140   2.644   1.144
  170SOL     OW 1408   0.273   6.209   2.562
  170SOL    HW1 1409   0.324   6.243   2.641
  170SOL    HW2 1410   0.249   6.113   2.577
  171SOL     OW 1411   3.352   3.915   0.506
  171SOL    HW1 1412   3.436   3.862   0.519
  171SOL    HW2 1413   3.330   3.963   0.591
  172SOL     OW 1414   6.773   2.420   6.982
  172SOL    HW1 1415   6.793   2.352   6.911
  172SOL    HW2 1416   6.820   2.506   6.960
  173SOL     OW 1417   6.817   1.725   4.106
  173SOL    HW1 1418   6.748   1.671   4.056
  173SOL    HW2 1419   6.779   1.814   4.128
  174SOL     OW 1420   5.528   5.165   5.152
  174SOL    HW1 1421   5.509   5.085   5.209
  174SOL    HW2 1422   5.596   5.141   5.082
  175SOL     OW 1423   0.605   0.294   0.931
  175SOL    HW1 1424   0.617   0.392   0.950
  175SOL    HW2 1425   0.675   0.264   0.866
  176SOL     OW 1426   5.659   4.295   1.805
  176SOL    HW1 1427   5.737   4.255   1.852
  176SOL    HW2 1428   5.687   4.326   1.714
  177SOL     OW 1429   5.879   2.903   4.382
  177SOL    HW1 1430   5.955   2.962   4.352
  177SOL    HW2 1431   5.794   2.934   4.339
  178SOL     OW 1432   1.793   5.892   5.500
  178SOL    HW1 1433   1.834   5.955   5.434
  178SOL    HW2 1434   1.837   5.802   5.492
  179SOL     OW 1435   3.618   4.854   1.438
  179SOL    HW1 1436   3.607   4.760   1.471
  179SOL    HW2 1437   3.530   4.901   1.442
  180SOL     OW 1438   4.140   1.426   0.836
  180SOL    HW1 1439   4.213   1.493   0.848
  180SOL    HW2 1440   4.175   1.334   0.854
  181SOL     OW 1441   3.179   2.352   5.534
  181SOL    HW1 1442   3.189   2.261   5.494
  181SOL    HW2 1443   3.201   2.422   5.467
  182SOL     OW 1444   4.253   2.344   0.200
  182SOL    HW1 1445   4.200   2.381   0.124
  182SOL    HW2 1446   4.211   2.370   0.287
  183SOL     OW 1447   3.452   1.360   3.386
  183SOL    HW1 1448   3.488   1.361   3.479
  183SOL    HW2 1449   3.359   1.396   3.386
  184SOL     OW 1450   5.387   5.956   3.569
  184SOL    HW1 1451   5.470   5.967   3.515
  184SOL    HW2 1452   5.382   5.862   3.603
  185SOL     OW 1453   6.572   0.961   3.932
  185SOL    HW1 1454   6.536   0.923   4.017
  185SOL    HW2 1455   6.566   0.892   3.859
  186SOL     OW 1456   4.485   6.479   3.929
  186SOL    HW1 1457   4.561   6.413   3.922
  186SOL    HW2 1458   4.456   6.506   3.837
  187SOL     OW 1459   4.612   6.266   1.941
  187SOL    HW1 1460   4.619   6.296   1.846
  187SOL    HW2 1461   4.559   6.181   1.945
  188SOL     OW 1462   1.317   3.487   3.506
  188SOL    HW1 1463   1.326   3.387   3.500
  188SOL    HW2 1464   1.403   3.526   3.538
  189SOL     OW 1465   6.146   5.040   6.410
  189SOL    HW1 1466   6.143   4.973   6.335
  189SOL    HW2 1467   6.149   5.132   6.372
  190SOL     OW 1468   5.895   0.432   0.196
  190SOL    HW1 1469   5.977   0.489   0.185
  190SOL    HW2 1470   5.822   0.465   0.136
  191SOL     OW 1471   6.789   1.420   5.236
  191SOL    HW1 1472   6.785   1.329   5.193
  191SOL    HW2 1473   6.875   1.429   5.286
  192SOL     OW 1474   0.632   5.473   0.785
  192SOL    HW1 1475   0.585   5.437   0.865
  192SOL    HW2 1476   0.613   5.571   0.776
  193SOL     OW 1477   2.575   6.110   6.667
  193SOL    HW1 1478   2.578   6.030   6.727
  193SOL    HW2 1479   2.514   6.179   6.706
  194SOL     OW 1480   4.129   6.606   2.135
  194SOL    HW1 1481   4.144   6.507   2.140
  194SOL    HW2 1482   4.218   6.653   2.139
  195SOL     OW 1483   3.774   0.873   0.936
  195SOL    HW1 1484   3.703   0.816   0.978
  195SOL    HW2 1485   3.848   0.887   1.001
  196SOL     OW 1486   2.509   1.723   0.208
  196SOL    HW1 1487   2.552   1.635   0.192
  196SOL    HW2 1488   2.540   1.760   0.296
  197SOL     OW 1489   2.256   6.659   0.651
  197SOL    HW1 1490   2.356   6.650   0.644
  197SOL    HW2 1491   2.221   6.705   0.569
  198SOL     OW 1492   4.804   0.505   6.377
  198SOL    HW1 1493   4.720   0.556   6.392
  198SOL    HW2 1494   4.848   0.534   6.292
  199SOL     OW 1495   0.117   0.011   3.244
  199SOL    HW1 1496   0.204   7.020   3.196
  199SOL    HW2 1497   0.051   6.964   3.211
  200SOL     OW 1498   0.531   4.219   3.266
  200SOL    HW1 1499   0.447   4.232   3.318
  200SOL    HW2 1500   0.605   4.193   3.328
  201SOL     OW 1501   4.194   0.804   6.336
  201SOL    HW1 1502   4.249   0.799   6.253
  201SOL    HW2 1503   4.218   0.727   6.396
  202SOL     OW 1504   2.896   0.207   3.045
  202SOL    HW1 1505   2.990   0.243   3.041
  202SOL    HW2 1506   2.859   0.221   3.137
  203SOL     OW 1507   5.539   2.956   6.500
  203SOL    HW1 1508   5.547   3.015   6.580
  203SOL    HW2 1509   5.630   2.935   6.464
  204SOL     OW 1510   2.347   7.011   1.105
  204SOL    HW1 1511   2.388   6.922   1.125
  204SOL    HW2 1512   2.412   0.047   1.055
  205SOL     OW 1513   6.180   1.525   0.422
  205SOL    HW1 1514   6.145   1.439   0.460
  205SOL    HW2 1515   6.280   1.524   0.426
  206SOL     OW 1516   1.376   4.294   1.838
  206SOL    HW1 1517   1.354   4.281   1.742
  206SOL    HW2 1518   1.298   4.336   1.885
  207SOL     OW 1519   4.889   0.279   5.554
  207SOL    HW1 1520   4.962   0.311   5.615
  207SOL    HW2 1521   4.883   0.180   5.558
  208SOL     OW 1522   3.974   4.971   6.369
  208SOL    HW1 1523   4.002   5.037   6.440
  208SOL    HW2 1524   3.990   5.011   6.279
  209SOL     OW 1525   6.888   5.635   5.640
  209SOL    HW1 1526   6.881   5.643   5.739
  209SOL    HW2 1527   6.823   5.566   5.608
  210SOL     OW 1528   3.919   3.093   1.379
  210SOL    HW1 1529   3.929   3.032   1.301
  210SOL    HW2 1530   4.001   3.089   1.436
  211SOL     OW 1531   1.643   1.749   1.561
  211SOL    HW1 1532   1.600   1.659   1.563
  211SOL    HW2 1533   1.742   1.738   1.553
  212SOL     OW 1534   0.270   5.512   3.508
  212SOL    HW1 1535   0.240   5.511   3.604
  212SOL    HW2 1536   0.311   5.423   3.485
  213SOL     OW 1537   4.851   2.253   0.084
  213SOL    HW1 1538   4.882   2.347   0.070
  213SOL    HW2 1539   4.796   2.224   0.006
  214SOL     OW 1540   1.203   0.571   3.197
  214SOL    HW1 1541   1.295   0.539   3.175
  214SOL    HW2 1542   1.150   0.496   3.236
  215SOL     OW 1543   3.633   3.196   2.704
  215SOL    HW1 1544   3.679   3.284   2.697
  215SOL    HW2 1545   3.577   3.181   2.622
  216SOL     OW 1546   0.671   6.574   5.998
  216SOL    HW1 1547   0.649   6.592   6.094
  216SOL    HW2 1548   0.761   6.612   5.977
  217SOL     OW 1549   1.165   2.917   3.162
  217SOL    HW1 1550   1.151   2.830   3.209
  217SOL    HW2 1551   1.196   2.899   3.068
  218SOL     OW 1552   1.280   4.239   5.294
  218SOL    HW1 1553   1.379   4.249   5.292
  218SOL    HW2 1554   1.251   4.207   5.384
  219SOL     OW 1555   4.857   5.162   6.979
  219SOL    HW1 1556   4.927   5.232   6.975
  219SOL    HW2 1557   4.898   5.075   7.007
  220SOL     OW 1558   3.087   4.756   0.587
  220SOL    HW1 1559   3.167   4.802   0.623
  220SOL    HW2 1560   3.005   4.809   0.608
  221SOL     OW 1561   5.766   2.579   4.537
  221SOL    HW1 1562   5.804   2.497   4.578
  221SOL    HW2 1563   5.704   2.623   4.602
  222SOL     OW 1564   1.165   6.567   5.263
  222SOL    HW1 1565   1.126   6.621   5.338
  222SOL    HW2 1566   1.158   6.469   5.285
  223SOL     OW 1567   6.764   3.636   1.637
  223SOL    HW1 1568   6.854   3.665   1.604
  223SOL    HW2 1569   6.768   3.541   1.665
  224SOL     OW 1570   2.990   2.229   1.721
  224SOL    HW1 1571   2.956   2.143   1.757
  224SOL    HW2 1572   2.985   2.299   1.793
  225SOL     OW 1573   6.251   0.255   6.542
  225SOL    HW1 1574   6.194   0.265   6.461
  225SOL    HW2 1575   6.279   0.346   6.575
  226SOL     OW 1576   6.366   5.827   0.948
  226SOL    HW1 1577   6.367   5.901   0.882
  226SOL    HW2 1578   6.417   5.749   0.911
  227SOL     OW 1579   1.731   3.422   3.860
  227SOL    HW1 1580   1.729   3.378   3.949
  227SOL    HW2 1581   1.743   3.521   3.872
  228SOL     OW 1582   4.222   0.071   3.885
  228SOL    HW1 1583   4.190   7.002   3.859
  228SOL    HW2 1584   4.182   0.098   3.973
  229SOL     OW 1585   5.810   5.388   2.545
  229SOL    HW1 1586   5.780   5.360   2.636
  229SOL    HW2 1587   5.786   5.318   2.478
  230SOL     OW 1588   2.033   4.441   5.142
  230SOL    HW1 1589   2.045   4.415   5.046
  230SOL    HW2 1590   2.123   4.449   5.186
  231SOL     OW 1591   0.445   2.134   6.569
  231SOL    HW1 1592   0.401   2.197   6.506
  231SOL    HW2 1593   0.519   2.086   6.522
  232SOL     OW 1594   1.926   4.631   6.694
  232SOL    HW1 1595   1.844   4.625   6.751
  232SOL    HW2 1596   1.907   4.592   6.604
  233SOL     OW 1597   2.092   0.814   6.220
  233SOL    HW1 1598   2.014   0.872   6.243
  233SOL    HW2 1599   2.160   0.868   6.170
  234SOL     OW 1600   2.635   5.761   0.450
  234SOL    HW1 1601   2.687   5.845   0.462
  234SOL    HW2 1602   2.627   5.739   0.353
  235SOL     OW 1603   3.200   3.563   4.972
  235SOL    HW1 1604   3.182   3.651   5.016
  235SOL    HW2 1605   3.115   3.510   4.969
  236SOL     OW 1606   0.138   2.202   5.021
  236SOL    HW1 1607   0.187   2.239   5.100
  236SOL    HW2 1608   0.197   2.139   4.971
  237SOL     OW 1609   0.179   0.244   1.209
  237SOL    HW1 1610   0.119   0.166   1.225
  237SOL    HW2 1611   0.269   0.211   1.180
  238SOL     OW 1612   5.916   2.265   2.638
  238SOL    HW1 1613   5.917   2.179   2.689
  238SOL    HW2 1614   5.906   2.342   2.701
  239SOL     OW 1615   0.043   5.919   0.247
  239SOL    HW1 1616   0.063   6.015   0.268
  239SOL    HW2 1617   6.983   5.914   0.190
  240SOL     OW 1618   6.832   3.526   5.782
  240SOL    HW1 1619   6.745   3.527   5.733
  240SOL    HW2 1620   6.858   3.619   5.807
  241SOL     OW 1621   0.617   1.012   3.051
  241SOL    HW1 1622   0.697   0.989   2.995
  241SOL    HW2 1623   0.640   1.090   3.110
  242SOL     OW 1624   1.857   3.919   3.850
  242SOL    HW1 1625   1.777   3.942   3.796
  242SOL    HW2 1626   1.855   3.971   3.936
  243SOL     OW 1627   4.817   6.970   5.290
  243SOL    HW1 1628   4.913   6.959   5.262
  243SOL    HW2 1629   4.814   7.002   5.384
  244SOL     OW 1630   6.427   2.224   5.722
  244SOL    HW1 1631   6.448   2.159   5.795
  244SOL    HW2 1632   6.334   2.259   5.735
  245SOL     OW 1633   6.114   1.360   3.922
  245SOL    HW1 1634   6.168   1.303   3.983
  245SOL    HW2 1635   6.173   1.427   3.877
  246SOL     OW 1636   5.356   3.443   3.392
  246SOL    HW1 1637   5.450   3.438   3.427
  246SOL    HW2 1638   5.350   3.519   3.327
  247SOL     OW 1639   2.422   1.670   3.368
  247SOL    HW1 1640   2.390   1.740   3.304
  247SOL    HW2 1641   2.415   1.704   3.462
  248SOL     OW 1642   6.028   1.505   2.872
  248SOL    HW1 1643   6.029   1.416   2.917
  248SOL    HW2 1644   5.977   1.570   2.929
  249SOL     OW 1645   3.894   0.156   4.017
  249SOL    HW1 1646   3.850   0.115   3.937
  249SOL    HW2 1647   3.846   0.128   4.100
  250SOL     OW 1648   5.018   2.683   5.831
  250SOL    HW1 1649   5.064   2.600   5.798
  250SOL    HW2 1650   4.991   2.739   5.752
  251SOL     OW 1651   3.134   2.345   1.062
  251SOL    HW1 1652   3.043   2.305   1.055
  251SOL    HW2 1653   3.136   2.432   1.012
  252SOL     OW 1654   0.380   1.234   5.857
  252SOL    HW1 1655   0.423   1.235   5.767
  252SOL    HW2 1656   0.282   1.215   5.847
  253SOL     OW 1657   3.007   3.659   6.274
  253SOL    HW1 1658   2.946   3.583   6.255
  253SOL    HW2 1659   3.101   3.634   6.249
  254SOL     OW 1660   5.514   3.133   5.254
  254SOL    HW1 1661   5.455   3.072   5.307
  254SOL    HW2 1662   5.493   3.228   5.278
  255SOL     OW 1663   3.358   2.145   4.349
  255SOL    HW1 1664   3.302   2.225   4.327
  255SOL    HW2 1665   3.429   2.134   4.280
  256SOL     OW 1666   6.253   5.370   6.552
  256SOL    HW1 1667   6.271   5.306   6.626
  256SOL    HW2 1668   6.159   5.404   6.559
  257SOL     OW 1669   3.312   6.353   5.934
  257SOL    HW1 1670   3.279   6.350   6.028
  257SOL    HW2 1671   3.234   6.361   5.871
  258SOL     OW 1672   4.964   4.259   4.095
  258SOL    HW1 1673   4.874   4.229   4.126
  258SOL    HW2 1674   5.031   4.248   4.168
  259SOL     OW 1675   1.143   2.431   2.528
  259SOL    HW1 1676   1.123   2.528   2.538
  259SOL    HW2 1677   1.242   2.416   2.532
  260SOL     OW 1678   5.883   0.468   6.093
  260SOL    HW1 1679   5.889   0.561   6.057
  260SOL    HW2 1680   5.962   0.415   6.061
  261SOL     OW 1681   0.660   2.869   2.524
  261SOL    HW1 1682   0.629   2.844   2.432
  261SOL    HW2 1683   0.706   2.958   2.521
  262SOL     OW 1684   0.532   4.940   2.095
  262SOL    HW1 1685   0.550   5.038   2.101
  262SOL    HW2 1686   0.494   4.907   2.181
  263SOL     OW 1687   1.411   2.072   4.204
  263SOL    HW1 1688   1.392   2.149   4.264
  263SOL    HW2 1689   1.399   2.099   4.108
  264SOL     OW 1690   2.787   4.964   6.403
  264SOL    HW1 1691   2.864   4.947   6.340
  264SOL    HW2 1692   2.820   5.015   6.482
  265SOL     OW 1693   5.345   4.523   4.799
  265SOL    HW1 1694   5.412   4.499   4.869
  265SOL    HW2 1695   5.276   4.451   4.793
  266SOL     OW 1696   3.800   2.259   0.650
  266SOL    HW1 1697   3.733   2.322   0.690
  266SOL    HW2 1698   3.756   2.205   0.578
  267SOL     OW 1699   1.085   2.347   5.692
  267SOL    HW1 1700   1.093   2.307   5.601
  267SOL    HW2 1701   1.032   2.432   5.687
  268SOL     OW 1702   3.554   4.945   4.458
  268SOL    HW1 1703   3.611   4.894   4.523
  268SOL    HW2 1704   3.471   4.893   4.440
  269SOL     OW 1705   1.057   1.689   5.303
  269SOL    HW1 1706   1.069   1.741   5.388
  269SOL    HW2 1707   0.996   1.611   5.320
  270SOL     OW 1708   4.936   1.029   3.738
  270SOL    HW1 1709   4.916   0.932   3.724
  270SOL    HW2 1710   4.900   1.082   3.661
  271SOL     OW 1711   1.669   0.803   0.057
  271SOL    HW1 1712   1.733   0.746   0.005
  271SOL    HW2 1713   1.697   0.899   0.050
  272SOL     OW 1714   3.894   5.449   3.017
  272SOL    HW1 1715   3.867   5.431   3.112
  272SOL    HW2 1716   3.943   5.536   3.013
  273SOL     OW 1717   2.784   6.862   5.288
  273SOL    HW1 1718   2.824   6.771   5.290
  273SOL    HW2 1719   2.856   6.931   5.280
  274SOL     OW 1720   5.641   2.370   1.369
  274SOL    HW1 1721   5.689   2.380   1.457
  274SOL    HW2 1722   5.634   2.273   1.346
  275SOL     OW 1723   6.154   6.178   5.220
  275SOL    HW1 1724   6.074   6.182   5.280
  275SOL    HW2 1725   6.130   6.125   5.138
  276SOL     OW 1726   6.470   6.222   3.788
  276SOL    HW1 1727   6.477   6.201   3.886
  276SOL    HW2 1728   6.558   6.206   3.744
  277SOL     OW 1729   5.175   0.974   5.145
  277SOL    HW1 1730   5.199   1.016   5.057
  277SOL    HW2 1731   5.075   0.969   5.153
  278SOL     OW 1732   6.304   2.707   2.851
  278SOL    HW1 1733   6.206   2.690   2.843
  278SOL    HW2 1734   6.326   2.735   2.944
  279SOL     OW 1735   0.079   3.108   4.070
  279SOL    HW1 1736   0.085   3.013   4.039
  279SOL    HW2 1737   0.033   3.112   4.158
  280SOL     OW 1738   3.315   0.927   3.704
  280SOL    HW1 1739   3.408   0.892   3.715
  280SOL    HW2 1740   3.298   0.947   3.608
  281SOL     OW 1741   5.246   5.761   3.715
  281SOL    HW1 1742   5.233   5.683   3.654
  281SOL    HW2 1743   5.306   5.735   3.791
  282SOL     OW 1744   3.134   1.567   0.279
  282SOL    HW1 1745   3.072   1.611   0.214
  282SOL    HW2 1746   3.228   1.598   0.261
  283SOL     OW 1747   6.546   1.872   4.861
  283SOL    HW1 1748   6.634   1.902   4.825
  283SOL    HW2 1749   6.482   1.860   4.785
  284SOL     OW 1750   5.457   5.705   3.345
  284SOL    HW1 1751   5.492   5.740   3.258
  284SOL    HW2 1752   5.530   5.707   3.414
  285SOL     OW 1753   4.566   0.212   5.960
  285SOL    HW1 1754   4.533   0.145   5.893
  285SOL    HW2 1755   4.666   0.206   5.965
  286SOL     OW 1756   2.227   5.302   4.993
  286SOL    HW1 1757   2.205   5.396   4.969
  286SOL    HW2 1758   2.323   5.283   4.973
  287SOL     OW 1759   3.143   0.433   6.223
  287SOL    HW1 1760   3.155   0.413   6.126
  287SOL    HW2 1761   3.105   0.525   6.233
  288SOL     OW 1762   4.048   0.693   0.887
  288SOL    HW1 1763   3.974   0.629   0.867
  288SOL    HW2 1764   4.009   0.782   0.913
  289SOL     OW 1765   6.160   5.850   3.383
  289SOL    HW1 1766   6.259   5.855   3.377
  289SOL    HW2 1767   6.120   5.930   3.339
  290SOL     OW 1768   3.434   0.547   5.794
  290SOL    HW1 1769   3.430   0.565   5.892
  290SOL    HW2 1770   3.503   0.476   5.775
  291SOL     OW 1771   3.360   6.679   5.156
  291SOL    HW1 1772   3.345   6.724   5.068
  291SOL    HW2 1773   3.421   6.734   5.212
  292SOL     OW 1774   4.840   6.820   3.647
  292SOL    HW1 1775   4.803   6.790   3.735
  292SOL    HW2 1776   4.873   6.740   3.596
  293SOL     OW 1777   5.893   0.043   2.244
  293SOL    HW1 1778   5.882   0.090   2.331
  293SOL    HW2 1779   5.952   0.097   2.184
  294SOL     OW 1780   6.314   0.926   6.213
  294SOL    HW1 1781   6.222   0.897   6.185
  294SOL    HW2 1782   6.365   0.954   6.132
  295SOL     OW 1783   1.374   1.329   5.142
  295SOL    HW1 1784   1.413   1.345   5.052
  295SOL    HW2 1785   1.376   1.413   5.195
  296SOL     OW 1786   6.764   2.557   1.305
  296SOL    HW1 1787   6.776   2.460   1.325
  296SOL    HW2 1788   6.847   2.594   1.263
  297SOL     OW 1789   5.216   3.225   3.936
  297SOL    HW1 1790   5.169   3.144   3.901
  297SOL    HW2 1791   5.271   3.200   4.015
  298SOL     OW 1792   4.303   0.593   6.475
  298SOL    HW1 1793   4.318   0.612   6.572
  298SOL    HW2 1794   4.221   0.538   6.463
  299SOL     OW 1795   1.346   0.921   6.794
  299SOL    HW1 1796   1.384   0.830   6.812
  299SOL    HW2 1797   1.286   0.947   6.870
  300SOL     OW 1798   4.066   6.862   3.556
  300SOL    HW1 1799   4.080   6.877   3.654
  300SOL    HW2 1800   4.026   6.772   3.541
  301SOL     OW 1801   6.635   5.442   1.100
  301SOL    HW1 1802   6.693   5.518   1.131
  301SOL    HW2 1803   6.691   5.376   1.050
  302SOL     OW 1804   0.109   5.647   1.970
  302SOL    HW1 1805   0.073   5.555   1.986
  302SOL    HW2 1806   0.190   5.641   1.911
  303SOL     OW 1807   5.581   5.570   2.411
  303SOL    HW1 1808   5.655   5.622   2.453
  303SOL    HW2 1809   5.618   5.513   2.337
  304SOL     OW 1810   2.407   5.599   4.511
  304SOL    HW1 1811   2.499   5.589   4.475
  304SOL    HW2 1812   2.380   5.695   4.509
  305SOL     OW 1813   1.014   3.585   1.872
  305SOL    HW1 1814   0.986   3.633   1.955
  305SOL    HW2 1815   1.113   3.575   1.870
  306SOL     OW 1816   6.921   6.516   2.617
  306SOL    HW1 1817   6.882   6.600   2.580
  306SOL    HW2 1818   6.920   6.445   2.546
  307SOL     OW 1819   3.178   2.966   3.286
  307SOL    HW1 1820   3.176   2.872   3.322
  307SOL    HW2 1821   3.110   3.021   3.334
  308SOL     OW 1822   5.144   2.053   3.972
  308SOL    HW1 1823   5.212   2.005   3.916
  308SOL    HW2 1824   5.120   2.139   3.928
  309SOL     OW 1825   1.156   6.334   6.297
  309SOL    HW1 1826   1.165   6.369   6.390
  309SOL    HW2 1827   1.147   6.234   6.299
  310SOL     OW 1828   5.101   6.757   4.980
  310SOL    HW1 1829   5.036   6.682   4.989
  310SOL    HW2 1830   5.194   6.722   4.987
  311SOL     OW 1831   1.947   5.789   2.822
  311SOL    HW1 1832   1.867   5.780   2.762
  311SOL    HW2 1833   2.020   5.728   2.790
  312SOL     OW 1834   4.776   1.853   2.934
  312SOL    HW1 1835   4.745   1.844   3.029
  312SOL    HW2 1836   4.848   1.922   2.929
  313SOL     OW 1837   4.091   3.721   2.951
  313SOL    HW1 1838   4.110   3.805   2.900
  313SOL    HW2 1839   4.019   3.738   3.018
  314SOL     OW 1840   2.416   5.804   5.967
  314SOL    HW1 1841   2.346   5.853   6.019
  314SOL    HW2 1842   2.498   5.861   5.960
  315SOL     OW 1843   6.339   1.582   2.926
  315SOL    HW1 1844   6.427   1.541   2.946
  315SOL    HW2 1845   6.280   1.515   2.880
  316SOL     OW 1846   3.437   1.266   5.493
  316SOL    HW1 1847   3.426   1.365   5.504
  316SOL    HW2 1848   3.463   1.245   5.399
  317SOL     OW 1849   1.166   1.557   1.774
  317SOL    HW1 1850   1.245   1.604   1.815
  317SOL    HW2 1851   1.097   1.543   1.845
  318SOL     OW 1852   0.809   0.618   5.480
  318SOL    HW1 1853   0.794   0.588   5.385
  318SOL    HW2 1854   0.834   0.539   5.536
  319SOL     OW 1855   1.780   1.628   2.471
  319SOL    HW1 1856   1.840   1.589   2.541
  319SOL    HW2 1857   1.804   1.591   2.382
  320SOL     OW 1858   6.048   1.834   5.921
  320SOL    HW1 1859   6.108   1.841   6.000
  320SOL    HW2 1860   6.052   1.740   5.885
  321SOL     OW 1861   4.242   3.412   0.502
  321SOL    HW1 1862   4.201   3.417   0.593
  321SOL    HW2 1863   4.319   3.349   0.503
  322SOL     OW 1864   3.479   3.018   5.810
  322SOL    HW1 1865   3.448   3.021   5.905
  322SOL    HW2 1866   3.450   2.933   5.768
  323SOL     OW 1867   0.366   3.700   2.762
  323SOL    HW1 1868   0.371   3.605   2.794
  323SOL    HW2 1869   0.371   3.762   2.841
  324SOL     OW 1870   6.901   6.865   3.984
  324SOL    HW1 1871   6.840   6.817   3.921
  324SOL    HW2 1872   6.990   6.877   3.940
  325SOL     OW 1873   0.477   4.107   2.600
  325SOL    HW1 1874   0.484   4.011   2.572
  325SOL    HW2 1875   0.393   4.120   2.653
  326SOL     OW 1876   0.917   6.339   6.132
  326SOL    HW1 1877   1.017   6.333   6.128
  326SOL    HW2 1878   0.886   6.419   6.079
  327SOL     OW 1879   4.608   5.158   3.972
  327SOL    HW1 1880   4.573   5.175   4.064
  327SOL    HW2 1881   4.534   5.125   3.913
  328SOL     OW 1882   2.134   4.120   2.457
  328SOL    HW1 1883   2.113   4.024   2.438
  328SOL    HW2 1884   2.183   4.159   2.379
  329SOL     OW 1885   3.264   3.808   2.240
  329SOL    HW1 1886   3.347   3.862   2.223
  329SOL    HW2 1887   3.274   3.718   2.197
  330SOL     OW 1888   3.521   5.710   0.705
  330SOL    HW1 1889   3.544   5.729   0.801
  330SOL    HW2 1890   3.528   5.794   0.652
  331SOL     OW 1891   5.375   5.105   6.945
  331SOL    HW1 1892   5.430   5.096   6.862
  331SOL    HW2 1893   5.280   5.080   6.925
  332SOL     OW 1894   5.412   2.234   3.149
  332SOL    HW1 1895   5.485   2.301   3.163
  332SOL    HW2 1896   5.447   2.158   3.094
  333SOL     OW 1897   3.346   0.849   5.737
  333SOL    HW1 1898   3.352   0.915   5.662
  333SOL    HW2 1899   3.431   0.851   5.790
  334SOL     OW 1900   4.152   3.564   3.284
  334SOL    HW1 1901   4.161   3.466   3.302
  334SOL    HW2 1902   4.209   3.589   3.206
  335SOL     OW 1903   3.601   0.261   6.252
  335SOL    HW1 1904   3.591   0.179   6.308
  335SOL    HW2 1905   3.551   0.337   6.294
  336SOL     OW 1906   2.345   2.034   3.832
  336SOL    HW1 1907   2.251   2.065   3.843
  336SOL    HW2 1908   2.404   2.083   3.896
  337SOL     OW 1909   2.144   0.043   5.955
  337SOL    HW1 1910   2.148   0.140   5.933
  337SOL    HW2 1911   2.189   0.027   6.043
  338SOL     OW 1912   4.397   1.945   1.280
  338SOL    HW1 1913   4.448   1.986   1.356
  338SOL    HW2 1914   4.365   1.854   1.306
  339SOL     OW 1915   4.051   5.270   5.259
  339SOL    HW1 1916   4.084   5.364   5.271
  339SOL    HW2 1917   3.999   5.264   5.174
  340SOL     OW 1918   4.671   2.153   3.509
  340SOL    HW1 1919   4.751   2.132   3.564
  340SOL    HW2 1920   4.679   2.247   3.473
  341SOL     OW 1921   5.655   6.803   3.085
  341SOL    HW1 1922   5.602   6.804   3.170
  341SOL    HW2 1923   5.697   6.713   3.074
  342SOL     OW 1924   4.386   2.359   2.473
  342SOL    HW1 1925   4.460   2.418   2.504
  342SOL    HW2 1926   4.358   2.386   2.381
  343SOL     OW 1927   0.151   6.089   2.928
  343SOL    HW1 1928   0.072   6.098   2.990
  343SOL    HW2 1929   0.120   6.052   2.841
  344SOL     OW 1930   2.205   1.825   1.550
  344SOL    HW1 1931   2.254   1.878   1.619
  344SOL    HW2 1932   2.157   1.887   1.489
  345SOL     OW 1933   6.116   3.864   4.275
  345SOL    HW1 1934   6.123   3.844   4.373
  345SOL    HW2 1935   6.208   3.875   4.237
  346SOL     OW 1936   1.864   6.993   3.351
  346SOL    HW1 1937   1.811   6.913   3.379
  346SOL    HW2 1938   1.817   0.055   3.382
  347SOL     OW 1939   2.869   4.857   0.726
  347SOL    HW1 1940   2.898   4.938   0.777
  347SOL    HW2 1941   2.812   4.799   0.783
  348SOL     OW 1942   4.288   5.525   1.825
  348SOL    HW1 1943   4.297   5.445   1.883
  348SOL    HW2 1944   4.274   5.606   1.883
  349SOL     OW 1945   6.084   4.505   1.322
  349SOL    HW1 1946   6.053   4.481   1.414
  349SOL    HW2 1947   6.183   4.521   1.323
  350SOL     OW 1948   3.347   3.047   0.605
  350SOL    HW1 1949   3.413   3.111   0.645
  350SOL    HW2 1950   3.268   3.098   0.571
  351SOL     OW 1951   3.066   4.336   0.900
  351SOL    HW1 1952   3.076   4.402   0.826
  351SOL    HW2 1953   3.084   4.381   0.988
  352SOL     OW 1954   3.752   0.016   3.172
  352SOL    HW1 1955   3.760   6.976   3.093
  352SOL    HW2 1956   3.734   6.984   3.254
  353SOL     OW 1957   1.766   6.211   0.121
  353SOL    HW1 1958   1.774   6.215   0.021
  353SOL    HW2 1959   1.670   6.216   0.147
  354SOL     OW 1960   6.642   2.721   0.292
  354SOL    HW1 1961   6.735   2.757   0.291
  354SOL    HW2 1962   6.622   2.681   0.381
  355SOL     OW 1963   2.248   1.738   2.372
  355SOL    HW1 1964   2.195   1.683   2.307
  355SOL    HW2 1965   2.261   1.686   2.456
  356SOL     OW 1966   0.963   6.579   5.992
  356SOL    HW1 1967   1.011   6.572   5.905
  356SOL    HW2 1968   0.988   6.664   6.037
  357SOL     OW 1969   5.866   6.235   4.575
  357SOL    HW1 1970   5.819   6.310   4.529
  357SOL    HW2 1971   5.954   6.218   4.529
  358SOL     OW 1972   4.543   5.514   0.283
  358SOL    HW1 1973   4.511   5.492   0.374
  358SOL    HW2 1974   4.548   5.431   0.227
  359SOL     OW 1975   2.437   2.194   2.486
  359SOL    HW1 1976   2.384   2.109   2.490
  359SOL    HW2 1977   2.502   2.197   2.562
  360SOL     OW 1978   1.256   4.818   4.418
  360SOL    HW1 1979   1.290   4.901   4.463
  360SOL    HW2 1980   1.314   4.796   4.340
  361SOL     OW 1981   6.405   6.681   3.420
  361SOL    HW1 1982   6.420   6.635   3.332
  361SOL    HW2 1983   6.478   6.656   3.484
  362SOL     OW 1984   3.992   4.655   1.224
  362SOL    HW1 1985   4.074   4.600   1.207
  362SOL    HW2 1986   3.982   4.724   1.152
  363SOL     OW 1987   5.102   5.392   2.204
  363SOL    HW1 1988   5.030   5.323   2.196
  363SOL    HW2 1989   5.133   5.419   2.113
  364SOL     OW 1990   0.568   5.866   6.531
  364SOL    HW1 1991   0.489   5.912   6.571
  364SOL    HW2 1992   0.546   5.839   6.437
  365SOL     OW 1993   5.025   1.991   2.686
  365SOL    HW1 1994   4.963   1.951   2.619
  365SOL    HW2 1995   4.972   2.027   2.763
  366SOL     OW 1996   5.907   2.548   0.421
  366SOL    HW1 1997   5.962   2.467   0.444
  366SOL    HW2 1998   5.912   2.565   0.322
  367SOL     OW 1999   4.757   2.242   5.144
  367SOL    HW1 2000   4.724   2.203   5.058
  367SOL    HW2 2001   4.797   2.332   5.126
  368SOL     OW 2002   6.643   2.177   5.957
  368SOL    HW1 2003   6.682   2.264   5.985
  368SOL    HW2 2004   6.717   2.114   5.931
  369SOL     OW 2005   5.742   3.006   2.347
  369SOL    HW1 2006   5.642   3.007   2.352
  369SOL    HW2 2007   5.771   3.017   2.251
  370SOL     OW 2008   2.110   3.401   4.307
  370SOL    HW1 2009   2.076   3.335   4.375
  370SOL    HW2 2010   2.125   3.489   4.352
  371SOL     OW 2011   1.152   4.390   6.496
  371SOL    HW1 2012   1.215   4.410   6.421
  371SOL    HW2 2013   1.169   4.298   6.530
  372SOL     OW 2014   3.459   6.875   6.639
  372SOL    HW1 2015   3.492   6.797   6.586
  372SOL    HW2 2016   3.385   6.920   6.589
  373SOL     OW 2017   5.671   6.005   3.889
  373SOL    HW1 2018   5.711   5.934   3.830
  373SOL    HW2 2019   5.719   6.091   3.873
  374SOL     OW 2020   2.757   1.771   2.678
  374SOL    HW1 2021   2.740   1.754   2.775
  374SOL    HW2 2022   2.854   1.763   2.659
  375SOL     OW 2023   1.272   4.745   5.089
  375SOL    HW1 2024   1.298   4.798   5.169
  375SOL    HW2 2025   1.173   4.729   5.090
  376SOL     OW 2026   2.186   0.839   4.711
  376SOL    HW1 2027   2.217   0.745   4.731
  376SOL    HW2 2028   2.124   0.869   4.783
  377SOL     OW 2029   1.318   2.391   6.343
  377SOL    HW1 2030   1.254   2.424   6.274
  377SOL    HW2 2031   1.303   2.294   6.360
  378SOL     OW 2032   3.659   1.657   1.502
  378SOL    HW1 2033   3.584   1.722   1.491
  378SOL    HW2 2034   3.739   1.689   1.452
  379SOL     OW 2035   5.890   1.817   5.679
  379SOL    HW1 2036   5.937   1.834   5.765
  379SOL    HW2 2037   5.852   1.903   5.644
  380SOL     OW 2038   4.087   1.906   0.856
  380SOL    HW1 2039   4.060   1.811   0.872
  380SOL    HW2 2040   4.052   1.963   0.930
  381SOL     OW 2041   1.179   4.365   3.441
  381SOL    HW1 2042   1.123   4.342   3.520
  381SOL    HW2 2043   1.182   4.465   3.430
  382SOL     OW 2044   5.691   0.695   0.339
  382SOL    HW1 2045   5.732   0.615   0.384
  382SOL    HW2 2046   5.616   0.665   0.280
  383SOL     OW 2047   4.007   3.222   0.853
  383SOL    HW1 2048   4.033   3.128   0.874
  383SOL    HW2 2049   3.928   3.248   0.909
  384SOL     OW 2050   6.132   4.035   4.857
  384SOL    HW1 2051   6.171   4.114   4.809
  384SOL    HW2 2052   6.037   4.054   4.881
  385SOL     OW 2053   4.742   4.934   0.499
  385SOL    HW1 2054   4.768   4.899   0.589
  385SOL    HW2 2055   4.741   4.859   0.433
  386SOL     OW 2056   2.968   6.971   3.969
  386SOL    HW1 2057   2.994   7.015   4.055
  386SOL    HW2 2058   2.868   6.965   3.964
  387SOL     OW 2059   1.986   5.885   4.015
  387SOL    HW1 2060   1.977   5.853   3.921
  387SOL    HW2 2061   2.029   5.975   4.016
  388SOL     OW 2062   2.399   2.930   6.309
  388SOL    HW1 2063   2.318   2.898   6.260
  388SOL    HW2 2064   2.398   3.030   6.311
  389SOL     OW 2065   3.101   3.767   3.649
  389SOL    HW1 2066   3.186   3.806   3.616
  389SOL    HW2 2067   3.033   3.765   3.575
  390SOL     OW 2068   1.659   1.591   4.477
  390SOL    HW1 2069   1.710   1.583   4.391
  390SOL    HW2 2070   1.598   1.512   4.487
  391SOL     OW 2071   0.826   2.946   0.423
  391SOL    HW1 2072   0.795   3.022   0.366
  391SOL    HW2 2073   0.817   2.860   0.373
  392SOL     OW 2074   2.653   5.054   2.618
  392SOL    HW1 2075   2.677   5.129   2.555
  392SOL    HW2 2076   2.698   5.069   2.706
  393SOL     OW 2077   5.967   4.232   5.399
  393SOL    HW1 2078   6.002   4.210   5.308
  393SOL    HW2 2079   5.874   4.198   5.408
  394SOL     OW 2080   0.745   6.483   0.888
  394SOL    HW1 2081   0.787   6.447   0.972
  394SOL    HW2 2082   0.647   6.464   0.890
  395SOL     OW 2083   5.265   3.964   1.706
  395SOL    HW1 2084   5.358   3.956   1.741
  395SOL    HW2 2085   5.247   3.891   1.640
  396SOL     OW 2086   3.056   3.991   3.840
  396SOL    HW1 2087   3.150   3.992   3.872
  396SOL    HW2 2088   3.049   3.933   3.759
  397SOL     OW 2089   4.282   2.246   5.402
  397SOL    HW1 2090   4.330   2.248   5.314
  397SOL    HW2 2091   4.185   2.265   5.387
  398SOL     OW 2092   1.318   5.140   2.287
  398SOL    HW1 2093   1.348   5.056   2.243
  398SOL    HW2 2094   1.340   5.136   2.384
  399SOL     OW 2095   4.931   5.471   1.345
  399SOL    HW1 2096   4.896   5.558   1.311
  399SOL    HW2 2097   4.996   5.489   1.420
  400SOL     OW 2098   0.181   6.205   5.333
  400SOL    HW1 2099   0.259   6.219   5.394
  400SOL    HW2 2100   0.210   6.222   5.238
  401SOL     OW 2101   4.965   1.669   6.599
  401SOL    HW1 2102   4.992   1.615   6.520
  401SOL    HW2 2103   5.040   1.732   6.623
  402SOL     OW 2104   6.164   5.857   2.224
  402SOL    HW1 2105   6.254   5.900   2.236
  402SOL    HW2 2106   6.175   5.772   2.172
  403SOL     OW 2107   4.974   2.033   5.834
  403SOL    HW1 2108   4.894   1.994   5.789
  403SOL    HW2 2109   4.984   2.129   5.808
  404SOL     OW 2110   0.883   6.963   4.582
  404SOL    HW1 2111   0.788   6.991   4.576
  404SOL    HW2 2112   0.896   6.905   4.663
  405SOL     OW 2113   1.518   1.883   0.649
  405SOL    HW1 2114   1.576   1.803   0.664
  405SOL    HW2 2115   1.446   1.885   0.719
  406SOL     OW 2116   1.621   2.524   4.522
  406SOL    HW1 2117   1.619   2.553   4.617
  406SOL    HW2 2118   1.568   2.588   4.466
  407SOL     OW 2119   2.958   0.096   5.306
  407SOL    HW1 2120   2.863   0.126   5.308
  407SOL    HW2 2121   2.999   0.111   5.396
  408SOL     OW 2122   1.947   6.879   3.927
  408SOL    HW1 2123   1.888   6.803   3.898
  408SOL    HW2 2124   1.902   6.966   3.904
  409SOL     OW 2125   5.886   2.946   3.277
  409SOL    HW1 2126   5.979   2.915   3.297
  409SOL    HW2 2127   5.835   2.956   3.363
  410SOL     OW 2128   2.421   0.342   0.132
  410SOL    HW1 2129   2.504   0.287   0.128
  410SOL    HW2 2130   2.365   0.324   0.051
  411SOL     OW 2131   5.911   4.126   5.936
  411SOL    HW1 2132   5.865   4.110   5.849
  411SOL    HW2 2133   5.847   4.112   6.012
  412SOL     OW 2134   3.345   6.930   2.625
  412SOL    HW1 2135   3.376   6.857   2.565
  412SOL    HW2 2136   3.348   6.899   2.720
  413SOL     OW 2137   3.342   5.817   0.973
  413SOL    HW1 2138   3.382   5.904   1.001
  413SOL    HW2 2139   3.390   5.742   1.018
  414SOL     OW 2140   4.656   4.778   1.148
  414SOL    HW1 2141   4.720   4.789   1.224
  414SOL    HW2 2142   4.671   4.852   1.082
  415SOL     OW 2143   1.735   6.014   1.577
  415SOL    HW1 2144   1.732   6.057   1.667
  415SOL    HW2 2145   1.653   5.958   1.565
  416SOL     OW 2146   4.017   6.416   4.526
  416SOL    HW1 2147   4.016   6.502   4.476
  416SOL    HW2 2148   3.938   6.411   4.587
  417SOL     OW 2149   3.465   6.342   2.521
  417SOL    HW1 2150   3.415   6.357   2.436
  417SOL    HW2 2151   3.561   6.327   2.501
  418SOL     OW 2152   5.019   5.987   0.472
  418SOL    HW1 2153   5.106   5.957   0.512
  418SOL    HW2 2154   4.944   5.964   0.534
  419SOL     OW 2155   0.517   0.157   1.161
  419SOL    HW1 2156   0.439   0.095   1.151
  419SOL    HW2 2157   0.536   0.201   1.073
  420SOL     OW 2158   5.406   3.882   0.497
  420SOL    HW1 2159   5.403   3.787   0.465
  420SOL    HW2 2160   5.331   3.898   0.561
  421SOL     OW 2161   2.357   5.478   6.606
  421SOL    HW1 2162   2.451   5.444   6.611
  421SOL    HW2 2163   2.358   5.572   6.572
  422SOL     OW 2164   6.293   4.388   0.126
  422SOL    HW1 2165   6.259   4.460   0.066
  422SOL    HW2 2166   6.380   4.353   0.091
  423SOL     OW 2167   6.153   3.083   6.949
  423SOL    HW1 2168   6.213   3.003   6.948
  423SOL    HW2 2169   6.180   3.142   0.004
  424SOL     OW 2170   3.099   4.286   0.334
  424SOL    HW1 2171   3.029   4.351   0.305
  424SOL    HW2 2172   3.111   4.292   0.433
  425SOL     OW 2173   5.052   1.828   1.046
  425SOL    HW1 2174   5.064   1.798   1.141
  425SOL    HW2 2175   5.032   1.748   0.989
  426SOL     OW 2176   5.026   2.398   5.529
  426SOL    HW1 2177   5.030   2.375   5.626
  426SOL    HW2 2178   5.106   2.454   5.505
  427SOL     OW 2179   5.277   3.925   1.310
  427SOL    HW1 2180   5.232   3.941   1.222
  427SOL    HW2 2181   5.248   3.994   1.376
  428SOL     OW 2182   4.348   0.555   5.335
  428SOL    HW1 2183   4.249   0.548   5.325
  428SOL    HW2 2184   4.370   0.584   5.428
  429SOL     OW 2185   1.672   4.971   0.157
  429SOL    HW1 2186   1.735   4.933   0.090
  429SOL    HW2 2187   1.591   4.913   0.164
  430SOL     OW 2188   1.181   6.875   4.558
  430SOL    HW1 2189   1.130   6.953   4.592
  430SOL    HW2 2190   1.171   6.798   4.622
  431SOL     OW 2191   3.745   1.567   0.106
  431SOL    HW1 2192   3.722   1.662   0.082
  431SOL    HW2 2193   3.677   1.530   0.168
  432SOL     OW 2194   6.506   1.832   0.451
  432SOL    HW1 2195   6.477   1.905   0.389
  432SOL    HW2 2196   6.601   1.847   0.478
  433SOL     OW 2197   2.957   6.786   4.782
  433SOL    HW1 2198   2.893   6.709   4.785
  433SOL    HW2 2199   3.049   6.751   4.763
  434SOL     OW 2200   6.095   3.672   0.775
  434SOL    HW1 2201   6.021   3.683   0.842
  434SOL    HW2 2202   6.122   3.761   0.739
  435SOL     OW 2203   3.300   3.459   5.790
  435SOL    HW1 2204   3.388   3.495   5.823
  435SOL    HW2 2205   3.289   3.365   5.823
  436SOL     OW 2206   1.890   0.169   1.640
  436SOL    HW1 2207   1.921   0.074   1.640
  436SOL    HW2 2208   1.938   0.219   1.568
  437SOL     OW 2209   0.145   0.123   6.317
  437SOL    HW1 2210   0.232   0.090   6.352
  437SOL    HW2 2211   0.136   0.098   6.221
  438SOL     OW 2212   1.669   2.827   2.047
  438SOL    HW1 2213   1.757   2.869   2.025
  438SOL    HW2 2214   1.683   2.732   2.075
  439SOL     OW 2215   6.451   4.829   2.492
  439SOL    HW1 2216   6.493   4.769   2.423
  439SOL    HW2 2217   6.516   4.901   2.517
  440SOL     OW 2218   1.008   2.556   4.103
  440SOL    HW1 2219   1.049   2.647   4.104
  440SOL    HW2 2220   1.045   2.504   4.026
  441SOL     OW 2221   2.012   1.443   3.291
  441SOL    HW1 2222   2.076   1.422   3.218
  441SOL    HW2 2223   2.061   1.488   3.366
  442SOL     OW 2224   0.329   4.042   6.820
  442SOL    HW1 2225   0.405   3.977   6.817
  442SOL    HW2 2226   0.321   4.088   6.731
  443SOL     OW 2227   1.442   4.525   5.081
  443SOL    HW1 2228   1.383   4.445   5.065
  443SOL    HW2 2229   1.384   4.607   5.092
  444SOL     OW 2230   4.175   2.754   6.103
  444SOL    HW1 2231   4.103   2.819   6.128
  444SOL    HW2 2232   4.207   2.708   6.186
  445SOL     OW 2233   2.186   5.081   3.659
  445SOL    HW1 2234   2.139   5.009   3.607
  445SOL    HW2 2235   2.181   5.061   3.756
  446SOL     OW 2236   3.625   4.999   3.795
  446SOL    HW1 2237   3.549   4.963   3.741
  446SOL    HW2 2238   3.712   4.973   3.752
  447SOL     OW 2239   0.296   4.538   0.005
  447SOL    HW1 2240   0.276   4.457   6.971
  447SOL    HW2 2241   0.212   4.570   0.049
  448SOL     OW 2242   4.028   0.876   5.268
  448SOL    HW1 2243   3.967   0.889   5.191
  448SOL    HW2 2244   4.122   0.899   5.241
  449SOL     OW 2245   5.892   1.282   4.827
  449SOL    HW1 2246   5.919   1.186   4.821
  449SOL    HW2 2247   5.962   1.339   4.784
  450SOL     OW 2248   6.950   5.882   3.697
  450SOL    HW1 2249   0.012   5.888   3.752
  450SOL    HW2 2250   6.974   5.876   3.601
  451SOL     OW 2251   0.853   1.935   2.489
  451SOL    HW1 2252   0.814   1.902   2.403
  451SOL    HW2 2253   0.786   1.925   2.562
  452SOL     OW 2254   6.875   5.363   0.486
  452SOL    HW1 2255   6.917   5.407   0.566
  452SOL    HW2 2256   6.815   5.428   0.440
  453SOL     OW 2257   3.257   0.902   6.897
  453SOL    HW1 2258   3.344   0.930   6.938
  453SOL    HW2 2259   3.182   0.948   6.945
  454SOL     OW 2260   0.275   5.812   6.146
  454SOL    HW1 2261   0.256   5.888   6.083
  454SOL    HW2 2262   0.193   5.756   6.154
  455SOL     OW 2263   5.706   6.966   4.098
  455SOL    HW1 2264   5.776   7.020   4.051
  455SOL    HW2 2265   5.626   0.001   4.116
  456SOL     OW 2266   3.928   5.780   6.326
  456SOL    HW1 2267   3.890   5.692   6.299
  456SOL    HW2 2268   3.938   5.838   6.245
  457SOL     OW 2269   2.245   4.039   3.313
  457SOL    HW1 2270   2.244   4.051   3.413
  457SOL    HW2 2271   2.235   3.943   3.291
  458SOL     OW 2272   5.441   5.664   5.668
  458SOL    HW1 2273   5.436   5.567   5.647
  458SOL    HW2 2274   5.507   5.708   5.607
  459SOL     OW 2275   1.172   6.954   2.850
  459SOL    HW1 2276   1.141   6.935   2.944
  459SOL    HW2 2277   1.198   0.028   2.842
  460SOL     OW 2278   0.350   1.782   1.860
  460SOL    HW1 2279   0.259   1.776   1.820
  460SOL    HW2 2280   0.392   1.870   1.835
  461SOL     OW 2281   4.504   6.902   4.882
  461SOL    HW1 2282   4.535   6.860   4.796
  461SOL    HW2 2283   4.582   6.944   4.928
  462SOL     OW 2284   3.390   2.501   6.114
  462SOL    HW1 2285   3.402   2.484   6.016
  462SOL    HW2 2286   3.444   2.580   6.142
  463SOL     OW 2287   6.079   5.420   3.033
  463SOL    HW1 2288   6.002   5.402   3.094
  463SOL    HW2 2289   6.103   5.517   3.037
  464SOL     OW 2290   2.044   1.207   6.605
  464SOL    HW1 2291   2.140   1.181   6.602
  464SOL    HW2 2292   1.989   1.129   6.636
  465SOL     OW 2293   0.781   1.585   4.546
  465SOL    HW1 2294   0.804   1.661   4.485
  465SOL    HW2 2295   0.846   1.510   4.532
  466SOL     OW 2296   0.033   0.042   3.518
  466SOL    HW1 2297   0.051   0.023   3.421
  466SOL    HW2 2298   0.119   0.060   3.565
  467SOL     OW 2299   0.997   0.273   6.344
  467SOL    HW1 2300   0.999   0.296   6.441
  467SOL    HW2 2301   0.957   0.349   6.292
  468SOL     OW 2302   4.097   5.661   0.768
  468SOL    HW1 2303   4.155   5.642   0.690
  468SOL    HW2 2304   4.002   5.641   0.744
  469SOL     OW 2305   2.109   5.240   0.309
  469SOL    HW1 2306   2.094   5.153   0.263
  469SOL    HW2 2307   2.164   5.226   0.391
  470SOL     OW 2308   4.307   0.365   2.043
  470SOL    HW1 2309   4.281   0.449   2.091
  470SOL    HW2 2310   4.362   0.308   2.104
  471SOL     OW 2311   1.711   2.692   4.175
  471SOL    HW1 2312   1.781   2.683   4.247
  471SOL    HW2 2313   1.630   2.735   4.213
  472SOL     OW 2314   4.555   4.162   6.074
  472SOL    HW1 2315   4.543   4.259   6.051
  472SOL    HW2 2316   4.467   4.114   6.063
  473SOL     OW 2317   0.465   2.891   1.956
  473SOL    HW1 2318   0.393   2.826   1.932
  473SOL    HW2 2319   0.432   2.984   1.941
  474SOL     OW 2320   4.221   5.058   3.934
  474SOL    HW1 2321   4.187   4.964   3.924
  474SOL    HW2 2322   4.260   5.069   4.025
  475SOL     OW 2323   6.772   6.984   6.448
  475SOL    HW1 2324   6.692   6.927   6.467
  475SOL    HW2 2325   6.744   0.042   6.394
  476SOL     OW 2326   6.728   3.803   2.567
  476SOL    HW1 2327   6.637   3.765   2.549
  476SOL    HW2 2328   6.795   3.729   2.573
  477SOL     OW 2329   2.289   5.206   4.508
  477SOL    HW1 2330   2.322   5.249   4.592
  477SOL    HW2 2331   2.246   5.275   4.450
  478SOL     OW 2332   3.082   6.317   2.681
  478SOL    HW1 2333   3.001   6.369   2.654
  478SOL    HW2 2334   3.162   6.378   2.682
  479SOL     OW 2335   3.092   1.845   0.179
  479SOL    HW1 2336   3.118   1.917   0.115
  479SOL    HW2 2337   3.167   1.830   0.243
  480SOL     OW 2338   1.488   0.355   1.431
  480SOL    HW1 2339   1.452   0.306   1.352
  480SOL    HW2 2340   1.501   0.290   1.507
  481SOL     OW 2341   2.146   1.019   1.601
  481SOL    HW1 2342   2.121   0.943   1.541
  481SOL    HW2 2343   2.186   1.092   1.546
  482SOL     OW 2344   4.738   4.591   2.591
  482SOL    HW1 2345   4.697   4.502   2.568
  482SOL    HW2 2346   4.688   4.664   2.545
  483SOL     OW 2347   5.337   2.295   1.772
  483SOL    HW1 2348   5.413   2.247   1.816
  483SOL    HW2 2349   5.346   2.288   1.673
  484SOL     OW 2350   0.961   2.851   4.641
  484SOL    HW1 2351   0.937   2.827   4.547
  484SOL    HW2 2352   1.021   2.931   4.641
  485SOL     OW 2353   3.538   4.941   2.119
  485SOL    HW1 2354   3.538   5.032   2.077
  485SOL    HW2 2355   3.570   4.874   2.051
  486SOL     OW 2356   1.057   1.421   0.774
  486SOL    HW1 2357   0.998   1.347   0.807
  486SOL    HW2 2358   1.153   1.392   0.779
  487SOL     OW 2359   0.648   2.039   6.747
  487SOL    HW1 2360   0.553   2.063   6.728
  487SOL    HW2 2361   0.694   2.015   6.662
  488SOL     OW 2362   0.939   1.297   1.348
  488SOL    HW1 2363   0.907   1.219   1.403
  488SOL    HW2 2364   1.035   1.314   1.367
  489SOL     OW 2365   3.224   5.451   0.141
  489SOL    HW1 2366   3.243   5.355   0.162
  489SOL    HW2 2367   3.305   5.493   0.100
  490SOL     OW 2368   6.370   6.213   4.466
  490SOL    HW1 2369   6.395   6.234   4.560
  490SOL    HW2 2370   6.411   6.279   4.404
  491SOL     OW 2371   0.087   2.662   2.886
  491SOL    HW1 2372   0.115   2.580   2.837
  491SOL    HW2 2373   0.167   2.706   2.927
  492SOL     OW 2374   3.199   0.425   5.702
  492SOL    HW1 2375   3.285   0.467   5.732
  492SOL    HW2 2376   3.149   0.489   5.644
  493SOL     OW 2377   6.533   4.810   6.721
  493SOL    HW1 2378   6.461   4.827   6.652
  493SOL    HW2 2379   6.491   4.807   6.812
  494SOL     OW 2380   7.011   6.162   6.787
  494SOL    HW1 2381   0.068   6.164   6.849
  494SOL    HW2 2382   0.005   6.227   6.712
  495SOL     OW 2383   5.033   5.409   2.659
  495SOL    HW1 2384   5.112   5.465   2.683
  495SOL    HW2 2385   4.999   5.436   2.569
  496SOL     OW 2386   5.411   2.792   2.594
  496SOL    HW1 2387   5.339   2.856   2.569
  496SOL    HW2 2388   5.372   2.716   2.646
  497SOL     OW 2389   3.495   1.321   5.230
  497SOL    HW1 2390   3.429   1.397   5.225
  497SOL    HW2 2391   3.510   1.285   5.138
  498SOL     OW 2392   1.305   3.537   1.891
  498SOL    HW1 2393   1.304   3.496   1.982
  498SOL    HW2 2394   1.400   3.560   1.867
  499SOL     OW 2395   3.082   1.044   4.361
  499SOL    HW1 2396   3.014   1.038   4.435
  499SOL    HW2 2397   3.037   1.022   4.274
  500SOL     OW 2398   0.662   4.554   4.020
  500SOL    HW1 2399   0.565   4.537   4.002
  500SOL    HW2 2400   0.698   4.618   3.954
  501SOL     OW 2401   2.623   1.901   7.021
  501SOL    HW1 2402   2.549   1.928   6.960
  501SOL    HW2 2403   2.590   1.833   0.064
  502SOL     OW 2404   5.521   4.377   5.709
  502SOL    HW1 2405   5.495   4.456   5.764
  502SOL    HW2 2406   5.499   4.293   5.759
  503SOL     OW 2407   6.639   4.172   5.936
  503SOL    HW1 2408   6.661   4.239   5.865
  503SOL    HW2 2409   6.540   4.170   5.950
  504SOL     OW 2410   2.218   6.353   4.159
  504SOL    HW1 2411   2.205   6.419   4.085
  504SOL    HW2 2412   2.190   6.394   4.246
  505SOL     OW 2413   3.762   0.505   5.517
  505SOL    HW1 2414   3.765   0.562   5.599
  505SOL    HW2 2415   3.772   0.564   5.436
  506SOL     OW 2416   1.830   5.226   4.553
  506SOL    HW1 2417   1.878   5.210   4.640
  506SOL    HW2 2418   1.767   5.151   4.535
  507SOL     OW 2419   2.868   0.211   4.451
  507SOL    HW1 2420   2.909   0.293   4.490
  507SOL    HW2 2421   2.848   0.145   4.524
  508SOL     OW 2422   6.207   3.112   2.759
  508SOL    HW1 2423   6.295   3.113   2.712
  508SOL    HW2 2424   6.220   3.135   2.855
  509SOL     OW 2425   3.965   0.857   1.509
  509SOL    HW1 2426   3.958   0.783   1.577
  509SOL    HW2 2427   4.047   0.843   1.454
  510SOL     OW 2428   6.816   4.721   5.961
  510SOL    HW1 2429   6.829   4.820   5.951
  510SOL    HW2 2430   6.837   4.694   6.054
  511SOL     OW 2431   6.924   6.640   6.775
  511SOL    HW1 2432   6.895   6.726   6.817
  511SOL    HW2 2433   6.968   6.658   6.687
  512SOL     OW 2434   0.480   2.908   0.182
  512SOL    HW1 2435   0.444   2.927   0.274
  512SOL    HW2 2436   0.446   2.819   0.151
  513SOL     OW 2437   5.729   6.493   2.707
  513SOL    HW1 2438   5.779   6.406   2.702
  513SOL    HW2 2439   5.727   6.535   2.616
  514SOL     OW 2440   6.369   2.418   4.088
  514SOL    HW1 2441   6.449   2.418   4.028
  514SOL    HW2 2442   6.288   2.392   4.035
  515SOL     OW 2443   2.599   6.761   6.172
  515SOL    HW1 2444   2.644   6.754   6.261
  515SOL    HW2 2445   2.589   6.669   6.132
  516SOL     OW 2446   2.889   4.541   1.570
  516SOL    HW1 2447   2.792   4.527   1.550
  516SOL    HW2 2448   2.903   4.540   1.669
  517SOL     OW 2449   5.035   6.125   2.259
  517SOL    HW1 2450   5.090   6.074   2.324
  517SOL    HW2 2451   4.941   6.133   2.293
  518SOL     OW 2452   2.500   2.511   1.496
  518SOL    HW1 2453   2.408   2.516   1.536
  518SOL    HW2 2454   2.567   2.542   1.563
  519SOL     OW 2455   6.997   0.668   5.035
  519SOL    HW1 2456   0.073   0.645   5.041
  519SOL    HW2 2457   6.981   0.756   5.079
  520SOL     OW 2458   5.532   4.468   6.432
  520SOL    HW1 2459   5.486   4.557   6.444
  520SOL    HW2 2460   5.581   4.444   6.515
  521SOL     OW 2461   6.064   1.953   6.220
  521SOL    HW1 2462   5.978   1.901   6.222
  521SOL    HW2 2463   6.114   1.938   6.305
  522SOL     OW 2464   3.928   2.999   5.239
  522SOL    HW1 2465   3.991   2.924   5.262
  522SOL    HW2 2466   3.932   3.069   5.311
  523SOL     OW 2467   6.489   5.634   3.962
  523SOL    HW1 2468   6.526   5.624   4.054
  523SOL    HW2 2469   6.529   5.565   3.902
  524SOL     OW 2470   2.747   0.868   6.868
  524SOL    HW1 2471   2.791   0.886   6.956
  524SOL    HW2 2472   2.730   0.954   6.820
  525SOL     OW 2473   2.296   3.803   6.563
  525SOL    HW1 2474   2.299   3.886   6.508
  525SOL    HW2 2475   2.376   3.747   6.543
  526SOL     OW 2476   2.381   5.690   4.966
  526SOL    HW1 2477   2.323   5.673   4.886
  526SOL    HW2 2478   2.429   5.607   4.991
  527SOL     OW 2479   6.409   2.017   5.939
  527SOL    HW1 2480   6.500   2.051   5.962
  527SOL    HW2 2481   6.341   2.064   5.997
  528SOL     OW 2482   1.296   1.543   4.256
  528SOL    HW1 2483   1.217   1.596   4.226
  528SOL    HW2 2484   1.375   1.603   4.266
  529SOL     OW 2485   1.078   4.916   4.718
  529SOL    HW1 2486   1.010   4.934   4.790
  529SOL    HW2 2487   1.031   4.887   4.635
  530SOL     OW 2488   2.640   2.943   5.361
  530SOL    HW1 2489   2.601   2.871   5.419
  530SOL    HW2 2490   2.580   2.959   5.283
  531SOL     OW 2491   0.612   0.859   1.015
  531SOL    HW1 2492   0.574   0.871   1.106
  531SOL    HW2 2493   0.710   0.838   1.022
  532SOL     OW 2494   0.701   2.091   6.131
  532SOL    HW1 2495   0.611   2.119   6.164
  532SOL    HW2 2496   0.693   2.057   6.037
  533SOL     OW 2497   5.111   6.057   4.287
  533SOL    HW1 2498   5.186   6.069   4.352
  533SOL    HW2 2499   5.125   6.117   4.208
  534SOL     OW 2500   4.665   5.765   4.044
  534SOL    HW1 2501   4.673   5.678   3.996
  534SOL    HW2 2502   4.574   5.802   4.031
  535SOL     OW 2503   1.087   4.449   4.011
  535SOL    HW1 2504   1.099   4.359   4.053
  535SOL    HW2 2505   1.092   4.520   4.082
  536SOL     OW 2506   0.319   5.626   1.566
  536SOL    HW1 2507   0.404   5.633   1.514
  536SOL    HW2 2508   0.269   5.712   1.559
  537SOL     OW 2509   2.123   6.303   3.490
  537SOL    HW1 2510   2.168   6.366   3.554
  537SOL    HW2 2511   2.186   6.230   3.465
  538SOL     OW 2512   1.015   5.699   3.515
  538SOL    HW1 2513   0.944   5.639   3.550
  538SOL    HW2 2514   1.055   5.751   3.591
  539SOL     OW 2515   1.080   5.222   1.327
  539SOL    HW1 2516   1.093   5.208   1.425
  539SOL    HW2 2517   0.984   5.205   1.303
  540SOL     OW 2518   0.407   2.179   2.357
  540SOL    HW1 2519   0.484   2.176   2.294
  540SOL    HW2 2520   0.415   2.257   2.418
  541SOL     OW 2521   3.134   6.535   4.717
  541SOL    HW1 2522   3.142   6.469   4.791
  541SOL    HW2 2523   3.089   6.491   4.639
  542SOL     OW 2524   6.510   6.562   0.167
  542SOL    HW1 2525   6.505   6.477   0.114
  542SOL    HW2 2526   6.606   6.584   0.184
  543SOL     OW 2527   0.646   4.996   6.478
  543SOL    HW1 2528   0.742   4.982   6.504
  543SOL    HW2 2529   0.593   5.020   6.560
  544SOL     OW 2530   1.327   4.538   1.248
  544SOL    HW1 2531   1.397   4.595   1.205
  544SOL    HW2 2532   1.269   4.498   1.177
  545SOL     OW 2533   3.866   1.768   3.353
  545SOL    HW1 2534   3.773   1.755   3.387
  545SOL    HW2 2535   3.923   1.690   3.378
  546SOL     OW 2536   1.421   3.497   1.581
  546SOL    HW1 2537   1.519   3.482   1.594
  546SOL    HW2 2538   1.400   3.503   1.484
  547SOL     OW 2539   2.168   2.130   6.945
  547SOL    HW1 2540   2.232   2.055   6.926
  547SOL    HW2 2541   2.190   2.171   0.012
  548SOL     OW 2542   4.076   3.666   3.508
  548SOL    HW1 2543   4.112   3.627   3.424
  548SOL    HW2 2544   3.978   3.683   3.498
  549SOL     OW 2545   4.812   3.707   1.457
  549SOL    HW1 2546   4.837   3.636   1.391
  549SOL    HW2 2547   4.817   3.670   1.549
  550SOL     OW 2548   0.091   3.093   3.083
  550SOL    HW1 2549   0.061   3.142   3.001
  550SOL    HW2 2550   0.020   3.028   3.110
  551SOL     OW 2551   6.731   1.724   0.763
  551SOL    HW1 2552   6.768   1.807   0.805
  551SOL    HW2 2553   6.632   1.722   0.776
  552SOL     OW 2554   4.206   5.196   0.972
  552SOL    HW1 2555   4.256   5.119   0.933
  552SOL    HW2 2556   4.113   5.168   0.993
  553SOL     OW 2557   1.638   0.447   2.684
  553SOL    HW1 2558   1.690   0.470   2.602
  553SOL    HW2 2559   1.700   0.437   2.761
  554SOL     OW 2560   5.672   6.143   6.116
  554SOL    HW1 2561   5.649   6.150   6.213
  554SOL    HW2 2562   5.769   6.119   6.106
  555SOL     OW 2563   2.084   5.063   4.284
  555SOL    HW1 2564   2.183   5.056   4.295
  555SOL    HW2 2565   2.061   5.153   4.245
  556SOL     OW 2566   6.134   2.008   3.926
  556SOL    HW1 2567   6.201   2.003   3.999
  556SOL    HW2 2568   6.043   2.023   3.964
  557SOL     OW 2569   6.713   5.766   6.607
  557SOL    HW1 2570   6.767   5.822   6.670
  557SOL    HW2 2571   6.634   5.728   6.656
  558SOL     OW 2572   4.174   3.460   5.182
  558SOL    HW1 2573   4.111   3.390   5.215
  558SOL    HW2 2574   4.122   3.539   5.149
  559SOL     OW 2575   6.912   6.141   6.376
  559SOL    HW1 2576   7.005   6.136   6.412
  559SOL    HW2 2577   6.892   6.060   6.322
  560SOL     OW 2578   4.378   6.235   6.989
  560SOL    HW1 2579   4.337   6.190   0.047
  560SOL    HW2 2580   4.401   6.330   7.012
  561SOL     OW 2581   6.125   6.818   0.546
  561SOL    HW1 2582   6.164   6.902   0.584
  561SOL    HW2 2583   6.174   6.739   0.582
  562SOL     OW 2584   5.159   0.841   5.884
  562SOL    HW1 2585   5.214   0.816   5.964
  562SOL    HW2 2586   5.161   0.940   5.872
  563SOL     OW 2587   2.511   6.528   3.841
  563SOL    HW1 2588   2.552   6.598   3.782
  563SOL    HW2 2589   2.465   6.573   3.918
  564SOL     OW 2590   1.933   2.111   6.129
  564SOL    HW1 2591   1.939   2.011   6.127
  564SOL    HW2 2592   2.015   2.148   6.173
  565SOL     OW 2593   4.303   3.321   5.743
  565SOL    HW1 2594   4.228   3.382   5.765
  565SOL    HW2 2595   4.338   3.343   5.652
  566SOL     OW 2596   4.143   4.787   3.199
  566SOL    HW1 2597   4.061   4.770   3.145
  566SOL    HW2 2598   4.219   4.809   3.138
  567SOL     OW 2599   3.501   3.286   4.337
  567SOL    HW1 2600   3.440   3.244   4.270
  567SOL    HW2 2601   3.561   3.216   4.376
  568SOL     OW 2602   3.004   2.203   0.207
  568SOL    HW1 2603   3.007   2.250   0.119
  568SOL    HW2 2604   2.951   2.119   0.198
  569SOL     OW 2605   1.588   2.828   0.598
  569SOL    HW1 2606   1.672   2.774   0.593
  569SOL    HW2 2607   1.520   2.789   0.535
  570SOL     OW 2608   1.321   6.499   0.780
  570SOL    HW1 2609   1.418   6.478   0.771
  570SOL    HW2 2610   1.287   6.464   0.867
  571SOL     OW 2611   3.486   5.381   2.702
  571SOL    HW1 2612   3.444   5.356   2.789
  571SOL    HW2 2613   3.485   5.302   2.640
  572SOL     OW 2614   2.284   3.899   5.658
  572SOL    HW1 2615   2.233   3.906   5.572
  572SOL    HW2 2616   2.258   3.815   5.705
  573SOL     OW 2617   4.308   1.307   5.861
  573SOL    HW1 2618   4.295   1.227   5.803
  573SOL    HW2 2619   4.232   1.371   5.849
  574SOL     OW 2620   2.174   1.982   4.572
  574SOL    HW1 2621   2.254   2.029   4.534
  574SOL    HW2 2622   2.204   1.901   4.622
  575SOL     OW 2623   6.372   3.280   0.376
  575SOL    HW1 2624   6.368   3.380   0.377
  575SOL    HW2 2625   6.322   3.246   0.296
  576SOL     OW 2626   1.084   2.488   1.903
  576SOL    HW1 2627   1.022   2.502   1.826
  576SOL    HW2 2628   1.081   2.392   1.931
  577SOL     OW 2629   2.280   1.744   3.882
  577SOL    HW1 2630   2.306   1.840   3.893
  577SOL    HW2 2631   2.201   1.724   3.940
  578SOL     OW 2632   0.470   3.167   3.379
  578SOL    HW1 2633   0.432   3.081   3.344
  578SOL    HW2 2634   0.395   3.224   3.412
  579SOL     OW 2635   3.571   2.001   0.767
  579SOL    HW1 2636   3.635   2.064   0.724
  579SOL    HW2 2637   3.609   1.908   0.765
  580SOL     OW 2638   0.898   5.130   6.752
  580SOL    HW1 2639   0.887   5.195   6.676
  580SOL    HW2 2640   0.815   5.129   6.807
  581SOL     OW 2641   3.795   2.931   3.057
  581SOL    HW1 2642   3.724   2.885   3.111
  581SOL    HW2 2643   3.753   3.005   3.004
  582SOL     OW 2644   5.565   3.968   2.355
  582SOL    HW1 2645   5.604   3.891   2.405
  582SOL    HW2 2646   5.466   3.971   2.369
  583SOL     OW 2647   2.466   4.859   0.033
  583SOL    HW1 2648   2.372   4.831   0.050
  583SOL    HW2 2649   2.516   4.863   0.119
  584SOL     OW 2650   0.455   4.942   5.130
  584SOL    HW1 2651   0.377   4.881   5.133
  584SOL    HW2 2652   0.524   4.912   5.196
  585SOL     OW 2653   0.278   2.348   5.807
  585SOL    HW1 2654   0.275   2.419   5.878
  585SOL    HW2 2655   0.373   2.322   5.791
  586SOL     OW 2656   2.671   6.707   0.915
  586SOL    HW1 2657   2.668   6.719   1.015
  586SOL    HW2 2658   2.613   6.631   0.888
  587SOL     OW 2659   1.240   3.167   5.828
  587SOL    HW1 2660   1.259   3.069   5.830
  587SOL    HW2 2661   1.144   3.182   5.852
  588SOL     OW 2662   3.702   6.651   1.447
  588SOL    HW1 2663   3.784   6.607   1.482
  588SOL    HW2 2664   3.652   6.693   1.523
  589SOL     OW 2665   3.576   4.892   2.421
  589SOL    HW1 2666   3.516   4.890   2.341
  589SOL    HW2 2667   3.671   4.880   2.391
  590SOL     OW 2668   6.948   2.401   2.130
  590SOL    HW1 2669   6.921   2.363   2.218
  590SOL    HW2 2670   0.002   2.465   2.143
  591SOL     OW 2671   3.686   0.243   3.559
  591SOL    HW1 2672   3.679   0.342   3.546
  591SOL    HW2 2673   3.780   0.214   3.541
  592SOL     OW 2674   5.002   0.780   0.642
  592SOL    HW1 2675   5.055   0.730   0.573
  592SOL    HW2 2676   4.917   0.814   0.600
  593SOL     OW 2677   4.723   2.760   3.879
  593SOL    HW1 2678   4.699   2.805   3.793
  593SOL    HW2 2679   4.762   2.670   3.861
  594SOL     OW 2680   4.146   3.466   0.754
  594SOL    HW1 2681   4.141   3.563   0.777
  594SOL    HW2 2682   4.124   3.411   0.835
  595SOL     OW 2683   3.767   6.183   3.522
  595SOL    HW1 2684   3.850   6.131   3.545
  595SOL    HW2 2685   3.745   6.171   3.426
  596SOL     OW 2686   0.850   4.659   2.624
  596SOL    HW1 2687   0.769   4.640   2.679
  596SOL    HW2 2688   0.836   4.742   2.571
  597SOL     OW 2689   4.546   0.294   6.631
  597SOL    HW1 2690   4.481   0.344   6.687
  597SOL    HW2 2691   4.500   0.257   6.550
  598SOL     OW 2692   3.902   4.829   0.460
  598SOL    HW1 2693   3.973   4.771   0.499
  598SOL    HW2 2694   3.879   4.901   0.525
  599SOL     OW 2695   6.777   0.430   2.752
  599SOL    HW1 2696   6.759   0.345   2.701
  599SOL    HW2 2697   6.822   0.495   2.691
  600SOL     OW 2698   1.311   0.020   0.880
  600SOL    HW1 2699   1.317   6.943   0.862
  600SOL    HW2 2700   1.236   0.038   0.943
  601SOL     OW 2701   2.506   5.493   3.570
  601SOL    HW1 2702   2.588   5.458   3.526
  601SOL    HW2 2703   2.449   5.539   3.502
  602SOL     OW 2704   1.744   0.450   1.388
  602SOL    HW1 2705   1.733   0.549   1.379
  602SOL    HW2 2706   1.661   0.410   1.425
  603SOL     OW 2707   4.517   2.014   3.302
  603SOL    HW1 2708   4.580   2.054   3.369
  603SOL    HW2 2709   4.450   2.082   3.274
  604SOL     OW 2710   0.929   3.278   6.374
  604SOL    HW1 2711   0.991   3.201   6.387
  604SOL    HW2 2712   0.871   3.288   6.455
  605SOL     OW 2713   6.602   6.270   3.209
  605SOL    HW1 2714   6.625   6.177   3.182
  605SOL    HW2 2715   6.684   6.328   3.207
  606SOL     OW 2716   4.022   0.423   4.266
  606SOL    HW1 2717   3.968   0.465   4.193
  606SOL    HW2 2718   4.100   0.482   4.289
  607SOL     OW 2719   5.285   1.118   4.017
  607SOL    HW1 2720   5.239   1.033   4.045
  607SOL    HW2 2721   5.310   1.111   3.920
  608SOL     OW 2722   3.794   0.950   0.672
  608SOL    HW1 2723   3.810   0.946   0.771
  608SOL    HW2 2724   3.840   1.030   0.634
  609SOL     OW 2725   3.408   2.884   3.966
  609SOL    HW1 2726   3.399   2.905   4.063
  609SOL    HW2 2727   3.432   2.788   3.955
  610SOL     OW 2728   5.312   1.912   4.249
  610SOL    HW1 2729   5.214   1.895   4.237
  610SOL    HW2 2730   5.364   1.845   4.195
  611SOL     OW 2731   0.199   0.479   0.309
  611SOL    HW1 2732   0.151   0.534   0.242
  611SOL    HW2 2733   0.273   0.532   0.350
  612SOL     OW 2734   3.556   5.660   6.224
  612SOL    HW1 2735   3.481   5.617   6.174
  612SOL    HW2 2736   3.638   5.663   6.166
  613SOL     OW 2737   4.425   1.490   6.230
  613SOL    HW1 2738   4.449   1.512   6.324
  613SOL    HW2 2739   4.398   1.574   6.182
  614SOL     OW 2740   6.183   4.432   0.581
  614SOL    HW1 2741   6.253   4.483   0.532
  614SOL    HW2 2742   6.226   4.373   0.649
  615SOL     OW 2743   0.744   0.268   0.666
  615SOL    HW1 2744   0.743   0.361   0.630
  615SOL    HW2 2745   0.838   0.239   0.681
  616SOL     OW 2746   5.616   1.873   4.563
  616SOL    HW1 2747   5.688   1.820   4.519
  616SOL    HW2 2748   5.575   1.818   4.637
  617SOL     OW 2749   6.980   5.109   5.309
  617SOL    HW1 2750   0.004   5.103   5.220
  617SOL    HW2 2751   6.972   5.018   5.349
  618SOL     OW 2752   5.725   3.801   0.219
  618SOL    HW1 2753   5.670   3.717   0.218
  618SOL    HW2 2754   5.746   3.825   0.314
  619SOL     OW 2755   3.423   0.533   0.687
  619SOL    HW1 2756   3.506   0.562   0.639
  619SOL    HW2 2757   3.398   0.441   0.658
  620SOL     OW 2758   5.720   2.988   2.041
  620SOL    HW1 2759   5.816   3.018   2.047
  620SOL    HW2 2760   5.709   2.904   2.092
  621SOL     OW 2761   2.541   0.679   6.822
  621SOL    HW1 2762   2.624   0.734   6.836
  621SOL    HW2 2763   2.568   0.585   6.802
  622SOL     OW 2764   1.035   2.309   5.418
  622SOL    HW1 2765   1.002   2.401   5.399
  622SOL    HW2 2766   0.985   2.243   5.362
  623SOL     OW 2767   5.862   6.345   4.126
  623SOL    HW1 2768   5.880   6.272   4.192
  623SOL    HW2 2769   5.945   6.399   4.112
  624SOL     OW 2770   6.473   1.209   6.498
  624SOL    HW1 2771   6.456   1.254   6.410
  624SOL    HW2 2772   6.453   1.272   6.572
  625SOL     OW 2773   3.061   1.048   0.550
  625SOL    HW1 2774   3.032   1.011   0.638
  625SOL    HW2 2775   3.053   0.977   0.479
  626SOL     OW 2776   0.869   5.519   3.643
  626SOL    HW1 2777   0.927   5.551   3.717
  626SOL    HW2 2778   0.877   5.420   3.634
  627SOL     OW 2779   6.295   0.066   6.954
  627SOL    HW1 2780   6.240   0.039   6.875
  627SOL    HW2 2781   6.392   0.053   6.933
  628SOL     OW 2782   5.251   4.354   5.388
  628SOL    HW1 2783   5.256   4.448   5.422
  628SOL    HW2 2784   5.179   4.304   5.435
  629SOL     OW 2785   6.994   0.513   6.658
  629SOL    HW1 2786   6.925   0.584   6.672
  629SOL    HW2 2787   6.973   0.434   6.715
  630SOL     OW 2788   6.700   1.788   1.176
  630SOL    HW1 2789   6.635   1.807   1.249
  630SOL    HW2 2790   6.756   1.709   1.201
  631SOL     OW 2791   1.961   2.866   4.818
  631SOL    HW1 2792   1.973   2.784   4.873
  631SOL    HW2 2793   2.044   2.922   4.824
  632SOL     OW 2794   3.946   3.154   0.235
  632SOL    HW1 2795   3.866   3.107   0.271
  632SOL    HW2 2796   3.928   3.253   0.234
  633SOL     OW 2797   1.224   5.856   1.624
  633SOL    HW1 2798   1.300   5.819   1.571
  633SOL    HW2 2799   1.220   5.955   1.613
  634SOL     OW 2800   2.903   3.369   4.145
  634SOL    HW1 2801   2.879   3.466   4.158
  634SOL    HW2 2802   2.914   3.350   4.048
  635SOL     OW 2803   5.753   1.077   6.566
  635SOL    HW1 2804   5.728   1.153   6.507
  635SOL    HW2 2805   5.812   1.109   6.640
  636SOL     OW 2806   3.401   0.430   6.318
  636SOL    HW1 2807   3.316   0.422   6.266
  636SOL    HW2 2808   3.405   0.519   6.362
  637SOL     OW 2809   6.657   1.173   1.502
  637SOL    HW1 2810   6.754   1.156   1.521
  637SOL    HW2 2811   6.601   1.121   1.567
  638SOL     OW 2812   6.296   3.472   4.361
  638SOL    HW1 2813   6.281   3.382   4.321
  638SOL    HW2 2814   6.270   3.472   4.457
  639SOL     OW 2815   4.598   5.034   3.287
  639SOL    HW1 2816   4.622   5.105   3.354
  639SOL    HW2 2817   4.547   4.962   3.333
  640SOL     OW 2818   0.438   2.829   2.704
  640SOL    HW1 2819   0.354   2.850   2.655
  640SOL    HW2 2820   0.516   2.845   2.643
  641SOL     OW 2821   2.075   4.684   4.939
  641SOL    HW1 2822   2.109   4.595   4.908
  641SOL    HW2 2823   2.135   4.756   4.906
  642SOL     OW 2824   0.990   3.430   4.857
  642SOL    HW1 2825   0.894   3.459   4.864
  642SOL    HW2 2826   1.045   3.508   4.826
  643SOL     OW 2827   4.469   5.565   6.542
  643SOL    HW1 2828   4.548   5.574   6.482
  643SOL    HW2 2829   4.391   5.529   6.490
  644SOL     OW 2830   6.582   0.059   4.660
  644SOL    HW1 2831   6.682   0.062   4.664
  644SOL    HW2 2832   6.548   0.010   4.741
  645SOL     OW 2833   3.863   5.096   2.366
  645SOL    HW1 2834   3.788   5.158   2.344
  645SOL    HW2 2835   3.847   5.007   2.323
  646SOL     OW 2836   4.136   0.576   5.007
  646SOL    HW1 2837   4.127   0.495   4.950
  646SOL    HW2 2838   4.047   0.598   5.049
  647SOL     OW 2839   5.205   2.100   4.703
  647SOL    HW1 2840   5.266   2.073   4.629
  647SOL    HW2 2841   5.125   2.147   4.666
  648SOL     OW 2842   6.133   2.233   3.046
  648SOL    HW1 2843   6.068   2.168   3.086
  648SOL    HW2 2844   6.144   2.311   3.108
  649SOL     OW 2845   2.570   4.843   0.285
  649SOL    HW1 2846   2.618   4.899   0.353
  649SOL    HW2 2847   2.471   4.849   0.302
  650SOL     OW 2848   6.848   5.722   0.977
  650SOL    HW1 2849   6.936   5.728   0.930
  650SOL    HW2 2850   6.776   5.699   0.911
  651SOL     OW 2851   1.335   0.178   5.405
  651SOL    HW1 2852   1.407   0.237   5.368
  651SOL    HW2 2853   1.247   0.207   5.368
  652SOL     OW 2854   4.302   0.142   1.868
  652SOL    HW1 2855   4.362   0.076   1.913
  652SOL    HW2 2856   4.276   0.213   1.934
  653SOL     OW 2857   0.473   6.594   1.488
  653SOL    HW1 2858   0.530   6.604   1.569
  653SOL    HW2 2859   0.380   6.570   1.516
  654SOL     OW 2860   6.975   0.124   5.505
  654SOL    HW1 2861   0.009   0.149   5.425
  654SOL    HW2 2862   7.015   0.043   5.549
  655SOL     OW 2863   6.961   4.604   1.619
  655SOL    HW1 2864   0.030   4.646   1.629
  655SOL    HW2 2865   6.908   4.654   1.551
  656SOL     OW 2866   3.294   6.360   0.767
  656SOL    HW1 2867   3.265   6.359   0.671
  656SOL    HW2 2868   3.385   6.320   0.775
  657SOL     OW 2869   3.623   2.804   1.856
  657SOL    HW1 2870   3.622   2.712   1.818
  657SOL    HW2 2871   3.536   2.850   1.835
  658SOL     OW 2872   1.862   4.406   4.394
  658SOL    HW1 2873   1.809   4.327   4.365
  658SOL    HW2 2874   1.926   4.378   4.466
  659SOL     OW 2875   2.616   6.468   5.782
  659SOL    HW1 2876   2.559   6.393   5.817
  659SOL    HW2 2877   2.665   6.511   5.858
  660SOL     OW 2878   4.601   4.473   2.187
  660SOL    HW1 2879   4.594   4.397   2.124
  660SOL    HW2 2880   4.682   4.527   2.166
  661SOL     OW 2881   4.260   4.671   4.240
  661SOL    HW1 2882   4.282   4.629   4.152
  661SOL    HW2 2883   4.310   4.758   4.248
  662SOL     OW 2884   4.915   3.505   0.358
  662SOL    HW1 2885   4.884   3.524   0.451
  662SOL    HW2 2886   4.930   3.590   0.309
  663SOL     OW 2887   0.099   4.558   0.371
  663SOL    HW1 2888   0.090   4.597   0.279
  663SOL    HW2 2889   0.041   4.610   0.434
  664SOL     OW 2890   1.443   6.913   6.224
  664SOL    HW1 2891   1.516   6.933   6.160
  664SOL    HW2 2892   1.386   6.839   6.189
  665SOL     OW 2893   3.692   5.857   0.903
  665SOL    HW1 2894   3.720   5.853   0.807
  665SOL    HW2 2895   3.647   5.944   0.921
  666SOL     OW 2896   3.738   1.736   0.376
  666SOL    HW1 2897   3.836   1.722   0.359
  666SOL    HW2 2898   3.701   1.798   0.308
  667SOL     OW 2899   1.055   3.529   2.817
  667SOL    HW1 2900   1.064   3.529   2.718
  667SOL    HW2 2901   1.051   3.434   2.850
  668SOL     OW 2902   5.262   6.509   0.319
  668SOL    HW1 2903   5.323   6.558   0.381
  668SOL    HW2 2904   5.316   6.465   0.247
  669SOL     OW 2905   0.741   6.400   3.984
  669SOL    HW1 2906   0.721   6.467   4.055
  669SOL    HW2 2907   0.666   6.398   3.918
  670SOL     OW 2908   3.251   3.517   3.666
  670SOL    HW1 2909   3.187   3.580   3.621
  670SOL    HW2 2910   3.275   3.553   3.756
  671SOL     OW 2911   2.307   0.067   6.171
  671SOL    HW1 2912   2.241   0.011   6.221
  671SOL    HW2 2913   2.386   0.085   6.230
  672SOL     OW 2914   2.161   3.712   4.109
  672SOL    HW1 2915   2.213   3.793   4.082
  672SOL    HW2 2916   2.083   3.701   4.048
  673SOL     OW 2917   5.106   0.603   0.422
  673SOL    HW1 2918   5.104   0.684   0.363
  673SOL    HW2 2919   5.027   0.545   0.402
  674SOL     OW 2920   0.689   2.000   3.273
  674SOL    HW1 2921   0.737   1.966   3.354
  674SOL    HW2 2922   0.600   2.038   3.300
  675SOL     OW 2923   0.413   2.302   4.272
  675SOL    HW1 2924   0.324   2.263   4.296
  675SOL    HW2 2925   0.403   2.362   4.193
  676SOL     OW 2926   2.634   4.913   4.505
  676SOL    HW1 2927   2.623   4.815   4.523
  676SOL    HW2 2928   2.569   4.942   4.435
  677SOL     OW 2929   6.592   0.378   0.905
  677SOL    HW1 2930   6.655   0.300   0.912
  677SOL    HW2 2931   6.515   0.353   0.847
  678SOL     OW 2932   2.379   0.540   6.489
  678SOL    HW1 2933   2.345   0.488   6.411
  678SOL    HW2 2934   2.328   0.515   6.571
  679SOL     OW 2935   4.205   0.391   2.690
  679SOL    HW1 2936   4.253   0.456   2.749
  679SOL    HW2 2937   4.267   0.357   2.620
  680SOL     OW 2938   4.904   3.866   5.910
  680SOL    HW1 2939   4.823   3.885   5.966
  680SOL    HW2 2940   4.967   3.808   5.960
  681SOL     OW 2941   0.536   6.413   1.283
  681SOL    HW1 2942   0.593   6.338   1.318
  681SOL    HW2 2943   0.509   6.472   1.358
  682SOL     OW 2944   1.621   5.837   0.409
  682SOL    HW1 2945   1.666   5.923   0.435
  682SOL    HW2 2946   1.624   5.773   0.485
  683SOL     OW 2947   3.795   1.363   6.497
  683SOL    HW1 2948   3.788   1.273   6.453
  683SOL    HW2 2949   3.848   1.354   6.581
  684SOL     OW 2950   0.568   6.005   5.647
  684SOL    HW1 2951   0.568   5.915   5.604
  684SOL    HW2 2952   0.597   6.074   5.581
  685SOL     OW 2953   5.003   0.052   5.735
  685SOL    HW1 2954   4.978   6.994   5.790
  685SOL    HW2 2955   5.086   0.094   5.772
  686SOL     OW 2956   5.150   3.497   3.073
  686SOL    HW1 2957   5.130   3.399   3.067
  686SOL    HW2 2958   5.091   3.538   3.143
  687SOL     OW 2959   6.789   3.220   5.684
  687SOL    HW1 2960   6.709   3.245   5.739
  687SOL    HW2 2961   6.773   3.242   5.588
  688SOL     OW 2962   0.989   4.081   5.956
  688SOL    HW1 2963   1.067   4.022   5.980
  688SOL    HW2 2964   0.942   4.042   5.876
  689SOL     OW 2965   6.598   3.737   5.939
  689SOL    HW1 2966   6.500   3.729   5.955
  689SOL    HW2 2967   6.620   3.701   5.848
  690SOL     OW 2968   1.831   2.019   3.484
  690SOL    HW1 2969   1.764   2.032   3.411
  690SOL    HW2 2970   1.787   1.973   3.562
  691SOL     OW 2971   0.938   2.409   6.888
  691SOL    HW1 2972   0.960   2.455   6.803
  691SOL    HW2 2973   1.018   2.358   6.920
  692SOL     OW 2974   2.508   0.302   2.612
  692SOL    HW1 2975   2.599   0.304   2.570
  692SOL    HW2 2976   2.481   0.395   2.637
  693SOL     OW 2977   6.637   2.617   2.658
  693SOL    HW1 2978   6.575   2.560   2.712
  693SOL    HW2 2979   6.584   2.681   2.604
  694SOL     OW 2980   2.049   6.101   0.984
  694SOL    HW1 2981   2.145   6.098   0.957
  694SOL    HW2 2982   2.008   6.188   0.957
  695SOL     OW 2983   5.283   5.288   5.301
  695SOL    HW1 2984   5.279   5.194   5.333
  695SOL    HW2 2985   5.205   5.306   5.241
  696SOL     OW 2986   4.114   5.040   2.462
  696SOL    HW1 2987   4.131   5.032   2.560
  696SOL    HW2 2988   4.018   5.063   2.446
  697SOL     OW 2989   1.085   4.126   4.721
  697SOL    HW1 2990   1.101   4.214   4.677
  697SOL    HW2 2991   1.130   4.125   4.810
  698SOL     OW 2992   4.486   0.442   3.772
  698SOL    HW1 2993   4.489   0.345   3.796
  698SOL    HW2 2994   4.482   0.497   3.855
  699SOL     OW 2995   1.211   3.959   0.904
  699SOL    HW1 2996   1.166   3.880   0.945
  699SOL    HW2 2997   1.143   4.017   0.858
  700SOL     OW 2998   2.402   2.647   4.338
  700SOL    HW1 2999   2.441   2.600   4.418
  700SOL    HW2 3000   2.440   2.607   4.255
  701SOL     OW 3001   0.709   4.126   6.316
  701SOL    HW1 3002   0.627   4.172   6.283
  701SOL    HW2 3003   0.683   4.060   6.387
  702SOL     OW 3004   5.240   6.777   4.505
  702SOL    HW1 3005   5.327   6.793   4.458
  702SOL    HW2 3006   5.241   6.825   4.593
  703SOL     OW 3007   4.185   3.948   6.202
  703SOL    HW1 3008   4.225   3.858   6.216
  703SOL    HW2 3009   4.202   3.978   6.108
  704SOL     OW 3010   1.237   0.097   0.015
  704SOL    HW1 3011   1.161   0.124   6.977
  704SOL    HW2 3012   1.201   0.052   0.097
  705SOL     OW 3013   5.337   1.155   3.241
  705SOL    HW1 3014   5.350   1.248   3.208
  705SOL    HW2 3015   5.297   1.099   3.168
  706SOL     OW 3016   3.728   1.975   3.817
  706SOL    HW1 3017   3.628   1.976   3.824
  706SOL    HW2 3018   3.757   2.042   3.748
  707SOL     OW 3019   5.476   0.540   1.682
  707SOL    HW1 3020   5.436   0.519   1.771
  707SOL    HW2 3021   5.447   0.471   1.615
  708SOL     OW 3022   4.233   0.458   0.920
  708SOL    HW1 3023   4.238   0.530   0.989
  708SOL    HW2 3024   4.170   0.486   0.848
  709SOL     OW 3025   1.164   4.993   1.173
  709SOL    HW1 3026   1.148   5.088   1.201
  709SOL    HW2 3027   1.113   4.974   1.089
  710SOL     OW 3028   3.025   3.976   2.712
  710SOL    HW1 3029   2.973   3.891   2.697
  710SOL    HW2 3030   3.054   4.013   2.624
  711SOL     OW 3031   6.412   1.563   4.496
  711SOL    HW1 3032   6.313   1.560   4.505
  711SOL    HW2 3033   6.442   1.659   4.500
  712SOL     OW 3034   1.187   3.964   1.674
  712SOL    HW1 3035   1.242   3.891   1.633
  712SOL    HW2 3036   1.223   3.987   1.765
  713SOL     OW 3037   3.820   2.964   2.601
  713SOL    HW1 3038   3.803   2.893   2.532
  713SOL    HW2 3039   3.734   3.006   2.628
  714SOL     OW 3040   5.804   4.339   5.115
  714SOL    HW1 3041   5.733   4.402   5.083
  714SOL    HW2 3042   5.766   4.281   5.187
  715SOL     OW 3043   4.219   6.514   6.190
  715SOL    HW1 3044   4.211   6.472   6.281
  715SOL    HW2 3045   4.209   6.613   6.198
  716SOL     OW 3046   0.338   4.916   1.544
  716SOL    HW1 3047   0.363   4.927   1.447
  716SOL    HW2 3048   0.420   4.930   1.600
  717SOL     OW 3049   6.241   3.551   6.809
  717SOL    HW1 3050   6.280   3.615   6.875
  717SOL    HW2 3051   6.161   3.593   6.766
  718SOL     OW 3052   3.551   3.292   6.403
  718SOL    HW1 3053   3.574   3.201   6.435
  718SOL    HW2 3054   3.583   3.360   6.468
  719SOL     OW 3055   6.801   3.455   1.242
  719SOL    HW1 3056   6.898   3.446   1.263
  719SOL    HW2 3057   6.783   3.425   1.148
  720SOL     OW 3058   2.301   1.900   6.223
  720SOL    HW1 3059   2.276   1.990   6.187
  720SOL    HW2 3060   2.282   1.830   6.154
  721SOL     OW 3061   1.940   0.372   5.676
  721SOL    HW1 3062   1.927   0.471   5.666
  721SOL    HW2 3063   1.904   0.325   5.596
  722SOL     OW 3064   3.970   0.175   4.425
  722SOL    HW1 3065   3.997   0.248   4.362
  722SOL    HW2 3066   4.049   0.118   4.447
  723SOL     OW 3067   1.844   2.618   2.135
  723SOL    HW1 3068   1.778   2.559   2.090
  723SOL    HW2 3069   1.866   2.581   2.225
  724SOL     OW 3070   0.247   0.988   4.785
  724SOL    HW1 3071   0.299   0.990   4.699
  724SOL    HW2 3072   0.303   1.026   4.858
  725SOL     OW 3073   2.449   4.879   2.564
  725SOL    HW1 3074   2.519   4.940   2.600
  725SOL    HW2 3075   2.481   4.784   2.568
  726SOL     OW 3076   3.110   6.003   0.058
  726SOL    HW1 3077   3.072   6.050   7.000
  726SOL    HW2 3078   3.204   5.977   0.039
  727SOL     OW 3079   3.464   5.620   4.355
  727SOL    HW1 3080   3.554   5.579   4.370
  727SOL    HW2 3081   3.398   5.549   4.333
  728SOL     OW 3082   0.050   3.843   5.152
  728SOL    HW1 3083   6.989   3.894   5.127
  728SOL    HW2 3084   0.100   3.894   5.222
  729SOL     OW 3085   2.053   0.846   0.721
  729SOL    HW1 3086   2.090   0.910   0.653
  729SOL    HW2 3087   1.981   0.892   0.774
  730SOL     OW 3088   5.823   0.496   3.657
  730SOL    HW1 3089   5.769   0.546   3.590
  730SOL    HW2 3090   5.784   0.405   3.671
  731SOL     OW 3091   5.343   3.194   4.628
  731SOL    HW1 3092   5.359   3.290   4.652
  731SOL    HW2 3093   5.418   3.138   4.662
  732SOL     OW 3094   0.168   2.851   0.940
  732SOL    HW1 3095   0.083   2.874   0.986
  732SOL    HW2 3096   0.163   2.757   0.906
  733SOL     OW 3097   4.930   3.871   4.009
  733SOL    HW1 3098   5.015   3.893   4.056
  733SOL    HW2 3099   4.899   3.780   4.037
  734SOL     OW 3100   6.760   4.350   1.307
  734SOL    HW1 3101   6.797   4.320   1.395
  734SOL    HW2 3102   6.755   4.271   1.245
  735SOL     OW 3103   1.312   3.523   0.089
  735SOL    HW1 3104   1.277   3.557   0.002
  735SOL    HW2 3105   1.259   3.562   0.164
  736SOL     OW 3106   6.823   0.308   3.168
  736SOL    HW1 3107   6.755   0.380   3.185
  736SOL    HW2 3108   6.793   0.223   3.211
  737SOL     OW 3109   5.047   3.651   1.174
  737SOL    HW1 3110   4.975   3.721   1.171
  737SOL    HW2 3111   5.009   3.567   1.214
  738SOL     OW 3112   6.952   3.887   4.408
  738SOL    HW1 3113   6.996   3.894   4.318
  738SOL    HW2 3114   7.017   3.915   4.478
  739SOL     OW 3115   4.104   6.445   5.671
  739SOL    HW1 3116   4.109   6.448   5.771
  739SOL    HW2 3117   4.057   6.527   5.637
  740SOL     OW 3118   5.889   0.029   1.212
  740SOL    HW1 3119   5.863   0.125   1.202
  740SOL    HW2 3120   5.808   6.993   1.202
  741SOL     OW 3121   1.597   6.591   3.179
  741SOL    HW1 3122   1.693   6.583   3.151
  741SOL    HW2 3123   1.591   6.655   3.256
  742SOL     OW 3124   1.163   6.611   3.713
  742SOL    HW1 3125   1.234   6.618   3.784
  742SOL    HW2 3126   1.175   6.528   3.660
  743SOL     OW 3127   1.556   4.217   4.510
  743SOL    HW1 3128   1.498   4.250   4.435
  743SOL    HW2 3129   1.524   4.255   4.597
  744SOL     OW 3130   6.825   5.866   0.109
  744SOL    HW1 3131   6.784   5.951   0.077
  744SOL    HW2 3132   6.765   5.823   0.177
  745SOL     OW 3133   1.136   5.824   2.874
  745SOL    HW1 3134   1.171   5.790   2.787
  745SOL    HW2 3135   1.081   5.906   2.859
  746SOL     OW 3136   1.020   7.003   5.082
  746SOL    HW1 3137   1.085   6.997   5.006
  746SOL    HW2 3138   0.931   0.010   5.047
  747SOL     OW 3139   4.549   4.700   3.219
  747SOL    HW1 3140   4.480   4.725   3.152
  747SOL    HW2 3141   4.637   4.686   3.173
  748SOL     OW 3142   4.177   3.723   0.789
  748SOL    HW1 3143   4.224   3.775   0.717
  748SOL    HW2 3144   4.096   3.773   0.819
  749SOL     OW 3145   0.229   1.940   4.927
  749SOL    HW1 3146   0.136   1.903   4.921
  749SOL    HW2 3147   0.267   1.921   5.017
  750SOL     OW 3148   2.068   3.212   0.283
  750SOL    HW1 3149   1.969   3.209   0.271
  750SOL    HW2 3150   2.101   3.303   0.260
  751SOL     OW 3151   4.519   1.002   0.614
  751SOL    HW1 3152   4.461   1.079   0.588
  751SOL    HW2 3153   4.466   0.917   0.611
  752SOL     OW 3154   4.198   2.437   1.714
  752SOL    HW1 3155   4.187   2.528   1.673
  752SOL    HW2 3156   4.118   2.381   1.691
  753SOL     OW 3157   1.759   3.301   5.039
  753SOL    HW1 3158   1.782   3.311   4.942
  753SOL    HW2 3159   1.800   3.377   5.090
  754SOL     OW 3160   4.568   4.170   6.599
  754SOL    HW1 3161   4.625   4.122   6.665
  754SOL    HW2 3162   4.579   4.269   6.611
  755SOL     OW 3163   0.633   5.644   6.939
  755SOL    HW1 3164   0.575   5.726   6.933
  755SOL    HW2 3165   0.686   5.635   6.855
  756SOL     OW 3166   5.040   0.462   1.731
  756SOL    HW1 3167   5.070   0.534   1.793
  756SOL    HW2 3168   5.077   0.480   1.639
  757SOL     OW 3169   0.341   6.565   3.897
  757SOL    HW1 3170   0.259   6.560   3.955
  757SOL    HW2 3171   0.400   6.640   3.928
  758SOL     OW 3172   3.442   2.447   1.363
  758SOL    HW1 3173   3.465   2.353   1.338
  758SOL    HW2 3174   3.345   2.463   1.346
  759SOL     OW 3175   0.981   1.547   0.064
  759SOL    HW1 3176   0.948   1.456   0.039
  759SOL    HW2 3177   1.071   1.538   0.108
  760SOL     OW 3178   5.456   1.623   0.103
  760SOL    HW1 3179   5.542   1.584   0.071
  760SOL    HW2 3180   5.394   1.634   0.026
  761SOL     OW 3181   6.259   2.965   0.451
  761SOL    HW1 3182   6.288   3.047   0.502
  761SOL    HW2 3183   6.316   2.955   0.369
  762SOL     OW 3184   2.442   5.823   3.442
  762SOL    HW1 3185   2.472   5.729   3.429
  762SOL    HW2 3186   2.507   5.885   3.399
  763SOL     OW 3187   4.195   5.972   7.000
  763SOL    HW1 3188   4.172   5.875   7.002
  763SOL    HW2 3189   4.250   5.992   6.919
  764SOL     OW 3190   3.285   1.478   2.555
  764SOL    HW1 3191   3.311   1.386   2.584
  764SOL    HW2 3192   3.245   1.474   2.463
  765SOL     OW 3193   0.574   6.384   2.079
  765SOL    HW1 3194   0.527   6.335   2.152
  765SOL    HW2 3195   0.560   6.482   2.091
  766SOL     OW 3196   6.872   0.075   6.774
  766SOL    HW1 3197   6.815   0.089   6.693
  766SOL    HW2 3198   6.966   0.059   6.746
  767SOL     OW 3199   0.223   6.270   2.016
  767SOL    HW1 3200   0.257   6.305   2.103
  767SOL    HW2 3201   0.132   6.308   1.998
  768SOL     OW 3202   2.735   0.598   2.491
  768SOL    HW1 3203   2.825   0.579   2.531
  768SOL    HW2 3204   2.663   0.577   2.558
  769SOL     OW 3205   4.311   0.117   4.807
  769SOL    HW1 3206   4.388   0.063   4.841
  769SOL    HW2 3207   4.229   0.096   4.861
  770SOL     OW 3208   3.319   5.146   3.991
  770SOL    HW1 3209   3.377   5.075   4.029
  770SOL    HW2 3210   3.261   5.184   4.063
  771SOL     OW 3211   1.946   5.444   3.114
  771SOL    HW1 3212   2.032   5.411   3.154
  771SOL    HW2 3213   1.967   5.508   3.039
  772SOL     OW 3214   6.989   4.281   6.894
  772SOL    HW1 3215   6.927   4.203   6.888
  772SOL    HW2 3216   6.937   4.366   6.882
  773SOL     OW 3217   6.980   2.993   3.410
  773SOL    HW1 3218   6.985   2.938   3.493
  773SOL    HW2 3219   6.929   3.077   3.428
  774SOL     OW 3220   1.645   1.591   2.041
  774SOL    HW1 3221   1.648   1.663   1.972
  774SOL    HW2 3222   1.563   1.535   2.028
  775SOL     OW 3223   1.283   1.926   3.813
  775SOL    HW1 3224   1.340   1.858   3.767
  775SOL    HW2 3225   1.198   1.939   3.762
  776SOL     OW 3226   1.766   0.136   6.195
  776SOL    HW1 3227   1.813   0.204   6.137
  776SOL    HW2 3228   1.753   0.052   6.143
  777SOL     OW 3229   4.483   1.225   1.168
  777SOL    HW1 3230   4.503   1.259   1.076
  777SOL    HW2 3231   4.566   1.228   1.224
  778SOL     OW 3232   4.374   0.832   3.655
  778SOL    HW1 3233   4.347   0.800   3.746
  778SOL    HW2 3234   4.296   0.827   3.593
  779SOL     OW 3235   0.662   2.127   1.964
  779SOL    HW1 3236   0.676   2.033   1.996
  779SOL    HW2 3237   0.630   2.184   2.041
  780SOL     OW 3238   6.206   2.778   4.171
  780SOL    HW1 3239   6.169   2.818   4.254
  780SOL    HW2 3240   6.304   2.760   4.183
  781SOL     OW 3241   6.740   1.202   6.359
  781SOL    HW1 3242   6.663   1.144   6.386
  781SOL    HW2 3243   6.744   1.281   6.419
  782SOL     OW 3244   0.572   3.113   0.934
  782SOL    HW1 3245   0.529   3.123   1.023
  782SOL    HW2 3246   0.621   3.197   0.911
  783SOL     OW 3247   2.511   5.280   0.583
  783SOL    HW1 3248   2.457   5.361   0.559
  783SOL    HW2 3249   2.591   5.275   0.524
  784SOL     OW 3250   4.105   0.249   5.380
  784SOL    HW1 3251   4.158   0.332   5.391
  784SOL    HW2 3252   4.023   0.254   5.438
  785SOL     OW 3253   6.319   1.846   2.611
  785SOL    HW1 3254   6.325   1.752   2.578
  785SOL    HW2 3255   6.223   1.871   2.625
  786SOL     OW 3256   0.025   6.986   0.337
  786SOL    HW1 3257   0.109   6.999   0.391
  786SOL    HW2 3258   6.983   0.039   0.357
  787SOL     OW 3259   2.360   1.462   6.303
  787SOL    HW1 3260   2.324   1.546   6.345
  787SOL    HW2 3261   2.285   1.397   6.289
  788SOL     OW 3262   2.137   3.720   4.696
  788SOL    HW1 3263   2.073   3.657   4.740
  788SOL    HW2 3264   2.163   3.683   4.607
  789SOL     OW 3265   5.709   3.886   1.571
  789SOL    HW1 3266   5.756   3.964   1.529
  789SOL    HW2 3267   5.636   3.920   1.630
  790SOL     OW 3268   1.899   1.603   4.283
  790SOL    HW1 3269   1.906   1.511   4.245
  790SOL    HW2 3270   1.989   1.633   4.314
  791SOL     OW 3271   4.138   0.840   4.103
  791SOL    HW1 3272   4.055   0.847   4.048
  791SOL    HW2 3273   4.158   0.928   4.145
  792SOL     OW 3274   6.260   0.488   1.992
  792SOL    HW1 3275   6.241   0.390   1.996
  792SOL    HW2 3276   6.251   0.528   2.083
  793SOL     OW 3277   5.327   6.743   1.128
  793SOL    HW1 3278   5.409   6.776   1.082
  793SOL    HW2 3279   5.295   6.659   1.084
  794SOL     OW 3280   2.568   5.011   5.630
  794SOL    HW1 3281   2.482   5.014   5.681
  794SOL    HW2 3282   2.575   4.925   5.580
  795SOL     OW 3283   3.805   5.231   5.966
  795SOL    HW1 3284   3.804   5.287   5.883
  795SOL    HW2 3285   3.744   5.152   5.953
  796SOL     OW 3286   0.115   2.157   5.405
  796SOL    HW1 3287   0.149   2.065   5.388
  796SOL    HW2 3288   0.122   2.178   5.502
  797SOL     OW 3289   5.608   2.205   3.510
  797SOL    HW1 3290   5.651   2.173   3.426
  797SOL    HW2 3291   5.522   2.251   3.488
  798SOL     OW 3292   4.902   0.263   0.613
  798SOL    HW1 3293   4.972   0.218   0.558
  798SOL    HW2 3294   4.876   0.350   0.571
  799SOL     OW 3295   6.311   1.965   3.312
  799SOL    HW1 3296   6.223   1.919   3.296
  799SOL    HW2 3297   6.334   2.022   3.233
  800SOL     OW 3298   5.182   0.776   2.416
  800SOL    HW1 3299   5.119   0.708   2.452
  800SOL    HW2 3300   5.216   0.833   2.491
  801SOL     OW 3301   1.364   2.375   3.736
  801SOL    HW1 3302   1.409   2.287   3.747
  801SOL    HW2 3303   1.394   2.418   3.651
  802SOL     OW 3304   5.539   2.105   7.019
  802SOL    HW1 3305   5.502   2.012   0.006
  802SOL    HW2 3306   5.570   2.136   0.087
  803SOL     OW 3307   5.939   5.737   3.963
  803SOL    HW1 3308   5.881   5.671   4.010
  803SOL    HW2 3309   5.934   5.825   4.010
  804SOL     OW 3310   0.096   6.644   0.483
  804SOL    HW1 3311   0.046   6.727   0.504
  804SOL    HW2 3312   0.092   6.627   0.384
  805SOL     OW 3313   3.800   2.429   5.984
  805SOL    HW1 3314   3.870   2.497   6.007
  805SOL    HW2 3315   3.731   2.470   5.925
  806SOL     OW 3316   4.549   1.479   6.473
  806SOL    HW1 3317   4.618   1.427   6.422
  806SOL    HW2 3318   4.582   1.497   6.565
  807SOL     OW 3319   0.949   0.792   3.535
  807SOL    HW1 3320   1.010   0.768   3.611
  807SOL    HW2 3321   0.902   0.710   3.503
  808SOL     OW 3322   5.421   2.648   5.809
  808SOL    HW1 3323   5.393   2.744   5.799
  808SOL    HW2 3324   5.520   2.642   5.816
  809SOL     OW 3325   1.340   4.856   1.330
  809SOL    HW1 3326   1.278   4.802   1.387
  809SOL    HW2 3327   1.285   4.914   1.268
  810SOL     OW 3328   4.653   3.621   0.785
  810SOL    HW1 3329   4.568   3.581   0.750
  810SOL    HW2 3330   4.632   3.676   0.866
  811SOL     OW 3331   4.905   5.468   3.228
  811SOL    HW1 3332   4.941   5.529   3.299
  811SOL    HW2 3333   4.948   5.489   3.140
  812SOL     OW 3334   0.150   0.451   1.382
  812SOL    HW1 3335   0.163   0.529   1.321
  812SOL    HW2 3336   0.190   0.369   1.341
  813SOL     OW 3337   4.263   6.071   3.415
  813SOL    HW1 3338   4.296   5.977   3.404
  813SOL    HW2 3339   4.166   6.075   3.391
  814SOL     OW 3340   5.682   6.662   2.169
  814SOL    HW1 3341   5.597   6.639   2.122
  814SOL    HW2 3342   5.663   6.724   2.245
  815SOL     OW 3343   6.309   2.689   1.348
  815SOL    HW1 3344   6.328   2.765   1.286
  815SOL    HW2 3345   6.218   2.701   1.389
  816SOL     OW 3346   6.933   6.817   0.564
  816SOL    HW1 3347   6.970   6.910   0.569
  816SOL    HW2 3348   6.838   6.820   0.532
  817SOL     OW 3349   1.563   3.707   1.841
  817SOL    HW1 3350   1.607   3.695   1.930
  817SOL    HW2 3351   1.602   3.787   1.795
  818SOL     OW 3352   5.996   2.279   0.721
  818SOL    HW1 3353   6.000   2.185   0.753
  818SOL    HW2 3354   6.084   2.305   0.681
  819SOL     OW 3355   6.600   2.079   3.925
  819SOL    HW1 3356   6.650   2.149   3.873
  819SOL    HW2 3357   6.508   2.070   3.887
  820SOL     OW 3358   0.917   2.791   4.364
  820SOL    HW1 3359   0.903   2.713   4.304
  820SOL    HW2 3360   1.008   2.830   4.348
  821SOL     OW 3361   1.720   4.031   0.620
  821SOL    HW1 3362   1.676   4.115   0.653
  821SOL    HW2 3363   1.681   3.952   0.668
  822SOL     OW 3364   0.511   3.999   5.022
  822SOL    HW1 3365   0.453   3.978   4.944
  822SOL    HW2 3366   0.603   3.964   5.006
  823SOL     OW 3367   5.349   3.816   6.017
  823SOL    HW1 3368   5.413   3.891   5.999
  823SOL    HW2 3369   5.378   3.766   6.099
  824SOL     OW 3370   4.544   2.035   5.256
  824SOL    HW1 3371   4.602   2.050   5.175
  824SOL    HW2 3372   4.561   2.108   5.323
  825SOL     OW 3373   2.137   3.196   1.912
  825SOL    HW1 3374   2.102   3.211   1.820
  825SOL    HW2 3375   2.195   3.272   1.939
  826SOL     OW 3376   5.605   3.411   7.018
  826SOL    HW1 3377   5.697   3.415   6.978
  826SOL    HW2 3378   5.566   3.321   6.999
  827SOL     OW 3379   3.358   5.462   6.885
  827SOL    HW1 3380   3.436   5.500   6.835
  827SOL    HW2 3381   3.390   5.427   6.973
  828SOL     OW 3382   6.068   0.770   5.372
  828SOL    HW1 3383   6.105   0.722   5.452
  828SOL    HW2 3384   6.083   0.868   5.382
  829SOL     OW 3385   3.078   3.101   4.200
  829SOL    HW1 3386   3.146   3.170   4.178
  829SOL    HW2 3387   2.986   3.138   4.183
  830SOL     OW 3388   4.596   4.251   5.430
  830SOL    HW1 3389   4.505   4.211   5.426
  830SOL    HW2 3390   4.623   4.262   5.526
  831SOL     OW 3391   6.182   0.475   4.893
  831SOL    HW1 3392   6.200   0.558   4.944
  831SOL    HW2 3393   6.233   0.477   4.807
  832SOL     OW 3394   1.866   1.577   6.936
  832SOL    HW1 3395   1.855   1.504   6.868
  832SOL    HW2 3396   1.834   1.664   6.897
  833SOL     OW 3397   6.762   6.415   5.976
  833SOL    HW1 3398   6.725   6.404   5.884
  833SOL    HW2 3399   6.710   6.485   6.025
  834SOL     OW 3400   3.258   3.300   4.154
  834SOL    HW1 3401   3.204   3.383   4.143
  834SOL    HW2 3402   3.337   3.304   4.093
  835SOL     OW 3403   3.459   6.110   3.683
  835SOL    HW1 3404   3.536   6.065   3.729
  835SOL    HW2 3405   3.474   6.106   3.584
  836SOL     OW 3406   3.595   0.117   0.114
  836SOL    HW1 3407   3.542   0.107   0.198
  836SOL    HW2 3408   3.605   0.028   0.070
  837SOL     OW 3409   5.536   0.038   6.736
  837SOL    HW1 3410   5.460   0.059   6.675
  837SOL    HW2 3411   5.560   6.962   6.728
  838SOL     OW 3412   1.333   6.313   4.315
  838SOL    HW1 3413   1.323   6.291   4.412
  838SOL    HW2 3414   1.370   6.233   4.267
  839SOL     OW 3415   2.706   1.408   3.851
  839SOL    HW1 3416   2.612   1.435   3.876
  839SOL    HW2 3417   2.770   1.445   3.918
  840SOL     OW 3418   0.924   0.979   6.647
  840SOL    HW1 3419   0.889   0.995   6.554
  840SOL    HW2 3420   0.933   0.881   6.662
  841SOL     OW 3421   6.751   3.632   0.057
  841SOL    HW1 3422   6.729   3.569   0.132
  841SOL    HW2 3423   6.692   3.612   7.000
  842SOL     OW 3424   3.777   5.377   3.285
  842SOL    HW1 3425   3.837   5.386   3.364
  842SOL    HW2 3426   3.712   5.452   3.284
  843SOL     OW 3427   6.150   2.319   1.770
  843SOL    HW1 3428   6.199   2.372   1.702
  843SOL    HW2 3429   6.201   2.236   1.792
  844SOL     OW 3430   5.224   5.998   0.296
  844SOL    HW1 3431   5.139   6.015   0.346
  844SOL    HW2 3432   5.231   6.064   0.221
  845SOL     OW 3433   6.699   3.694   4.865
  845SOL    HW1 3434   6.715   3.781   4.818
  845SOL    HW2 3435   6.604   3.667   4.852
  846SOL     OW 3436   5.748   1.033   6.990
  846SOL    HW1 3437   5.803   1.079   0.038
  846SOL    HW2 3438   5.664   0.999   0.009
  847SOL     OW 3439   6.479   3.393   0.839
  847SOL    HW1 3440   6.407   3.324   0.833
  847SOL    HW2 3441   6.568   3.349   0.838
  848SOL     OW 3442   6.324   0.094   5.775
  848SOL    HW1 3443   6.401   0.088   5.840
  848SOL    HW2 3444   6.358   0.079   5.682
  849SOL     OW 3445   0.271   5.646   4.920
  849SOL    HW1 3446   0.177   5.678   4.905
  849SOL    HW2 3447   0.330   5.725   4.937
  850SOL     OW 3448   4.354   1.398   3.593
  850SOL    HW1 3449   4.370   1.487   3.550
  850SOL    HW2 3450   4.441   1.360   3.624
  851SOL     OW 3451   0.251   1.416   0.280
  851SOL    HW1 3452   0.324   1.468   0.324
  851SOL    HW2 3453   0.179   1.396   0.346
  852SOL     OW 3454   2.398   3.147   6.614
  852SOL    HW1 3455   2.375   3.132   6.710
  852SOL    HW2 3456   2.350   3.080   6.558
  853SOL     OW 3457   0.920   2.614   2.097
  853SOL    HW1 3458   0.975   2.532   2.084
  853SOL    HW2 3459   0.934   2.677   2.021
  854SOL     OW 3460   5.418   5.729   2.651
  854SOL    HW1 3461   5.479   5.744   2.728
  854SOL    HW2 3462   5.417   5.631   2.628
  855SOL     OW 3463   6.143   0.087   1.615
  855SOL    HW1 3464   6.168   7.020   1.656
  855SOL    HW2 3465   6.045   0.089   1.597
  856SOL     OW 3466   1.980   6.340   5.255
  856SOL    HW1 3467   1.983   6.343   5.355
  856SOL    HW2 3468   2.055   6.395   5.218
  857SOL     OW 3469   6.378   3.633   0.704
  857SOL    HW1 3470   6.409   3.557   0.762
  857SOL    HW2 3471   6.287   3.662   0.733
  858SOL     OW 3472   3.072   4.780   1.866
  858SOL    HW1 3473   3.079   4.810   1.961
  858SOL    HW2 3474   3.013   4.699   1.861
  859SOL     OW 3475   0.228   5.007   6.636
  859SOL    HW1 3476   0.137   5.008   6.593
  859SOL    HW2 3477   0.220   5.037   6.731
  860SOL     OW 3478   3.170   4.249   0.593
  860SOL    HW1 3479   3.179   4.162   0.641
  860SOL    HW2 3480   3.261   4.283   0.569
  861SOL     OW 3481   2.671   5.685   5.479
  861SOL    HW1 3482   2.618   5.681   5.564
  861SOL    HW2 3483   2.641   5.764   5.425
  862SOL     OW 3484   5.284   4.783   4.758
  862SOL    HW1 3485   5.246   4.793   4.666
  862SOL    HW2 3486   5.303   4.687   4.776
  863SOL     OW 3487   0.317   1.378   0.951
  863SOL    HW1 3488   0.275   1.415   1.034
  863SOL    HW2 3489   0.403   1.426   0.933
  864SOL     OW 3490   5.322   4.737   2.292
  864SOL    HW1 3491   5.373   4.750   2.207
  864SOL    HW2 3492   5.239   4.683   2.273
  865SOL     OW 3493   1.799   0.120   3.841
  865SOL    HW1 3494   1.759   0.135   3.931
  865SOL    HW2 3495   1.726   0.100   3.775
  866SOL     OW 3496   3.417   2.054   1.833
  866SOL    HW1 3497   3.446   2.095   1.920
  866SOL    HW2 3498   3.486   2.073   1.763
  867SOL     OW 3499   2.790   2.851   6.613
  867SOL    HW1 3500   2.732   2.776   6.644
  867SOL    HW2 3501   2.806   2.843   6.514
  868SOL     OW 3502   6.029   0.560   3.064
  868SOL    HW1 3503   6.074   0.509   2.991
  868SOL    HW2 3504   6.087   0.636   3.092
  869SOL     OW 3505   5.704   6.142   1.714
  869SOL    HW1 3506   5.658   6.231   1.709
  869SOL    HW2 3507   5.745   6.130   1.804
  870SOL     OW 3508   6.841   2.664   1.858
  870SOL    HW1 3509   6.914   2.605   1.822
  870SOL    HW2 3510   6.774   2.681   1.785
  871SOL     OW 3511   5.598   2.685   1.882
  871SOL    HW1 3512   5.594   2.733   1.970
  871SOL    HW2 3513   5.635   2.593   1.897
  872SOL     OW 3514   6.484   2.672   4.162
  872SOL    HW1 3515   6.517   2.729   4.087
  872SOL    HW2 3516   6.426   2.600   4.124
  873SOL     OW 3517   3.153   6.976   3.785
  873SOL    HW1 3518   3.112   6.975   3.694
  873SOL    HW2 3519   3.081   6.983   3.854
  874SOL     OW 3520   1.558   4.174   5.327
  874SOL    HW1 3521   1.628   4.105   5.348
  874SOL    HW2 3522   1.534   4.168   5.230
  875SOL     OW 3523   5.347   3.756   0.007
  875SOL    HW1 3524   5.394   3.840   0.033
  875SOL    HW2 3525   5.335   3.699   0.088
  876SOL     OW 3526   7.006   3.235   2.861
  876SOL    HW1 3527   6.936   3.183   2.812
  876SOL    HW2 3528   0.037   3.290   2.796
  877SOL     OW 3529   5.061   5.345   6.928
  877SOL    HW1 3530   5.118   5.417   6.888
  877SOL    HW2 3531   5.087   5.256   6.889
  878SOL     OW 3532   2.354   5.007   0.838
  878SOL    HW1 3533   2.299   4.955   0.772
  878SOL    HW2 3534   2.368   5.100   0.803
  879SOL     OW 3535   3.925   2.163   2.587
  879SOL    HW1 3536   3.998   2.154   2.519
  879SOL    HW2 3537   3.917   2.259   2.615
  880SOL     OW 3538   3.518   4.978   0.990
  880SOL    HW1 3539   3.511   4.879   0.996
  880SOL    HW2 3540   3.573   5.003   0.909
  881SOL     OW 3541   3.833   4.967   4.587
  881SOL    HW1 3542   3.921   4.960   4.634
  881SOL    HW2 3543   3.846   4.950   4.490
  882SOL     OW 3544   1.488   0.559   4.786
  882SOL    HW1 3545   1.438   0.527   4.705
  882SOL    HW2 3546   1.433   0.625   4.836
  883SOL     OW 3547   3.142   5.470   6.515
  883SOL    HW1 3548   3.093   5.401   6.463
  883SOL    HW2 3549   3.224   5.430   6.555
  884SOL     OW 3550   5.847   3.214   1.391
  884SOL    HW1 3551   5.771   3.237   1.452
  884SOL    HW2 3552   5.933   3.228   1.440
  885SOL     OW 3553   5.871   5.847   0.273
  885SOL    HW1 3554   5.812   5.924   0.301
  885SOL    HW2 3555   5.920   5.813   0.353
  886SOL     OW 3556   4.331   1.405   6.840
  886SOL    HW1 3557   4.276   1.324   6.821
  886SOL    HW2 3558   4.299   1.482   6.785
  887SOL     OW 3559   4.063   0.037   5.782
  887SOL    HW1 3560   4.087   0.009   5.689
  887SOL    HW2 3561   4.120   0.114   5.810
  888SOL     OW 3562   6.195   6.159   3.040
  888SOL    HW1 3563   6.187   6.073   2.989
  888SOL    HW2 3564   6.264   6.149   3.111
  889SOL     OW 3565   0.527   6.527   5.161
  889SOL    HW1 3566   0.533   6.539   5.260
  889SOL    HW2 3567   0.619   6.517   5.123
  890SOL     OW 3568   2.822   4.809   2.181
  890SOL    HW1 3569   2.787   4.894   2.143
  890SOL    HW2 3570   2.800   4.733   2.120
  891SOL     OW 3571   5.311   2.867   0.252
  891SOL    HW1 3572   5.234   2.808   0.227
  891SOL    HW2 3573   5.277   2.960   0.271
  892SOL     OW 3574   2.865   4.158   0.856
  892SOL    HW1 3575   2.841   4.140   0.951
  892SOL    HW2 3576   2.953   4.205   0.852
  893SOL     OW 3577   1.380   0.848   0.393
  893SOL    HW1 3578   1.417   0.939   0.407
  893SOL    HW2 3579   1.454   0.785   0.370
  894SOL     OW 3580   1.347   5.960   4.488
  894SOL    HW1 3581   1.277   5.955   4.416
  894SOL    HW2 3582   1.379   6.054   4.497
  895SOL     OW 3583   1.945   0.298   4.436
  895SOL    HW1 3584   1.981   0.222   4.490
  895SOL    HW2 3585   1.999   0.379   4.453
  896SOL     OW 3586   5.849   6.723   2.829
  896SOL    HW1 3587   5.758   6.683   2.819
  896SOL    HW2 3588   5.884   6.705   2.921
  897SOL     OW 3589   4.803   2.530   6.728
  897SOL    HW1 3590   4.722   2.472   6.713
  897SOL    HW2 3591   4.835   2.519   6.822
  898SOL     OW 3592   5.658   6.530   2.959
  898SOL    HW1 3593   5.684   6.515   2.864
  898SOL    HW2 3594   5.561   6.551   2.964
  899SOL     OW 3595   0.440   4.540   6.273
  899SOL    HW1 3596   0.439   4.622   6.329
  899SOL    HW2 3597   0.488   4.558   6.187
  900SOL     OW 3598   0.238   6.127   3.592
  900SOL    HW1 3599   0.247   6.150   3.495
  900SOL    HW2 3600   0.264   6.207   3.647
  901SOL     OW 3601   5.960   1.189   4.163
  901SOL    HW1 3602   6.056   1.187   4.134
  901SOL    HW2 3603   5.951   1.249   4.242
  902SOL     OW 3604   0.507   6.575   0.288
  902SOL    HW1 3605   0.484   6.619   0.201
  902SOL    HW2 3606   0.601   6.597   0.313
  903SOL     OW 3607   0.493   4.985   0.633
  903SOL    HW1 3608   0.460   5.050   0.701
  903SOL    HW2 3609   0.510   5.032   0.547
  904SOL     OW 3610   1.807   1.653   3.567
  904SOL    HW1 3611   1.906   1.643   3.559
  904SOL    HW2 3612   1.765   1.564   3.583
  905SOL     OW 3613   5.206   1.345   5.420
  905SOL    HW1 3614   5.108   1.360   5.426
  905SOL    HW2 3615   5.236   1.290   5.498
  906SOL     OW 3616   6.951   3.769   5.811
  906SOL    HW1 3617   6.990   3.791   5.722
  906SOL    HW2 3618   6.914   3.853   5.853
  907SOL     OW 3619   6.073   2.149   2.367
  907SOL    HW1 3620   6.120   2.223   2.416
  907SOL    HW2 3621   5.992   2.186   2.321
  908SOL     OW 3622   1.882   0.532   4.162
  908SOL    HW1 3623   1.936   0.570   4.237
  908SOL    HW2 3624   1.913   0.439   4.143
  909SOL     OW 3625   4.036   1.359   1.594
  909SOL    HW1 3626   4.027   1.260   1.603
  909SOL    HW2 3627   4.125   1.381   1.554
  910SOL     OW 3628   2.214   1.251   0.761
  910SOL    HW1 3629   2.280   1.310   0.715
  910SOL    HW2 3630   2.261   1.202   0.836
  911SOL     OW 3631   0.510   4.514   1.677
  911SOL    HW1 3632   0.467   4.567   1.750
  911SOL    HW2 3633   0.541   4.426   1.713
  912SOL     OW 3634   0.575   6.879   5.674
  912SOL    HW1 3635   0.635   6.933   5.735
  912SOL    HW2 3636   0.490   6.930   5.658
  913SOL     OW 3637   3.438   0.816   2.479
  913SOL    HW1 3638   3.435   0.798   2.380
  913SOL    HW2 3639   3.471   0.735   2.526
  914SOL     OW 3640   2.911   5.971   2.786
  914SOL    HW1 3641   2.917   6.010   2.694
  914SOL    HW2 3642   2.912   6.045   2.854
  915SOL     OW 3643   1.020   2.645   0.757
  915SOL    HW1 3644   1.013   2.547   0.738
  915SOL    HW2 3645   1.060   2.658   0.848
  916SOL     OW 3646   2.111   2.726   2.875
  916SOL    HW1 3647   2.047   2.740   2.799
  916SOL    HW2 3648   2.184   2.664   2.846
  917SOL     OW 3649   4.356   1.914   0.858
  917SOL    HW1 3650   4.259   1.940   0.866
  917SOL    HW2 3651   4.412   1.977   0.911
  918SOL     OW 3652   2.320   6.672   6.254
  918SOL    HW1 3653   2.413   6.688   6.286
  918SOL    HW2 3654   2.286   6.752   6.206
  919SOL     OW 3655   1.659   6.319   2.340
  919SOL    HW1 3656   1.630   6.260   2.415
  919SOL    HW2 3657   1.669   6.265   2.257
  920SOL     OW 3658   2.504   0.828   4.351
  920SOL    HW1 3659   2.476   0.760   4.420
  920SOL    HW2 3660   2.426   0.850   4.293
  921SOL     OW 3661   5.784   5.039   4.170
  921SOL    HW1 3662   5.874   5.027   4.126
  921SOL    HW2 3663   5.795   5.041   4.269
  922SOL     OW 3664   3.148   3.294   0.220
  922SOL    HW1 3665   3.188   3.370   0.170
  922SOL    HW2 3666   3.129   3.218   0.157
  923SOL     OW 3667   3.294   7.018   6.485
  923SOL    HW1 3668   3.282   0.005   6.386
  923SOL    HW2 3669   3.285   0.087   6.527
  924SOL     OW 3670   5.674   3.415   2.554
  924SOL    HW1 3671   5.701   3.475   2.479
  924SOL    HW2 3672   5.587   3.371   2.532
  925SOL     OW 3673   0.252   1.745   4.064
  925SOL    HW1 3674   0.346   1.715   4.051
  925SOL    HW2 3675   0.211   1.695   4.141
  926SOL     OW 3676   5.406   5.810   0.811
  926SOL    HW1 3677   5.389   5.896   0.859
  926SOL    HW2 3678   5.451   5.746   0.874
  927SOL     OW 3679   3.841   4.942   4.327
  927SOL    HW1 3680   3.857   5.041   4.325
  927SOL    HW2 3681   3.742   4.925   4.330
  928SOL     OW 3682   2.372   1.173   1.441
  928SOL    HW1 3683   2.440   1.247   1.449
  928SOL    HW2 3684   2.419   1.086   1.430
  929SOL     OW 3685   6.941   2.676   3.155
  929SOL    HW1 3686   6.953   2.578   3.139
  929SOL    HW2 3687   7.008   2.727   3.102
  930SOL     OW 3688   4.751   5.221   4.367
  930SOL    HW1 3689   4.840   5.258   4.341
  930SOL    HW2 3690   4.751   5.122   4.358
  931SOL     OW 3691   1.226   2.346   2.877
  931SOL    HW1 3692   1.240   2.276   2.947
  931SOL    HW2 3693   1.172   2.421   2.915
  932SOL     OW 3694   4.765   6.717   0.846
  932SOL    HW1 3695   4.774   6.772   0.929
  932SOL    HW2 3696   4.686   6.656   0.855
  933SOL     OW 3697   1.511   6.146   3.214
  933SOL    HW1 3698   1.607   6.128   3.192
  933SOL    HW2 3699   1.502   6.161   3.313
  934SOL     OW 3700   3.163   1.359   5.415
  934SOL    HW1 3701   3.183   1.291   5.344
  934SOL    HW2 3702   3.194   1.325   5.504
  935SOL     OW 3703   3.728   3.475   5.944
  935SOL    HW1 3704   3.663   3.429   6.004
  935SOL    HW2 3705   3.684   3.555   5.902
  936SOL     OW 3706   0.879   0.825   1.036
  936SOL    HW1 3707   0.923   0.815   0.947
  936SOL    HW2 3708   0.947   0.856   1.103
  937SOL     OW 3709   4.334   1.826   4.674
  937SOL    HW1 3710   4.426   1.825   4.634
  937SOL    HW2 3711   4.328   1.759   4.747
  938SOL     OW 3712   0.725   3.059   6.756
  938SOL    HW1 3713   0.799   3.037   6.693
  938SOL    HW2 3714   0.657   2.985   6.756
  939SOL     OW 3715   5.666   1.430   5.552
  939SOL    HW1 3716   5.604   1.380   5.492
  939SOL    HW2 3717   5.725   1.365   5.600
  940SOL     OW 3718   6.671   1.552   3.658
  940SOL    HW1 3719   6.758   1.547   3.609
  940SOL    HW2 3720   6.651   1.647   3.681
  941SOL     OW 3721   5.247   1.603   4.503
  941SOL    HW1 3722   5.326   1.597   4.442
  941SOL    HW2 3723   5.272   1.570   4.594
  942SOL     OW 3724   5.615   6.548   5.620
  942SOL    HW1 3725   5.525   6.512   5.646
  942SOL    HW2 3726   5.675   6.545   5.700
  943SOL     OW 3727   5.581   1.880   1.344
  943SOL    HW1 3728   5.498   1.900   1.292
  943SOL    HW2 3729   5.555   1.832   1.429
  944SOL     OW 3730   5.268   4.004   3.841
  944SOL    HW1 3731   5.330   4.061   3.787
  944SOL    HW2 3732   5.282   3.908   3.819
  945SOL     OW 3733   5.346   4.294   4.477
  945SOL    HW1 3734   5.356   4.243   4.392
  945SOL    HW2 3735   5.314   4.387   4.457
  946SOL     OW 3736   5.941   2.617   5.714
  946SOL    HW1 3737   5.892   2.654   5.635
  946SOL    HW2 3738   5.881   2.614   5.793
  947SOL     OW 3739   2.301   2.709   5.832
  947SOL    HW1 3740   2.292   2.686   5.929
  947SOL    HW2 3741   2.355   2.793   5.823
  948SOL     OW 3742   4.026   1.783   0.316
  948SOL    HW1 3743   4.048   1.865   0.263
  948SOL    HW2 3744   4.074   1.787   0.404
  949SOL     OW 3745   6.464   5.667   6.291
  949SOL    HW1 3746   6.446   5.614   6.373
  949SOL    HW2 3747   6.425   5.759   6.301
  950SOL     OW 3748   4.598   5.338   1.186
  950SOL    HW1 3749   4.635   5.276   1.255
  950SOL    HW2 3750   4.559   5.418   1.230
  951SOL     OW 3751   1.185   1.162   1.997
  951SOL    HW1 3752   1.161   1.099   2.070
  951SOL    HW2 3753   1.190   1.255   2.033
  952SOL     OW 3754   5.678   0.783   3.220
  952SOL    HW1 3755   5.760   0.752   3.269
  952SOL    HW2 3756   5.596   0.752   3.269
  953SOL     OW 3757   4.395   6.345   6.403
  953SOL    HW1 3758   4.407   6.315   6.498
  953SOL    HW2 3759   4.462   6.416   6.382
  954SOL     OW 3760   6.556   0.399   1.191
  954SOL    HW1 3761   6.508   0.475   1.235
  954SOL    HW2 3762   6.552   0.410   1.092
  955SOL     OW 3763   0.677   6.115   2.465
  955SOL    HW1 3764   0.711   6.206   2.445
  955SOL    HW2 3765   0.641   6.112   2.558
  956SOL     OW 3766   1.847   2.211   1.045
  956SOL    HW1 3767   1.913   2.165   0.985
  956SOL    HW2 3768   1.758   2.168   1.036
  957SOL     OW 3769   1.701   5.370   4.348
  957SOL    HW1 3770   1.623   5.380   4.411
  957SOL    HW2 3771   1.751   5.287   4.371
  958SOL     OW 3772   4.690   2.494   1.445
  958SOL    HW1 3773   4.603   2.478   1.491
  958SOL    HW2 3774   4.764   2.458   1.501
  959SOL     OW 3775   2.493   4.810   3.094
  959SOL    HW1 3776   2.440   4.865   3.158
  959SOL    HW2 3777   2.455   4.718   3.089
  960SOL     OW 3778   1.720   5.717   4.620
  960SOL    HW1 3779   1.778   5.671   4.687
  960SOL    HW2 3780   1.740   5.815   4.620
  961SOL     OW 3781   4.332   6.538   1.865
  961SOL    HW1 3782   4.248   6.539   1.919
  961SOL    HW2 3783   4.410   6.525   1.927
  962SOL     OW 3784   1.718   0.384   3.529
  962SOL    HW1 3785   1.703   0.469   3.580
  962SOL    HW2 3786   1.815   0.374   3.509
  963SOL     OW 3787   6.835   0.438   1.149
  963SOL    HW1 3788   6.745   0.395   1.153
  963SOL    HW2 3789   6.893   0.401   1.221
  964SOL     OW 3790   5.372   3.579   1.154
  964SOL    HW1 3791   5.273   3.589   1.142
  964SOL    HW2 3792   5.420   3.642   1.092
  965SOL     OW 3793   6.893   2.378   0.445
  965SOL    HW1 3794   6.991   2.360   0.434
  965SOL    HW2 3795   6.858   2.423   0.364
  966SOL     OW 3796   6.634   1.975   2.369
  966SOL    HW1 3797   6.556   1.954   2.310
  966SOL    HW2 3798   6.712   2.001   2.313
  967SOL     OW 3799   1.425   5.645   1.276
  967SOL    HW1 3800   1.465   5.650   1.185
  967SOL    HW2 3801   1.331   5.679   1.274
  968SOL     OW 3802   5.089   2.669   2.455
  968SOL    HW1 3803   5.135   2.640   2.539
  968SOL    HW2 3804   5.071   2.590   2.397
  969SOL     OW 3805   4.619   6.111   5.825
  969SOL    HW1 3806   4.553   6.183   5.806
  969SOL    HW2 3807   4.712   6.144   5.806
  970SOL     OW 3808   4.397   2.265   5.144
  970SOL    HW1 3809   4.310   2.305   5.115
  970SOL    HW2 3810   4.401   2.170   5.112
  971SOL     OW 3811   6.661   1.982   1.699
  971SOL    HW1 3812   6.627   2.041   1.625
  971SOL    HW2 3813   6.616   1.893   1.693
  972SOL     OW 3814   6.607   5.531   0.580
  972SOL    HW1 3815   6.600   5.630   0.582
  972SOL    HW2 3816   6.592   5.499   0.486
  973SOL     OW 3817   6.278   4.702   5.789
  973SOL    HW1 3818   6.268   4.606   5.814
  973SOL    HW2 3819   6.321   4.709   5.699
  974SOL     OW 3820   2.657   1.007   3.600
  974SOL    HW1 3821   2.728   0.939   3.613
  974SOL    HW2 3822   2.639   1.054   3.687
  975SOL     OW 3823   3.212   6.051   6.141
  975SOL    HW1 3824   3.263   5.967   6.125
  975SOL    HW2 3825   3.124   6.046   6.093
  976SOL     OW 3826   6.852   3.232   3.427
  976SOL    HW1 3827   6.770   3.258   3.479
  976SOL    HW2 3828   6.839   3.258   3.331
  977SOL     OW 3829   1.461   1.221   3.884
  977SOL    HW1 3830   1.537   1.180   3.935
  977SOL    HW2 3831   1.397   1.264   3.948
  978SOL     OW 3832   5.238   4.044   4.660
  978SOL    HW1 3833   5.227   4.124   4.720
  978SOL    HW2 3834   5.332   4.010   4.667
  979SOL     OW 3835   6.081   1.243   2.963
  979SOL    HW1 3836   6.083   1.150   2.925
  979SOL    HW2 3837   6.072   1.238   3.063
  980SOL     OW 3838   5.337   2.310   4.344
  980SOL    HW1 3839   5.356   2.234   4.407
  980SOL    HW2 3840   5.362   2.396   4.387
  981SOL     OW 3841   0.949   1.860   4.764
  981SOL    HW1 3842   0.878   1.799   4.801
  981SOL    HW2 3843   1.001   1.811   4.694
  982SOL     OW 3844   0.695   2.345   1.812
  982SOL    HW1 3845   0.661   2.426   1.859
  982SOL    HW2 3846   0.676   2.264   1.868
  983SOL     OW 3847   6.333   1.861   3.012
  983SOL    HW1 3848   6.375   1.772   2.991
  983SOL    HW2 3849   6.402   1.933   3.004
  984SOL     OW 3850   4.901   1.155   4.949
  984SOL    HW1 3851   4.997   1.142   4.925
  984SOL    HW2 3852   4.845   1.149   4.866
  985SOL     OW 3853   3.047   5.479   1.101
  985SOL    HW1 3854   3.037   5.574   1.071
  985SOL    HW2 3855   2.959   5.433   1.093
  986SOL     OW 3856   4.568   4.815   6.417
  986SOL    HW1 3857   4.503   4.770   6.478
  986SOL    HW2 3858   4.564   4.772   6.326
  987SOL     OW 3859   3.236   6.466   2.053
  987SOL    HW1 3860   3.207   6.457   1.958
  987SOL    HW2 3861   3.186   6.540   2.097
  988SOL     OW 3862   3.953   3.077   0.609
  988SOL    HW1 3863   3.976   3.160   0.660
  988SOL    HW2 3864   4.018   3.065   0.533
  989SOL     OW 3865   0.444   0.197   5.574
  989SOL    HW1 3866   0.537   0.185   5.541
  989SOL    HW2 3867   0.445   0.260   5.653
  990SOL     OW 3868   4.501   0.512   4.043
  990SOL    HW1 3869   4.524   0.558   4.128
  990SOL    HW2 3870   4.570   0.443   4.023
  991SOL     OW 3871   0.637   1.926   4.625
  991SOL    HW1 3872   0.699   1.994   4.664
  991SOL    HW2 3873   0.594   1.874   4.699
  992SOL     OW 3874   0.547   3.263   0.164
  992SOL    HW1 3875   0.616   3.275   0.093
  992SOL    HW2 3876   0.462   3.231   0.123
  993SOL     OW 3877   2.913   4.814   2.966
  993SOL    HW1 3878   2.970   4.812   2.884
  993SOL    HW2 3879   2.968   4.789   3.046
  994SOL     OW 3880   3.325   2.942   2.660
  994SOL    HW1 3881   3.304   2.848   2.685
  994SOL    HW2 3882   3.364   2.944   2.568
  995SOL     OW 3883   1.536   2.646   5.841
  995SOL    HW1 3884   1.610   2.648   5.773
  995SOL    HW2 3885   1.576   2.639   5.932
  996SOL     OW 3886   2.106   3.801   2.645
  996SOL    HW1 3887   2.131   3.859   2.567
  996SOL    HW2 3888   2.091   3.707   2.613
  997SOL     OW 3889   0.768   0.862   1.391
  997SOL    HW1 3890   0.829   0.935   1.422
  997SOL    HW2 3891   0.791   0.776   1.437
  998SOL     OW 3892   4.488   0.168   2.177
  998SOL    HW1 3893   4.531   0.109   2.245
  998SOL    HW2 3894   4.551   0.184   2.101
  999SOL     OW 3895   6.745   5.308   1.335
  999SOL    HW1 3896   6.798   5.232   1.296
  999SOL    HW2 3897   6.696   5.354   1.261
 1000SOL     OW 3898   2.471   2.538   4.094
 1000SOL    HW1 3899   2.454   2.555   3.997
 1000SOL    HW2 3900   2.402   2.476   4.130
 1001SOL     OW 3901   4.895   6.642   6.346
 1001SOL    HW1 3902   4.895   6.737   6.315
 1001SOL    HW2 3903   4.926   6.582   6.272
 1002SOL     OW 3904   5.815   1.498   0.164
 1002SOL    HW1 3905   5.782   1.434   0.234
 1002SOL    HW2 3906   5.884   1.559   0.205
 1003SOL     OW 3907   2.824   6.094   2.509
 1003SOL    HW1 3908   2.731   6.120   2.484
 1003SOL    HW2 3909   2.881   6.176   2.513
 1004SOL     OW 3910   0.218   0.050   6.903
 1004SOL    HW1 3911   0.138   0.045   6.963
 1004SOL    HW2 3912   0.188   0.051   6.808
 1005SOL     OW 3913   0.801   0.089   3.075
 1005SOL    HW1 3914   0.807   0.026   3.152
 1005SOL    HW2 3915   0.890   0.130   3.058
 1006SOL     OW 3916   2.465   4.805   0.991
 1006SOL    HW1 3917   2.492   4.729   0.931
 1006SOL    HW2 3918   2.429   4.880   0.936
 1007SOL     OW 3919   6.877   1.177   3.151
 1007SOL    HW1 3920   6.787   1.190   3.192
 1007SOL    HW2 3921   6.886   1.238   3.072
 1008SOL     OW 3922   1.346   3.652   3.921
 1008SOL    HW1 3923   1.283   3.729   3.927
 1008SOL    HW2 3924   1.377   3.626   4.013
 1009SOL     OW 3925   0.028   5.989   4.481
 1009SOL    HW1 3926   6.980   6.000   4.409
 1009SOL    HW2 3927   0.001   5.914   4.542
 1010SOL     OW 3928   4.320   2.103   0.377
 1010SOL    HW1 3929   4.368   2.187   0.350
 1010SOL    HW2 3930   4.363   2.065   0.459
 1011SOL     OW 3931   2.689   5.450   4.073
 1011SOL    HW1 3932   2.783   5.428   4.096
 1011SOL    HW2 3933   2.667   5.415   3.982
 1012SOL     OW 3934   6.099   5.191   0.202
 1012SOL    HW1 3935   6.151   5.271   0.230
 1012SOL    HW2 3936   6.022   5.177   0.265
 1013SOL     OW 3937   1.072   0.744   0.475
 1013SOL    HW1 3938   1.155   0.800   0.469
 1013SOL    HW2 3939   1.056   0.719   0.570
 1014SOL     OW 3940   4.344   6.335   5.522
 1014SOL    HW1 3941   4.278   6.319   5.596
 1014SOL    HW2 3942   4.357   6.433   5.509
 1015SOL     OW 3943   3.536   6.317   4.682
 1015SOL    HW1 3944   3.538   6.300   4.583
 1015SOL    HW2 3945   3.463   6.263   4.724
 1016SOL     OW 3946   3.562   2.924   1.197
 1016SOL    HW1 3947   3.607   2.879   1.274
 1016SOL    HW2 3948   3.464   2.933   1.216
 1017SOL     OW 3949   4.464   2.602   0.544
 1017SOL    HW1 3950   4.380   2.634   0.588
 1017SOL    HW2 3951   4.511   2.538   0.604
 1018SOL     OW 3952   0.878   3.266   3.834
 1018SOL    HW1 3953   0.867   3.324   3.753
 1018SOL    HW2 3954   0.956   3.204   3.820
 1019SOL     OW 3955   6.837   1.512   0.186
 1019SOL    HW1 3956   6.912   1.469   0.134
 1019SOL    HW2 3957   6.874   1.578   0.250
 1020SOL     OW 3958   3.014   0.942   0.811
 1020SOL    HW1 3959   2.927   0.946   0.860
 1020SOL    HW2 3960   3.089   0.960   0.874
 1021SOL     OW 3961   7.009   1.381   1.162
 1021SOL    HW1 3962   6.988   1.295   1.116
 1021SOL    HW2 3963   6.997   1.369   1.261
 1022SOL     OW 3964   4.452   3.163   6.067
 1022SOL    HW1 3965   4.369   3.205   6.103
 1022SOL    HW2 3966   4.439   3.064   6.062
 1023SOL     OW 3967   5.965   0.604   2.292
 1023SOL    HW1 3968   5.941   0.615   2.389
 1023SOL    HW2 3969   5.883   0.579   2.240
 1024SOL     OW 3970   6.420   1.877   4.172
 1024SOL    HW1 3971   6.379   1.852   4.085
 1024SOL    HW2 3972   6.350   1.875   4.244
 1025SOL     OW 3973   3.051   4.522   0.709
 1025SOL    HW1 3974   3.078   4.445   0.651
 1025SOL    HW2 3975   3.063   4.608   0.659
 1026SOL     OW 3976   2.019   1.806   6.664
 1026SOL    HW1 3977   2.056   1.800   6.757
 1026SOL    HW2 3978   2.091   1.835   6.601
 1027SOL     OW 3979   2.952   5.067   1.898
 1027SOL    HW1 3980   2.969   5.047   1.994
 1027SOL    HW2 3981   3.031   5.040   1.844
 1028SOL     OW 3982   1.982   5.991   1.383
 1028SOL    HW1 3983   1.896   5.981   1.431
 1028SOL    HW2 3984   1.980   5.937   1.299
 1029SOL     OW 3985   2.071   0.225   0.344
 1029SOL    HW1 3986   2.050   0.264   0.434
 1029SOL    HW2 3987   2.017   0.142   0.330
 1030SOL     OW 3988   4.055   3.649   5.000
 1030SOL    HW1 3989   4.124   3.687   4.938
 1030SOL    HW2 3990   3.974   3.708   5.000
 1031SOL     OW 3991   2.523   5.126   1.776
 1031SOL    HW1 3992   2.601   5.171   1.733
 1031SOL    HW2 3993   2.530   5.027   1.765
 1032SOL     OW 3994   1.928   1.800   4.786
 1032SOL    HW1 3995   1.907   1.869   4.717
 1032SOL    HW2 3996   2.024   1.809   4.813
 1033SOL     OW 3997   2.434   5.691   1.515
 1033SOL    HW1 3998   2.348   5.696   1.464
 1033SOL    HW2 3999   2.414   5.675   1.612
 1034SOL     OW 4000   2.401   5.550   3.814
 1034SOL    HW1 4001   2.423   5.536   3.717
 1034SOL    HW2 4002   2.448   5.631   3.847
 1035SOL     OW 4003   2.921   1.408   4.578
 1035SOL    HW1 4004   2.876   1.340   4.521
 1035SOL    HW2 4005   2.927   1.374   4.672
 1036SOL     OW 4006   4.570   2.620   0.903
 1036SOL    HW1 4007   4.556   2.537   0.848
 1036SOL    HW2 4008   4.553   2.598   1.000
 1037SOL     OW 4009   2.381   1.033   0.439
 1037SOL    HW1 4010   2.448   1.041   0.513
 1037SOL    HW2 4011   2.384   0.940   0.402
 1038SOL     OW 4012   1.717   1.094   5.667
 1038SOL    HW1 4013   1.708   1.109   5.569
 1038SOL    HW2 4014   1.629   1.114   5.712
 1039SOL     OW 4015   3.827   1.771   4.592
 1039SOL    HW1 4016   3.807   1.684   4.547
 1039SOL    HW2 4017   3.786   1.846   4.539
 1040SOL     OW 4018   5.857   3.808   2.232
 1040SOL    HW1 4019   5.830   3.902   2.252
 1040SOL    HW2 4020   5.807   3.746   2.293
 1041SOL     OW 4021   6.856   1.004   4.028
 1041SOL    HW1 4022   6.871   1.091   4.077
 1041SOL    HW2 4023   6.758   0.982   4.029
 1042SOL     OW 4024   5.456   5.294   1.058
 1042SOL    HW1 4025   5.492   5.201   1.059
 1042SOL    HW2 4026   5.381   5.301   0.992
 1043SOL     OW 4027   3.308   1.673   6.536
 1043SOL    HW1 4028   3.280   1.578   6.546
 1043SOL    HW2 4029   3.275   1.709   6.448
 1044SOL     OW 4030   3.748   3.294   2.059
 1044SOL    HW1 4031   3.659   3.278   2.101
 1044SOL    HW2 4032   3.748   3.257   1.966
 1045SOL     OW 4033   3.126   1.168   3.188
 1045SOL    HW1 4034   3.193   1.227   3.234
 1045SOL    HW2 4035   3.054   1.226   3.148
 1046SOL     OW 4036   3.455   6.839   0.866
 1046SOL    HW1 4037   3.475   6.773   0.938
 1046SOL    HW2 4038   3.539   6.862   0.818
 1047SOL     OW 4039   0.952   5.176   2.647
 1047SOL    HW1 4040   1.012   5.097   2.640
 1047SOL    HW2 4041   0.859   5.146   2.667
 1048SOL     OW 4042   5.225   4.898   4.512
 1048SOL    HW1 4043   5.317   4.928   4.485
 1048SOL    HW2 4044   5.171   4.878   4.430
 1049SOL     OW 4045   0.100   3.715   4.804
 1049SOL    HW1 4046   0.148   3.727   4.891
 1049SOL    HW2 4047   0.047   3.797   4.784
 1050SOL     OW 4048   3.885   0.338   6.276
 1050SOL    HW1 4049   3.918   0.246   6.255
 1050SOL    HW2 4050   3.785   0.341   6.272
 1051SOL     OW 4051   5.108   4.765   0.188
 1051SOL    HW1 4052   5.148   4.813   0.266
 1051SOL    HW2 4053   5.127   4.667   0.195
 1052SOL     OW 4054   3.976   0.246   5.105
 1052SOL    HW1 4055   4.010   0.214   5.193
 1052SOL    HW2 4056   3.878   0.265   5.112
 1053SOL     OW 4057   4.608   4.957   3.635
 1053SOL    HW1 4058   4.582   4.897   3.559
 1053SOL    HW2 4059   4.666   4.905   3.698
 1054SOL     OW 4060   3.249   5.148   5.560
 1054SOL    HW1 4061   3.336   5.109   5.527
 1054SOL    HW2 4062   3.176   5.081   5.545
 1055SOL     OW 4063   4.649   6.022   4.861
 1055SOL    HW1 4064   4.680   5.949   4.922
 1055SOL    HW2 4065   4.719   6.092   4.855
 1056SOL     OW 4066   1.648   6.102   5.624
 1056SOL    HW1 4067   1.700   6.044   5.562
 1056SOL    HW2 4068   1.569   6.140   5.575
 1057SOL     OW 4069   3.457   2.916   2.939
 1057SOL    HW1 4070   3.521   2.961   3.002
 1057SOL    HW2 4071   3.471   2.952   2.847
 1058SOL     OW 4072   3.410   1.308   2.325
 1058SOL    HW1 4073   3.383   1.214   2.345
 1058SOL    HW2 4074   3.330   1.368   2.331
 1059SOL     OW 4075   4.367   1.344   1.746
 1059SOL    HW1 4076   4.401   1.325   1.654
 1059SOL    HW2 4077   4.427   1.411   1.790
 1060SOL     OW 4078   0.910   2.727   5.436
 1060SOL    HW1 4079   0.962   2.812   5.430
 1060SOL    HW2 4080   0.954   2.657   5.380
 1061SOL     OW 4081   3.109   5.071   1.670
 1061SOL    HW1 4082   3.075   4.979   1.650
 1061SOL    HW2 4083   3.113   5.125   1.586
 1062SOL     OW 4084   6.244   5.815   5.689
 1062SOL    HW1 4085   6.251   5.846   5.594
 1062SOL    HW2 4086   6.336   5.801   5.726
 1063SOL     OW 4087   1.634   3.393   1.134
 1063SOL    HW1 4088   1.702   3.369   1.203
 1063SOL    HW2 4089   1.547   3.412   1.179
 1064SOL     OW 4090   0.621   3.180   2.182
 1064SOL    HW1 4091   0.700   3.121   2.168
 1064SOL    HW2 4092   0.584   3.208   2.094
 1065SOL     OW 4093   5.713   6.708   4.016
 1065SOL    HW1 4094   5.710   6.807   4.030
 1065SOL    HW2 4095   5.667   6.685   3.931
 1066SOL     OW 4096   4.749   0.488   3.381
 1066SOL    HW1 4097   4.657   0.472   3.347
 1066SOL    HW2 4098   4.755   0.581   3.419
 1067SOL     OW 4099   2.282   2.688   2.259
 1067SOL    HW1 4100   2.373   2.647   2.266
 1067SOL    HW2 4101   2.280   2.751   2.181
 1068SOL     OW 4102   0.064   3.450   2.416
 1068SOL    HW1 4103   7.013   3.410   2.359
 1068SOL    HW2 4104   0.123   3.508   2.359
 1069SOL     OW 4105   4.138   4.441   1.241
 1069SOL    HW1 4106   4.155   4.439   1.340
 1069SOL    HW2 4107   4.172   4.356   1.200
 1070SOL     OW 4108   2.174   0.726   0.437
 1070SOL    HW1 4109   2.156   0.643   0.383
 1070SOL    HW2 4110   2.087   0.769   0.461
 1071SOL     OW 4111   3.646   6.679   3.105
 1071SOL    HW1 4112   3.634   6.602   3.167
 1071SOL    HW2 4113   3.740   6.711   3.109
 1072SOL     OW 4114   2.986   6.554   2.943
 1072SOL    HW1 4115   2.887   6.565   2.950
 1072SOL    HW2 4116   3.009   6.508   2.858
 1073SOL     OW 4117   2.838   5.060   2.861
 1073SOL    HW1 4118   2.834   4.961   2.876
 1073SOL    HW2 4119   2.901   5.101   2.928
 1074SOL     OW 4120   0.965   4.925   1.985
 1074SOL    HW1 4121   0.973   5.008   2.040
 1074SOL    HW2 4122   0.869   4.899   1.977
 1075SOL     OW 4123   4.903   4.328   3.535
 1075SOL    HW1 4124   4.934   4.407   3.588
 1075SOL    HW2 4125   4.939   4.335   3.442
 1076SOL     OW 4126   0.465   4.222   4.202
 1076SOL    HW1 4127   0.558   4.260   4.201
 1076SOL    HW2 4128   0.464   4.137   4.150
 1077SOL     OW 4129   4.813   0.189   1.123
 1077SOL    HW1 4130   4.766   0.278   1.116
 1077SOL    HW2 4131   4.832   0.154   1.032
 1078SOL     OW 4132   1.819   2.044   1.443
 1078SOL    HW1 4133   1.773   1.956   1.439
 1078SOL    HW2 4134   1.760   2.115   1.403
 1079SOL     OW 4135   2.855   5.572   3.436
 1079SOL    HW1 4136   2.877   5.607   3.527
 1079SOL    HW2 4137   2.828   5.476   3.442
 1080SOL     OW 4138   2.234   5.358   3.902
 1080SOL    HW1 4139   2.287   5.439   3.877
 1080SOL    HW2 4140   2.180   5.327   3.824
 1081SOL     OW 4141   1.922   0.402   0.096
 1081SOL    HW1 4142   2.004   0.344   0.090
 1081SOL    HW2 4143   1.915   0.439   0.189
 1082SOL     OW 4144   1.469   0.197   5.849
 1082SOL    HW1 4145   1.443   0.149   5.765
 1082SOL    HW2 4146   1.421   0.157   5.927
 1083SOL     OW 4147   3.663   3.669   1.986
 1083SOL    HW1 4148   3.736   3.672   1.917
 1083SOL    HW2 4149   3.578   3.641   1.943
 1084SOL     OW 4150   5.836   4.414   0.907
 1084SOL    HW1 4151   5.866   4.493   0.853
 1084SOL    HW2 4152   5.915   4.364   0.941
 1085SOL     OW 4153   1.944   4.570   3.675
 1085SOL    HW1 4154   1.924   4.646   3.737
 1085SOL    HW2 4155   2.003   4.504   3.722
 1086SOL     OW 4156   4.614   5.132   2.639
 1086SOL    HW1 4157   4.668   5.180   2.569
 1086SOL    HW2 4158   4.517   5.151   2.624
 1087SOL     OW 4159   4.474   2.861   5.323
 1087SOL    HW1 4160   4.410   2.938   5.330
 1087SOL    HW2 4161   4.424   2.775   5.335
 1088SOL     OW 4162   4.957   4.096   3.774
 1088SOL    HW1 4163   4.921   4.033   3.842
 1088SOL    HW2 4164   4.965   4.050   3.686
 1089SOL     OW 4165   0.207   0.388   4.570
 1089SOL    HW1 4166   0.238   0.383   4.665
 1089SOL    HW2 4167   0.266   0.331   4.512
 1090SOL     OW 4168   1.682   1.363   6.395
 1090SOL    HW1 4169   1.678   1.264   6.394
 1090SOL    HW2 4170   1.770   1.393   6.431
 1091SOL     OW 4171   1.540   1.751   5.131
 1091SOL    HW1 4172   1.538   1.839   5.178
 1091SOL    HW2 4173   1.464   1.695   5.162
 1092SOL     OW 4174   2.425   3.774   1.740
 1092SOL    HW1 4175   2.419   3.866   1.778
 1092SOL    HW2 4176   2.337   3.728   1.750
 1093SOL     OW 4177   0.657   2.295   2.165
 1093SOL    HW1 4178   0.715   2.338   2.234
 1093SOL    HW2 4179   0.577   2.352   2.148
 1094SOL     OW 4180   0.388   6.962   1.656
 1094SOL    HW1 4181   0.383   6.876   1.705
 1094SOL    HW2 4182   0.464   6.960   1.591
 1095SOL     OW 4183   6.130   2.880   6.214
 1095SOL    HW1 4184   6.078   2.843   6.137
 1095SOL    HW2 4185   6.224   2.900   6.184
 1096SOL     OW 4186   3.256   4.270   1.600
 1096SOL    HW1 4187   3.213   4.194   1.648
 1096SOL    HW2 4188   3.319   4.317   1.663
 1097SOL     OW 4189   1.393   5.072   5.107
 1097SOL    HW1 4190   1.322   5.079   5.037
 1097SOL    HW2 4191   1.362   5.009   5.179
 1098SOL     OW 4192   4.909   2.149   2.002
 1098SOL    HW1 4193   4.955   2.061   2.007
 1098SOL    HW2 4194   4.821   2.144   2.051
 1099SOL     OW 4195   4.254   1.916   3.883
 1099SOL    HW1 4196   4.298   1.978   3.948
 1099SOL    HW2 4197   4.298   1.925   3.794
 1100SOL     OW 4198   0.714   0.705   6.440
 1100SOL    HW1 4199   0.703   0.606   6.449
 1100SOL    HW2 4200   0.807   0.731   6.466
 1101SOL     OW 4201   4.825   3.515   0.623
 1101SOL    HW1 4202   4.872   3.444   0.675
 1101SOL    HW2 4203   4.765   3.567   0.684
 1102SOL     OW 4204   0.509   4.099   3.754
 1102SOL    HW1 4205   0.456   4.175   3.716
 1102SOL    HW2 4206   0.453   4.016   3.753
 1103SOL     OW 4207   2.022   2.040   1.830
 1103SOL    HW1 4208   2.048   2.070   1.922
 1103SOL    HW2 4209   1.947   2.097   1.796
 1104SOL     OW 4210   3.560   4.672   6.305
 1104SOL    HW1 4211   3.567   4.615   6.223
 1104SOL    HW2 4212   3.531   4.764   6.280
 1105SOL     OW 4213   5.123   4.249   6.504
 1105SOL    HW1 4214   5.059   4.180   6.470
 1105SOL    HW2 4215   5.198   4.260   6.438
 1106SOL     OW 4216   0.292   2.776   5.297
 1106SOL    HW1 4217   0.373   2.829   5.323
 1106SOL    HW2 4218   0.227   2.774   5.372
 1107SOL     OW 4219   1.185   0.598   0.905
 1107SOL    HW1 4220   1.269   0.600   0.850
 1107SOL    HW2 4221   1.106   0.586   0.845
 1108SOL     OW 4222   1.738   0.858   5.809
 1108SOL    HW1 4223   1.724   0.950   5.772
 1108SOL    HW2 4224   1.750   0.864   5.908
 1109SOL     OW 4225   4.345   6.032   4.352
 1109SOL    HW1 4226   4.438   6.057   4.326
 1109SOL    HW2 4227   4.337   6.035   4.452
 1110SOL     OW 4228   3.094   3.872   1.955
 1110SOL    HW1 4229   3.026   3.808   1.991
 1110SOL    HW2 4230   3.182   3.855   2.000
 1111SOL     OW 4231   5.411   0.666   0.216
 1111SOL    HW1 4232   5.320   0.690   0.184
 1111SOL    HW2 4233   5.423   0.566   0.211
 1112SOL     OW 4234   6.758   0.800   2.096
 1112SOL    HW1 4235   6.725   0.772   2.005
 1112SOL    HW2 4236   6.852   0.832   2.089
 1113SOL     OW 4237   6.257   3.396   3.024
 1113SOL    HW1 4238   6.204   3.429   2.946
 1113SOL    HW2 4239   6.305   3.312   2.999
 1114SOL     OW 4240   4.824   1.268   5.706
 1114SOL    HW1 4241   4.889   1.343   5.719
 1114SOL    HW2 4242   4.872   1.188   5.671
 1115SOL     OW 4243   2.876   3.495   0.817
 1115SOL    HW1 4244   2.961   3.516   0.865
 1115SOL    HW2 4245   2.833   3.580   0.785
 1116SOL     OW 4246   4.188   6.350   4.220
 1116SOL    HW1 4247   4.227   6.410   4.290
 1116SOL    HW2 4248   4.113   6.296   4.260
 1117SOL     OW 4249   2.816   2.920   1.298
 1117SOL    HW1 4250   2.740   2.960   1.247
 1117SOL    HW2 4251   2.895   2.981   1.295
 1118SOL     OW 4252   2.082   4.327   3.388
 1118SOL    HW1 4253   2.025   4.409   3.392
 1118SOL    HW2 4254   2.110   4.309   3.294
 1119SOL     OW 4255   4.234   4.081   1.664
 1119SOL    HW1 4256   4.282   4.076   1.576
 1119SOL    HW2 4257   4.286   4.137   1.728
 1120SOL     OW 4258   4.269   6.830   5.960
 1120SOL    HW1 4259   4.263   6.928   5.941
 1120SOL    HW2 4260   4.194   6.803   6.021
 1121SOL     OW 4261   5.124   3.044   1.700
 1121SOL    HW1 4262   5.039   3.002   1.734
 1121SOL    HW2 4263   5.194   2.973   1.690
 1122SOL     OW 4264   5.068   3.420   6.367
 1122SOL    HW1 4265   5.008   3.345   6.395
 1122SOL    HW2 4266   5.108   3.462   6.449
 1123SOL     OW 4267   4.190   1.031   2.285
 1123SOL    HW1 4268   4.129   0.960   2.320
 1123SOL    HW2 4269   4.183   1.112   2.343
 1124SOL     OW 4270   6.750   4.050   4.675
 1124SOL    HW1 4271   6.728   4.093   4.763
 1124SOL    HW2 4272   6.672   4.059   4.613
 1125SOL     OW 4273   3.357   3.316   5.048
 1125SOL    HW1 4274   3.456   3.316   5.032
 1125SOL    HW2 4275   3.320   3.406   5.023
 1126SOL     OW 4276   4.664   6.650   1.570
 1126SOL    HW1 4277   4.573   6.685   1.595
 1126SOL    HW2 4278   4.733   6.694   1.626
 1127SOL     OW 4279   2.071   4.989   0.196
 1127SOL    HW1 4280   2.037   4.938   0.274
 1127SOL    HW2 4281   2.098   4.926   0.123
 1128SOL     OW 4282   3.188   1.848   4.066
 1128SOL    HW1 4283   3.161   1.933   4.022
 1128SOL    HW2 4284   3.282   1.825   4.042
 1129SOL     OW 4285   5.494   0.290   6.855
 1129SOL    HW1 4286   5.520   0.194   6.844
 1129SOL    HW2 4287   5.499   0.314   6.952
 1130SOL     OW 4288   0.941   4.079   6.776
 1130SOL    HW1 4289   1.040   4.092   6.769
 1130SOL    HW2 4290   0.897   4.168   6.785
 1131SOL     OW 4291   0.424   6.393   4.954
 1131SOL    HW1 4292   0.473   6.423   4.872
 1131SOL    HW2 4293   0.461   6.440   5.034
 1132SOL     OW 4294   4.968   6.728   5.496
 1132SOL    HW1 4295   4.913   6.666   5.440
 1132SOL    HW2 4296   5.046   6.760   5.442
 1133SOL     OW 4297   0.734   3.604   1.722
 1133SOL    HW1 4298   0.750   3.566   1.631
 1133SOL    HW2 4299   0.819   3.600   1.775
 1134SOL     OW 4300   5.123   2.472   6.222
 1134SOL    HW1 4301   5.029   2.436   6.218
 1134SOL    HW2 4302   5.137   2.535   6.146
 1135SOL     OW 4303   2.676   2.213   3.335
 1135SOL    HW1 4304   2.646   2.119   3.323
 1135SOL    HW2 4305   2.767   2.214   3.378
 1136SOL     OW 4306   3.313   5.386   3.538
 1136SOL    HW1 4307   3.404   5.368   3.500
 1136SOL    HW2 4308   3.298   5.326   3.616
 1137SOL     OW 4309   1.021   1.206   6.488
 1137SOL    HW1 4310   1.043   1.303   6.478
 1137SOL    HW2 4311   0.997   1.187   6.583
 1138SOL     OW 4312   1.492   3.773   5.415
 1138SOL    HW1 4313   1.584   3.744   5.387
 1138SOL    HW2 4314   1.495   3.803   5.511
 1139SOL     OW 4315   1.583   6.936   2.711
 1139SOL    HW1 4316   1.674   6.932   2.669
 1139SOL    HW2 4317   1.548   6.843   2.724
 1140SOL     OW 4318   3.257   1.860   3.349
 1140SOL    HW1 4319   3.189   1.908   3.293
 1140SOL    HW2 4320   3.333   1.830   3.291
 1141SOL     OW 4321   6.366   5.740   5.112
 1141SOL    HW1 4322   6.357   5.792   5.026
 1141SOL    HW2 4323   6.351   5.643   5.093
 1142SOL     OW 4324   5.246   0.339   3.964
 1142SOL    HW1 4325   5.167   0.312   4.019
 1142SOL    HW2 4326   5.249   0.439   3.957
 1143SOL     OW 4327   3.912   2.156   3.032
 1143SOL    HW1 4328   3.980   2.213   2.985
 1143SOL    HW2 4329   3.823   2.201   3.029
 1144SOL     OW 4330   0.480   4.878   4.422
 1144SOL    HW1 4331   0.510   4.867   4.517
 1144SOL    HW2 4332   0.446   4.791   4.387
 1145SOL     OW 4333   0.104   5.587   4.316
 1145SOL    HW1 4334   0.169   5.662   4.331
 1145SOL    HW2 4335   0.019   5.606   4.364
 1146SOL     OW 4336   5.756   2.475   1.631
 1146SOL    HW1 4337   5.813   2.394   1.642
 1146SOL    HW2 4338   5.803   2.555   1.668
 1147SOL     OW 4339   0.243   3.848   2.047
 1147SOL    HW1 4340   0.231   3.937   2.092
 1147SOL    HW2 4341   0.340   3.825   2.045
 1148SOL     OW 4342   4.099   6.713   6.971
 1148SOL    HW1 4343   4.179   6.740   6.918
 1148SOL    HW2 4344   4.062   6.627   6.936
 1149SOL     OW 4345   6.614   3.200   2.795
 1149SOL    HW1 4346   6.635   3.289   2.834
 1149SOL    HW2 4347   6.696   3.162   2.752
 1150SOL     OW 4348   1.826   4.643   0.543
 1150SOL    HW1 4349   1.896   4.648   0.614
 1150SOL    HW2 4350   1.752   4.707   0.565
 1151SOL     OW 4351   6.232   4.881   6.604
 1151SOL    HW1 4352   6.204   4.926   6.520
 1151SOL    HW2 4353   6.199   4.933   6.683
 1152SOL     OW 4354   1.960   0.499   4.940
 1152SOL    HW1 4355   1.895   0.545   4.879
 1152SOL    HW2 4356   1.915   0.424   4.987
 1153SOL     OW 4357   2.165   5.612   2.804
 1153SOL    HW1 4358   2.186   5.523   2.763
 1153SOL    HW2 4359   2.174   5.606   2.903
 1154SOL     OW 4360   0.560   3.906   2.243
 1154SOL    HW1 4361   0.626   3.977   2.264
 1154SOL    HW2 4362   0.506   3.884   2.324
 1155SOL     OW 4363   3.641   6.109   1.815
 1155SOL    HW1 4364   3.694   6.036   1.859
 1155SOL    HW2 4365   3.702   6.182   1.786
 1156SOL     OW 4366   2.007   0.552   4.426
 1156SOL    HW1 4367   2.093   0.570   4.378
 1156SOL    HW2 4368   1.966   0.639   4.453
 1157SOL     OW 4369   0.506   3.141   4.132
 1157SOL    HW1 4370   0.528   3.095   4.218
 1157SOL    HW2 4371   0.419   3.189   4.140
 1158SOL     OW 4372   5.586   5.068   5.471
 1158SOL    HW1 4373   5.491   5.070   5.501
 1158SOL    HW2 4374   5.617   4.973   5.463
 1159SOL     OW 4375   3.568   4.981   2.991
 1159SOL    HW1 4376   3.648   5.030   2.956
 1159SOL    HW2 4377   3.585   4.952   3.085
 1160SOL     OW 4378   4.142   3.359   2.230
 1160SOL    HW1 4379   4.150   3.336   2.327
 1160SOL    HW2 4380   4.150   3.458   2.218
 1161SOL     OW 4381   5.332   0.661   3.596
 1161SOL    HW1 4382   5.312   0.734   3.662
 1161SOL    HW2 4383   5.424   0.625   3.613
 1162SOL     OW 4384   3.451   3.971   2.102
 1162SOL    HW1 4385   3.551   3.977   2.111
 1162SOL    HW2 4386   3.421   4.036   2.031
 1163SOL     OW 4387   5.010   2.427   2.093
 1163SOL    HW1 4388   4.981   2.337   2.062
 1163SOL    HW2 4389   5.067   2.470   2.023
 1164SOL     OW 4390   5.637   2.908   3.025
 1164SOL    HW1 4391   5.645   2.857   2.939
 1164SOL    HW2 4392   5.592   2.995   3.007
 1165SOL     OW 4393   0.708   4.134   3.483
 1165SOL    HW1 4394   0.701   4.035   3.491
 1165SOL    HW2 4395   0.730   4.173   3.573
 1166SOL     OW 4396   4.374   2.592   5.887
 1166SOL    HW1 4397   4.368   2.492   5.893
 1166SOL    HW2 4398   4.286   2.632   5.911
 1167SOL     OW 4399   4.813   0.973   5.146
 1167SOL    HW1 4400   4.828   0.877   5.123
 1167SOL    HW2 4401   4.837   1.030   5.068
 1168SOL     OW 4402   6.766   0.076   3.340
 1168SOL    HW1 4403   6.721   0.106   3.424
 1168SOL    HW2 4404   6.815   7.011   3.357
 1169SOL     OW 4405   0.690   3.533   1.448
 1169SOL    HW1 4406   0.733   3.619   1.422
 1169SOL    HW2 4407   0.620   3.509   1.381
 1170SOL     OW 4408   3.293   1.016   2.207
 1170SOL    HW1 4409   3.231   1.054   2.138
 1170SOL    HW2 4410   3.241   0.997   2.291
 1171SOL     OW 4411   2.784   5.357   1.088
 1171SOL    HW1 4412   2.711   5.380   1.153
 1171SOL    HW2 4413   2.743   5.331   1.000
 1172SOL     OW 4414   2.969   3.574   4.499
 1172SOL    HW1 4415   2.944   3.635   4.425
 1172SOL    HW2 4416   3.012   3.492   4.462
 1173SOL     OW 4417   3.166   1.143   6.189
 1173SOL    HW1 4418   3.205   1.232   6.211
 1173SOL    HW2 4419   3.071   1.139   6.219
 1174SOL     OW 4420   2.796   5.840   1.024
 1174SOL    HW1 4421   2.887   5.813   0.993
 1174SOL    HW2 4422   2.796   5.936   1.051
 1175SOL     OW 4423   6.202   4.916   6.168
 1175SOL    HW1 4424   6.236   4.822   6.157
 1175SOL    HW2 4425   6.223   4.969   6.086
 1176SOL     OW 4426   5.496   4.532   1.002
 1176SOL    HW1 4427   5.497   4.444   1.051
 1176SOL    HW2 4428   5.454   4.602   1.060
 1177SOL     OW 4429   6.545   2.938   5.922
 1177SOL    HW1 4430   6.596   2.966   5.841
 1177SOL    HW2 4431   6.447   2.936   5.901
 1178SOL     OW 4432   5.803   3.676   1.439
 1178SOL    HW1 4433   5.755   3.644   1.358
 1178SOL    HW2 4434   5.754   3.754   1.478
 1179SOL     OW 4435   1.707   5.343   6.877
 1179SOL    HW1 4436   1.669   5.387   6.796
 1179SOL    HW2 4437   1.669   5.251   6.887
 1180SOL     OW 4438   1.584   2.090   4.499
 1180SOL    HW1 4439   1.562   1.996   4.473
 1180SOL    HW2 4440   1.501   2.136   4.531
 1181SOL     OW 4441   1.911   4.022   3.284
 1181SOL    HW1 4442   1.942   4.064   3.369
 1181SOL    HW2 4443   1.980   3.957   3.251
 1182SOL     OW 4444   2.503   4.411   3.954
 1182SOL    HW1 4445   2.507   4.365   3.866
 1182SOL    HW2 4446   2.537   4.505   3.944
 1183SOL     OW 4447   4.001   6.133   0.853
 1183SOL    HW1 4448   4.054   6.050   0.835
 1183SOL    HW2 4449   3.976   6.136   0.950
 1184SOL     OW 4450   3.150   2.941   5.289
 1184SOL    HW1 4451   3.056   2.914   5.311
 1184SOL    HW2 4452   3.206   2.933   5.371
 1185SOL     OW 4453   2.093   0.174   0.032
 1185SOL    HW1 4454   2.141   0.209   6.973
 1185SOL    HW2 4455   2.030   0.101   0.004
 1186SOL     OW 4456   5.193   0.385   4.579
 1186SOL    HW1 4457   5.133   0.318   4.623
 1186SOL    HW2 4458   5.268   0.409   4.641
 1187SOL     OW 4459   6.013   6.949   5.139
 1187SOL    HW1 4460   5.969   7.011   5.075
 1187SOL    HW2 4461   6.097   6.990   5.174
 1188SOL     OW 4462   1.947   6.921   5.824
 1188SOL    HW1 4463   2.011   6.973   5.881
 1188SOL    HW2 4464   1.882   6.985   5.781
 1189SOL     OW 4465   5.889   0.385   1.508
 1189SOL    HW1 4466   5.823   0.435   1.452
 1189SOL    HW2 4467   5.863   0.289   1.513
 1190SOL     OW 4468   4.381   5.154   2.428
 1190SOL    HW1 4469   4.360   5.248   2.455
 1190SOL    HW2 4470   4.296   5.100   2.427
 1191SOL     OW 4471   3.198   5.745   6.132
 1191SOL    HW1 4472   3.151   5.666   6.095
 1191SOL    HW2 4473   3.189   5.746   6.232
 1192SOL     OW 4474   5.644   5.298   3.036
 1192SOL    HW1 4475   5.629   5.199   3.045
 1192SOL    HW2 4476   5.689   5.316   2.949
 1193SOL     OW 4477   5.191   0.637   3.890
 1193SOL    HW1 4478   5.120   0.574   3.857
 1193SOL    HW2 4479   5.164   0.731   3.871
 1194SOL     OW 4480   6.394   0.569   0.670
 1194SOL    HW1 4481   6.448   0.561   0.585
 1194SOL    HW2 4482   6.393   0.481   0.717
 1195SOL     OW 4483   5.689   0.400   6.286
 1195SOL    HW1 4484   5.752   0.408   6.363
 1195SOL    HW2 4485   5.740   0.412   6.201
 1196SOL     OW 4486   0.236   5.083   2.527
 1196SOL    HW1 4487   0.262   5.059   2.620
 1196SOL    HW2 4488   0.318   5.101   2.473
 1197SOL     OW 4489   3.676   5.784   5.692
 1197SOL    HW1 4490   3.654   5.720   5.618
 1197SOL    HW2 4491   3.592   5.826   5.725
 1198SOL     OW 4492   3.164   2.161   3.598
 1198SOL    HW1 4493   3.259   2.158   3.567
 1198SOL    HW2 4494   3.143   2.078   3.650
 1199SOL     OW 4495   3.466   4.377   1.753
 1199SOL    HW1 4496   3.467   4.471   1.787
 1199SOL    HW2 4497   3.556   4.355   1.713
 1200SOL     OW 4498   4.282   4.370   6.532
 1200SOL    HW1 4499   4.272   4.280   6.490
 1200SOL    HW2 4500   4.249   4.367   6.626
 1201SOL     OW 4501   1.349   1.521   4.935
 1201SOL    HW1 4502   1.407   1.598   4.907
 1201SOL    HW2 4503   1.264   1.555   4.975
 1202SOL     OW 4504   5.871   0.083   4.976
 1202SOL    HW1 4505   5.771   0.088   4.968
 1202SOL    HW2 4506   5.911   0.166   4.937
 1203SOL     OW 4507   5.434   0.026   1.174
 1203SOL    HW1 4508   5.502   6.993   1.224
 1203SOL    HW2 4509   5.352   0.036   1.229
 1204SOL     OW 4510   3.688   0.705   0.591
 1204SOL    HW1 4511   3.657   0.697   0.496
 1204SOL    HW2 4512   3.719   0.798   0.608
 1205SOL     OW 4513   5.687   2.014   5.253
 1205SOL    HW1 4514   5.601   1.986   5.210
 1205SOL    HW2 4515   5.764   1.979   5.199
 1206SOL     OW 4516   2.181   1.720   5.116
 1206SOL    HW1 4517   2.225   1.642   5.162
 1206SOL    HW2 4518   2.153   1.693   5.024
 1207SOL     OW 4519   5.762   6.962   6.546
 1207SOL    HW1 4520   5.801   6.880   6.504
 1207SOL    HW2 4521   5.671   6.942   6.582
 1208SOL     OW 4522   3.799   3.778   3.015
 1208SOL    HW1 4523   3.813   3.798   2.918
 1208SOL    HW2 4524   3.859   3.838   3.070
 1209SOL     OW 4525   5.565   4.921   4.070
 1209SOL    HW1 4526   5.522   4.883   4.151
 1209SOL    HW2 4527   5.657   4.952   4.092
 1210SOL     OW 4528   4.325   6.876   2.386
 1210SOL    HW1 4529   4.381   6.847   2.463
 1210SOL    HW2 4530   4.336   6.813   2.310
 1211SOL     OW 4531   0.714   4.287   4.756
 1211SOL    HW1 4532   0.688   4.319   4.664
 1211SOL    HW2 4533   0.653   4.329   4.823
 1212SOL     OW 4534   1.299   4.229   4.939
 1212SOL    HW1 4535   1.295   4.130   4.927
 1212SOL    HW2 4536   1.217   4.261   4.986
 1213SOL     OW 4537   6.598   2.522   5.225
 1213SOL    HW1 4538   6.555   2.442   5.184
 1213SOL    HW2 4539   6.648   2.574   5.155
 1214SOL     OW 4540   2.133   3.673   3.656
 1214SOL    HW1 4541   2.116   3.597   3.718
 1214SOL    HW2 4542   2.173   3.638   3.571
 1215SOL     OW 4543   1.347   4.699   2.396
 1215SOL    HW1 4544   1.314   4.682   2.488
 1215SOL    HW2 4545   1.320   4.624   2.336
 1216SOL     OW 4546   1.368   0.515   1.753
 1216SOL    HW1 4547   1.366   0.544   1.657
 1216SOL    HW2 4548   1.457   0.476   1.775
 1217SOL     OW 4549   1.328   6.691   1.649
 1217SOL    HW1 4550   1.325   6.748   1.732
 1217SOL    HW2 4551   1.415   6.707   1.602
 1218SOL     OW 4552   0.403   3.647   4.461
 1218SOL    HW1 4553   0.330   3.649   4.393
 1218SOL    HW2 4554   0.467   3.572   4.439
 1219SOL     OW 4555   3.458   6.396   1.282
 1219SOL    HW1 4556   3.461   6.319   1.345
 1219SOL    HW2 4557   3.364   6.412   1.252
 1220SOL     OW 4558   5.879   3.138   3.016
 1220SOL    HW1 4559   5.937   3.122   3.096
 1220SOL    HW2 4560   5.897   3.067   2.948
 1221SOL     OW 4561   4.852   3.720   0.165
 1221SOL    HW1 4562   4.781   3.787   0.187
 1221SOL    HW2 4563   4.821   3.662   0.090
 1222SOL     OW 4564   0.140   6.812   1.268
 1222SOL    HW1 4565   0.206   6.740   1.249
 1222SOL    HW2 4566   0.056   6.771   1.305
 1223SOL     OW 4567   6.500   6.980   6.205
 1223SOL    HW1 4568   6.489   7.002   6.108
 1223SOL    HW2 4569   6.454   0.029   6.261
 1224SOL     OW 4570   4.888   5.193   1.366
 1224SOL    HW1 4571   4.890   5.291   1.385
 1224SOL    HW2 4572   4.979   5.162   1.338
 1225SOL     OW 4573   4.991   1.980   0.458
 1225SOL    HW1 4574   5.000   2.076   0.430
 1225SOL    HW2 4575   4.950   1.976   0.549
 1226SOL     OW 4576   6.407   6.068   0.842
 1226SOL    HW1 4577   6.335   6.136   0.830
 1226SOL    HW2 4578   6.495   6.109   0.818
 1227SOL     OW 4579   5.972   3.636   5.122
 1227SOL    HW1 4580   5.914   3.593   5.052
 1227SOL    HW2 4581   6.055   3.672   5.080
 1228SOL     OW 4582   4.012   3.104   2.469
 1228SOL    HW1 4583   3.964   3.053   2.540
 1228SOL    HW2 4584   4.050   3.039   2.402
 1229SOL     OW 4585   2.207   5.979   2.582
 1229SOL    HW1 4586   2.152   5.960   2.501
 1229SOL    HW2 4587   2.252   5.895   2.612
 1230SOL     OW 4588   5.115   4.887   1.464
 1230SOL    HW1 4589   5.186   4.918   1.527
 1230SOL    HW2 4590   5.057   4.820   1.510
 1231SOL     OW 4591   1.632   2.298   6.451
 1231SOL    HW1 4592   1.610   2.384   6.498
 1231SOL    HW2 4593   1.666   2.232   6.517
 1232SOL     OW 4594   3.166   0.678   5.598
 1232SOL    HW1 4595   3.179   0.721   5.508
 1232SOL    HW2 4596   3.231   0.718   5.663
 1233SOL     OW 4597   0.407   5.737   4.114
 1233SOL    HW1 4598   0.325   5.780   4.151
 1233SOL    HW2 4599   0.412   5.754   4.015
 1234SOL     OW 4600   6.800   3.010   6.787
 1234SOL    HW1 4601   6.841   2.981   6.874
 1234SOL    HW2 4602   6.703   2.987   6.787
 1235SOL     OW 4603   6.262   5.012   0.081
 1235SOL    HW1 4604   6.204   5.084   0.119
 1235SOL    HW2 4605   6.357   5.028   0.108
 1236SOL     OW 4606   2.328   1.567   1.635
 1236SOL    HW1 4607   2.409   1.544   1.582
 1236SOL    HW2 4608   2.287   1.651   1.598
 1237SOL     OW 4609   1.126   0.321   4.803
 1237SOL    HW1 4610   1.194   0.290   4.869
 1237SOL    HW2 4611   1.062   0.384   4.849
 1238SOL     OW 4612   6.478   0.526   3.952
 1238SOL    HW1 4613   6.407   0.593   3.929
 1238SOL    HW2 4614   6.495   0.530   4.051
 1239SOL     OW 4615   5.837   4.519   4.084
 1239SOL    HW1 4616   5.857   4.563   4.172
 1239SOL    HW2 4617   5.851   4.585   4.010
 1240SOL     OW 4618   5.752   4.537   3.393
 1240SOL    HW1 4619   5.798   4.462   3.346
 1240SOL    HW2 4620   5.654   4.519   3.397
 1241SOL     OW 4621   5.465   4.897   4.321
 1241SOL    HW1 4622   5.524   4.971   4.354
 1241SOL    HW2 4623   5.478   4.816   4.379
 1242SOL     OW 4624   1.322   4.600   0.104
 1242SOL    HW1 4625   1.396   4.667   0.096
 1242SOL    HW2 4626   1.242   4.633   0.053
 1243SOL     OW 4627   1.006   4.643   5.127
 1243SOL    HW1 4628   0.961   4.599   5.204
 1243SOL    HW2 4629   0.944   4.644   5.048
 1244SOL     OW 4630   5.317   6.260   4.543
 1244SOL    HW1 4631   5.278   6.257   4.451
 1244SOL    HW2 4632   5.375   6.341   4.552
 1245SOL     OW 4633   5.234   6.495   1.981
 1245SOL    HW1 4634   5.212   6.504   1.884
 1245SOL    HW2 4635   5.235   6.398   2.006
 1246SOL     OW 4636   4.426   1.517   0.613
 1246SOL    HW1 4637   4.380   1.597   0.575
 1246SOL    HW2 4638   4.521   1.515   0.581
 1247SOL     OW 4639   6.708   6.715   3.467
 1247SOL    HW1 4640   6.711   6.719   3.367
 1247SOL    HW2 4641   6.665   6.629   3.495
 1248SOL     OW 4642   1.178   6.995   4.860
 1248SOL    HW1 4643   1.223   6.912   4.828
 1248SOL    HW2 4644   1.248   0.041   4.886
 1249SOL     OW 4645   6.844   4.581   0.080
 1249SOL    HW1 4646   6.819   4.562   7.006
 1249SOL    HW2 4647   6.791   4.521   0.140
 1250SOL     OW 4648   6.534   2.910   5.102
 1250SOL    HW1 4649   6.442   2.883   5.076
 1250SOL    HW2 4650   6.540   2.918   5.201
 1251SOL     OW 4651   2.771   0.532   2.784
 1251SOL    HW1 4652   2.771   0.434   2.801
 1251SOL    HW2 4653   2.864   0.562   2.760
 1252SOL     OW 4654   1.675   5.619   0.585
 1252SOL    HW1 4655   1.758   5.597   0.635
 1252SOL    HW2 4656   1.607   5.657   0.648
 1253SOL     OW 4657   3.714   0.668   1.177
 1253SOL    HW1 4658   3.718   0.759   1.219
 1253SOL    HW2 4659   3.624   0.628   1.193
 1254SOL     OW 4660   6.638   1.794   1.986
 1254SOL    HW1 4661   6.613   1.778   1.890
 1254SOL    HW2 4662   6.625   1.710   2.038
 1255SOL     OW 4663   5.630   1.269   4.901
 1255SOL    HW1 4664   5.629   1.185   4.956
 1255SOL    HW2 4665   5.716   1.275   4.851
 1256SOL     OW 4666   0.240   6.021   4.722
 1256SOL    HW1 4667   0.319   6.072   4.689
 1256SOL    HW2 4668   0.223   5.942   4.662
 1257SOL     OW 4669   0.679   5.505   3.970
 1257SOL    HW1 4670   0.724   5.422   3.938
 1257SOL    HW2 4671   0.620   5.541   3.898
 1258SOL     OW 4672   3.152   6.307   4.274
 1258SOL    HW1 4673   3.238   6.276   4.232
 1258SOL    HW2 4674   3.077   6.248   4.245
 1259SOL     OW 4675   5.266   6.976   4.253
 1259SOL    HW1 4676   5.243   6.929   4.168
 1259SOL    HW2 4677   5.271   6.910   4.327
 1260SOL     OW 4678   1.997   0.530   1.855
 1260SOL    HW1 4679   1.905   0.569   1.861
 1260SOL    HW2 4680   2.041   0.535   1.944
 1261SOL     OW 4681   6.801   4.559   6.553
 1261SOL    HW1 4682   6.714   4.581   6.510
 1261SOL    HW2 4683   6.836   4.473   6.515
 1262SOL     OW 4684   5.652   5.187   0.613
 1262SOL    HW1 4685   5.675   5.129   0.535
 1262SOL    HW2 4686   5.625   5.130   0.691
 1263SOL     OW 4687   0.335   2.845   1.633
 1263SOL    HW1 4688   0.238   2.852   1.653
 1263SOL    HW2 4689   0.374   2.766   1.681
 1264SOL     OW 4690   0.696   3.652   3.589
 1264SOL    HW1 4691   0.717   3.644   3.686
 1264SOL    HW2 4692   0.760   3.715   3.546
 1265SOL     OW 4693   6.817   4.724   4.987
 1265SOL    HW1 4694   6.905   4.702   4.945
 1265SOL    HW2 4695   6.796   4.820   4.972
 1266SOL     OW 4696   3.015   1.732   5.311
 1266SOL    HW1 4697   3.013   1.807   5.377
 1266SOL    HW2 4698   2.996   1.646   5.358
 1267SOL     OW 4699   6.789   5.684   3.292
 1267SOL    HW1 4700   6.887   5.693   3.308
 1267SOL    HW2 4701   6.773   5.621   3.216
 1268SOL     OW 4702   5.352   2.769   6.794
 1268SOL    HW1 4703   5.421   2.775   6.866
 1268SOL    HW2 4704   5.261   2.776   6.834
 1269SOL     OW 4705   6.670   5.467   5.549
 1269SOL    HW1 4706   6.576   5.484   5.520
 1269SOL    HW2 4707   6.723   5.433   5.472
 1270SOL     OW 4708   1.775   3.736   4.672
 1270SOL    HW1 4709   1.765   3.672   4.596
 1270SOL    HW2 4710   1.764   3.830   4.640
 1271SOL     OW 4711   3.382   1.849   2.808
 1271SOL    HW1 4712   3.330   1.855   2.723
 1271SOL    HW2 4713   3.346   1.915   2.874
 1272SOL     OW 4714   0.121   5.275   1.251
 1272SOL    HW1 4715   0.144   5.250   1.345
 1272SOL    HW2 4716   0.035   5.230   1.226
 1273SOL     OW 4717   2.889   5.121   6.589
 1273SOL    HW1 4718   2.908   5.210   6.549
 1273SOL    HW2 4719   2.932   5.113   6.678
 1274SOL     OW 4720   6.793   2.845   2.616
 1274SOL    HW1 4721   6.883   2.838   2.573
 1274SOL    HW2 4722   6.753   2.753   2.623
 1275SOL     OW 4723   4.118   1.441   4.784
 1275SOL    HW1 4724   4.134   1.460   4.687
 1275SOL    HW2 4725   4.143   1.346   4.804
 1276SOL     OW 4726   0.794   0.279   2.644
 1276SOL    HW1 4727   0.708   0.277   2.696
 1276SOL    HW2 4728   0.821   0.374   2.629
 1277SOL     OW 4729   6.832   0.698   4.578
 1277SOL    HW1 4730   6.918   0.649   4.567
 1277SOL    HW2 4731   6.802   0.734   4.490
 1278SOL     OW 4732   1.942   1.768   5.283
 1278SOL    HW1 4733   1.893   1.841   5.329
 1278SOL    HW2 4734   2.002   1.806   5.213
 1279SOL     OW 4735   2.887   5.944   0.420
 1279SOL    HW1 4736   2.982   5.966   0.439
 1279SOL    HW2 4737   2.829   5.982   0.492
 1280SOL     OW 4738   2.410   0.507   3.409
 1280SOL    HW1 4739   2.350   0.560   3.348
 1280SOL    HW2 4740   2.357   0.436   3.454
 1281SOL     OW 4741   1.147   6.396   3.557
 1281SOL    HW1 4742   1.204   6.433   3.484
 1281SOL    HW2 4743   1.061   6.363   3.518
 1282SOL     OW 4744   0.708   1.290   1.058
 1282SOL    HW1 4745   0.763   1.365   1.095
 1282SOL    HW2 4746   0.643   1.258   1.127
 1283SOL     OW 4747   5.621   4.803   5.006
 1283SOL    HW1 4748   5.644   4.733   4.938
 1283SOL    HW2 4749   5.673   4.786   5.090
 1284SOL     OW 4750   3.159   2.776   1.665
 1284SOL    HW1 4751   3.075   2.821   1.634
 1284SOL    HW2 4752   3.135   2.688   1.708
 1285SOL     OW 4753   4.940   2.365   5.840
 1285SOL    HW1 4754   4.904   2.402   5.925
 1285SOL    HW2 4755   5.032   2.401   5.824
 1286SOL     OW 4756   5.538   4.015   1.770
 1286SOL    HW1 4757   5.541   3.994   1.868
 1286SOL    HW2 4758   5.528   4.113   1.757
 1287SOL     OW 4759   6.464   5.720   6.751
 1287SOL    HW1 4760   6.397   5.791   6.772
 1287SOL    HW2 4761   6.448   5.640   6.808
 1288SOL     OW 4762   0.190   3.074   0.244
 1288SOL    HW1 4763   0.225   3.094   0.335
 1288SOL    HW2 4764   0.254   3.108   0.175
 1289SOL     OW 4765   6.581   5.764   2.134
 1289SOL    HW1 4766   6.677   5.790   2.147
 1289SOL    HW2 4767   6.562   5.750   2.037
 1290SOL     OW 4768   0.885   6.828   0.276
 1290SOL    HW1 4769   0.840   6.915   0.295
 1290SOL    HW2 4770   0.942   6.837   0.194
 1291SOL     OW 4771   0.892   6.205   6.808
 1291SOL    HW1 4772   0.876   6.112   6.842
 1291SOL    HW2 4773   0.957   6.202   6.732
 1292SOL     OW 4774   0.345   4.689   1.197
 1292SOL    HW1 4775   0.259   4.730   1.226
 1292SOL    HW2 4776   0.327   4.607   1.143
 1293SOL     OW 4777   0.971   1.680   6.827
 1293SOL    HW1 4778   0.979   1.613   6.901
 1293SOL    HW2 4779   0.884   1.668   6.780
 1294SOL     OW 4780   0.444   3.165   2.383
 1294SOL    HW1 4781   0.403   3.075   2.368
 1294SOL    HW2 4782   0.516   3.181   2.316
 1295SOL     OW 4783   5.564   3.033   1.792
 1295SOL    HW1 4784   5.621   2.990   1.723
 1295SOL    HW2 4785   5.607   3.023   1.882
 1296SOL     OW 4786   3.359   2.206   6.263
 1296SOL    HW1 4787   3.333   2.154   6.344
 1296SOL    HW2 4788   3.458   2.220   6.261
 1297SOL     OW 4789   6.539   1.387   5.345
 1297SOL    HW1 4790   6.625   1.411   5.300
 1297SOL    HW2 4791   6.520   1.453   5.417
 1298SOL     OW 4792   5.818   2.680   2.499
 1298SOL    HW1 4793   5.760   2.633   2.432
 1298SOL    HW2 4794   5.782   2.771   2.517
 1299SOL     OW 4795   0.997   4.467   4.819
 1299SOL    HW1 4796   0.929   4.540   4.809
 1299SOL    HW2 4797   0.957   4.391   4.869
 1300SOL     OW 4798   2.950   3.222   1.987
 1300SOL    HW1 4799   2.988   3.305   1.947
 1300SOL    HW2 4800   2.877   3.186   1.928
 1301SOL     OW 4801   0.405   6.425   4.215
 1301SOL    HW1 4802   0.316   6.448   4.176
 1301SOL    HW2 4803   0.427   6.329   4.194
 1302SOL     OW 4804   2.655   0.091   5.062
 1302SOL    HW1 4805   2.674   7.014   5.057
 1302SOL    HW2 4806   2.706   0.139   4.990
 1303SOL     OW 4807   3.681   1.541   1.010
 1303SOL    HW1 4808   3.618   1.464   1.019
 1303SOL    HW2 4809   3.669   1.603   1.087
 1304SOL     OW 4810   1.913   0.440   6.446
 1304SOL    HW1 4811   1.963   0.354   6.458
 1304SOL    HW2 4812   1.820   0.421   6.415
 1305SOL     OW 4813   4.159   0.040   4.569
 1305SOL    HW1 4814   4.192   0.044   4.664
 1305SOL    HW2 4815   4.215   6.996   4.518
 1306SOL     OW 4816   0.283   4.144   4.394
 1306SOL    HW1 4817   0.350   4.178   4.328
 1306SOL    HW2 4818   0.269   4.046   4.379
 1307SOL     OW 4819   1.016   3.154   4.870
 1307SOL    HW1 4820   1.013   3.110   4.780
 1307SOL    HW2 4821   1.017   3.254   4.858
 1308SOL     OW 4822   4.385   5.777   4.010
 1308SOL    HW1 4823   4.343   5.784   3.920
 1308SOL    HW2 4824   4.330   5.827   4.077
 1309SOL     OW 4825   5.560   2.690   4.390
 1309SOL    HW1 4826   5.650   2.663   4.426
 1309SOL    HW2 4827   5.490   2.631   4.429
 1310SOL     OW 4828   5.920   4.178   3.881
 1310SOL    HW1 4829   5.893   4.082   3.872
 1310SOL    HW2 4830   6.020   4.184   3.884
 1311SOL     OW 4831   6.123   6.640   4.577
 1311SOL    HW1 4832   6.122   6.554   4.629
 1311SOL    HW2 4833   6.160   6.713   4.634
 1312SOL     OW 4834   0.710   0.193   6.957
 1312SOL    HW1 4835   0.655   0.237   6.887
 1312SOL    HW2 4836   0.679   0.221   0.026
 1313SOL     OW 4837   3.381   5.433   5.270
 1313SOL    HW1 4838   3.369   5.521   5.224
 1313SOL    HW2 4839   3.303   5.417   5.331
 1314SOL     OW 4840   1.331   1.810   5.598
 1314SOL    HW1 4841   1.345   1.889   5.539
 1314SOL    HW2 4842   1.391   1.816   5.677
 1315SOL     OW 4843   2.124   1.237   1.376
 1315SOL    HW1 4844   2.130   1.314   1.313
 1315SOL    HW2 4845   2.216   1.204   1.397
 1316SOL     OW 4846   2.510   0.341   3.784
 1316SOL    HW1 4847   2.558   0.301   3.706
 1316SOL    HW2 4848   2.491   0.270   3.852
 1317SOL     OW 4849   0.144   4.950   4.412
 1317SOL    HW1 4850   0.077   5.020   4.435
 1317SOL    HW2 4851   0.233   4.993   4.394
 1318SOL     OW 4852   6.714   0.311   0.244
 1318SOL    HW1 4853   6.617   0.299   0.267
 1318SOL    HW2 4854   6.721   0.356   0.155
 1319SOL     OW 4855   6.204   1.018   0.654
 1319SOL    HW1 4856   6.204   0.973   0.564
 1319SOL    HW2 4857   6.111   1.047   0.677
 1320SOL     OW 4858   6.056   4.644   6.390
 1320SOL    HW1 4859   6.034   4.630   6.293
 1320SOL    HW2 4860   5.984   4.697   6.433
 1321SOL     OW 4861   3.941   2.971   6.473
 1321SOL    HW1 4862   4.041   2.975   6.474
 1321SOL    HW2 4863   3.911   2.897   6.413
 1322SOL     OW 4864   6.243   1.376   3.588
 1322SOL    HW1 4865   6.196   1.438   3.651
 1322SOL    HW2 4866   6.339   1.401   3.581
 1323SOL     OW 4867   0.296   1.409   5.280
 1323SOL    HW1 4868   0.341   1.374   5.198
 1323SOL    HW2 4869   0.346   1.489   5.314
 1324SOL     OW 4870   1.480   3.033   1.488
 1324SOL    HW1 4871   1.389   3.053   1.452
 1324SOL    HW2 4872   1.495   3.088   1.570
 1325SOL     OW 4873   1.786   6.377   3.316
 1325SOL    HW1 4874   1.846   6.315   3.367
 1325SOL    HW2 4875   1.691   6.361   3.343
 1326SOL     OW 4876   5.349   2.852   4.202
 1326SOL    HW1 4877   5.374   2.813   4.291
 1326SOL    HW2 4878   5.251   2.872   4.200
 1327SOL     OW 4879   2.947   4.809   3.298
 1327SOL    HW1 4880   3.042   4.804   3.329
 1327SOL    HW2 4881   2.927   4.902   3.267
 1328SOL     OW 4882   1.761   1.706   6.693
 1328SOL    HW1 4883   1.842   1.760   6.673
 1328SOL    HW2 4884   1.681   1.766   6.695
 1329SOL     OW 4885   0.672   1.303   0.623
 1329SOL    HW1 4886   0.690   1.398   0.649
 1329SOL    HW2 4887   0.574   1.285   0.626
 1330SOL     OW 4888   6.793   0.693   1.239
 1330SOL    HW1 4889   6.787   0.606   1.190
 1330SOL    HW2 4890   6.706   0.710   1.286
 1331SOL     OW 4891   5.719   0.394   1.736
 1331SOL    HW1 4892   5.643   0.458   1.727
 1331SOL    HW2 4893   5.805   0.441   1.712
 1332SOL     OW 4894   4.346   1.674   1.390
 1332SOL    HW1 4895   4.394   1.659   1.476
 1332SOL    HW2 4896   4.406   1.649   1.314
 1333SOL     OW 4897   3.843   3.820   4.929
 1333SOL    HW1 4898   3.842   3.899   4.867
 1333SOL    HW2 4899   3.786   3.747   4.891
 1334SOL     OW 4900   1.255   3.687   5.346
 1334SOL    HW1 4901   1.338   3.722   5.388
 1334SOL    HW2 4902   1.192   3.762   5.328
 1335SOL     OW 4903   1.854   5.806   3.094
 1335SOL    HW1 4904   1.933   5.775   3.147
 1335SOL    HW2 4905   1.868   5.783   2.997
 1336SOL     OW 4906   0.913   1.400   5.785
 1336SOL    HW1 4907   0.999   1.403   5.734
 1336SOL    HW2 4908   0.845   1.455   5.737
 1337SOL     OW 4909   1.872   2.333   6.285
 1337SOL    HW1 4910   1.783   2.353   6.327
 1337SOL    HW2 4911   1.871   2.241   6.246
 1338SOL     OW 4912   4.081   4.644   6.667
 1338SOL    HW1 4913   4.165   4.696   6.651
 1338SOL    HW2 4914   4.027   4.641   6.583
 1339SOL     OW 4915   0.142   4.137   6.060
 1339SOL    HW1 4916   0.238   4.151   6.083
 1339SOL    HW2 4917   0.097   4.225   6.049
 1340SOL     OW 4918   1.301   1.925   6.785
 1340SOL    HW1 4919   1.280   2.013   6.743
 1340SOL    HW2 4920   1.270   1.851   6.726
 1341SOL     OW 4921   3.190   1.275   3.968
 1341SOL    HW1 4922   3.165   1.193   3.916
 1341SOL    HW2 4923   3.163   1.263   4.063
 1342SOL     OW 4924   0.967   5.865   6.320
 1342SOL    HW1 4925   0.895   5.929   6.347
 1342SOL    HW2 4926   0.969   5.855   6.221
 1343SOL     OW 4927   3.718   5.960   2.498
 1343SOL    HW1 4928   3.720   5.888   2.429
 1343SOL    HW2 4929   3.715   5.918   2.589
 1344SOL     OW 4930   6.291   1.353   2.831
 1344SOL    HW1 4931   6.214   1.290   2.844
 1344SOL    HW2 4932   6.301   1.374   2.734
 1345SOL     OW 4933   0.952   0.667   3.055
 1345SOL    HW1 4934   1.045   0.647   3.085
 1345SOL    HW2 4935   0.949   0.759   3.014
 1346SOL     OW 4936   0.050   0.269   3.889
 1346SOL    HW1 4937   0.096   0.180   3.892
 1346SOL    HW2 4938   6.979   0.257   3.853
 1347SOL     OW 4939   6.506   6.379   2.961
 1347SOL    HW1 4940   6.478   6.395   2.866
 1347SOL    HW2 4941   6.550   6.290   2.968
 1348SOL     OW 4942   5.076   4.369   3.842
 1348SOL    HW1 4943   5.156   4.315   3.870
 1348SOL    HW2 4944   4.995   4.311   3.844
 1349SOL     OW 4945   3.788   2.174   6.939
 1349SOL    HW1 4946   3.864   2.124   6.897
 1349SOL    HW2 4947   3.737   2.224   6.869
 1350SOL     OW 4948   3.086   6.201   6.885
 1350SOL    HW1 4949   3.045   6.250   6.962
 1350SOL    HW2 4950   3.181   6.230   6.875
 1351SOL     OW 4951   0.153   1.130   3.902
 1351SOL    HW1 4952   0.061   1.156   3.873
 1351SOL    HW2 4953   0.215   1.208   3.893
 1352SOL     OW 4954   0.036   1.048   2.690
 1352SOL    HW1 4955   0.135   1.063   2.692
 1352SOL    HW2 4956   0.000   1.075   2.600
 1353SOL     OW 4957   0.353   4.548   4.612
 1353SOL    HW1 4958   0.301   4.579   4.533
 1353SOL    HW2 4959   0.403   4.625   4.651
 1354SOL     OW 4960   0.382   0.640   1.450
 1354SOL    HW1 4961   0.422   0.553   1.477
 1354SOL    HW2 4962   0.336   0.630   1.361
 1355SOL     OW 4963   4.597   3.582   0.003
 1355SOL    HW1 4964   4.685   3.606   6.982
 1355SOL    HW2 4965   4.523   3.606   6.962
 1356SOL     OW 4966   3.243   3.358   2.727
 1356SOL    HW1 4967   3.293   3.362   2.640
 1356SOL    HW2 4968   3.195   3.271   2.734
 1357SOL     OW 4969   2.597   3.180   6.282
 1357SOL    HW1 4970   2.596   3.164   6.380
 1357SOL    HW2 4971   2.673   3.129   6.240
 1358SOL     OW 4972   2.424   3.435   6.559
 1358SOL    HW1 4973   2.445   3.337   6.565
 1358SOL    HW2 4974   2.332   3.447   6.522
 1359SOL     OW 4975   6.116   3.722   1.185
 1359SOL    HW1 4976   6.146   3.674   1.267
 1359SOL    HW2 4977   6.185   3.712   1.113
 1360SOL     OW 4978   3.506   3.831   3.189
 1360SOL    HW1 4979   3.414   3.848   3.154
 1360SOL    HW2 4980   3.569   3.898   3.150
 1361SOL     OW 4981   0.778   6.359   6.413
 1361SOL    HW1 4982   0.680   6.380   6.414
 1361SOL    HW2 4983   0.804   6.321   6.324
 1362SOL     OW 4984   2.815   3.462   6.243
 1362SOL    HW1 4985   2.796   3.403   6.164
 1362SOL    HW2 4986   2.812   3.408   6.327
 1363SOL     OW 4987   6.247   5.529   2.604
 1363SOL    HW1 4988   6.232   5.618   2.646
 1363SOL    HW2 4989   6.345   5.515   2.589
 1364SOL     OW 4990   6.621   3.141   1.123
 1364SOL    HW1 4991   6.638   3.048   1.155
 1364SOL    HW2 4992   6.706   3.193   1.121
 1365SOL     OW 4993   0.471   3.340   6.004
 1365SOL    HW1 4994   0.520   3.421   5.973
 1365SOL    HW2 4995   0.518   3.300   6.083
 1366SOL     OW 4996   6.559   2.574   0.513
 1366SOL    HW1 4997   6.551   2.475   0.507
 1366SOL    HW2 4998   6.470   2.616   0.495
 1367SOL     OW 4999   0.149   5.546   3.795
 1367SOL    HW1 5000   0.132   5.573   3.890
 1367SOL    HW2 5001   0.064   5.551   3.743
 1368SOL     OW 5002   6.898   0.741   3.933
 1368SOL    HW1 5003   6.867   0.691   4.014
 1368SOL    HW2 5004   6.924   0.834   3.959
 1369SOL     OW 5005   2.509   5.952   2.478
 1369SOL    HW1 5006   2.567   5.875   2.452
 1369SOL    HW2 5007   2.481   5.941   2.574
 1370SOL     OW 5008   6.607   2.323   3.496
 1370SOL    HW1 5009   6.587   2.418   3.523
 1370SOL    HW2 5010   6.567   2.306   3.406
 1371SOL     OW 5011   5.641   0.746   4.370
 1371SOL    HW1 5012   5.734   0.719   4.392
 1371SOL    HW2 5013   5.642   0.829   4.315
 1372SOL     OW 5014   6.194   2.552   0.247
 1372SOL    HW1 5015   6.271   2.489   0.243
 1372SOL    HW2 5016   6.194   2.599   0.336
 1373SOL     OW 5017   4.651   2.735   1.826
 1373SOL    HW1 5018   4.619   2.829   1.838
 1373SOL    HW2 5019   4.747   2.729   1.853
 1374SOL     OW 5020   5.157   4.125   0.064
 1374SOL    HW1 5021   5.139   4.103   0.160
 1374SOL    HW2 5022   5.136   4.221   0.047
 1375SOL     OW 5023   5.859   5.952   4.631
 1375SOL    HW1 5024   5.844   5.922   4.725
 1375SOL    HW2 5025   5.865   6.052   4.629
 1376SOL     OW 5026   2.628   4.877   6.752
 1376SOL    HW1 5027   2.573   4.957   6.727
 1376SOL    HW2 5028   2.571   4.795   6.749
 1377SOL     OW 5029   1.423   2.554   3.200
 1377SOL    HW1 5030   1.411   2.468   3.151
 1377SOL    HW2 5031   1.502   2.602   3.164
 1378SOL     OW 5032   4.126   1.971   4.552
 1378SOL    HW1 5033   4.154   1.968   4.456
 1378SOL    HW2 5034   4.193   1.922   4.608
 1379SOL     OW 5035   5.742   5.542   1.415
 1379SOL    HW1 5036   5.790   5.623   1.383
 1379SOL    HW2 5037   5.720   5.483   1.337
 1380SOL     OW 5038   6.990   5.766   1.567
 1380SOL    HW1 5039   0.066   5.775   1.588
 1380SOL    HW2 5040   6.973   5.677   1.525
 1381SOL     OW 5041   6.578   1.886   5.650
 1381SOL    HW1 5042   6.553   1.836   5.733
 1381SOL    HW2 5043   6.521   1.968   5.642
 1382SOL     OW 5044   4.191   2.664   1.306
 1382SOL    HW1 5045   4.245   2.744   1.279
 1382SOL    HW2 5046   4.215   2.638   1.400
 1383SOL     OW 5047   0.988   0.815   1.866
 1383SOL    HW1 5048   0.920   0.767   1.921
 1383SOL    HW2 5049   0.996   0.770   1.777
 1384SOL     OW 5050   5.906   0.014   0.424
 1384SOL    HW1 5051   5.924   6.937   0.415
 1384SOL    HW2 5052   5.979   0.056   0.480
 1385SOL     OW 5053   1.522   5.215   3.598
 1385SOL    HW1 5054   1.550   5.147   3.530
 1385SOL    HW2 5055   1.601   5.266   3.630
 1386SOL     OW 5056   2.730   6.287   4.286
 1386SOL    HW1 5057   2.733   6.381   4.251
 1386SOL    HW2 5058   2.815   6.240   4.265
 1387SOL     OW 5059   3.520   5.872   1.388
 1387SOL    HW1 5060   3.443   5.827   1.433
 1387SOL    HW2 5061   3.600   5.868   1.448
 1388SOL     OW 5062   6.172   0.395   1.217
 1388SOL    HW1 5063   6.168   0.466   1.146
 1388SOL    HW2 5064   6.156   0.438   1.306
 1389SOL     OW 5065   6.562   1.144   2.718
 1389SOL    HW1 5066   6.519   1.152   2.628
 1389SOL    HW2 5067   6.643   1.085   2.711
 1390SOL     OW 5068   0.699   3.084   6.023
 1390SOL    HW1 5069   0.638   3.146   5.974
 1390SOL    HW2 5070   0.786   3.130   6.040
 1391SOL     OW 5071   6.588   1.802   3.742
 1391SOL    HW1 5072   6.525   1.879   3.732
 1391SOL    HW2 5073   6.682   1.835   3.735
 1392SOL     OW 5074   5.524   4.764   5.431
 1392SOL    HW1 5075   5.558   4.670   5.442
 1392SOL    HW2 5076   5.431   4.770   5.468
 1393SOL     OW 5077   5.588   6.021   5.626
 1393SOL    HW1 5078   5.624   5.949   5.567
 1393SOL    HW2 5079   5.546   6.092   5.570
 1394SOL     OW 5080   3.075   6.304   5.271
 1394SOL    HW1 5081   3.052   6.212   5.304
 1394SOL    HW2 5082   3.174   6.316   5.272
 1395SOL     OW 5083   3.045   4.916   5.760
 1395SOL    HW1 5084   3.046   4.840   5.825
 1395SOL    HW2 5085   2.953   4.952   5.751
 1396SOL     OW 5086   7.009   0.344   4.357
 1396SOL    HW1 5087   6.933   0.281   4.370
 1396SOL    HW2 5088   0.019   0.378   4.446
 1397SOL     OW 5089   6.175   0.203   4.967
 1397SOL    HW1 5090   6.164   0.178   5.063
 1397SOL    HW2 5091   6.207   0.298   4.962
 1398SOL     OW 5092   1.557   1.149   5.215
 1398SOL    HW1 5093   1.552   1.184   5.309
 1398SOL    HW2 5094   1.494   1.201   5.157
 1399SOL     OW 5095   3.182   6.387   1.664
 1399SOL    HW1 5096   3.186   6.481   1.696
 1399SOL    HW2 5097   3.094   6.370   1.618
 1400SOL     OW 5098   6.655   1.356   2.329
 1400SOL    HW1 5099   6.749   1.323   2.319
 1400SOL    HW2 5100   6.647   1.447   2.289
 1401SOL     OW 5101   0.453   1.647   5.393
 1401SOL    HW1 5102   0.429   1.734   5.437
 1401SOL    HW2 5103   0.542   1.656   5.348
 1402SOL     OW 5104   6.882   3.352   6.887
 1402SOL    HW1 5105   6.789   3.379   6.859
 1402SOL    HW2 5106   6.926   3.304   6.811
 1403SOL     OW 5107   3.282   0.724   1.877
 1403SOL    HW1 5108   3.371   0.758   1.908
 1403SOL    HW2 5109   3.215   0.732   1.951
 1404SOL     OW 5110   5.500   0.386   0.514
 1404SOL    HW1 5111   5.481   0.356   0.607
 1404SOL    HW2 5112   5.599   0.400   0.503
 1405SOL     OW 5113   1.991   3.992   0.643
 1405SOL    HW1 5114   1.891   3.999   0.636
 1405SOL    HW2 5115   2.025   3.934   0.569
 1406SOL     OW 5116   1.312   4.912   1.722
 1406SOL    HW1 5117   1.312   4.876   1.816
 1406SOL    HW2 5118   1.364   4.998   1.720
 1407SOL     OW 5119   6.684   1.036   1.791
 1407SOL    HW1 5120   6.682   0.960   1.856
 1407SOL    HW2 5121   6.772   1.036   1.743
 1408SOL     OW 5122   5.450   0.441   6.392
 1408SOL    HW1 5123   5.418   0.535   6.396
 1408SOL    HW2 5124   5.535   0.436   6.339
 1409SOL     OW 5125   0.168   0.304   5.030
 1409SOL    HW1 5126   0.115   0.348   5.101
 1409SOL    HW2 5127   0.245   0.255   5.071
 1410SOL     OW 5128   1.637   3.319   6.674
 1410SOL    HW1 5129   1.733   3.341   6.654
 1410SOL    HW2 5130   1.586   3.404   6.687
 1411SOL     OW 5131   2.340   6.281   2.898
 1411SOL    HW1 5132   2.243   6.302   2.891
 1411SOL    HW2 5133   2.391   6.364   2.921
 1412SOL     OW 5134   1.017   2.986   0.623
 1412SOL    HW1 5135   1.032   3.079   0.657
 1412SOL    HW2 5136   0.958   2.989   0.542
 1413SOL     OW 5137   1.960   0.745   5.083
 1413SOL    HW1 5138   2.031   0.733   5.152
 1413SOL    HW2 5139   1.940   0.656   5.040
 1414SOL     OW 5140   2.829   1.391   1.960
 1414SOL    HW1 5141   2.870   1.474   1.999
 1414SOL    HW2 5142   2.891   1.351   1.894
 1415SOL     OW 5143   2.277   6.893   4.298
 1415SOL    HW1 5144   2.244   6.875   4.391
 1415SOL    HW2 5145   2.219   6.845   4.232
 1416SOL     OW 5146   4.867   4.456   3.021
 1416SOL    HW1 5147   4.894   4.448   2.925
 1416SOL    HW2 5148   4.796   4.388   3.041
 1417SOL     OW 5149   2.505   2.365   6.743
 1417SOL    HW1 5150   2.523   2.339   6.838
 1417SOL    HW2 5151   2.412   2.400   6.736
 1418SOL     OW 5152   2.938   3.582   3.470
 1418SOL    HW1 5153   2.957   3.508   3.406
 1418SOL    HW2 5154   2.855   3.562   3.522
 1419SOL     OW 5155   3.079   6.671   4.383
 1419SOL    HW1 5156   3.077   6.643   4.287
 1419SOL    HW2 5157   3.138   6.608   4.435
 1420SOL     OW 5158   1.450   6.379   1.799
 1420SOL    HW1 5159   1.393   6.351   1.876
 1420SOL    HW2 5160   1.392   6.420   1.729
 1421SOL     OW 5161   1.555   3.171   3.090
 1421SOL    HW1 5162   1.459   3.193   3.110
 1421SOL    HW2 5163   1.561   3.078   3.054
 1422SOL     OW 5164   2.546   4.568   2.142
 1422SOL    HW1 5165   2.566   4.548   2.238
 1422SOL    HW2 5166   2.631   4.585   2.093
 1423SOL     OW 5167   5.872   6.324   1.822
 1423SOL    HW1 5168   5.816   6.404   1.846
 1423SOL    HW2 5169   5.938   6.350   1.752
 1424SOL     OW 5170   5.528   4.669   4.465
 1424SOL    HW1 5171   5.593   4.604   4.506
 1424SOL    HW2 5172   5.435   4.645   4.494
 1425SOL     OW 5173   1.418   6.147   4.118
 1425SOL    HW1 5174   1.455   6.056   4.101
 1425SOL    HW2 5175   1.384   6.186   4.033
 1426SOL     OW 5176   1.054   2.750   5.833
 1426SOL    HW1 5177   1.100   2.758   5.744
 1426SOL    HW2 5178   0.986   2.677   5.828
 1427SOL     OW 5179   0.017   6.767   3.022
 1427SOL    HW1 5180   0.055   6.822   2.947
 1427SOL    HW2 5181   0.067   6.680   3.027
 1428SOL     OW 5182   5.802   2.693   0.892
 1428SOL    HW1 5183   5.754   2.666   0.808
 1428SOL    HW2 5184   5.865   2.620   0.919
 1429SOL     OW 5185   6.068   2.309   0.409
 1429SOL    HW1 5186   6.044   2.232   0.469
 1429SOL    HW2 5187   6.079   2.276   0.316
 1430SOL     OW 5188   1.192   3.923   4.263
 1430SOL    HW1 5189   1.185   3.944   4.361
 1430SOL    HW2 5190   1.243   3.995   4.217
 1431SOL     OW 5191   2.299   1.983   1.745
 1431SOL    HW1 5192   2.354   2.055   1.786
 1431SOL    HW2 5193   2.202   1.999   1.764
 1432SOL     OW 5194   2.466   1.536   3.892
 1432SOL    HW1 5195   2.537   1.605   3.909
 1432SOL    HW2 5196   2.380   1.583   3.870
 1433SOL     OW 5197   4.460   1.424   4.610
 1433SOL    HW1 5198   4.484   1.402   4.704
 1433SOL    HW2 5199   4.387   1.492   4.608
 1434SOL     OW 5200   0.278   1.065   5.646
 1434SOL    HW1 5201   0.368   1.027   5.666
 1434SOL    HW2 5202   0.231   1.086   5.733
 1435SOL     OW 5203   6.260   1.013   2.243
 1435SOL    HW1 5204   6.168   0.980   2.224
 1435SOL    HW2 5205   6.327   0.951   2.203
 1436SOL     OW 5206   4.704   3.989   6.769
 1436SOL    HW1 5207   4.641   3.918   6.799
 1436SOL    HW2 5208   4.766   4.014   6.843
 1437SOL     OW 5209   2.488   2.163   4.024
 1437SOL    HW1 5210   2.403   2.207   4.050
 1437SOL    HW2 5211   2.510   2.091   4.090
 1438SOL     OW 5212   3.198   6.292   1.203
 1438SOL    HW1 5213   3.169   6.384   1.179
 1438SOL    HW2 5214   3.129   6.250   1.263
 1439SOL     OW 5215   6.920   6.146   1.967
 1439SOL    HW1 5216   6.838   6.182   2.010
 1439SOL    HW2 5217   6.947   6.062   2.013
 1440SOL     OW 5218   3.272   3.895   1.413
 1440SOL    HW1 5219   3.219   3.852   1.486
 1440SOL    HW2 5220   3.358   3.844   1.401
 1441SOL     OW 5221   6.305   0.983   1.929
 1441SOL    HW1 5222   6.206   0.984   1.916
 1441SOL    HW2 5223   6.350   0.969   1.841
 1442SOL     OW 5224   6.377   6.400   6.853
 1442SOL    HW1 5225   6.431   6.450   6.785
 1442SOL    HW2 5226   6.290   6.372   6.812
 1443SOL     OW 5227   0.227   2.553   2.555
 1443SOL    HW1 5228   0.261   2.619   2.488
 1443SOL    HW2 5229   0.287   2.552   2.635
 1444SOL     OW 5230   5.326   6.988   0.919
 1444SOL    HW1 5231   5.242   7.012   0.967
 1444SOL    HW2 5232   5.405   7.016   0.974
 1445SOL     OW 5233   1.065   3.269   2.936
 1445SOL    HW1 5234   1.116   3.299   3.017
 1445SOL    HW2 5235   0.968   3.263   2.958
 1446SOL     OW 5236   6.753   0.364   6.610
 1446SOL    HW1 5237   6.818   0.371   6.535
 1446SOL    HW2 5238   6.779   0.428   6.683
 1447SOL     OW 5239   5.592   4.784   2.605
 1447SOL    HW1 5240   5.633   4.753   2.691
 1447SOL    HW2 5241   5.641   4.742   2.528
 1448SOL     OW 5242   7.019   3.026   4.543
 1448SOL    HW1 5243   6.975   2.940   4.570
 1448SOL    HW2 5244   0.097   3.015   4.549
 1449SOL     OW 5245   1.748   3.955   5.586
 1449SOL    HW1 5246   1.771   3.979   5.492
 1449SOL    HW2 5247   1.806   3.879   5.616
 1450SOL     OW 5248   0.959   2.569   6.310
 1450SOL    HW1 5249   1.003   2.657   6.330
 1450SOL    HW2 5250   0.860   2.584   6.303
 1451SOL     OW 5251   1.144   6.075   1.913
 1451SOL    HW1 5252   1.138   6.007   1.986
 1451SOL    HW2 5253   1.190   6.035   1.834
 1452SOL     OW 5254   4.601   2.651   5.608
 1452SOL    HW1 5255   4.559   2.721   5.667
 1452SOL    HW2 5256   4.531   2.587   5.577
 1453SOL     OW 5257   0.638   4.565   5.432
 1453SOL    HW1 5258   0.548   4.523   5.419
 1453SOL    HW2 5259   0.656   4.577   5.530
 1454SOL     OW 5260   2.329   1.831   3.177
 1454SOL    HW1 5261   2.384   1.913   3.160
 1454SOL    HW2 5262   2.252   1.854   3.236
 1455SOL     OW 5263   1.445   6.357   3.013
 1455SOL    HW1 5264   1.506   6.427   3.050
 1455SOL    HW2 5265   1.446   6.277   3.072
 1456SOL     OW 5266   6.659   6.269   6.420
 1456SOL    HW1 5267   6.751   6.230   6.418
 1456SOL    HW2 5268   6.662   6.359   6.464
 1457SOL     OW 5269   0.348   4.183   0.796
 1457SOL    HW1 5270   0.349   4.160   0.893
 1457SOL    HW2 5271   0.343   4.099   0.742
 1458SOL     OW 5272   5.860   4.722   5.508
 1458SOL    HW1 5273   5.865   4.739   5.606
 1458SOL    HW2 5274   5.944   4.679   5.477
 1459SOL     OW 5275   4.419   6.675   5.781
 1459SOL    HW1 5276   4.485   6.607   5.815
 1459SOL    HW2 5277   4.386   6.731   5.857
 1460SOL     OW 5278   1.587   6.445   4.937
 1460SOL    HW1 5279   1.663   6.510   4.944
 1460SOL    HW2 5280   1.514   6.471   5.000
 1461SOL     OW 5281   0.380   3.515   3.036
 1461SOL    HW1 5282   0.475   3.520   3.067
 1461SOL    HW2 5283   0.320   3.498   3.114
 1462SOL     OW 5284   0.624   0.826   6.765
 1462SOL    HW1 5285   0.583   0.746   6.809
 1462SOL    HW2 5286   0.674   0.797   6.684
 1463SOL     OW 5287   1.219   5.224   6.527
 1463SOL    HW1 5288   1.227   5.277   6.611
 1463SOL    HW2 5289   1.286   5.149   6.529
 1464SOL     OW 5290   6.573   4.121   3.630
 1464SOL    HW1 5291   6.576   4.164   3.540
 1464SOL    HW2 5292   6.665   4.091   3.656
 1465SOL     OW 5293   1.731   1.888   3.707
 1465SOL    HW1 5294   1.714   1.892   3.806
 1465SOL    HW2 5295   1.739   1.792   3.678
 1466SOL     OW 5296   3.634   2.536   1.740
 1466SOL    HW1 5297   3.679   2.529   1.651
 1466SOL    HW2 5298   3.623   2.445   1.780
 1467SOL     OW 5299   1.282   1.362   4.045
 1467SOL    HW1 5300   1.321   1.401   4.129
 1467SOL    HW2 5301   1.225   1.430   4.000
 1468SOL     OW 5302   2.191   5.385   1.734
 1468SOL    HW1 5303   2.166   5.288   1.726
 1468SOL    HW2 5304   2.143   5.425   1.812
 1469SOL     OW 5305   6.848   6.402   3.379
 1469SOL    HW1 5306   6.866   6.424   3.283
 1469SOL    HW2 5307   6.920   6.440   3.437
 1470SOL     OW 5308   6.919   2.946   0.997
 1470SOL    HW1 5309   6.915   2.960   1.096
 1470SOL    HW2 5310   6.827   2.928   0.962
 1471SOL     OW 5311   0.273   0.280   0.481
 1471SOL    HW1 5312   0.295   0.318   0.571
 1471SOL    HW2 5313   0.246   0.354   0.420
 1472SOL     OW 5314   2.692   6.512   6.833
 1472SOL    HW1 5315   2.756   6.587   6.848
 1472SOL    HW2 5316   2.671   6.504   6.736
 1473SOL     OW 5317   3.438   5.141   4.836
 1473SOL    HW1 5318   3.360   5.110   4.890
 1473SOL    HW2 5319   3.459   5.236   4.859
 1474SOL     OW 5320   4.226   5.134   1.772
 1474SOL    HW1 5321   4.306   5.113   1.715
 1474SOL    HW2 5322   4.234   5.228   1.806
 1475SOL     OW 5323   5.206   1.502   0.141
 1475SOL    HW1 5324   5.214   1.454   0.054
 1475SOL    HW2 5325   5.297   1.517   0.179
 1476SOL     OW 5326   3.143   1.314   1.357
 1476SOL    HW1 5327   3.169   1.366   1.438
 1476SOL    HW2 5328   3.055   1.347   1.323
 1477SOL     OW 5329   4.333   7.010   0.118
 1477SOL    HW1 5330   4.247   6.969   0.149
 1477SOL    HW2 5331   4.314   0.074   0.070
 1478SOL     OW 5332   5.723   6.676   5.240
 1478SOL    HW1 5333   5.719   6.695   5.142
 1478SOL    HW2 5334   5.776   6.592   5.256
 1479SOL     OW 5335   3.653   4.042   2.451
 1479SOL    HW1 5336   3.643   4.049   2.352
 1479SOL    HW2 5337   3.570   4.004   2.490
 1480SOL     OW 5338   2.271   0.404   6.245
 1480SOL    HW1 5339   2.232   0.472   6.183
 1480SOL    HW2 5340   2.209   0.325   6.251
 1481SOL     OW 5341   5.770   2.523   5.472
 1481SOL    HW1 5342   5.686   2.501   5.423
 1481SOL    HW2 5343   5.849   2.512   5.411
 1482SOL     OW 5344   4.465   0.275   0.664
 1482SOL    HW1 5345   4.539   0.315   0.717
 1482SOL    HW2 5346   4.381   0.328   0.677
 1483SOL     OW 5347   4.668   1.956   5.646
 1483SOL    HW1 5348   4.724   1.944   5.564
 1483SOL    HW2 5349   4.573   1.936   5.625
 1484SOL     OW 5350   3.119   4.877   4.752
 1484SOL    HW1 5351   3.044   4.854   4.813
 1484SOL    HW2 5352   3.206   4.869   4.802
 1485SOL     OW 5353   5.129   0.853   3.439
 1485SOL    HW1 5354   5.052   0.903   3.398
 1485SOL    HW2 5355   5.094   0.782   3.499
 1486SOL     OW 5356   4.581   6.591   3.367
 1486SOL    HW1 5357   4.648   6.588   3.293
 1486SOL    HW2 5358   4.622   6.635   3.448
 1487SOL     OW 5359   0.151   0.771   0.348
 1487SOL    HW1 5360   0.249   0.786   0.338
 1487SOL    HW2 5361   0.108   0.855   0.382
 1488SOL     OW 5362   6.205   0.500   2.267
 1488SOL    HW1 5363   6.204   0.404   2.298
 1488SOL    HW2 5364   6.113   0.539   2.278
 1489SOL     OW 5365   3.835   4.710   6.828
 1489SOL    HW1 5366   3.839   4.640   6.900
 1489SOL    HW2 5367   3.913   4.698   6.766
 1490SOL     OW 5368   0.330   2.683   1.873
 1490SOL    HW1 5369   0.388   2.604   1.895
 1490SOL    HW2 5370   0.237   2.652   1.854
 1491SOL     OW 5371   6.570   3.786   2.264
 1491SOL    HW1 5372   6.521   3.784   2.351
 1491SOL    HW2 5373   6.505   3.795   2.189
 1492SOL     OW 5374   6.534   0.347   2.438
 1492SOL    HW1 5375   6.574   0.386   2.355
 1492SOL    HW2 5376   6.608   0.311   2.496
 1493SOL     OW 5377   4.477   1.257   6.089
 1493SOL    HW1 5378   4.430   1.251   6.000
 1493SOL    HW2 5379   4.429   1.322   6.147
 1494SOL     OW 5380   5.729   2.234   6.396
 1494SOL    HW1 5381   5.809   2.219   6.455
 1494SOL    HW2 5382   5.704   2.331   6.399
 1495SOL     OW 5383   6.021   3.648   3.674
 1495SOL    HW1 5384   5.924   3.648   3.700
 1495SOL    HW2 5385   6.043   3.733   3.627
 1496SOL     OW 5386   6.851   6.855   6.907
 1496SOL    HW1 5387   6.905   6.846   6.990
 1496SOL    HW2 5388   6.855   6.949   6.875
 1497SOL     OW 5389   5.192   2.590   2.696
 1497SOL    HW1 5390   5.232   2.498   2.695
 1497SOL    HW2 5391   5.121   2.595   2.766
 1498SOL     OW 5392   2.941   4.538   1.228
 1498SOL    HW1 5393   2.942   4.495   1.319
 1498SOL    HW2 5394   2.850   4.573   1.209
 1499SOL     OW 5395   0.373   3.737   5.580
 1499SOL    HW1 5396   0.352   3.703   5.488
 1499SOL    HW2 5397   0.298   3.716   5.642
 1500SOL     OW 5398   0.835   5.720   0.068
 1500SOL    HW1 5399   0.914   5.669   0.033
 1500SOL    HW2 5400   0.751   5.683   0.028
 1501SOL     OW 5401   6.338   1.658   6.585
 1501SOL    HW1 5402   6.387   1.590   6.530
 1501SOL    HW2 5403   6.385   1.671   6.672
 1502SOL     OW 5404   6.578   1.281   6.052
 1502SOL    HW1 5405   6.650   1.336   6.094
 1502SOL    HW2 5406   6.549   1.324   5.966
 1503SOL     OW 5407   0.864   3.355   2.649
 1503SOL    HW1 5408   0.772   3.316   2.653
 1503SOL    HW2 5409   0.931   3.284   2.673
 1504SOL     OW 5410   0.386   0.311   4.113
 1504SOL    HW1 5411   0.434   0.259   4.041
 1504SOL    HW2 5412   0.287   0.303   4.099
 1505SOL     OW 5413   5.944   6.215   5.394
 1505SOL    HW1 5414   5.865   6.272   5.371
 1505SOL    HW2 5415   5.968   6.227   5.490
 1506SOL     OW 5416   1.351   0.560   1.115
 1506SOL    HW1 5417   1.370   0.463   1.131
 1506SOL    HW2 5418   1.297   0.570   1.032
 1507SOL     OW 5419   1.295   1.723   4.625
 1507SOL    HW1 5420   1.339   1.745   4.712
 1507SOL    HW2 5421   1.291   1.623   4.615
 1508SOL     OW 5422   0.846   1.586   0.694
 1508SOL    HW1 5423   0.921   1.523   0.716
 1508SOL    HW2 5424   0.859   1.623   0.602
 1509SOL     OW 5425   5.170   1.110   4.910
 1509SOL    HW1 5426   5.189   1.047   4.835
 1509SOL    HW2 5427   5.236   1.185   4.909
 1510SOL     OW 5428   4.083   6.856   3.841
 1510SOL    HW1 5429   4.155   6.791   3.864
 1510SOL    HW2 5430   4.020   6.865   3.918
 1511SOL     OW 5431   3.064   3.990   4.368
 1511SOL    HW1 5432   3.051   3.949   4.459
 1511SOL    HW2 5433   3.150   4.042   4.368
 1512SOL     OW 5434   6.117   5.850   1.096
 1512SOL    HW1 5435   6.111   5.822   1.192
 1512SOL    HW2 5436   6.208   5.830   1.060
 1513SOL     OW 5437   3.361   6.765   5.874
 1513SOL    HW1 5438   3.377   6.691   5.809
 1513SOL    HW2 5439   3.269   6.758   5.912
 1514SOL     OW 5440   3.267   2.372   5.795
 1514SOL    HW1 5441   3.226   2.406   5.710
 1514SOL    HW2 5442   3.211   2.399   5.873
 1515SOL     OW 5443   6.551   1.994   2.622
 1515SOL    HW1 5444   6.580   1.995   2.526
 1515SOL    HW2 5445   6.459   1.954   2.629
 1516SOL     OW 5446   6.089   5.628   4.857
 1516SOL    HW1 5447   6.095   5.565   4.934
 1516SOL    HW2 5448   6.175   5.625   4.805
 1517SOL     OW 5449   3.412   6.573   3.392
 1517SOL    HW1 5450   3.386   6.607   3.482
 1517SOL    HW2 5451   3.511   6.564   3.386
 1518SOL     OW 5452   6.267   2.803   0.058
 1518SOL    HW1 5453   6.173   2.810   0.093
 1518SOL    HW2 5454   6.331   2.832   0.128
 1519SOL     OW 5455   0.045   5.344   0.918
 1519SOL    HW1 5456   0.078   5.345   1.012
 1519SOL    HW2 5457   0.114   5.303   0.858
 1520SOL     OW 5458   0.924   4.911   1.531
 1520SOL    HW1 5459   0.925   4.943   1.436
 1520SOL    HW2 5460   0.833   4.876   1.553
 1521SOL     OW 5461   2.615   4.597   6.967
 1521SOL    HW1 5462   2.634   4.510   7.011
 1521SOL    HW2 5463   2.565   4.656   0.009
 1522SOL     OW 5464   5.026   5.485   4.508
 1522SOL    HW1 5465   4.927   5.489   4.521
 1522SOL    HW2 5466   5.067   5.570   4.541
 1523SOL     OW 5467   3.962   6.852   6.750
 1523SOL    HW1 5468   3.969   6.810   6.841
 1523SOL    HW2 5469   3.969   6.952   6.759
 1524SOL     OW 5470   2.629   2.485   2.906
 1524SOL    HW1 5471   2.688   2.415   2.866
 1524SOL    HW2 5472   2.619   2.469   3.004
 1525SOL     OW 5473   5.798   3.242   0.830
 1525SOL    HW1 5474   5.819   3.144   0.835
 1525SOL    HW2 5475   5.872   3.289   0.782
 1526SOL     OW 5476   0.583   1.661   0.087
 1526SOL    HW1 5477   0.664   1.684   0.140
 1526SOL    HW2 5478   0.525   1.742   0.078
 1527SOL     OW 5479   3.761   1.072   4.832
 1527SOL    HW1 5480   3.702   1.024   4.897
 1527SOL    HW2 5481   3.802   1.151   4.877
 1528SOL     OW 5482   4.433   4.408   0.972
 1528SOL    HW1 5483   4.422   4.505   0.951
 1528SOL    HW2 5484   4.523   4.377   0.939
 1529SOL     OW 5485   5.463   1.327   7.021
 1529SOL    HW1 5486   5.382   1.375   6.987
 1529SOL    HW2 5487   5.448   1.298   0.094
 1530SOL     OW 5488   3.385   0.342   1.746
 1530SOL    HW1 5489   3.455   0.351   1.675
 1530SOL    HW2 5490   3.300   0.384   1.714
 1531SOL     OW 5491   4.405   0.278   4.172
 1531SOL    HW1 5492   4.432   0.366   4.132
 1531SOL    HW2 5493   4.468   0.254   4.246
 1532SOL     OW 5494   3.466   4.920   6.271
 1532SOL    HW1 5495   3.464   5.013   6.235
 1532SOL    HW2 5496   3.377   4.899   6.313
 1533SOL     OW 5497   5.844   5.497   0.688
 1533SOL    HW1 5498   5.783   5.576   0.694
 1533SOL    HW2 5499   5.835   5.442   0.771
 1534SOL     OW 5500   3.616   5.660   0.346
 1534SOL    HW1 5501   3.709   5.688   0.323
 1534SOL    HW2 5502   3.619   5.590   0.417
 1535SOL     OW 5503   5.751   6.698   4.415
 1535SOL    HW1 5504   5.718   6.633   4.347
 1535SOL    HW2 5505   5.849   6.688   4.427
 1536SOL     OW 5506   4.171   4.517   0.253
 1536SOL    HW1 5507   4.147   4.465   0.335
 1536SOL    HW2 5508   4.099   4.584   0.234
 1537SOL     OW 5509   3.783   5.377   4.013
 1537SOL    HW1 5510   3.812   5.462   4.056
 1537SOL    HW2 5511   3.685   5.379   3.996
 1538SOL     OW 5512   3.581   1.409   0.290
 1538SOL    HW1 5513   3.600   1.425   0.387
 1538SOL    HW2 5514   3.489   1.371   0.280
 1539SOL     OW 5515   4.870   3.281   1.904
 1539SOL    HW1 5516   4.852   3.190   1.942
 1539SOL    HW2 5517   4.826   3.290   1.815
 1540SOL     OW 5518   1.538   6.833   5.262
 1540SOL    HW1 5519   1.475   6.907   5.242
 1540SOL    HW2 5520   1.619   6.869   5.308
 1541SOL     OW 5521   3.860   3.354   4.545
 1541SOL    HW1 5522   3.933   3.303   4.592
 1541SOL    HW2 5523   3.797   3.290   4.502
 1542SOL     OW 5524   6.561   6.758   2.179
 1542SOL    HW1 5525   6.520   6.748   2.088
 1542SOL    HW2 5526   6.494   6.801   2.240
 1543SOL     OW 5527   3.509   5.684   6.491
 1543SOL    HW1 5528   3.535   5.773   6.529
 1543SOL    HW2 5529   3.550   5.673   6.400
 1544SOL     OW 5530   3.582   3.784   4.271
 1544SOL    HW1 5531   3.605   3.756   4.365
 1544SOL    HW2 5532   3.666   3.806   4.222
 1545SOL     OW 5533   6.534   0.520   1.852
 1545SOL    HW1 5534   6.512   0.455   1.779
 1545SOL    HW2 5535   6.452   0.536   1.908
 1546SOL     OW 5536   4.984   6.483   6.159
 1546SOL    HW1 5537   4.960   6.389   6.185
 1546SOL    HW2 5538   5.081   6.487   6.135
 1547SOL     OW 5539   1.645   4.310   0.723
 1547SOL    HW1 5540   1.558   4.263   0.738
 1547SOL    HW2 5541   1.659   4.379   0.795
 1548SOL     OW 5542   6.662   3.893   6.993
 1548SOL    HW1 5543   6.695   3.801   7.015
 1548SOL    HW2 5544   6.613   3.930   0.050
 1549SOL     OW 5545   4.103   1.359   4.098
 1549SOL    HW1 5546   4.077   1.381   4.003
 1549SOL    HW2 5547   4.173   1.422   4.129
 1550SOL     OW 5548   3.349   2.920   2.102
 1550SOL    HW1 5549   3.281   2.948   2.034
 1550SOL    HW2 5550   3.412   2.854   2.060
 1551SOL     OW 5551   1.049   5.183   0.014
 1551SOL    HW1 5552   0.999   5.209   0.097
 1551SOL    HW2 5553   0.984   5.161   6.963
 1552SOL     OW 5554   2.804   4.562   0.885
 1552SOL    HW1 5555   2.797   4.638   0.950
 1552SOL    HW2 5556   2.900   4.551   0.857
 1553SOL     OW 5557   7.001   1.230   6.390
 1553SOL    HW1 5558   6.902   1.227   6.380
 1553SOL    HW2 5559   0.012   1.324   6.376
 1554SOL     OW 5560   3.153   1.943   3.749
 1554SOL    HW1 5561   3.104   1.988   3.824
 1554SOL    HW2 5562   3.226   1.886   3.786
 1555SOL     OW 5563   5.825   2.873   6.468
 1555SOL    HW1 5564   5.837   2.875   6.369
 1555SOL    HW2 5565   5.820   2.778   6.500
 1556SOL     OW 5566   1.948   1.060   6.039
 1556SOL    HW1 5567   1.955   1.034   5.943
 1556SOL    HW2 5568   1.862   1.026   6.077
 1557SOL     OW 5569   1.688   3.992   6.481
 1557SOL    HW1 5570   1.697   3.907   6.429
 1557SOL    HW2 5571   1.674   4.068   6.417
 1558SOL     OW 5572   6.005   0.402   4.552
 1558SOL    HW1 5573   6.102   0.419   4.536
 1558SOL    HW2 5574   5.966   0.353   4.474
 1559SOL     OW 5575   1.080   2.784   6.595
 1559SOL    HW1 5576   1.092   2.807   6.498
 1559SOL    HW2 5577   1.166   2.796   6.643
 1560SOL     OW 5578   0.037   1.416   0.086
 1560SOL    HW1 5579   0.120   1.393   0.137
 1560SOL    HW2 5580   0.054   1.494   0.027
 1561SOL     OW 5581   4.560   6.218   3.106
 1561SOL    HW1 5582   4.646   6.264   3.128
 1561SOL    HW2 5583   4.488   6.285   3.092
 1562SOL     OW 5584   4.555   6.453   2.131
 1562SOL    HW1 5585   4.566   6.375   2.068
 1562SOL    HW2 5586   4.625   6.448   2.202
 1563SOL     OW 5587   3.465   0.625   6.074
 1563SOL    HW1 5588   3.474   0.551   6.140
 1563SOL    HW2 5589   3.533   0.696   6.095
 1564SOL     OW 5590   1.373   0.499   2.682
 1564SOL    HW1 5591   1.472   0.491   2.677
 1564SOL    HW2 5592   1.333   0.469   2.596
 1565SOL     OW 5593   4.828   4.189   2.514
 1565SOL    HW1 5594   4.926   4.203   2.500
 1565SOL    HW2 5595   4.777   4.263   2.471
 1566SOL     OW 5596   5.567   3.551   3.553
 1566SOL    HW1 5597   5.536   3.643   3.529
 1566SOL    HW2 5598   5.642   3.524   3.493
 1567SOL     OW 5599   6.139   6.246   6.796
 1567SOL    HW1 5600   6.069   6.308   6.832
 1567SOL    HW2 5601   6.209   6.230   6.866
 1568SOL     OW 5602   1.872   0.455   0.347
 1568SOL    HW1 5603   1.795   0.404   0.385
 1568SOL    HW2 5604   1.949   0.453   0.411
 1569SOL     OW 5605   4.443   6.071   3.768
 1569SOL    HW1 5606   4.425   6.157   3.720
 1569SOL    HW2 5607   4.538   6.070   3.800
 1570SOL     OW 5608   2.748   1.192   1.702
 1570SOL    HW1 5609   2.773   1.271   1.645
 1570SOL    HW2 5610   2.814   1.118   1.687
 1571SOL     OW 5611   6.406   3.000   1.316
 1571SOL    HW1 5612   6.381   3.078   1.260
 1571SOL    HW2 5613   6.506   2.990   1.316
 1572SOL     OW 5614   0.350   0.521   2.682
 1572SOL    HW1 5615   0.292   0.494   2.759
 1572SOL    HW2 5616   0.349   0.621   2.673
 1573SOL     OW 5617   5.044   6.902   1.572
 1573SOL    HW1 5618   5.043   6.994   1.612
 1573SOL    HW2 5619   5.024   6.907   1.475
 1574SOL     OW 5620   0.327   2.081   1.520
 1574SOL    HW1 5621   0.367   2.080   1.611
 1574SOL    HW2 5622   0.389   2.037   1.455
 1575SOL     OW 5623   2.454   2.108   0.445
 1575SOL    HW1 5624   2.470   2.180   0.378
 1575SOL    HW2 5625   2.362   2.118   0.483
 1576SOL     OW 5626   5.429   6.080   4.009
 1576SOL    HW1 5627   5.513   6.042   3.970
 1576SOL    HW2 5628   5.390   6.014   4.073
 1577SOL     OW 5629   2.335   1.720   5.639
 1577SOL    HW1 5630   2.258   1.685   5.584
 1577SOL    HW2 5631   2.354   1.657   5.713
 1578SOL     OW 5632   5.568   3.725   4.981
 1578SOL    HW1 5633   5.577   3.627   4.963
 1578SOL    HW2 5634   5.489   3.760   4.931
 1579SOL     OW 5635   0.074   1.282   3.517
 1579SOL    HW1 5636   0.035   1.215   3.454
 1579SOL    HW2 5637   0.007   1.304   3.587
 1580SOL     OW 5638   2.969   4.114   5.369
 1580SOL    HW1 5639   2.928   4.149   5.454
 1580SOL    HW2 5640   2.901   4.060   5.319
 1581SOL     OW 5641   6.247   4.182   4.262
 1581SOL    HW1 5642   6.299   4.135   4.191
 1581SOL    HW2 5643   6.154   4.198   4.230
 1582SOL     OW 5644   0.759   4.697   4.574
 1582SOL    HW1 5645   0.724   4.626   4.512
 1582SOL    HW2 5646   0.858   4.687   4.584
 1583SOL     OW 5647   2.170   3.360   3.634
 1583SOL    HW1 5648   2.169   3.264   3.606
 1583SOL    HW2 5649   2.255   3.380   3.682
 1584SOL     OW 5650   2.592   6.163   5.363
 1584SOL    HW1 5651   2.639   6.242   5.402
 1584SOL    HW2 5652   2.496   6.164   5.392
 1585SOL     OW 5653   5.610   2.445   3.174
 1585SOL    HW1 5654   5.640   2.479   3.263
 1585SOL    HW2 5655   5.580   2.522   3.117
 1586SOL     OW 5656   3.890   3.833   2.127
 1586SOL    HW1 5657   3.938   3.842   2.040
 1586SOL    HW2 5658   3.809   3.774   2.114
 1587SOL     OW 5659   2.896   5.829   0.087
 1587SOL    HW1 5660   2.886   5.811   7.010
 1587SOL    HW2 5661   2.960   5.905   0.100
 1588SOL     OW 5662   5.084   1.289   2.933
 1588SOL    HW1 5663   5.057   1.231   3.010
 1588SOL    HW2 5664   5.178   1.269   2.907
 1589SOL     OW 5665   5.510   4.273   3.658
 1589SOL    HW1 5666   5.593   4.272   3.713
 1589SOL    HW2 5667   5.520   4.340   3.584
 1590SOL     OW 5668   1.872   6.533   6.761
 1590SOL    HW1 5669   1.957   6.564   6.719
 1590SOL    HW2 5670   1.886   6.518   6.859
 1591SOL     OW 5671   1.086   4.764   2.285
 1591SOL    HW1 5672   1.054   4.691   2.225
 1591SOL    HW2 5673   1.186   4.766   2.287
 1592SOL     OW 5674   3.252   3.239   2.263
 1592SOL    HW1 5675   3.207   3.326   2.243
 1592SOL    HW2 5676   3.189   3.163   2.245
 1593SOL     OW 5677   0.556   6.431   4.704
 1593SOL    HW1 5678   0.566   6.453   4.607
 1593SOL    HW2 5679   0.645   6.436   4.750
 1594SOL     OW 5680   6.660   5.468   3.137
 1594SOL    HW1 5681   6.639   5.463   3.039
 1594SOL    HW2 5682   6.745   5.418   3.155
 1595SOL     OW 5683   0.557   4.747   6.695
 1595SOL    HW1 5684   0.647   4.727   6.656
 1595SOL    HW2 5685   0.544   4.692   6.778
 1596SOL     OW 5686   1.661   4.361   5.515
 1596SOL    HW1 5687   1.616   4.301   5.449
 1596SOL    HW2 5688   1.703   4.438   5.467
 1597SOL     OW 5689   2.126   6.372   1.612
 1597SOL    HW1 5690   2.183   6.369   1.695
 1597SOL    HW2 5691   2.068   6.453   1.615
 1598SOL     OW 5692   0.524   4.298   0.514
 1598SOL    HW1 5693   0.532   4.208   0.557
 1598SOL    HW2 5694   0.440   4.301   0.459
 1599SOL     OW 5695   3.970   4.260   6.510
 1599SOL    HW1 5696   3.960   4.356   6.485
 1599SOL    HW2 5697   3.907   4.239   6.585
 1600SOL     OW 5698   5.324   1.728   5.177
 1600SOL    HW1 5699   5.291   1.637   5.153
 1600SOL    HW2 5700   5.409   1.721   5.230
 1601SOL     OW 5701   1.794   4.432   4.685
 1601SOL    HW1 5702   1.713   4.416   4.629
 1601SOL    HW2 5703   1.780   4.394   4.776
 1602SOL     OW 5704   0.969   6.272   2.973
 1602SOL    HW1 5705   1.037   6.214   3.018
 1602SOL    HW2 5706   1.012   6.358   2.946
 1603SOL     OW 5707   1.141   6.477   2.057
 1603SOL    HW1 5708   1.146   6.393   2.002
 1603SOL    HW2 5709   1.233   6.513   2.070
 1604SOL     OW 5710   6.455   5.539   6.514
 1604SOL    HW1 5711   6.373   5.483   6.524
 1604SOL    HW2 5712   6.462   5.602   6.591
 1605SOL     OW 5713   6.362   0.474   2.635
 1605SOL    HW1 5714   6.400   0.502   2.547
 1605SOL    HW2 5715   6.436   0.462   2.702
 1606SOL     OW 5716   4.655   6.826   5.724
 1606SOL    HW1 5717   4.569   6.777   5.738
 1606SOL    HW2 5718   4.720   6.800   5.795
 1607SOL     OW 5719   4.192   2.581   0.716
 1607SOL    HW1 5720   4.098   2.612   0.731
 1607SOL    HW2 5721   4.225   2.533   0.797
 1608SOL     OW 5722   2.228   6.778   6.948
 1608SOL    HW1 5723   2.259   6.707   7.011
 1608SOL    HW2 5724   2.169   6.842   6.997
 1609SOL     OW 5725   6.430   2.429   6.235
 1609SOL    HW1 5726   6.426   2.332   6.258
 1609SOL    HW2 5727   6.458   2.440   6.140
 1610SOL     OW 5728   5.676   5.468   4.897
 1610SOL    HW1 5729   5.643   5.436   4.985
 1610SOL    HW2 5730   5.600   5.503   4.843
 1611SOL     OW 5731   3.844   2.927   2.320
 1611SOL    HW1 5732   3.763   2.972   2.357
 1611SOL    HW2 5733   3.816   2.845   2.270
 1612SOL     OW 5734   2.238   1.918   5.286
 1612SOL    HW1 5735   2.231   1.890   5.382
 1612SOL    HW2 5736   2.205   1.843   5.228
 1613SOL     OW 5737   2.001   5.894   0.613
 1613SOL    HW1 5738   1.967   5.855   0.527
 1613SOL    HW2 5739   2.054   5.825   0.662
 1614SOL     OW 5740   5.982   2.804   6.729
 1614SOL    HW1 5741   5.984   2.841   6.636
 1614SOL    HW2 5742   5.934   2.867   6.790
 1615SOL     OW 5743   0.301   4.715   6.653
 1615SOL    HW1 5744   0.262   4.803   6.627
 1615SOL    HW2 5745   0.398   4.726   6.674
 1616SOL     OW 5746   4.641   2.049   6.524
 1616SOL    HW1 5747   4.692   2.124   6.567
 1616SOL    HW2 5748   4.678   1.962   6.555
 1617SOL     OW 5749   6.072   0.983   2.816
 1617SOL    HW1 5750   6.028   0.918   2.879
 1617SOL    HW2 5751   6.169   0.992   2.840
 1618SOL     OW 5752   0.102   3.379   1.716
 1618SOL    HW1 5753   0.106   3.465   1.666
 1618SOL    HW2 5754   0.073   3.396   1.810
 1619SOL     OW 5755   1.052   4.103   3.902
 1619SOL    HW1 5756   1.040   4.150   3.989
 1619SOL    HW2 5757   0.974   4.123   3.842
 1620SOL     OW 5758   1.792   6.416   1.155
 1620SOL    HW1 5759   1.712   6.419   1.215
 1620SOL    HW2 5760   1.843   6.332   1.171
 1621SOL     OW 5761   0.714   0.544   6.870
 1621SOL    HW1 5762   0.680   0.561   6.963
 1621SOL    HW2 5763   0.664   0.467   6.831
 1622SOL     OW 5764   1.510   1.817   4.493
 1622SOL    HW1 5765   1.581   1.746   4.492
 1622SOL    HW2 5766   1.430   1.783   4.543
 1623SOL     OW 5767   2.140   2.877   6.223
 1623SOL    HW1 5768   2.157   2.901   6.127
 1623SOL    HW2 5769   2.081   2.796   6.227
 1624SOL     OW 5770   3.085   0.932   6.578
 1624SOL    HW1 5771   3.161   0.938   6.643
 1624SOL    HW2 5772   3.120   0.901   6.489
 1625SOL     OW 5773   0.445   4.847   2.429
 1625SOL    HW1 5774   0.370   4.793   2.468
 1625SOL    HW2 5775   0.510   4.871   2.501
 1626SOL     OW 5776   2.462   2.806   6.574
 1626SOL    HW1 5777   2.364   2.789   6.574
 1626SOL    HW2 5778   2.490   2.841   6.485
 1627SOL     OW 5779   6.065   2.322   3.661
 1627SOL    HW1 5780   6.164   2.307   3.654
 1627SOL    HW2 5781   6.033   2.370   3.579
 1628SOL     OW 5782   3.225   4.955   0.754
 1628SOL    HW1 5783   3.142   5.000   0.787
 1628SOL    HW2 5784   3.268   4.905   0.829
 1629SOL     OW 5785   3.376   2.075   4.775
 1629SOL    HW1 5786   3.472   2.067   4.802
 1629SOL    HW2 5787   3.359   2.019   4.694
 1630SOL     OW 5788   0.728   5.214   5.349
 1630SOL    HW1 5789   0.686   5.157   5.419
 1630SOL    HW2 5790   0.672   5.210   5.266
 1631SOL     OW 5791   0.152   0.368   5.673
 1631SOL    HW1 5792   0.059   0.341   5.696
 1631SOL    HW2 5793   0.155   0.467   5.659
 1632SOL     OW 5794   0.404   1.237   6.909
 1632SOL    HW1 5795   0.319   1.195   6.939
 1632SOL    HW2 5796   0.476   1.219   6.977
 1633SOL     OW 5797   5.530   2.012   3.042
 1633SOL    HW1 5798   5.504   2.036   2.949
 1633SOL    HW2 5799   5.526   1.912   3.053
 1634SOL     OW 5800   3.177   5.680   6.734
 1634SOL    HW1 5801   3.117   5.684   6.814
 1634SOL    HW2 5802   3.152   5.602   6.677
 1635SOL     OW 5803   0.151   5.372   4.489
 1635SOL    HW1 5804   0.227   5.307   4.489
 1635SOL    HW2 5805   0.175   5.451   4.432
 1636SOL     OW 5806   2.531   5.050   1.134
 1636SOL    HW1 5807   2.471   5.130   1.135
 1636SOL    HW2 5808   2.490   4.979   1.077
 1637SOL     OW 5809   0.234   2.996   2.581
 1637SOL    HW1 5810   0.198   3.054   2.508
 1637SOL    HW2 5811   0.205   3.032   2.669
 1638SOL     OW 5812   0.271   3.279   3.786
 1638SOL    HW1 5813   0.359   3.306   3.747
 1638SOL    HW2 5814   0.202   3.278   3.714
 1639SOL     OW 5815   5.151   5.700   2.664
 1639SOL    HW1 5816   5.243   5.738   2.663
 1639SOL    HW2 5817   5.091   5.756   2.608
 1640SOL     OW 5818   6.256   1.846   0.583
 1640SOL    HW1 5819   6.184   1.881   0.523
 1640SOL    HW2 5820   6.341   1.837   0.532
 1641SOL     OW 5821   5.672   2.887   3.741
 1641SOL    HW1 5822   5.585   2.919   3.776
 1641SOL    HW2 5823   5.672   2.787   3.738
 1642SOL     OW 5824   6.662   2.784   7.001
 1642SOL    HW1 5825   6.617   2.746   0.061
 1642SOL    HW2 5826   6.593   2.803   6.931
 1643SOL     OW 5827   3.430   6.441   5.256
 1643SOL    HW1 5828   3.449   6.391   5.172
 1643SOL    HW2 5829   3.399   6.534   5.234
 1644SOL     OW 5830   3.495   1.453   1.450
 1644SOL    HW1 5831   3.545   1.540   1.449
 1644SOL    HW2 5832   3.484   1.421   1.356
 1645SOL     OW 5833   2.982   5.965   5.967
 1645SOL    HW1 5834   2.910   6.035   5.969
 1645SOL    HW2 5835   2.940   5.875   5.956
 1646SOL     OW 5836   1.896   4.931   0.838
 1646SOL    HW1 5837   1.881   5.024   0.804
 1646SOL    HW2 5838   1.991   4.905   0.821
 1647SOL     OW 5839   5.546   2.887   3.280
 1647SOL    HW1 5840   5.606   2.934   3.345
 1647SOL    HW2 5841   5.600   2.860   3.200
 1648SOL     OW 5842   5.055   0.096   1.745
 1648SOL    HW1 5843   5.063   0.196   1.746
 1648SOL    HW2 5844   4.998   0.066   1.821
 1649SOL     OW 5845   3.171   0.550   3.241
 1649SOL    HW1 5846   3.133   0.602   3.164
 1649SOL    HW2 5847   3.207   0.614   3.310
 1650SOL     OW 5848   3.028   0.516   4.160
 1650SOL    HW1 5849   3.112   0.479   4.200
 1650SOL    HW2 5850   3.038   0.523   4.061
 1651SOL     OW 5851   0.029   0.403   0.119
 1651SOL    HW1 5852   0.096   0.390   0.192
 1651SOL    HW2 5853   7.003   0.490   0.132
 1652SOL     OW 5854   3.389   2.213   0.731
 1652SOL    HW1 5855   3.299   2.179   0.757
 1652SOL    HW2 5856   3.457   2.141   0.744
 1653SOL     OW 5857   6.944   5.498   0.717
 1653SOL    HW1 5858   6.990   5.477   0.803
 1653SOL    HW2 5859   6.853   5.534   0.736
 1654SOL     OW 5860   6.964   3.572   2.934
 1654SOL    HW1 5861   0.024   3.569   2.876
 1654SOL    HW2 5862   6.891   3.518   2.892
 1655SOL     OW 5863   5.720   4.389   6.229
 1655SOL    HW1 5864   5.712   4.460   6.159
 1655SOL    HW2 5865   5.650   4.404   6.300
 1656SOL     OW 5866   0.923   4.810   3.572
 1656SOL    HW1 5867   0.993   4.800   3.643
 1656SOL    HW2 5868   0.899   4.907   3.563
 1657SOL     OW 5869   1.973   1.104   5.738
 1657SOL    HW1 5870   1.881   1.118   5.703
 1657SOL    HW2 5871   2.015   1.025   5.694
 1658SOL     OW 5872   5.999   6.348   2.649
 1658SOL    HW1 5873   6.069   6.377   2.584
 1658SOL    HW2 5874   5.988   6.249   2.643
 1659SOL     OW 5875   3.562   2.028   6.444
 1659SOL    HW1 5876   3.462   2.038   6.445
 1659SOL    HW2 5877   3.586   1.941   6.401
 1660SOL     OW 5878   0.554   5.791   3.585
 1660SOL    HW1 5879   0.629   5.834   3.635
 1660SOL    HW2 5880   0.541   5.697   3.618
 1661SOL     OW 5881   3.442   1.364   2.908
 1661SOL    HW1 5882   3.482   1.450   2.876
 1661SOL    HW2 5883   3.412   1.375   3.003
 1662SOL     OW 5884   6.518   2.131   3.072
 1662SOL    HW1 5885   6.512   2.134   2.972
 1662SOL    HW2 5886   6.585   2.062   3.099
 1663SOL     OW 5887   2.998   6.836   3.270
 1663SOL    HW1 5888   2.999   6.740   3.300
 1663SOL    HW2 5889   3.089   6.862   3.240
 1664SOL     OW 5890   1.561   0.191   4.338
 1664SOL    HW1 5891   1.570   0.273   4.393
 1664SOL    HW2 5892   1.465   0.164   4.334
 1665SOL     OW 5893   0.918   1.316   2.361
 1665SOL    HW1 5894   0.876   1.305   2.451
 1665SOL    HW2 5895   0.982   1.241   2.344
 1666SOL     OW 5896   6.157   2.425   6.117
 1666SOL    HW1 5897   6.239   2.446   6.169
 1666SOL    HW2 5898   6.076   2.436   6.176
 1667SOL     OW 5899   6.310   6.560   6.331
 1667SOL    HW1 5900   6.314   6.656   6.358
 1667SOL    HW2 5901   6.359   6.548   6.244
 1668SOL     OW 5902   4.551   0.161   4.409
 1668SOL    HW1 5903   4.553   0.062   4.425
 1668SOL    HW2 5904   4.530   0.207   4.495
 1669SOL     OW 5905   5.906   6.744   6.442
 1669SOL    HW1 5906   5.956   6.661   6.466
 1669SOL    HW2 5907   5.912   6.760   6.344
 1670SOL     OW 5908   6.078   4.860   5.847
 1670SOL    HW1 5909   6.111   4.954   5.857
 1670SOL    HW2 5910   6.155   4.800   5.825
 1671SOL     OW 5911   4.431   3.519   0.684
 1671SOL    HW1 5912   4.336   3.513   0.715
 1671SOL    HW2 5913   4.435   3.502   0.586
 1672SOL     OW 5914   2.288   4.174   2.699
 1672SOL    HW1 5915   2.244   4.145   2.614
 1672SOL    HW2 5916   2.350   4.250   2.680
 1673SOL     OW 5917   6.688   3.446   4.741
 1673SOL    HW1 5918   6.721   3.532   4.778
 1673SOL    HW2 5919   6.760   3.377   4.746
 1674SOL     OW 5920   1.408   3.894   0.744
 1674SOL    HW1 5921   1.480   3.848   0.796
 1674SOL    HW2 5922   1.330   3.913   0.803
 1675SOL     OW 5923   4.908   1.073   6.869
 1675SOL    HW1 5924   4.892   1.166   6.836
 1675SOL    HW2 5925   4.916   1.011   6.791
 1676SOL     OW 5926   2.630   1.255   2.321
 1676SOL    HW1 5927   2.728   1.235   2.309
 1676SOL    HW2 5928   2.587   1.264   2.231
 1677SOL     OW 5929   5.698   1.613   5.367
 1677SOL    HW1 5930   5.621   1.674   5.386
 1677SOL    HW2 5931   5.696   1.537   5.433
 1678SOL     OW 5932   5.000   5.816   2.138
 1678SOL    HW1 5933   5.090   5.857   2.128
 1678SOL    HW2 5934   4.965   5.791   2.048
 1679SOL     OW 5935   1.035   3.009   5.573
 1679SOL    HW1 5936   1.099   3.075   5.535
 1679SOL    HW2 5937   1.086   2.934   5.615
 1680SOL     OW 5938   0.501   1.563   3.857
 1680SOL    HW1 5939   0.473   1.659   3.854
 1680SOL    HW2 5940   0.582   1.553   3.916
 1681SOL     OW 5941   6.195   5.361   1.288
 1681SOL    HW1 5942   6.245   5.316   1.214
 1681SOL    HW2 5943   6.259   5.387   1.360
 1682SOL     OW 5944   0.247   2.988   4.719
 1682SOL    HW1 5945   0.336   2.980   4.674
 1682SOL    HW2 5946   0.252   3.058   4.791
 1683SOL     OW 5947   4.811   4.878   1.347
 1683SOL    HW1 5948   4.834   4.972   1.372
 1683SOL    HW2 5949   4.844   4.815   1.418
 1684SOL     OW 5950   0.799   6.805   4.815
 1684SOL    HW1 5951   0.757   6.841   4.898
 1684SOL    HW2 5952   0.749   6.723   4.785
 1685SOL     OW 5953   1.883   1.207   6.999
 1685SOL    HW1 5954   1.933   1.291   6.981
 1685SOL    HW2 5955   1.936   1.128   6.968
 1686SOL     OW 5956   1.470   5.566   5.348
 1686SOL    HW1 5957   1.392   5.557   5.286
 1686SOL    HW2 5958   1.549   5.519   5.308
 1687SOL     OW 5959   1.889   4.519   2.602
 1687SOL    HW1 5960   1.884   4.419   2.596
 1687SOL    HW2 5961   1.984   4.548   2.593
 1688SOL     OW 5962   1.555   1.204   3.110
 1688SOL    HW1 5963   1.637   1.232   3.059
 1688SOL    HW2 5964   1.474   1.215   3.052
 1689SOL     OW 5965   3.015   2.212   2.342
 1689SOL    HW1 5966   3.104   2.167   2.335
 1689SOL    HW2 5967   2.992   2.254   2.254
 1690SOL     OW 5968   1.834   1.517   2.228
 1690SOL    HW1 5969   1.852   1.425   2.195
 1690SOL    HW2 5970   1.763   1.559   2.171
 1691SOL     OW 5971   5.009   3.209   3.412
 1691SOL    HW1 5972   5.032   3.280   3.479
 1691SOL    HW2 5973   4.967   3.252   3.332
 1692SOL     OW 5974   0.210   0.154   1.642
 1692SOL    HW1 5975   0.271   0.075   1.645
 1692SOL    HW2 5976   0.263   0.238   1.630
 1693SOL     OW 5977   2.179   3.006   3.238
 1693SOL    HW1 5978   2.086   3.011   3.276
 1693SOL    HW2 5979   2.241   2.970   3.307
 1694SOL     OW 5980   4.326   5.719   4.979
 1694SOL    HW1 5981   4.307   5.621   4.984
 1694SOL    HW2 5982   4.424   5.734   4.974
 1695SOL     OW 5983   2.622   2.412   5.611
 1695SOL    HW1 5984   2.530   2.444   5.635
 1695SOL    HW2 5985   2.688   2.449   5.676
 1696SOL     OW 5986   5.210   5.836   0.599
 1696SOL    HW1 5987   5.288   5.865   0.654
 1696SOL    HW2 5988   5.238   5.762   0.538
 1697SOL     OW 5989   1.148   0.157   1.824
 1697SOL    HW1 5990   1.052   0.137   1.845
 1697SOL    HW2 5991   1.207   0.103   1.884
 1698SOL     OW 5992   4.876   2.420   1.703
 1698SOL    HW1 5993   4.971   2.407   1.730
 1698SOL    HW2 5994   4.829   2.332   1.702
 1699SOL     OW 5995   2.740   3.079   1.105
 1699SOL    HW1 5996   2.695   2.994   1.077
 1699SOL    HW2 5997   2.812   3.102   1.040
 1700SOL     OW 5998   6.798   2.680   2.889
 1700SOL    HW1 5999   6.897   2.670   2.895
 1700SOL    HW2 6000   6.770   2.678   2.793
 1701SOL     OW 6001   6.190   2.953   4.606
 1701SOL    HW1 6002   6.105   2.903   4.622
 1701SOL    HW2 6003   6.212   3.006   4.688
 1702SOL     OW 6004   5.899   3.652   1.035
 1702SOL    HW1 6005   5.867   3.564   1.072
 1702SOL    HW2 6006   5.971   3.688   1.094
 1703SOL     OW 6007   2.495   3.782   1.075
 1703SOL    HW1 6008   2.476   3.823   1.164
 1703SOL    HW2 6009   2.422   3.805   1.011
 1704SOL     OW 6010   0.321   1.096   1.062
 1704SOL    HW1 6011   0.281   1.028   1.000
 1704SOL    HW2 6012   0.330   1.184   1.014
 1705SOL     OW 6013   3.713   2.497   1.464
 1705SOL    HW1 6014   3.626   2.464   1.428
 1705SOL    HW2 6015   3.787   2.439   1.431
 1706SOL     OW 6016   4.317   0.514   0.424
 1706SOL    HW1 6017   4.342   0.610   0.430
 1706SOL    HW2 6018   4.380   0.467   0.361
 1707SOL     OW 6019   5.324   2.336   2.675
 1707SOL    HW1 6020   5.292   2.284   2.596
 1707SOL    HW2 6021   5.280   2.301   2.757
 1708SOL     OW 6022   6.396   6.151   2.659
 1708SOL    HW1 6023   6.441   6.240   2.647
 1708SOL    HW2 6024   6.305   6.165   2.698
 1709SOL     OW 6025   2.566   6.849   2.324
 1709SOL    HW1 6026   2.570   6.905   2.406
 1709SOL    HW2 6027   2.638   6.878   2.261
 1710SOL     OW 6028   0.500   4.700   3.791
 1710SOL    HW1 6029   0.461   4.710   3.700
 1710SOL    HW2 6030   0.446   4.754   3.856
 1711SOL     OW 6031   1.476   4.657   5.464
 1711SOL    HW1 6032   1.384   4.619   5.462
 1711SOL    HW2 6033   1.537   4.600   5.410
 1712SOL     OW 6034   0.559   4.041   0.288
 1712SOL    HW1 6035   0.619   4.120   0.279
 1712SOL    HW2 6036   0.468   4.071   0.317
 1713SOL     OW 6037   2.063   2.618   1.672
 1713SOL    HW1 6038   2.055   2.713   1.640
 1713SOL    HW2 6039   1.972   2.584   1.696
 1714SOL     OW 6040   4.008   1.741   6.486
 1714SOL    HW1 6041   4.070   1.777   6.416
 1714SOL    HW2 6042   3.948   1.672   6.445
 1715SOL     OW 6043   0.767   3.237   3.006
 1715SOL    HW1 6044   0.835   3.206   3.073
 1715SOL    HW2 6045   0.676   3.207   3.034
 1716SOL     OW 6046   6.569   0.177   0.616
 1716SOL    HW1 6047   6.655   0.219   0.648
 1716SOL    HW2 6048   6.543   0.103   0.678
 1717SOL     OW 6049   2.616   6.454   0.103
 1717SOL    HW1 6050   2.608   6.430   0.006
 1717SOL    HW2 6051   2.705   6.497   0.119
 1718SOL     OW 6052   1.756   3.908   6.934
 1718SOL    HW1 6053   1.755   3.935   6.838
 1718SOL    HW2 6054   1.722   3.983   6.991
 1719SOL     OW 6055   2.524   3.160   1.573
 1719SOL    HW1 6056   2.536   3.249   1.615
 1719SOL    HW2 6057   2.471   3.170   1.488
 1720SOL     OW 6058   6.915   1.611   0.965
 1720SOL    HW1 6059   6.909   1.534   1.027
 1720SOL    HW2 6060   6.834   1.612   0.906
 1721SOL     OW 6061   1.867   6.556   3.147
 1721SOL    HW1 6062   1.938   6.616   3.183
 1721SOL    HW2 6063   1.844   6.487   3.216
 1722SOL     OW 6064   5.688   0.342   2.169
 1722SOL    HW1 6065   5.776   0.333   2.121
 1722SOL    HW2 6066   5.678   0.437   2.199
 1723SOL     OW 6067   6.793   2.099   2.795
 1723SOL    HW1 6068   6.721   2.038   2.760
 1723SOL    HW2 6069   6.778   2.114   2.892
 1724SOL     OW 6070   5.419   0.945   0.312
 1724SOL    HW1 6071   5.412   0.846   0.324
 1724SOL    HW2 6072   5.435   0.965   0.215
 1725SOL     OW 6073   3.505   4.390   0.865
 1725SOL    HW1 6074   3.473   4.330   0.939
 1725SOL    HW2 6075   3.561   4.336   0.801
 1726SOL     OW 6076   6.826   4.705   4.608
 1726SOL    HW1 6077   6.764   4.752   4.669
 1726SOL    HW2 6078   6.920   4.731   4.629
 1727SOL     OW 6079   4.151   3.326   4.939
 1727SOL    HW1 6080   4.151   3.369   5.029
 1727SOL    HW2 6081   4.196   3.237   4.944
 1728SOL     OW 6082   4.664   4.578   4.231
 1728SOL    HW1 6083   4.601   4.527   4.290
 1728SOL    HW2 6084   4.660   4.543   4.138
 1729SOL     OW 6085   0.986   3.924   3.120
 1729SOL    HW1 6086   0.948   3.982   3.048
 1729SOL    HW2 6087   0.996   3.978   3.204
 1730SOL     OW 6088   6.598   1.402   4.628
 1730SOL    HW1 6089   6.543   1.457   4.566
 1730SOL    HW2 6090   6.610   1.310   4.589
 1731SOL     OW 6091   2.191   4.880   1.369
 1731SOL    HW1 6092   2.145   4.802   1.413
 1731SOL    HW2 6093   2.289   4.859   1.359
 1732SOL     OW 6094   1.915   4.528   0.287
 1732SOL    HW1 6095   1.883   4.565   0.374
 1732SOL    HW2 6096   1.838   4.486   0.238
 1733SOL     OW 6097   1.103   4.181   1.968
 1733SOL    HW1 6098   1.047   4.191   2.051
 1733SOL    HW2 6099   1.153   4.095   1.973
 1734SOL     OW 6100   4.400   3.214   0.576
 1734SOL    HW1 6101   4.345   3.189   0.655
 1734SOL    HW2 6102   4.497   3.210   0.599
 1735SOL     OW 6103   6.353   5.256   1.668
 1735SOL    HW1 6104   6.319   5.162   1.664
 1735SOL    HW2 6105   6.449   5.258   1.641
 1736SOL     OW 6106   3.272   3.155   0.000
 1736SOL    HW1 6107   3.320   3.181   6.938
 1736SOL    HW2 6108   3.332   3.167   0.079
 1737SOL     OW 6109   2.262   0.551   4.291
 1737SOL    HW1 6110   2.280   0.453   4.283
 1737SOL    HW2 6111   2.245   0.589   4.201
 1738SOL     OW 6112   1.912   2.508   2.430
 1738SOL    HW1 6113   1.911   2.419   2.476
 1738SOL    HW2 6114   1.986   2.509   2.362
 1739SOL     OW 6115   4.473   2.444   4.803
 1739SOL    HW1 6116   4.546   2.491   4.754
 1739SOL    HW2 6117   4.488   2.452   4.901
 1740SOL     OW 6118   0.133   1.140   6.953
 1740SOL    HW1 6119   0.044   1.186   6.953
 1740SOL    HW2 6120   0.160   1.121   6.858
 1741SOL     OW 6121   2.496   0.792   2.589
 1741SOL    HW1 6122   2.497   0.818   2.492
 1741SOL    HW2 6123   2.587   0.808   2.628
 1742SOL     OW 6124   5.425   0.109   5.206
 1742SOL    HW1 6125   5.490   0.159   5.264
 1742SOL    HW2 6126   5.334   0.150   5.215
 1743SOL     OW 6127   2.485   1.139   1.770
 1743SOL    HW1 6128   2.575   1.133   1.727
 1743SOL    HW2 6129   2.430   1.207   1.722
 1744SOL     OW 6130   2.412   0.914   1.874
 1744SOL    HW1 6131   2.432   1.009   1.850
 1744SOL    HW2 6132   2.313   0.902   1.881
 1745SOL     OW 6133   6.977   1.907   3.490
 1745SOL    HW1 6134   0.021   1.838   3.460
 1745SOL    HW2 6135   6.909   1.922   3.418
 1746SOL     OW 6136   2.980   6.969   6.364
 1746SOL    HW1 6137   2.996   7.012   6.453
 1746SOL    HW2 6138   3.068   6.947   6.322
 1747SOL     OW 6139   4.133   0.029   1.708
 1747SOL    HW1 6140   4.211   0.069   1.757
 1747SOL    HW2 6141   4.141   0.049   1.610
 1748SOL     OW 6142   6.014   1.803   3.524
 1748SOL    HW1 6143   6.096   1.760   3.562
 1748SOL    HW2 6144   6.008   1.897   3.556
 1749SOL     OW 6145   4.176   6.724   6.585
 1749SOL    HW1 6146   4.176   6.823   6.601
 1749SOL    HW2 6147   4.107   6.701   6.517
 1750SOL     OW 6148   5.703   1.576   2.825
 1750SOL    HW1 6149   5.653   1.505   2.874
 1750SOL    HW2 6150   5.649   1.608   2.747
 1751SOL     OW 6151   1.923   5.121   4.790
 1751SOL    HW1 6152   1.991   5.087   4.855
 1751SOL    HW2 6153   1.832   5.089   4.816
 1752SOL     OW 6154   6.780   1.961   0.860
 1752SOL    HW1 6155   6.830   1.995   0.940
 1752SOL    HW2 6156   6.688   2.001   0.859
 1753SOL     OW 6157   0.977   0.135   6.940
 1753SOL    HW1 6158   1.003   0.040   6.924
 1753SOL    HW2 6159   0.878   0.142   6.950
 1754SOL     OW 6160   3.748   3.226   1.027
 1754SOL    HW1 6161   3.755   3.202   1.124
 1754SOL    HW2 6162   3.659   3.196   0.992
 1755SOL     OW 6163   5.298   4.578   1.382
 1755SOL    HW1 6164   5.273   4.579   1.478
 1755SOL    HW2 6165   5.333   4.487   1.358
 1756SOL     OW 6166   6.322   4.743   4.065
 1756SOL    HW1 6167   6.225   4.717   4.063
 1756SOL    HW2 6168   6.351   4.753   4.160
 1757SOL     OW 6169   2.807   6.239   4.566
 1757SOL    HW1 6170   2.881   6.179   4.535
 1757SOL    HW2 6171   2.724   6.219   4.514
 1758SOL     OW 6172   3.153   1.398   3.364
 1758SOL    HW1 6173   3.140   1.490   3.401
 1758SOL    HW2 6174   3.131   1.330   3.434
 1759SOL     OW 6175   0.374   4.701   5.954
 1759SOL    HW1 6176   0.448   4.732   5.895
 1759SOL    HW2 6177   0.288   4.745   5.927
 1760SOL     OW 6178   6.186   1.220   1.444
 1760SOL    HW1 6179   6.263   1.282   1.433
 1760SOL    HW2 6180   6.209   1.131   1.403
 1761SOL     OW 6181   5.891   0.867   0.826
 1761SOL    HW1 6182   5.841   0.808   0.889
 1761SOL    HW2 6183   5.983   0.831   0.813
 1762SOL     OW 6184   6.368   2.079   5.050
 1762SOL    HW1 6185   6.412   2.022   4.980
 1762SOL    HW2 6186   6.437   2.131   5.099
 1763SOL     OW 6187   2.087   4.005   4.715
 1763SOL    HW1 6188   2.100   3.906   4.713
 1763SOL    HW2 6189   2.055   4.033   4.805
 1764SOL     OW 6190   1.734   3.383   3.042
 1764SOL    HW1 6191   1.662   3.332   3.089
 1764SOL    HW2 6192   1.747   3.345   2.951
 1765SOL     OW 6193   2.644   1.464   0.172
 1765SOL    HW1 6194   2.743   1.481   0.173
 1765SOL    HW2 6195   2.620   1.410   0.092
 1766SOL     OW 6196   5.312   2.944   4.962
 1766SOL    HW1 6197   5.274   3.033   4.989
 1766SOL    HW2 6198   5.315   2.884   5.041
 1767SOL     OW 6199   5.449   3.748   2.101
 1767SOL    HW1 6200   5.437   3.846   2.089
 1767SOL    HW2 6201   5.546   3.727   2.115
 1768SOL     OW 6202   4.554   0.173   3.886
 1768SOL    HW1 6203   4.501   0.152   3.969
 1768SOL    HW2 6204   4.529   0.110   3.814
 1769SOL     OW 6205   4.000   1.869   3.915
 1769SOL    HW1 6206   4.100   1.872   3.919
 1769SOL    HW2 6207   3.965   1.958   3.885
 1770SOL     OW 6208   1.851   5.759   4.861
 1770SOL    HW1 6209   1.945   5.791   4.853
 1770SOL    HW2 6210   1.796   5.828   4.908
 1771SOL     OW 6211   2.648   5.716   0.177
 1771SOL    HW1 6212   2.728   5.775   0.171
 1771SOL    HW2 6213   2.641   5.661   0.093
 1772SOL     OW 6214   3.716   0.027   3.769
 1772SOL    HW1 6215   3.623   0.022   3.806
 1772SOL    HW2 6216   3.722   0.105   3.706
 1773SOL     OW 6217   2.114   4.904   5.739
 1773SOL    HW1 6218   2.021   4.940   5.730
 1773SOL    HW2 6219   2.175   4.978   5.767
 1774SOL     OW 6220   3.901   5.693   1.425
 1774SOL    HW1 6221   3.827   5.634   1.457
 1774SOL    HW2 6222   3.947   5.649   1.348
 1775SOL     OW 6223   0.830   4.488   2.398
 1775SOL    HW1 6224   0.876   4.546   2.465
 1775SOL    HW2 6225   0.798   4.544   2.322
 1776SOL     OW 6226   3.879   6.183   4.198
 1776SOL    HW1 6227   3.959   6.175   4.257
 1776SOL    HW2 6228   3.796   6.171   4.252
 1777SOL     OW 6229   3.458   5.601   0.121
 1777SOL    HW1 6230   3.505   5.610   0.209
 1777SOL    HW2 6231   3.473   5.683   0.066
 1778SOL     OW 6232   4.659   3.239   5.463
 1778SOL    HW1 6233   4.650   3.139   5.462
 1778SOL    HW2 6234   4.726   3.267   5.394
 1779SOL     OW 6235   4.074   0.392   4.594
 1779SOL    HW1 6236   4.008   0.330   4.551
 1779SOL    HW2 6237   4.070   0.381   4.693
 1780SOL     OW 6238   3.589   2.666   6.795
 1780SOL    HW1 6239   3.536   2.719   6.862
 1780SOL    HW2 6240   3.682   2.654   6.829
 1781SOL     OW 6241   3.759   6.231   2.537
 1781SOL    HW1 6242   3.768   6.258   2.441
 1781SOL    HW2 6243   3.736   6.133   2.542
 1782SOL     OW 6244   3.083   1.712   3.125
 1782SOL    HW1 6245   3.170   1.719   3.174
 1782SOL    HW2 6246   3.029   1.794   3.141
 1783SOL     OW 6247   2.719   5.442   6.013
 1783SOL    HW1 6248   2.725   5.346   5.987
 1783SOL    HW2 6249   2.625   5.465   6.039
 1784SOL     OW 6250   4.444   0.830   5.732
 1784SOL    HW1 6251   4.442   0.819   5.832
 1784SOL    HW2 6252   4.352   0.848   5.699
 1785SOL     OW 6253   6.533   3.666   2.808
 1785SOL    HW1 6254   6.501   3.751   2.766
 1785SOL    HW2 6255   6.500   3.588   2.755
 1786SOL     OW 6256   1.974   2.812   7.000
 1786SOL    HW1 6257   1.996   2.837   6.906
 1786SOL    HW2 6258   1.887   2.762   7.002
 1787SOL     OW 6259   2.610   1.356   5.209
 1787SOL    HW1 6260   2.697   1.307   5.208
 1787SOL    HW2 6261   2.565   1.348   5.120
 1788SOL     OW 6262   2.485   4.685   5.775
 1788SOL    HW1 6263   2.454   4.665   5.682
 1788SOL    HW2 6264   2.571   4.735   5.771
 1789SOL     OW 6265   5.725   2.237   1.118
 1789SOL    HW1 6266   5.638   2.279   1.147
 1789SOL    HW2 6267   5.753   2.170   1.187
 1790SOL     OW 6268   3.672   6.531   3.351
 1790SOL    HW1 6269   3.726   6.543   3.435
 1790SOL    HW2 6270   3.676   6.435   3.323
 1791SOL     OW 6271   7.018   0.968   3.023
 1791SOL    HW1 6272   6.991   0.993   2.930
 1791SOL    HW2 6273   6.970   1.027   3.089
 1792SOL     OW 6274   6.894   3.536   4.980
 1792SOL    HW1 6275   6.840   3.612   4.944
 1792SOL    HW2 6276   6.966   3.513   4.915
 1793SOL     OW 6277   6.085   0.109   3.877
 1793SOL    HW1 6278   6.118   0.192   3.832
 1793SOL    HW2 6279   6.150   0.034   3.859
 1794SOL     OW 6280   5.406   6.041   5.827
 1794SOL    HW1 6281   5.353   5.956   5.820
 1794SOL    HW2 6282   5.469   6.048   5.749
 1795SOL     OW 6283   1.059   2.402   1.069
 1795SOL    HW1 6284   1.143   2.421   1.120
 1795SOL    HW2 6285   1.027   2.486   1.025
 1796SOL     OW 6286   2.650   1.070   5.967
 1796SOL    HW1 6287   2.645   1.165   5.936
 1796SOL    HW2 6288   2.657   1.067   6.067
 1797SOL     OW 6289   1.726   0.225   0.141
 1797SOL    HW1 6290   1.790   0.151   0.123
 1797SOL    HW2 6291   1.767   0.312   0.113
 1798SOL     OW 6292   4.537   2.350   3.936
 1798SOL    HW1 6293   4.527   2.437   3.984
 1798SOL    HW2 6294   4.600   2.291   3.986
 1799SOL     OW 6295   7.021   2.671   4.348
 1799SOL    HW1 6296   0.089   2.688   4.389
 1799SOL    HW2 6297   6.951   2.718   4.401
 1800SOL     OW 6298   4.468   4.091   1.445
 1800SOL    HW1 6299   4.508   4.143   1.521
 1800SOL    HW2 6300   4.520   4.007   1.430
 1801SOL     OW 6301   0.267   0.407   2.312
 1801SOL    HW1 6302   0.219   0.338   2.368
 1801SOL    HW2 6303   0.358   0.373   2.289
 1802SOL     OW 6304   5.351   5.871   4.180
 1802SOL    HW1 6305   5.445   5.839   4.165
 1802SOL    HW2 6306   5.287   5.799   4.152
 1803SOL     OW 6307   0.048   5.478   0.019
 1803SOL    HW1 6308   6.973   5.453   0.030
 1803SOL    HW2 6309   0.082   5.518   0.104
 1804SOL     OW 6310   2.678   4.059   5.479
 1804SOL    HW1 6311   2.736   3.982   5.505
 1804SOL    HW2 6312   2.617   4.031   5.405
 1805SOL     OW 6313   5.068   3.395   6.096
 1805SOL    HW1 6314   5.086   3.383   6.194
 1805SOL    HW2 6315   4.988   3.342   6.070
 1806SOL     OW 6316   0.413   6.824   6.257
 1806SOL    HW1 6317   0.350   6.748   6.267
 1806SOL    HW2 6318   0.376   6.890   6.191
 1807SOL     OW 6319   5.630   2.714   4.694
 1807SOL    HW1 6320   5.543   2.749   4.660
 1807SOL    HW2 6321   5.619   2.686   4.790
 1808SOL     OW 6322   0.063   4.157   5.244
 1808SOL    HW1 6323   0.034   4.213   5.166
 1808SOL    HW2 6324   7.003   4.128   5.295
 1809SOL     OW 6325   2.410   2.433   5.143
 1809SOL    HW1 6326   2.390   2.400   5.235
 1809SOL    HW2 6327   2.405   2.533   5.142
 1810SOL     OW 6328   2.769   0.169   3.963
 1810SOL    HW1 6329   2.673   0.176   3.988
 1810SOL    HW2 6330   2.824   0.155   4.045
 1811SOL     OW 6331   5.811   6.095   3.451
 1811SOL    HW1 6332   5.865   6.061   3.527
 1811SOL    HW2 6333   5.742   6.159   3.485
 1812SOL     OW 6334   4.164   5.921   5.080
 1812SOL    HW1 6335   4.075   5.876   5.094
 1812SOL    HW2 6336   4.230   5.854   5.046
 1813SOL     OW 6337   5.915   4.232   0.392
 1813SOL    HW1 6338   5.835   4.212   0.335
 1813SOL    HW2 6339   5.915   4.173   0.473
 1814SOL     OW 6340   4.953   0.048   1.992
 1814SOL    HW1 6341   4.940   0.113   2.067
 1814SOL    HW2 6342   4.864   0.018   1.958
 1815SOL     OW 6343   0.685   1.851   2.058
 1815SOL    HW1 6344   0.690   1.819   2.152
 1815SOL    HW2 6345   0.647   1.779   2.000
 1816SOL     OW 6346   2.796   2.684   0.913
 1816SOL    HW1 6347   2.893   2.668   0.897
 1816SOL    HW2 6348   2.745   2.600   0.895
 1817SOL     OW 6349   2.401   6.492   2.212
 1817SOL    HW1 6350   2.380   6.403   2.171
 1817SOL    HW2 6351   2.316   6.538   2.238
 1818SOL     OW 6352   1.136   0.096   3.258
 1818SOL    HW1 6353   1.183   0.098   3.345
 1818SOL    HW2 6354   1.097   0.186   3.239
 1819SOL     OW 6355   1.331   4.602   1.876
 1819SOL    HW1 6356   1.384   4.545   1.939
 1819SOL    HW2 6357   1.377   4.604   1.787
 1820SOL     OW 6358   4.297   1.201   2.699
 1820SOL    HW1 6359   4.307   1.291   2.742
 1820SOL    HW2 6360   4.201   1.174   2.700
 1821SOL     OW 6361   2.235   1.344   2.811
 1821SOL    HW1 6362   2.274   1.284   2.742
 1821SOL    HW2 6363   2.254   1.439   2.787
 1822SOL     OW 6364   3.504   2.929   1.564
 1822SOL    HW1 6365   3.601   2.909   1.581
 1822SOL    HW2 6366   3.449   2.893   1.639
 1823SOL     OW 6367   3.927   6.389   3.255
 1823SOL    HW1 6368   3.944   6.487   3.246
 1823SOL    HW2 6369   3.929   6.347   3.164
 1824SOL     OW 6370   4.272   2.772   0.947
 1824SOL    HW1 6371   4.346   2.820   0.901
 1824SOL    HW2 6372   4.290   2.674   0.947
 1825SOL     OW 6373   0.765   0.640   2.033
 1825SOL    HW1 6374   0.668   0.623   2.048
 1825SOL    HW2 6375   0.798   0.586   1.955
 1826SOL     OW 6376   3.212   1.492   1.553
 1826SOL    HW1 6377   3.218   1.454   1.645
 1826SOL    HW2 6378   3.300   1.530   1.526
 1827SOL     OW 6379   0.041   4.735   1.925
 1827SOL    HW1 6380   0.092   4.802   1.871
 1827SOL    HW2 6381   0.094   4.650   1.931
 1828SOL     OW 6382   0.722   2.951   0.059
 1828SOL    HW1 6383   0.638   2.955   0.113
 1828SOL    HW2 6384   0.700   2.960   6.983
 1829SOL     OW 6385   4.973   6.752   3.025
 1829SOL    HW1 6386   4.924   6.839   3.025
 1829SOL    HW2 6387   5.065   6.766   3.063
 1830SOL     OW 6388   5.026   6.490   3.773
 1830SOL    HW1 6389   4.974   6.511   3.855
 1830SOL    HW2 6390   5.038   6.391   3.765
 1831SOL     OW 6391   6.025   6.905   2.627
 1831SOL    HW1 6392   6.025   6.832   2.560
 1831SOL    HW2 6393   5.933   6.941   2.639
 1832SOL     OW 6394   5.060   2.157   1.287
 1832SOL    HW1 6395   5.072   2.247   1.331
 1832SOL    HW2 6396   5.057   2.086   1.358
 1833SOL     OW 6397   5.436   6.642   4.657
 1833SOL    HW1 6398   5.379   6.644   4.575
 1833SOL    HW2 6399   5.438   6.734   4.698
 1834SOL     OW 6400   3.912   3.849   0.865
 1834SOL    HW1 6401   3.885   3.838   0.961
 1834SOL    HW2 6402   3.854   3.790   0.808
 1835SOL     OW 6403   1.520   4.091   1.418
 1835SOL    HW1 6404   1.533   4.090   1.517
 1835SOL    HW2 6405   1.462   4.168   1.393
 1836SOL     OW 6406   0.137   1.884   0.991
 1836SOL    HW1 6407   0.159   1.907   1.086
 1836SOL    HW2 6408   0.044   1.847   0.987
 1837SOL     OW 6409   0.899   2.496   4.363
 1837SOL    HW1 6410   0.837   2.419   4.379
 1837SOL    HW2 6411   0.937   2.489   4.271
 1838SOL     OW 6412   0.307   2.440   3.839
 1838SOL    HW1 6413   0.247   2.515   3.813
 1838SOL    HW2 6414   0.368   2.418   3.763
 1839SOL     OW 6415   5.596   2.734   4.984
 1839SOL    HW1 6416   5.652   2.651   4.990
 1839SOL    HW2 6417   5.537   2.741   5.064
 1840SOL     OW 6418   2.607   5.968   1.174
 1840SOL    HW1 6419   2.586   6.031   1.099
 1840SOL    HW2 6420   2.644   5.883   1.136
 1841SOL     OW 6421   2.164   3.662   4.386
 1841SOL    HW1 6422   2.188   3.663   4.289
 1841SOL    HW2 6423   2.092   3.729   4.403
 1842SOL     OW 6424   0.407   5.392   1.291
 1842SOL    HW1 6425   0.483   5.403   1.355
 1842SOL    HW2 6426   0.345   5.470   1.300
 1843SOL     OW 6427   1.766   2.239   5.207
 1843SOL    HW1 6428   1.698   2.240   5.134
 1843SOL    HW2 6429   1.858   2.246   5.167
 1844SOL     OW 6430   3.847   2.027   4.981
 1844SOL    HW1 6431   3.887   1.958   4.920
 1844SOL    HW2 6432   3.919   2.091   5.009
 1845SOL     OW 6433   2.776   0.210   6.667
 1845SOL    HW1 6434   2.842   0.136   6.678
 1845SOL    HW2 6435   2.801   0.266   6.588
 1846SOL     OW 6436   4.369   1.963   6.529
 1846SOL    HW1 6437   4.382   1.874   6.572
 1846SOL    HW2 6438   4.457   2.000   6.501
 1847SOL     OW 6439   0.717   0.415   6.499
 1847SOL    HW1 6440   0.811   0.407   6.533
 1847SOL    HW2 6441   0.681   0.323   6.482
 1848SOL     OW 6442   2.134   5.985   2.851
 1848SOL    HW1 6443   2.047   5.936   2.855
 1848SOL    HW2 6444   2.165   5.990   2.756
 1849SOL     OW 6445   4.316   0.866   0.345
 1849SOL    HW1 6446   4.293   0.860   0.248
 1849SOL    HW2 6447   4.415   0.869   0.356
 1850SOL     OW 6448   5.909   1.696   3.023
 1850SOL    HW1 6449   5.819   1.670   2.986
 1850SOL    HW2 6450   5.936   1.784   2.984
 1851SOL     OW 6451   0.190   1.457   1.490
 1851SOL    HW1 6452   0.261   1.470   1.421
 1851SOL    HW2 6453   0.230   1.470   1.581
 1852SOL     OW 6454   4.557   4.041   0.845
 1852SOL    HW1 6455   4.465   4.002   0.853
 1852SOL    HW2 6456   4.600   4.008   0.761
 1853SOL     OW 6457   0.923   3.939   1.563
 1853SOL    HW1 6458   1.017   3.924   1.596
 1853SOL    HW2 6459   0.923   4.015   1.498
 1854SOL     OW 6460   3.049   5.558   4.020
 1854SOL    HW1 6461   3.112   5.572   3.944
 1854SOL    HW2 6462   3.066   5.627   4.091
 1855SOL     OW 6463   4.921   5.099   0.717
 1855SOL    HW1 6464   4.987   5.110   0.643
 1855SOL    HW2 6465   4.962   5.048   0.792
 1856SOL     OW 6466   6.563   2.475   5.716
 1856SOL    HW1 6467   6.490   2.537   5.747
 1856SOL    HW2 6468   6.557   2.389   5.767
 1857SOL     OW 6469   4.683   0.856   4.807
 1857SOL    HW1 6470   4.650   0.848   4.901
 1857SOL    HW2 6471   4.694   0.764   4.768
 1858SOL     OW 6472   5.464   3.127   3.736
 1858SOL    HW1 6473   5.392   3.187   3.772
 1858SOL    HW2 6474   5.553   3.172   3.747
 1859SOL     OW 6475   4.161   2.121   3.460
 1859SOL    HW1 6476   4.186   2.032   3.499
 1859SOL    HW2 6477   4.170   2.191   3.531
 1860SOL     OW 6478   6.450   1.188   3.876
 1860SOL    HW1 6479   6.489   1.097   3.891
 1860SOL    HW2 6480   6.485   1.226   3.790
 1861SOL     OW 6481   4.801   6.368   2.272
 1861SOL    HW1 6482   4.726   6.304   2.261
 1861SOL    HW2 6483   4.857   6.370   2.189
 1862SOL     OW 6484   2.252   6.761   0.392
 1862SOL    HW1 6485   2.328   6.731   0.334
 1862SOL    HW2 6486   2.166   6.730   0.352
 1863SOL     OW 6487   2.875   2.107   0.997
 1863SOL    HW1 6488   2.842   2.176   1.061
 1863SOL    HW2 6489   2.798   2.064   0.951
 1864SOL     OW 6490   0.983   6.708   5.091
 1864SOL    HW1 6491   1.070   6.669   5.120
 1864SOL    HW2 6492   0.985   6.807   5.102
 1865SOL     OW 6493   3.815   1.216   5.575
 1865SOL    HW1 6494   3.732   1.195   5.626
 1865SOL    HW2 6495   3.806   1.307   5.534
 1866SOL     OW 6496   4.361   4.606   2.665
 1866SOL    HW1 6497   4.379   4.590   2.568
 1866SOL    HW2 6498   4.378   4.702   2.687
 1867SOL     OW 6499   0.258   4.101   0.302
 1867SOL    HW1 6500   0.260   4.103   0.202
 1867SOL    HW2 6501   0.197   4.029   0.334
 1868SOL     OW 6502   5.710   4.681   6.616
 1868SOL    HW1 6503   5.710   4.721   6.707
 1868SOL    HW2 6504   5.727   4.582   6.622
 1869SOL     OW 6505   6.572   2.216   5.172
 1869SOL    HW1 6506   6.586   2.194   5.269
 1869SOL    HW2 6507   6.658   2.246   5.132
 1870SOL     OW 6508   2.231   4.329   5.642
 1870SOL    HW1 6509   2.312   4.272   5.655
 1870SOL    HW2 6510   2.182   4.299   5.560
 1871SOL     OW 6511   1.646   7.000   0.892
 1871SOL    HW1 6512   1.639   0.076   0.912
 1871SOL    HW2 6513   1.632   6.985   0.794
 1872SOL     OW 6514   2.980   4.439   0.000
 1872SOL    HW1 6515   2.932   4.386   6.952
 1872SOL    HW2 6516   3.078   4.418   7.018
 1873SOL     OW 6517   3.965   0.987   5.511
 1873SOL    HW1 6518   3.914   1.073   5.517
 1873SOL    HW2 6519   3.975   0.960   5.415
 1874SOL     OW 6520   2.850   1.941   1.468
 1874SOL    HW1 6521   2.875   1.844   1.457
 1874SOL    HW2 6522   2.754   1.947   1.497
 1875SOL     OW 6523   0.640   6.894   6.572
 1875SOL    HW1 6524   0.562   6.925   6.626
 1875SOL    HW2 6525   0.722   6.896   6.629
 1876SOL     OW 6526   3.591   0.089   5.557
 1876SOL    HW1 6527   3.584   0.186   5.532
 1876SOL    HW2 6528   3.674   0.051   5.517
 1877SOL     OW 6529   0.388   0.606   3.792
 1877SOL    HW1 6530   0.351   0.517   3.766
 1877SOL    HW2 6531   0.316   0.675   3.788
 1878SOL     OW 6532   6.799   2.172   3.762
 1878SOL    HW1 6533   6.796   2.078   3.795
 1878SOL    HW2 6534   6.892   2.208   3.772
 1879SOL     OW 6535   1.171   3.644   4.353
 1879SOL    HW1 6536   1.108   3.629   4.277
 1879SOL    HW2 6537   1.182   3.742   4.369
 1880SOL     OW 6538   0.045   1.170   4.684
 1880SOL    HW1 6539   0.091   1.083   4.698
 1880SOL    HW2 6540   0.110   1.245   4.697
 1881SOL     OW 6541   6.196   2.101   1.588
 1881SOL    HW1 6542   6.256   2.041   1.642
 1881SOL    HW2 6543   6.100   2.084   1.613
 1882SOL     OW 6544   1.308   4.459   6.292
 1882SOL    HW1 6545   1.342   4.540   6.243
 1882SOL    HW2 6546   1.328   4.377   6.238
 1883SOL     OW 6547   6.159   2.476   2.204
 1883SOL    HW1 6548   6.158   2.379   2.178
 1883SOL    HW2 6549   6.108   2.488   2.289
 1884SOL     OW 6550   1.089   1.728   0.766
 1884SOL    HW1 6551   1.103   1.641   0.719
 1884SOL    HW2 6552   0.996   1.732   0.802
 1885SOL     OW 6553   1.665   1.697   5.585
 1885SOL    HW1 6554   1.703   1.622   5.640
 1885SOL    HW2 6555   1.707   1.783   5.613
 1886SOL     OW 6556   2.249   0.288   2.144
 1886SOL    HW1 6557   2.299   0.213   2.185
 1886SOL    HW2 6558   2.301   0.373   2.153
 1887SOL     OW 6559   0.717   5.266   5.932
 1887SOL    HW1 6560   0.691   5.361   5.913
 1887SOL    HW2 6561   0.724   5.252   6.030
 1888SOL     OW 6562   2.892   1.715   0.061
 1888SOL    HW1 6563   2.966   1.773   0.097
 1888SOL    HW2 6564   2.814   1.772   0.035
 1889SOL     OW 6565   0.794   4.156   3.801
 1889SOL    HW1 6566   0.697   4.134   3.789
 1889SOL    HW2 6567   0.804   4.252   3.827
 1890SOL     OW 6568   0.794   5.473   4.789
 1890SOL    HW1 6569   0.774   5.491   4.693
 1890SOL    HW2 6570   0.858   5.543   4.823
 1891SOL     OW 6571   4.397   3.088   1.712
 1891SOL    HW1 6572   4.389   3.187   1.701
 1891SOL    HW2 6573   4.475   3.067   1.772
 1892SOL     OW 6574   0.237   1.053   2.406
 1892SOL    HW1 6575   0.238   1.124   2.336
 1892SOL    HW2 6576   0.168   0.985   2.383
 1893SOL     OW 6577   3.972   3.055   2.022
 1893SOL    HW1 6578   4.038   3.118   1.980
 1893SOL    HW2 6579   3.965   3.075   2.120
 1894SOL     OW 6580   3.500   4.173   3.983
 1894SOL    HW1 6581   3.542   4.191   4.072
 1894SOL    HW2 6582   3.526   4.245   3.919
 1895SOL     OW 6583   4.074   0.241   0.902
 1895SOL    HW1 6584   4.152   0.295   0.934
 1895SOL    HW2 6585   4.052   0.267   0.808
 1896SOL     OW 6586   6.471   1.668   0.775
 1896SOL    HW1 6587   6.412   1.589   0.756
 1896SOL    HW2 6588   6.444   1.709   0.862
 1897SOL     OW 6589   1.779   4.933   2.147
 1897SOL    HW1 6590   1.874   4.925   2.179
 1897SOL    HW2 6591   1.743   5.022   2.173
 1898SOL     OW 6592   2.325   4.659   2.782
 1898SOL    HW1 6593   2.418   4.652   2.746
 1898SOL    HW2 6594   2.329   4.657   2.882
 1899SOL     OW 6595   0.825   0.847   0.374
 1899SOL    HW1 6596   0.920   0.835   0.402
 1899SOL    HW2 6597   0.822   0.883   0.280
 1900SOL     OW 6598   2.837   0.377   0.046
 1900SOL    HW1 6599   2.811   0.412   6.977
 1900SOL    HW2 6600   2.887   0.291   0.035
 1901SOL     OW 6601   2.652   2.832   1.064
 1901SOL    HW1 6602   2.710   2.777   1.004
 1901SOL    HW2 6603   2.605   2.772   1.128
 1902SOL     OW 6604   2.641   0.326   4.696
 1902SOL    HW1 6605   2.581   0.357   4.769
 1902SOL    HW2 6606   2.664   0.403   4.636
 1903SOL     OW 6607   0.940   2.937   3.493
 1903SOL    HW1 6608   0.886   2.928   3.577
 1903SOL    HW2 6609   0.988   2.851   3.475
 1904SOL     OW 6610   5.571   5.011   2.352
 1904SOL    HW1 6611   5.471   5.010   2.354
 1904SOL    HW2 6612   5.603   4.937   2.294
 1905SOL     OW 6613   0.816   0.321   3.890
 1905SOL    HW1 6614   0.825   0.241   3.831
 1905SOL    HW2 6615   0.755   0.387   3.848
 1906SOL     OW 6616   2.723   0.262   6.282
 1906SOL    HW1 6617   2.754   0.169   6.260
 1906SOL    HW2 6618   2.667   0.297   6.207
 1907SOL     OW 6619   4.968   2.862   0.580
 1907SOL    HW1 6620   4.927   2.801   0.648
 1907SOL    HW2 6621   5.068   2.857   0.589
 1908SOL     OW 6622   4.214   7.019   6.619
 1908SOL    HW1 6623   4.170   0.079   6.658
 1908SOL    HW2 6624   4.255   0.020   6.531
 1909SOL     OW 6625   0.384   3.054   3.852
 1909SOL    HW1 6626   0.455   3.085   3.915
 1909SOL    HW2 6627   0.322   3.130   3.832
 1910SOL     OW 6628   6.241   6.250   5.477
 1910SOL    HW1 6629   6.156   6.225   5.522
 1910SOL    HW2 6630   6.228   6.248   5.378
 1911SOL     OW 6631   6.925   4.424   4.519
 1911SOL    HW1 6632   6.880   4.512   4.535
 1911SOL    HW2 6633   7.020   4.429   4.548
 1912SOL     OW 6634   2.837   5.508   2.396
 1912SOL    HW1 6635   2.826   5.587   2.336
 1912SOL    HW2 6636   2.915   5.453   2.366
 1913SOL     OW 6637   2.300   6.126   4.505
 1913SOL    HW1 6638   2.269   6.214   4.543
 1913SOL    HW2 6639   2.389   6.138   4.462
 1914SOL     OW 6640   3.323   4.257   6.333
 1914SOL    HW1 6641   3.236   4.265   6.283
 1914SOL    HW2 6642   3.305   4.249   6.431
 1915SOL     OW 6643   4.361   2.892   5.957
 1915SOL    HW1 6644   4.282   2.947   5.927
 1915SOL    HW2 6645   4.334   2.835   6.034
 1916SOL     OW 6646   3.839   0.140   1.065
 1916SOL    HW1 6647   3.778   0.219   1.057
 1916SOL    HW2 6648   3.923   0.158   1.014
 1917SOL     OW 6649   2.459   4.235   6.952
 1917SOL    HW1 6650   2.367   4.274   6.945
 1917SOL    HW2 6651   2.453   4.138   6.974
 1918SOL     OW 6652   0.884   0.795   4.970
 1918SOL    HW1 6653   0.851   0.825   4.880
 1918SOL    HW2 6654   0.974   0.834   4.987
 1919SOL     OW 6655   2.084   1.483   1.241
 1919SOL    HW1 6656   2.174   1.508   1.206
 1919SOL    HW2 6657   2.033   1.566   1.266
 1920SOL     OW 6658   5.716   2.265   2.434
 1920SOL    HW1 6659   5.773   2.285   2.355
 1920SOL    HW2 6660   5.774   2.251   2.515
 1921SOL     OW 6661   1.408   2.720   0.414
 1921SOL    HW1 6662   1.425   2.701   0.318
 1921SOL    HW2 6663   1.335   2.788   0.422
 1922SOL     OW 6664   3.327   3.544   2.053
 1922SOL    HW1 6665   3.303   3.535   1.956
 1922SOL    HW2 6666   3.245   3.531   2.108
 1923SOL     OW 6667   5.329   0.013   6.574
 1923SOL    HW1 6668   5.242   6.998   6.605
 1923SOL    HW2 6669   5.313   0.096   6.520
 1924SOL     OW 6670   4.488   0.408   1.030
 1924SOL    HW1 6671   4.477   0.427   1.128
 1924SOL    HW2 6672   4.402   0.426   0.982
 1925SOL     OW 6673   1.071   4.384   1.632
 1925SOL    HW1 6674   1.019   4.347   1.709
 1925SOL    HW2 6675   1.153   4.329   1.618
 1926SOL     OW 6676   3.714   0.047   1.844
 1926SOL    HW1 6677   3.689   0.008   1.756
 1926SOL    HW2 6678   3.797   0.002   1.878
 1927SOL     OW 6679   2.184   4.072   1.297
 1927SOL    HW1 6680   2.101   4.027   1.263
 1927SOL    HW2 6681   2.158   4.152   1.352
 1928SOL     OW 6682   4.685   4.250   4.223
 1928SOL    HW1 6683   4.705   4.152   4.229
 1928SOL    HW2 6684   4.660   4.284   4.313
 1929SOL     OW 6685   3.234   0.604   2.810
 1929SOL    HW1 6686   3.307   0.668   2.834
 1929SOL    HW2 6687   3.266   0.544   2.737
 1930SOL     OW 6688   4.926   3.183   6.432
 1930SOL    HW1 6689   4.844   3.169   6.377
 1930SOL    HW2 6690   4.999   3.124   6.399
 1931SOL     OW 6691   0.999   1.507   6.465
 1931SOL    HW1 6692   0.919   1.529   6.409
 1931SOL    HW2 6693   1.077   1.561   6.435
 1932SOL     OW 6694   4.862   2.309   3.242
 1932SOL    HW1 6695   4.787   2.343   3.186
 1932SOL    HW2 6696   4.877   2.212   3.223
 1933SOL     OW 6697   0.048   1.962   0.166
 1933SOL    HW1 6698   0.126   1.993   0.113
 1933SOL    HW2 6699   0.080   1.916   0.249
 1934SOL     OW 6700   0.477   0.401   5.357
 1934SOL    HW1 6701   0.385   0.367   5.379
 1934SOL    HW2 6702   0.545   0.345   5.404
 1935SOL     OW 6703   4.976   4.418   3.287
 1935SOL    HW1 6704   5.030   4.449   3.209
 1935SOL    HW2 6705   4.884   4.395   3.258
 1936SOL     OW 6706   5.240   3.204   4.386
 1936SOL    HW1 6707   5.289   3.152   4.316
 1936SOL    HW2 6708   5.282   3.187   4.475
 1937SOL     OW 6709   5.006   5.663   6.690
 1937SOL    HW1 6710   5.013   5.714   6.604
 1937SOL    HW2 6711   4.974   5.570   6.670
 1938SOL     OW 6712   0.942   2.471   6.627
 1938SOL    HW1 6713   0.937   2.540   6.556
 1938SOL    HW2 6714   0.998   2.394   6.595
 1939SOL     OW 6715   0.792   5.748   4.863
 1939SOL    HW1 6716   0.816   5.825   4.922
 1939SOL    HW2 6717   0.775   5.667   4.919
 1940SOL     OW 6718   6.179   4.674   1.605
 1940SOL    HW1 6719   6.188   4.575   1.593
 1940SOL    HW2 6720   6.178   4.718   1.515
 1941SOL     OW 6721   0.601   2.719   3.718
 1941SOL    HW1 6722   0.670   2.662   3.673
 1941SOL    HW2 6723   0.591   2.804   3.667
 1942SOL     OW 6724   5.393   3.373   2.963
 1942SOL    HW1 6725   5.309   3.419   2.991
 1942SOL    HW2 6726   5.408   3.293   3.021
 1943SOL     OW 6727   1.536   1.162   2.461
 1943SOL    HW1 6728   1.620   1.133   2.506
 1943SOL    HW2 6729   1.533   1.262   2.457
 1944SOL     OW 6730   0.329   3.266   0.715
 1944SOL    HW1 6731   0.273   3.238   0.637
 1944SOL    HW2 6732   0.280   3.334   0.769
 1945SOL     OW 6733   3.715   6.540   0.755
 1945SOL    HW1 6734   3.806   6.501   0.770
 1945SOL    HW2 6735   3.722   6.640   0.755
 1946SOL     OW 6736   6.648   6.107   1.023
 1946SOL    HW1 6737   6.731   6.070   1.066
 1946SOL    HW2 6738   6.570   6.049   1.044
 1947SOL     OW 6739   5.800   4.303   3.270
 1947SOL    HW1 6740   5.773   4.288   3.175
 1947SOL    HW2 6741   5.819   4.215   3.314
 1948SOL     OW 6742   5.655   3.507   2.911
 1948SOL    HW1 6743   5.645   3.480   2.815
 1948SOL    HW2 6744   5.631   3.429   2.969
 1949SOL     OW 6745   4.152   4.219   0.837
 1949SOL    HW1 6746   4.118   4.306   0.801
 1949SOL    HW2 6747   4.163   4.226   0.936
 1950SOL     OW 6748   3.694   4.151   3.720
 1950SOL    HW1 6749   3.607   4.122   3.680
 1950SOL    HW2 6750   3.762   4.162   3.647
 1951SOL     OW 6751   6.612   4.351   5.719
 1951SOL    HW1 6752   6.697   4.323   5.676
 1951SOL    HW2 6753   6.534   4.325   5.661
 1952SOL     OW 6754   5.574   3.832   0.767
 1952SOL    HW1 6755   5.477   3.837   0.744
 1952SOL    HW2 6756   5.620   3.915   0.736
 1953SOL     OW 6757   0.220   1.353   6.720
 1953SOL    HW1 6758   0.307   1.310   6.746
 1953SOL    HW2 6759   0.227   1.452   6.733
 1954SOL     OW 6760   4.449   6.928   1.887
 1954SOL    HW1 6761   4.518   6.897   1.952
 1954SOL    HW2 6762   4.405   6.850   1.844
 1955SOL     OW 6763   0.956   1.546   2.018
 1955SOL    HW1 6764   0.978   1.632   2.065
 1955SOL    HW2 6765   0.877   1.560   1.959
 1956SOL     OW 6766   6.033   1.062   1.972
 1956SOL    HW1 6767   6.040   1.020   1.881
 1956SOL    HW2 6768   6.020   0.991   2.041
 1957SOL     OW 6769   5.462   2.442   3.876
 1957SOL    HW1 6770   5.399   2.454   3.953
 1957SOL    HW2 6771   5.502   2.350   3.879
 1958SOL     OW 6772   4.371   1.608   0.862
 1958SOL    HW1 6773   4.380   1.707   0.870
 1958SOL    HW2 6774   4.403   1.579   0.771
 1959SOL     OW 6775   6.658   6.968   3.845
 1959SOL    HW1 6776   6.742   6.991   3.795
 1959SOL    HW2 6777   6.580   6.974   3.783
 1960SOL     OW 6778   5.913   3.324   2.678
 1960SOL    HW1 6779   5.915   3.236   2.630
 1960SOL    HW2 6780   5.833   3.376   2.649
 1961SOL     OW 6781   6.228   4.351   5.102
 1961SOL    HW1 6782   6.271   4.385   5.185
 1961SOL    HW2 6783   6.250   4.413   5.026
 1962SOL     OW 6784   1.192   6.520   3.100
 1962SOL    HW1 6785   1.256   6.451   3.067
 1962SOL    HW2 6786   1.225   6.611   3.074
 1963SOL     OW 6787   1.062   1.821   1.622
 1963SOL    HW1 6788   1.124   1.785   1.692
 1963SOL    HW2 6789   1.113   1.883   1.562
 1964SOL     OW 6790   5.780   4.377   1.580
 1964SOL    HW1 6791   5.743   4.414   1.495
 1964SOL    HW2 6792   5.832   4.448   1.628
 1965SOL     OW 6793   0.804   4.707   4.184
 1965SOL    HW1 6794   0.840   4.642   4.251
 1965SOL    HW2 6795   0.741   4.659   4.122
 1966SOL     OW 6796   1.600   4.652   1.188
 1966SOL    HW1 6797   1.616   4.666   1.286
 1966SOL    HW2 6798   1.681   4.678   1.136
 1967SOL     OW 6799   6.285   2.580   3.418
 1967SOL    HW1 6800   6.295   2.656   3.354
 1967SOL    HW2 6801   6.373   2.559   3.459
 1968SOL     OW 6802   2.101   1.423   5.779
 1968SOL    HW1 6803   2.108   1.342   5.837
 1968SOL    HW2 6804   2.020   1.416   5.721
 1969SOL     OW 6805   3.071   0.289   1.029
 1969SOL    HW1 6806   3.109   0.293   1.122
 1969SOL    HW2 6807   3.116   0.216   0.978
 1970SOL     OW 6808   6.577   5.693   4.740
 1970SOL    HW1 6809   6.638   5.720   4.666
 1970SOL    HW2 6810   6.624   5.703   4.828
 1971SOL     OW 6811   1.416   0.037   5.630
 1971SOL    HW1 6812   1.374   6.968   5.632
 1971SOL    HW2 6813   1.389   0.085   5.546
 1972SOL     OW 6814   5.841   2.614   1.333
 1972SOL    HW1 6815   5.749   2.601   1.369
 1972SOL    HW2 6816   5.901   2.649   1.405
 1973SOL     OW 6817   2.438   3.953   0.831
 1973SOL    HW1 6818   2.362   4.014   0.807
 1973SOL    HW2 6819   2.483   3.987   0.913
 1974SOL     OW 6820   4.055   6.657   4.880
 1974SOL    HW1 6821   3.985   6.587   4.892
 1974SOL    HW2 6822   4.106   6.669   4.965
 1975SOL     OW 6823   1.923   3.562   2.942
 1975SOL    HW1 6824   1.841   3.520   2.981
 1975SOL    HW2 6825   1.994   3.492   2.929
 1976SOL     OW 6826   6.668   0.240   6.039
 1976SOL    HW1 6827   6.722   0.324   6.035
 1976SOL    HW2 6828   6.693   0.188   6.121
 1977SOL     OW 6829   2.223   3.985   6.761
 1977SOL    HW1 6830   2.232   4.084   6.749
 1977SOL    HW2 6831   2.133   3.956   6.728
 1978SOL     OW 6832   2.208   6.750   2.452
 1978SOL    HW1 6833   2.221   6.839   2.496
 1978SOL    HW2 6834   2.249   6.678   2.507
 1979SOL     OW 6835   6.033   5.449   6.275
 1979SOL    HW1 6836   5.998   5.437   6.182
 1979SOL    HW2 6837   6.096   5.374   6.297
 1980SOL     OW 6838   3.043   1.252   1.776
 1980SOL    HW1 6839   3.094   1.174   1.740
 1980SOL    HW2 6840   3.107   1.324   1.804
 1981SOL     OW 6841   4.505   2.514   3.118
 1981SOL    HW1 6842   4.523   2.601   3.165
 1981SOL    HW2 6843   4.526   2.525   3.021
 1982SOL     OW 6844   6.484   3.452   3.664
 1982SOL    HW1 6845   6.416   3.450   3.737
 1982SOL    HW2 6846   6.438   3.447   3.575
 1983SOL     OW 6847   0.334   0.250   0.771
 1983SOL    HW1 6848   0.394   0.330   0.772
 1983SOL    HW2 6849   0.256   0.266   0.832
 1984SOL     OW 6850   6.085   2.620   5.422
 1984SOL    HW1 6851   6.102   2.534   5.374
 1984SOL    HW2 6852   6.099   2.607   5.520
 1985SOL     OW 6853   6.471   4.771   1.969
 1985SOL    HW1 6854   6.532   4.838   1.926
 1985SOL    HW2 6855   6.495   4.761   2.065
 1986SOL     OW 6856   2.967   1.240   6.868
 1986SOL    HW1 6857   2.898   1.256   6.797
 1986SOL    HW2 6858   3.040   1.308   6.860
 1987SOL     OW 6859   1.702   0.855   3.891
 1987SOL    HW1 6860   1.686   0.922   3.818
 1987SOL    HW2 6861   1.623   0.795   3.899
 1988SOL     OW 6862   6.766   2.525   0.919
 1988SOL    HW1 6863   6.769   2.511   0.820
 1988SOL    HW2 6864   6.744   2.438   0.964
 1989SOL     OW 6865   2.803   5.047   5.741
 1989SOL    HW1 6866   2.719   5.022   5.693
 1989SOL    HW2 6867   2.846   5.124   5.694
 1990SOL     OW 6868   3.763   0.934   0.340
 1990SOL    HW1 6869   3.861   0.923   0.360
 1990SOL    HW2 6870   3.740   1.031   0.339
 1991SOL     OW 6871   3.065   5.283   0.637
 1991SOL    HW1 6872   3.086   5.221   0.562
 1991SOL    HW2 6873   3.103   5.374   0.617
 1992SOL     OW 6874   0.288   6.335   0.245
 1992SOL    HW1 6875   0.317   6.324   0.339
 1992SOL    HW2 6876   0.219   6.407   0.239
 1993SOL     OW 6877   1.737   2.911   4.492
 1993SOL    HW1 6878   1.828   2.877   4.468
 1993SOL    HW2 6879   1.717   2.889   4.587
 1994SOL     OW 6880   3.437   3.189   0.233
 1994SOL    HW1 6881   3.355   3.218   0.282
 1994SOL    HW2 6882   3.465   3.099   0.266
 1995SOL     OW 6883   5.445   1.993   4.845
 1995SOL    HW1 6884   5.356   2.020   4.810
 1995SOL    HW2 6885   5.459   1.895   4.830
 1996SOL     OW 6886   3.944   1.484   1.333
 1996SOL    HW1 6887   3.992   1.552   1.277
 1996SOL    HW2 6888   3.999   1.463   1.414
 1997SOL     OW 6889   3.290   1.538   3.935
 1997SOL    HW1 6890   3.324   1.594   4.010
 1997SOL    HW2 6891   3.234   1.464   3.972
 1998SOL     OW 6892   1.109   3.025   1.993
 1998SOL    HW1 6893   1.205   2.997   1.993
 1998SOL    HW2 6894   1.084   3.057   1.901
 1999SOL     OW 6895   0.747   0.277   5.458
 1999SOL    HW1 6896   0.745   0.183   5.424
 1999SOL    HW2 6897   0.814   0.284   5.533
 2000SOL     OW 6898   3.772   3.744   6.625
 2000SOL    HW1 6899   3.844   3.794   6.673
 2000SOL    HW2 6900   3.795   3.737   6.527
 2001SOL     OW 6901   1.846   1.405   6.720
 2001SOL    HW1 6902   1.847   1.476   6.650
 2001SOL    HW2 6903   1.919   1.339   6.702
 2002SOL     OW 6904   6.716   5.697   1.248
 2002SOL    HW1 6905   6.665   5.782   1.234
 2002SOL    HW2 6906   6.801   5.701   1.195
 2003SOL     OW 6907   5.915   4.949   2.266
 2003SOL    HW1 6908   5.896   4.953   2.168
 2003SOL    HW2 6909   5.994   5.006   2.287
 2004SOL     OW 6910   3.638   0.847   3.822
 2004SOL    HW1 6911   3.611   0.756   3.851
 2004SOL    HW2 6912   3.628   0.855   3.723
 2005SOL     OW 6913   0.609   6.160   0.339
 2005SOL    HW1 6914   0.699   6.132   0.307
 2005SOL    HW2 6915   0.619   6.239   0.400
 2006SOL     OW 6916   5.121   0.106   3.201
 2006SOL    HW1 6917   5.108   0.019   3.249
 2006SOL    HW2 6918   5.044   0.166   3.218
 2007SOL     OW 6919   5.560   4.479   6.895
 2007SOL    HW1 6920   5.594   4.494   6.802
 2007SOL    HW2 6921   5.460   4.475   6.893
 2008SOL     OW 6922   2.214   4.021   3.635
 2008SOL    HW1 6923   2.200   4.116   3.665
 2008SOL    HW2 6924   2.222   3.962   3.715
 2009SOL     OW 6925   6.572   6.051   1.682
 2009SOL    HW1 6926   6.503   6.059   1.754
 2009SOL    HW2 6927   6.640   5.983   1.709
 2010SOL     OW 6928   1.579   2.241   2.031
 2010SOL    HW1 6929   1.512   2.243   1.956
 2010SOL    HW2 6930   1.531   2.247   2.119
 2011SOL     OW 6931   0.016   5.876   5.627
 2011SOL    HW1 6932   0.060   5.897   5.540
 2011SOL    HW2 6933   7.018   5.778   5.633
 2012SOL     OW 6934   1.491   3.136   2.648
 2012SOL    HW1 6935   1.413   3.198   2.639
 2012SOL    HW2 6936   1.485   3.064   2.580
 2013SOL     OW 6937   0.705   2.903   3.220
 2013SOL    HW1 6938   0.743   2.812   3.236
 2013SOL    HW2 6939   0.779   2.968   3.202
 2014SOL     OW 6940   3.082   0.522   3.907
 2014SOL    HW1 6941   3.098   0.455   3.834
 2014SOL    HW2 6942   3.158   0.587   3.909
 2015SOL     OW 6943   3.864   0.773   1.945
 2015SOL    HW1 6944   3.870   0.700   2.013
 2015SOL    HW2 6945   3.856   0.732   1.854
 2016SOL     OW 6946   2.007   6.673   5.941
 2016SOL    HW1 6947   1.919   6.656   5.984
 2016SOL    HW2 6948   2.001   6.752   5.880
 2017SOL     OW 6949   4.195   6.933   2.637
 2017SOL    HW1 6950   4.294   6.921   2.632
 2017SOL    HW2 6951   4.152   6.888   2.558
 2018SOL     OW 6952   0.236   2.036   2.908
 2018SOL    HW1 6953   0.154   1.998   2.950
 2018SOL    HW2 6954   0.279   2.100   2.971
 2019SOL     OW 6955   6.346   4.641   6.411
 2019SOL    HW1 6956   6.247   4.628   6.408
 2019SOL    HW2 6957   6.368   4.733   6.380
 2020SOL     OW 6958   1.753   6.674   6.108
 2020SOL    HW1 6959   1.684   6.622   6.057
 2020SOL    HW2 6960   1.806   6.612   6.165
 2021SOL     OW 6961   6.039   6.390   3.060
 2021SOL    HW1 6962   6.106   6.319   3.037
 2021SOL    HW2 6963   5.951   6.348   3.078
 2022SOL     OW 6964   2.272   4.416   5.227
 2022SOL    HW1 6965   2.364   4.437   5.260
 2022SOL    HW2 6966   2.271   4.322   5.192
 2023SOL     OW 6967   7.006   0.093   0.071
 2023SOL    HW1 6968   6.986   0.036   0.150
 2023SOL    HW2 6969   6.951   0.176   0.074
 2024SOL     OW 6970   0.525   5.617   4.773
 2024SOL    HW1 6971   0.614   5.649   4.806
 2024SOL    HW2 6972   0.462   5.606   4.850
 2025SOL     OW 6973   2.478   0.421   4.915
 2025SOL    HW1 6974   2.425   0.336   4.908
 2025SOL    HW2 6975   2.509   0.434   5.010
 2026SOL     OW 6976   6.078   0.831   6.185
 2026SOL    HW1 6977   6.089   0.774   6.266
 2026SOL    HW2 6978   5.997   0.889   6.195
 2027SOL     OW 6979   0.840   5.854   2.479
 2027SOL    HW1 6980   0.821   5.826   2.574
 2027SOL    HW2 6981   0.811   5.948   2.466
 2028SOL     OW 6982   4.012   6.040   2.803
 2028SOL    HW1 6983   3.953   5.972   2.758
 2028SOL    HW2 6984   4.051   6.101   2.734
 2029SOL     OW 6985   0.125   2.562   6.194
 2029SOL    HW1 6986   0.164   2.654   6.198
 2029SOL    HW2 6987   0.042   2.558   6.250
 2030SOL     OW 6988   2.821   6.389   3.186
 2030SOL    HW1 6989   2.795   6.384   3.090
 2030SOL    HW2 6990   2.753   6.343   3.242
 2031SOL     OW 6991   6.186   5.677   3.176
 2031SOL    HW1 6992   6.267   5.620   3.163
 2031SOL    HW2 6993   6.182   5.709   3.270
 2032SOL     OW 6994   2.743   1.468   6.392
 2032SOL    HW1 6995   2.741   1.552   6.337
 2032SOL    HW2 6996   2.820   1.471   6.455
 2033SOL     OW 6997   1.953   1.045   1.264
 2033SOL    HW1 6998   1.989   1.114   1.326
 2033SOL    HW2 6999   1.993   1.057   1.173
 2034SOL     OW 7000   0.420   4.999   5.765
 2034SOL    HW1 7001   0.396   5.039   5.853
 2034SOL    HW2 7002   0.500   4.939   5.776
 2035SOL     OW 7003   5.588   0.304   2.440
 2035SOL    HW1 7004   5.502   0.252   2.436
 2035SOL    HW2 7005   5.633   0.299   2.351
 2036SOL     OW 7006   1.143   3.942   2.249
 2036SOL    HW1 7007   1.095   4.025   2.219
 2036SOL    HW2 7008   1.090   3.861   2.223
 2037SOL     OW 7009   0.345   3.191   6.500
 2037SOL    HW1 7010   0.421   3.229   6.554
 2037SOL    HW2 7011   0.339   3.092   6.516
 2038SOL     OW 7012   2.050   1.794   6.989
 2038SOL    HW1 7013   1.988   1.716   6.997
 2038SOL    HW2 7014   2.139   1.770   0.007
 2039SOL     OW 7015   6.431   5.925   2.283
 2039SOL    HW1 7016   6.461   5.913   2.377
 2039SOL    HW2 7017   6.489   5.871   2.222
 2040SOL     OW 7018   2.399   2.867   0.096
 2040SOL    HW1 7019   2.447   2.856   0.008
 2040SOL    HW2 7020   2.466   2.877   0.169
 2041SOL     OW 7021   1.967   0.198   6.626
 2041SOL    HW1 7022   1.944   0.263   6.699
 2041SOL    HW2 7023   1.906   0.120   6.631
 2042SOL     OW 7024   4.979   0.601   5.819
 2042SOL    HW1 7025   4.886   0.620   5.852
 2042SOL    HW2 7026   5.030   0.686   5.813
 2043SOL     OW 7027   6.713   3.323   1.452
 2043SOL    HW1 7028   6.788   3.305   1.516
 2043SOL    HW2 7029   6.743   3.387   1.382
 2044SOL     OW 7030   5.270   0.816   0.724
 2044SOL    HW1 7031   5.177   0.831   0.693
 2044SOL    HW2 7032   5.293   0.719   0.714
 2045SOL     OW 7033   1.726   6.227   6.318
 2045SOL    HW1 7034   1.634   6.211   6.281
 2045SOL    HW2 7035   1.748   6.154   6.383
 2046SOL     OW 7036   0.981   2.144   5.049
 2046SOL    HW1 7037   1.003   2.240   5.032
 2046SOL    HW2 7038   1.027   2.087   4.980
 2047SOL     OW 7039   6.423   1.820   6.801
 2047SOL    HW1 7040   6.325   1.834   6.787
 2047SOL    HW2 7041   6.473   1.899   6.764
 2048SOL     OW 7042   0.989   1.398   4.187
 2048SOL    HW1 7043   0.911   1.344   4.156
 2048SOL    HW2 7044   1.073   1.360   4.150
 2049SOL     OW 7045   4.929   1.276   4.664
 2049SOL    HW1 7046   4.874   1.267   4.581
 2049SOL    HW2 7047   4.892   1.351   4.719
 2050SOL     OW 7048   0.242   1.392   3.860
 2050SOL    HW1 7049   0.325   1.448   3.865
 2050SOL    HW2 7050   0.163   1.448   3.883
 2051SOL     OW 7051   2.852   6.524   0.816
 2051SOL    HW1 7052   2.806   6.599   0.862
 2051SOL    HW2 7053   2.951   6.538   0.821
 2052SOL     OW 7054   1.222   4.209   6.738
 2052SOL    HW1 7055   1.318   4.199   6.710
 2052SOL    HW2 7056   1.212   4.294   6.790
 2053SOL     OW 7057   0.821   5.316   3.831
 2053SOL    HW1 7058   0.870   5.243   3.784
 2053SOL    HW2 7059   0.877   5.350   3.907
 2054SOL     OW 7060   3.481   3.301   3.986
 2054SOL    HW1 7061   3.563   3.353   4.011
 2054SOL    HW2 7062   3.507   3.211   3.953
 2055SOL     OW 7063   1.960   2.255   5.502
 2055SOL    HW1 7064   1.983   2.352   5.498
 2055SOL    HW2 7065   1.990   2.210   5.418
 2056SOL     OW 7066   3.829   4.541   1.424
 2056SOL    HW1 7067   3.888   4.593   1.362
 2056SOL    HW2 7068   3.738   4.533   1.384
 2057SOL     OW 7069   5.895   2.641   4.303
 2057SOL    HW1 7070   5.857   2.590   4.380
 2057SOL    HW2 7071   5.898   2.739   4.326
 2058SOL     OW 7072   0.632   6.171   3.704
 2058SOL    HW1 7073   0.730   6.170   3.725
 2058SOL    HW2 7074   0.599   6.266   3.709
 2059SOL     OW 7075   2.012   7.003   5.538
 2059SOL    HW1 7076   2.096   7.003   5.592
 2059SOL    HW2 7077   1.962   0.067   5.554
 2060SOL     OW 7078   1.106   3.249   7.020
 2060SOL    HW1 7079   1.173   3.322   0.015
 2060SOL    HW2 7080   1.102   3.228   6.923
 2061SOL     OW 7081   2.179   2.186   2.649
 2061SOL    HW1 7082   2.231   2.114   2.603
 2061SOL    HW2 7083   2.233   2.223   2.724
 2062SOL     OW 7084   6.209   5.155   5.197
 2062SOL    HW1 7085   6.191   5.076   5.255
 2062SOL    HW2 7086   6.158   5.146   5.111
 2063SOL     OW 7087   1.857   1.153   5.034
 2063SOL    HW1 7088   1.782   1.158   4.968
 2063SOL    HW2 7089   1.905   1.241   5.037
 2064SOL     OW 7090   0.510   3.325   3.667
 2064SOL    HW1 7091   0.551   3.385   3.735
 2064SOL    HW2 7092   0.579   3.261   3.632
 2065SOL     OW 7093   4.679   2.400   5.783
 2065SOL    HW1 7094   4.767   2.354   5.774
 2065SOL    HW2 7095   4.678   2.482   5.725
 2066SOL     OW 7096   6.252   2.830   5.309
 2066SOL    HW1 7097   6.200   2.758   5.353
 2066SOL    HW2 7098   6.251   2.816   5.210
 2067SOL     OW 7099   6.759   4.814   0.830
 2067SOL    HW1 7100   6.822   4.890   0.815
 2067SOL    HW2 7101   6.668   4.839   0.797
 2068SOL     OW 7102   4.194   0.628   4.269
 2068SOL    HW1 7103   4.293   0.622   4.253
 2068SOL    HW2 7104   4.154   0.690   4.201
 2069SOL     OW 7105   0.422   2.491   4.078
 2069SOL    HW1 7106   0.480   2.571   4.065
 2069SOL    HW2 7107   0.366   2.476   3.996
 2070SOL     OW 7108   0.546   4.384   2.026
 2070SOL    HW1 7109   0.510   4.476   2.013
 2070SOL    HW2 7110   0.483   4.317   1.986
 2071SOL     OW 7111   6.622   1.755   6.224
 2071SOL    HW1 7112   6.687   1.772   6.297
 2071SOL    HW2 7113   6.666   1.705   6.150
 2072SOL     OW 7114   3.892   4.613   5.747
 2072SOL    HW1 7115   3.983   4.614   5.789
 2072SOL    HW2 7116   3.829   4.668   5.803
 2073SOL     OW 7117   3.490   5.949   0.544
 2073SOL    HW1 7118   3.404   6.000   0.537
 2073SOL    HW2 7119   3.520   5.920   0.453
 2074SOL     OW 7120   1.045   3.511   5.258
 2074SOL    HW1 7121   1.124   3.568   5.280
 2074SOL    HW2 7122   1.069   3.447   5.185
 2075SOL     OW 7123   6.831   2.117   1.891
 2075SOL    HW1 7124   6.776   2.061   1.829
 2075SOL    HW2 7125   6.815   2.088   1.985
 2076SOL     OW 7126   5.319   6.290   4.861
 2076SOL    HW1 7127   5.405   6.241   4.875
 2076SOL    HW2 7128   5.290   6.278   4.766
 2077SOL     OW 7129   0.299   3.720   1.206
 2077SOL    HW1 7130   0.295   3.792   1.275
 2077SOL    HW2 7131   0.239   3.644   1.234
 2078SOL     OW 7132   1.722   3.360   6.020
 2078SOL    HW1 7133   1.794   3.429   6.033
 2078SOL    HW2 7134   1.713   3.305   6.103
 2079SOL     OW 7135   5.434   1.680   2.022
 2079SOL    HW1 7136   5.527   1.664   2.056
 2079SOL    HW2 7137   5.410   1.607   1.958
 2080SOL     OW 7138   2.483   3.098   5.564
 2080SOL    HW1 7139   2.527   3.042   5.493
 2080SOL    HW2 7140   2.444   3.180   5.522
 2081SOL     OW 7141   0.056   0.285   3.213
 2081SOL    HW1 7142   6.977   0.282   3.213
 2081SOL    HW2 7143   0.092   0.192   3.220
 2082SOL     OW 7144   0.346   6.322   2.289
 2082SOL    HW1 7145   0.318   6.261   2.363
 2082SOL    HW2 7146   0.341   6.417   2.320
 2083SOL     OW 7147   6.724   6.030   4.556
 2083SOL    HW1 7148   6.756   6.046   4.650
 2083SOL    HW2 7149   6.679   5.941   4.551
 2084SOL     OW 7150   0.647   2.624   1.894
 2084SOL    HW1 7151   0.584   2.656   1.965
 2084SOL    HW2 7152   0.729   2.681   1.894
 2085SOL     OW 7153   5.314   5.433   0.636
 2085SOL    HW1 7154   5.302   5.417   0.734
 2085SOL    HW2 7155   5.296   5.349   0.585
 2086SOL     OW 7156   4.344   6.799   6.898
 2086SOL    HW1 7157   4.345   6.817   6.799
 2086SOL    HW2 7158   4.359   6.884   6.947
 2087SOL     OW 7159   4.169   2.122   6.621
 2087SOL    HW1 7160   4.253   2.071   6.604
 2087SOL    HW2 7161   4.120   2.136   6.535
 2088SOL     OW 7162   6.949   5.898   4.962
 2088SOL    HW1 7163   6.904   5.895   5.051
 2088SOL    HW2 7164   0.014   5.949   4.970
 2089SOL     OW 7165   3.291   3.389   6.337
 2089SOL    HW1 7166   3.384   3.358   6.360
 2089SOL    HW2 7167   3.297   3.463   6.269
 2090SOL     OW 7168   4.393   3.613   5.297
 2090SOL    HW1 7169   4.339   3.555   5.235
 2090SOL    HW2 7170   4.477   3.642   5.251
 2091SOL     OW 7171   5.907   5.885   1.774
 2091SOL    HW1 7172   5.859   5.805   1.810
 2091SOL    HW2 7173   5.921   5.873   1.676
 2092SOL     OW 7174   4.564   3.871   1.306
 2092SOL    HW1 7175   4.636   3.827   1.253
 2092SOL    HW2 7176   4.488   3.895   1.246
 2093SOL     OW 7177   3.608   2.030   2.815
 2093SOL    HW1 7178   3.708   2.035   2.810
 2093SOL    HW2 7179   3.576   1.947   2.768
 2094SOL     OW 7180   5.243   2.508   6.611
 2094SOL    HW1 7181   5.304   2.578   6.575
 2094SOL    HW2 7182   5.154   2.514   6.565
 2095SOL     OW 7183   5.048   6.236   3.703
 2095SOL    HW1 7184   5.018   6.220   3.608
 2095SOL    HW2 7185   5.122   6.172   3.725
 2096SOL     OW 7186   4.312   6.628   2.625
 2096SOL    HW1 7187   4.226   6.587   2.653
 2096SOL    HW2 7188   4.357   6.669   2.704
 2097SOL     OW 7189   0.965   5.293   6.496
 2097SOL    HW1 7190   1.060   5.260   6.500
 2097SOL    HW2 7191   0.927   5.274   6.406
 2098SOL     OW 7192   2.990   6.564   3.335
 2098SOL    HW1 7193   3.079   6.558   3.290
 2098SOL    HW2 7194   2.922   6.512   3.282
 2099SOL     OW 7195   5.404   1.266   0.278
 2099SOL    HW1 7196   5.351   1.343   0.313
 2099SOL    HW2 7197   5.350   1.182   0.286
 2100SOL     OW 7198   5.580   0.871   1.132
 2100SOL    HW1 7199   5.650   0.937   1.161
 2100SOL    HW2 7200   5.537   0.903   1.048
 2101SOL     OW 7201   6.994   6.413   1.976
 2101SOL    HW1 7202   6.961   6.319   1.990
 2101SOL    HW2 7203   6.990   6.463   2.063
 2102SOL     OW 7204   3.516   3.696   0.549
 2102SOL    HW1 7205   3.447   3.624   0.540
 2102SOL    HW2 7206   3.588   3.665   0.612
 2103SOL     OW 7207   3.081   5.956   0.684
 2103SOL    HW1 7208   3.048   5.865   0.710
 2103SOL    HW2 7209   3.078   6.016   0.763
 2104SOL     OW 7210   1.225   5.097   3.217
 2104SOL    HW1 7211   1.315   5.139   3.221
 2104SOL    HW2 7212   1.205   5.068   3.123
 2105SOL     OW 7213   5.483   4.011   6.303
 2105SOL    HW1 7214   5.521   4.007   6.211
 2105SOL    HW2 7215   5.547   3.968   6.367
 2106SOL     OW 7216   5.303   3.630   1.843
 2106SOL    HW1 7217   5.372   3.622   1.914
 2106SOL    HW2 7218   5.220   3.670   1.882
 2107SOL     OW 7219   5.663   3.702   5.390
 2107SOL    HW1 7220   5.566   3.694   5.411
 2107SOL    HW2 7221   5.687   3.642   5.314
 2108SOL     OW 7222   5.705   6.837   5.992
 2108SOL    HW1 7223   5.742   6.929   6.003
 2108SOL    HW2 7224   5.651   6.833   5.908
 2109SOL     OW 7225   2.228   5.608   3.069
 2109SOL    HW1 7226   2.241   5.707   3.075
 2109SOL    HW2 7227   2.302   5.561   3.118
 2110SOL     OW 7228   4.331   0.735   6.721
 2110SOL    HW1 7229   4.316   0.689   6.809
 2110SOL    HW2 7230   4.424   0.770   6.718
 2111SOL     OW 7231   1.137   2.419   6.148
 2111SOL    HW1 7232   1.159   2.480   6.072
 2111SOL    HW2 7233   1.064   2.459   6.204
 2112SOL     OW 7234   0.568   1.613   0.613
 2112SOL    HW1 7235   0.663   1.618   0.644
 2112SOL    HW2 7236   0.507   1.629   0.690
 2113SOL     OW 7237   1.369   0.169   4.883
 2113SOL    HW1 7238   1.378   0.134   4.789
 2113SOL    HW2 7239   1.449   0.223   4.907
 2114SOL     OW 7240   2.041   2.359   6.492
 2114SOL    HW1 7241   1.998   2.331   6.406
 2114SOL    HW2 7242   1.985   2.431   6.534
 2115SOL     OW 7243   6.422   5.904   3.405
 2115SOL    HW1 7244   6.403   5.998   3.374
 2115SOL    HW2 7245   6.494   5.905   3.474
 2116SOL     OW 7246   0.531   2.641   6.926
 2116SOL    HW1 7247   0.621   2.630   6.969
 2116SOL    HW2 7248   0.461   2.650   6.997
 2117SOL     OW 7249   6.182   1.239   2.111
 2117SOL    HW1 7250   6.122   1.181   2.056
 2117SOL    HW2 7251   6.227   1.184   2.181
 2118SOL     OW 7252   6.305   2.930   2.181
 2118SOL    HW1 7253   6.335   3.004   2.120
 2118SOL    HW2 7254   6.267   2.855   2.127
 2119SOL     OW 7255   3.229   0.463   0.134
 2119SOL    HW1 7256   3.264   0.555   0.149
 2119SOL    HW2 7257   3.273   0.423   0.053
 2120SOL     OW 7258   5.799   2.084   0.449
 2120SOL    HW1 7259   5.787   2.057   0.545
 2120SOL    HW2 7260   5.719   2.136   0.419
 2121SOL     OW 7261   1.499   0.513   6.598
 2121SOL    HW1 7262   1.519   0.604   6.559
 2121SOL    HW2 7263   1.406   0.486   6.573
 2122SOL     OW 7264   6.301   0.754   4.890
 2122SOL    HW1 7265   6.274   0.736   4.984
 2122SOL    HW2 7266   6.369   0.687   4.862
 2123SOL     OW 7267   1.636   6.230   3.682
 2123SOL    HW1 7268   1.725   6.217   3.637
 2123SOL    HW2 7269   1.579   6.288   3.624
 2124SOL     OW 7270   3.700   3.155   5.806
 2124SOL    HW1 7271   3.612   3.110   5.791
 2124SOL    HW2 7272   3.712   3.227   5.737
 2125SOL     OW 7273   1.043   6.043   3.326
 2125SOL    HW1 7274   1.083   5.996   3.404
 2125SOL    HW2 7275   0.964   5.992   3.292
 2126SOL     OW 7276   3.569   4.426   6.810
 2126SOL    HW1 7277   3.630   4.398   6.884
 2126SOL    HW2 7278   3.547   4.523   6.819
 2127SOL     OW 7279   0.558   2.566   4.957
 2127SOL    HW1 7280   0.500   2.487   4.938
 2127SOL    HW2 7281   0.524   2.645   4.905
 2128SOL     OW 7282   5.292   2.858   1.595
 2128SOL    HW1 7283   5.339   2.912   1.526
 2128SOL    HW2 7284   5.293   2.761   1.568
 2129SOL     OW 7285   4.899   4.758   3.399
 2129SOL    HW1 7286   4.881   4.818   3.322
 2129SOL    HW2 7287   4.984   4.707   3.382
 2130SOL     OW 7288   2.316   0.957   2.727
 2130SOL    HW1 7289   2.224   0.926   2.700
 2130SOL    HW2 7290   2.384   0.905   2.676
 2131SOL     OW 7291   5.844   2.054   5.958
 2131SOL    HW1 7292   5.754   2.015   5.976
 2131SOL    HW2 7293   5.914   1.984   5.974
 2132SOL     OW 7294   2.951   2.067   6.922
 2132SOL    HW1 7295   2.969   2.165   6.911
 2132SOL    HW2 7296   2.905   2.051   7.010
 2133SOL     OW 7297   2.693   2.120   1.757
 2133SOL    HW1 7298   2.704   2.197   1.819
 2133SOL    HW2 7299   2.705   2.150   1.663
 2134SOL     OW 7300   1.012   6.551   4.619
 2134SOL    HW1 7301   1.083   6.575   4.552
 2134SOL    HW2 7302   0.943   6.494   4.575
 2135SOL     OW 7303   0.690   1.429   3.350
 2135SOL    HW1 7304   0.732   1.508   3.307
 2135SOL    HW2 7305   0.612   1.458   3.405
 2136SOL     OW 7306   0.506   3.918   3.466
 2136SOL    HW1 7307   0.466   3.931   3.557
 2136SOL    HW2 7308   0.554   3.830   3.464
 2137SOL     OW 7309   1.504   0.357   5.020
 2137SOL    HW1 7310   1.518   0.421   4.944
 2137SOL    HW2 7311   1.410   0.364   5.053
 2138SOL     OW 7312   0.437   2.668   0.483
 2138SOL    HW1 7313   0.459   2.765   0.473
 2138SOL    HW2 7314   0.517   2.620   0.522
 2139SOL     OW 7315   2.932   0.591   5.729
 2139SOL    HW1 7316   2.940   0.623   5.823
 2139SOL    HW2 7317   3.003   0.634   5.673
 2140SOL     OW 7318   2.449   5.558   3.297
 2140SOL    HW1 7319   2.455   5.459   3.289
 2140SOL    HW2 7320   2.509   5.601   3.230
 2141SOL     OW 7321   5.383   1.914   1.150
 2141SOL    HW1 7322   5.418   1.877   1.064
 2141SOL    HW2 7323   5.294   1.874   1.170
 2142SOL     OW 7324   2.192   2.351   3.475
 2142SOL    HW1 7325   2.240   2.267   3.449
 2142SOL    HW2 7326   2.161   2.344   3.570
 2143SOL     OW 7327   3.038   6.828   1.697
 2143SOL    HW1 7328   3.123   6.849   1.648
 2143SOL    HW2 7329   2.964   6.817   1.631
 2144SOL     OW 7330   0.858   1.236   3.354
 2144SOL    HW1 7331   0.818   1.156   3.399
 2144SOL    HW2 7332   0.793   1.312   3.357
 2145SOL     OW 7333   3.406   5.189   3.007
 2145SOL    HW1 7334   3.468   5.112   2.994
 2145SOL    HW2 7335   3.459   5.270   3.034
 2146SOL     OW 7336   3.967   3.271   3.040
 2146SOL    HW1 7337   3.983   3.197   3.105
 2146SOL    HW2 7338   3.939   3.233   2.952
 2147SOL     OW 7339   1.170   0.917   5.777
 2147SOL    HW1 7340   1.162   0.841   5.713
 2147SOL    HW2 7341   1.118   0.898   5.860
 2148SOL     OW 7342   4.854   3.349   2.935
 2148SOL    HW1 7343   4.818   3.418   2.872
 2148SOL    HW2 7344   4.860   3.261   2.888
 2149SOL     OW 7345   4.088   0.910   2.623
 2149SOL    HW1 7346   4.081   1.010   2.631
 2149SOL    HW2 7347   4.056   0.881   2.533
 2150SOL     OW 7348   2.908   2.191   3.504
 2150SOL    HW1 7349   2.871   2.272   3.549
 2150SOL    HW2 7350   3.002   2.176   3.535
 2151SOL     OW 7351   3.682   2.811   5.546
 2151SOL    HW1 7352   3.596   2.861   5.531
 2151SOL    HW2 7353   3.737   2.859   5.614
 2152SOL     OW 7354   6.102   6.154   1.993
 2152SOL    HW1 7355   6.019   6.114   1.954
 2152SOL    HW2 7356   6.080   6.198   2.080
 2153SOL     OW 7357   4.633   2.463   3.687
 2153SOL    HW1 7358   4.620   2.401   3.765
 2153SOL    HW2 7359   4.725   2.451   3.650
 2154SOL     OW 7360   3.562   5.932   4.932
 2154SOL    HW1 7361   3.597   6.023   4.954
 2154SOL    HW2 7362   3.503   5.938   4.852
 2155SOL     OW 7363   0.202   4.085   0.047
 2155SOL    HW1 7364   0.216   4.067   6.970
 2155SOL    HW2 7365   0.104   4.097   0.064
 2156SOL     OW 7366   1.847   0.650   2.118
 2156SOL    HW1 7367   1.943   0.656   2.146
 2156SOL    HW2 7368   1.789   0.691   2.189
 2157SOL     OW 7369   0.344   1.836   5.170
 2157SOL    HW1 7370   0.392   1.749   5.162
 2157SOL    HW2 7371   0.256   1.821   5.216
 2158SOL     OW 7372   3.246   6.634   1.770
 2158SOL    HW1 7373   3.184   6.697   1.722
 2158SOL    HW2 7374   3.313   6.687   1.822
 2159SOL     OW 7375   1.391   6.625   5.122
 2159SOL    HW1 7376   1.459   6.680   5.170
 2159SOL    HW2 7377   1.323   6.591   5.188
 2160SOL     OW 7378   3.438   3.761   1.157
 2160SOL    HW1 7379   3.450   3.799   1.065
 2160SOL    HW2 7380   3.346   3.723   1.165
 2161SOL     OW 7381   5.388   2.387   3.473
 2161SOL    HW1 7382   5.420   2.480   3.455
 2161SOL    HW2 7383   5.296   2.375   3.436
 2162SOL     OW 7384   1.229   0.441   6.568
 2162SOL    HW1 7385   1.220   0.358   6.625
 2162SOL    HW2 7386   1.195   0.520   6.619
 2163SOL     OW 7387   1.973   1.275   0.845
 2163SOL    HW1 7388   2.065   1.265   0.807
 2163SOL    HW2 7389   1.913   1.205   0.805
 2164SOL     OW 7390   1.313   1.250   0.092
 2164SOL    HW1 7391   1.334   1.157   0.122
 2164SOL    HW2 7392   1.398   1.295   0.065
 2165SOL     OW 7393   2.347   7.002   3.055
 2165SOL    HW1 7394   2.368   7.005   3.153
 2165SOL    HW2 7395   2.382   0.064   3.011
 2166SOL     OW 7396   0.283   2.564   6.516
 2166SOL    HW1 7397   0.308   2.566   6.419
 2166SOL    HW2 7398   0.363   2.540   6.571
 2167SOL     OW 7399   3.462   0.554   3.111
 2167SOL    HW1 7400   3.449   0.594   3.021
 2167SOL    HW2 7401   3.375   0.516   3.143
 2168SOL     OW 7402   5.724   4.626   4.820
 2168SOL    HW1 7403   5.694   4.543   4.773
 2168SOL    HW2 7404   5.729   4.702   4.755
 2169SOL     OW 7405   5.478   2.187   5.620
 2169SOL    HW1 7406   5.476   2.094   5.584
 2169SOL    HW2 7407   5.548   2.241   5.574
 2170SOL     OW 7408   4.287   5.133   4.500
 2170SOL    HW1 7409   4.244   5.071   4.565
 2170SOL    HW2 7410   4.217   5.187   4.454
 2171SOL     OW 7411   0.065   2.588   0.307
 2171SOL    HW1 7412   0.101   2.581   0.400
 2171SOL    HW2 7413   7.010   2.652   0.305
 2172SOL     OW 7414   3.240   0.125   0.901
 2172SOL    HW1 7415   3.223   0.162   0.809
 2172SOL    HW2 7416   3.334   0.091   0.906
 2173SOL     OW 7417   5.526   1.317   5.340
 2173SOL    HW1 7418   5.476   1.393   5.298
 2173SOL    HW2 7419   5.487   1.230   5.309
 2174SOL     OW 7420   0.232   5.768   4.603
 2174SOL    HW1 7421   0.308   5.717   4.562
 2174SOL    HW2 7422   0.180   5.707   4.662
 2175SOL     OW 7423   2.118   0.009   4.608
 2175SOL    HW1 7424   2.199   7.011   4.664
 2175SOL    HW2 7425   2.036   0.000   4.665
 2176SOL     OW 7426   1.628   2.927   2.988
 2176SOL    HW1 7427   1.587   2.894   2.903
 2176SOL    HW2 7428   1.597   2.871   3.064
 2177SOL     OW 7429   0.456   2.848   0.977
 2177SOL    HW1 7430   0.484   2.930   0.926
 2177SOL    HW2 7431   0.359   2.830   0.961
 2178SOL     OW 7432   0.495   4.446   0.192
 2178SOL    HW1 7433   0.453   4.514   0.131
 2178SOL    HW2 7434   0.424   4.401   0.246
 2179SOL     OW 7435   1.903   5.527   4.533
 2179SOL    HW1 7436   1.834   5.592   4.566
 2179SOL    HW2 7437   1.860   5.462   4.470
 2180SOL     OW 7438   3.575   3.122   2.382
 2180SOL    HW1 7439   3.645   3.193   2.380
 2180SOL    HW2 7440   3.502   3.145   2.318
 2181SOL     OW 7441   5.094   5.273   5.964
 2181SOL    HW1 7442   5.101   5.339   5.889
 2181SOL    HW2 7443   5.041   5.313   6.038
 2182SOL     OW 7444   6.728   3.314   6.223
 2182SOL    HW1 7445   6.641   3.284   6.185
 2182SOL    HW2 7446   6.782   3.359   6.151
 2183SOL     OW 7447   3.457   3.134   0.990
 2183SOL    HW1 7448   3.361   3.106   0.980
 2183SOL    HW2 7449   3.508   3.060   1.035
 2184SOL     OW 7450   3.443   2.672   6.566
 2184SOL    HW1 7451   3.491   2.672   6.654
 2184SOL    HW2 7452   3.355   2.717   6.577
 2185SOL     OW 7453   1.880   1.090   1.684
 2185SOL    HW1 7454   1.896   1.185   1.655
 2185SOL    HW2 7455   1.964   1.037   1.673
 2186SOL     OW 7456   0.355   6.433   3.253
 2186SOL    HW1 7457   0.332   6.507   3.316
 2186SOL    HW2 7458   0.425   6.465   3.189
 2187SOL     OW 7459   0.042   1.623   6.937
 2187SOL    HW1 7460   0.123   1.677   6.916
 2187SOL    HW2 7461   6.994   1.681   6.979
 2188SOL     OW 7462   5.836   7.016   3.161
 2188SOL    HW1 7463   5.793   0.084   3.145
 2188SOL    HW2 7464   5.789   6.946   3.107
 2189SOL     OW 7465   2.171   6.940   6.327
 2189SOL    HW1 7466   2.113   6.906   6.401
 2189SOL    HW2 7467   2.267   6.937   6.355
 2190SOL     OW 7468   5.363   1.907   1.878
 2190SOL    HW1 7469   5.316   1.827   1.915
 2190SOL    HW2 7470   5.450   1.919   1.927
 2191SOL     OW 7471   3.018   2.636   6.398
 2191SOL    HW1 7472   3.073   2.675   6.324
 2191SOL    HW2 7473   2.964   2.560   6.362
 2192SOL     OW 7474   4.580   5.789   5.064
 2192SOL    HW1 7475   4.584   5.718   5.134
 2192SOL    HW2 7476   4.585   5.879   5.108
 2193SOL     OW 7477   1.155   5.122   5.963
 2193SOL    HW1 7478   1.132   5.116   5.866
 2193SOL    HW2 7479   1.195   5.036   5.994
 2194SOL     OW 7480   2.252   0.728   1.476
 2194SOL    HW1 7481   2.217   0.648   1.427
 2194SOL    HW2 7482   2.252   0.709   1.575
 2195SOL     OW 7483   1.862   5.410   2.652
 2195SOL    HW1 7484   1.953   5.369   2.650
 2195SOL    HW2 7485   1.793   5.339   2.638
 2196SOL     OW 7486   3.220   1.778   6.300
 2196SOL    HW1 7487   3.137   1.834   6.303
 2196SOL    HW2 7488   3.244   1.760   6.204
 2197SOL     OW 7489   4.359   5.143   1.340
 2197SOL    HW1 7490   4.400   5.080   1.407
 2197SOL    HW2 7491   4.421   5.153   1.263
 2198SOL     OW 7492   6.854   3.592   0.601
 2198SOL    HW1 7493   6.783   3.653   0.636
 2198SOL    HW2 7494   6.934   3.645   0.573
 2199SOL     OW 7495   4.668   0.339   1.588
 2199SOL    HW1 7496   4.573   0.315   1.565
 2199SOL    HW2 7497   4.676   0.351   1.687
 2200SOL     OW 7498   3.208   0.790   4.807
 2200SOL    HW1 7499   3.187   0.876   4.760
 2200SOL    HW2 7500   3.194   0.801   4.905
 2201SOL     OW 7501   5.574   3.258   2.117
 2201SOL    HW1 7502   5.494   3.231   2.169
 2201SOL    HW2 7503   5.614   3.177   2.073
 2202SOL     OW 7504   4.691   6.012   3.890
 2202SOL    HW1 7505   4.692   5.917   3.921
 2202SOL    HW2 7506   4.755   6.065   3.946
 2203SOL     OW 7507   3.405   2.054   3.489
 2203SOL    HW1 7508   3.343   1.996   3.436
 2203SOL    HW2 7509   3.495   2.054   3.446
 2204SOL     OW 7510   3.536   2.493   0.461
 2204SOL    HW1 7511   3.438   2.497   0.440
 2204SOL    HW2 7512   3.588   2.481   0.376
 2205SOL     OW 7513   3.081   6.642   0.587
 2205SOL    HW1 7514   3.172   6.655   0.549
 2205SOL    HW2 7515   3.057   6.545   0.584
 2206SOL     OW 7516   2.008   3.047   6.763
 2206SOL    HW1 7517   2.013   3.106   6.844
 2206SOL    HW2 7518   2.032   3.101   6.682
 2207SOL     OW 7519   0.830   4.213   5.679
 2207SOL    HW1 7520   0.847   4.123   5.720
 2207SOL    HW2 7521   0.742   4.213   5.633
 2208SOL     OW 7522   0.438   4.163   1.886
 2208SOL    HW1 7523   0.521   4.205   1.848
 2208SOL    HW2 7524   0.453   4.065   1.899
 2209SOL     OW 7525   0.850   6.060   0.231
 2209SOL    HW1 7526   0.799   5.999   0.171
 2209SOL    HW2 7527   0.941   6.075   0.194
 2210SOL     OW 7528   0.552   5.540   4.218
 2210SOL    HW1 7529   0.503   5.617   4.177
 2210SOL    HW2 7530   0.622   5.508   4.155
 2211SOL     OW 7531   6.294   1.282   5.375
 2211SOL    HW1 7532   6.384   1.325   5.366
 2211SOL    HW2 7533   6.224   1.353   5.389
 2212SOL     OW 7534   1.616   0.317   6.324
 2212SOL    HW1 7535   1.585   0.294   6.417
 2212SOL    HW2 7536   1.668   0.240   6.287
 2213SOL     OW 7537   3.691   1.720   3.693
 2213SOL    HW1 7538   3.677   1.713   3.595
 2213SOL    HW2 7539   3.713   1.815   3.717
 2214SOL     OW 7540   4.528   7.012   4.134
 2214SOL    HW1 7541   4.445   7.013   4.191
 2214SOL    HW2 7542   4.609   7.020   4.192
 2215SOL     OW 7543   6.144   2.209   5.456
 2215SOL    HW1 7544   6.119   2.122   5.414
 2215SOL    HW2 7545   6.075   2.234   5.525
 2216SOL     OW 7546   2.002   6.924   1.599
 2216SOL    HW1 7547   2.009   6.846   1.662
 2216SOL    HW2 7548   1.976   6.891   1.508
 2217SOL     OW 7549   4.295   0.615   1.140
 2217SOL    HW1 7550   4.383   0.660   1.123
 2217SOL    HW2 7551   4.236   0.677   1.192
 2218SOL     OW 7552   0.936   5.663   0.747
 2218SOL    HW1 7553   0.929   5.681   0.845
 2218SOL    HW2 7554   0.908   5.569   0.728
 2219SOL     OW 7555   1.502   4.110   3.626
 2219SOL    HW1 7556   1.597   4.115   3.597
 2219SOL    HW2 7557   1.449   4.056   3.560
 2220SOL     OW 7558   0.405   0.952   6.897
 2220SOL    HW1 7559   0.414   0.955   6.997
 2220SOL    HW2 7560   0.493   0.925   6.857
 2221SOL     OW 7561   6.277   2.540   1.093
 2221SOL    HW1 7562   6.255   2.469   1.026
 2221SOL    HW2 7563   6.205   2.545   1.162
 2222SOL     OW 7564   5.077   6.388   2.557
 2222SOL    HW1 7565   5.080   6.479   2.515
 2222SOL    HW2 7566   5.037   6.322   2.492
 2223SOL     OW 7567   5.435   5.763   2.275
 2223SOL    HW1 7568   5.473   5.703   2.345
 2223SOL    HW2 7569   5.495   5.764   2.195
 2224SOL     OW 7570   1.585   4.504   0.900
 2224SOL    HW1 7571   1.613   4.578   0.961
 2224SOL    HW2 7572   1.509   4.536   0.843
 2225SOL     OW 7573   6.250   4.801   1.838
 2225SOL    HW1 7574   6.257   4.748   1.754
 2225SOL    HW2 7575   6.334   4.791   1.892
 2226SOL     OW 7576   4.106   4.036   1.279
 2226SOL    HW1 7577   4.059   4.059   1.364
 2226SOL    HW2 7578   4.053   4.070   1.201
 2227SOL     OW 7579   0.169   4.342   4.606
 2227SOL    HW1 7580   0.251   4.399   4.607
 2227SOL    HW2 7581   0.178   4.272   4.535
 2228SOL     OW 7582   3.224   5.152   6.022
 2228SOL    HW1 7583   3.257   5.093   5.948
 2228SOL    HW2 7584   3.268   5.241   6.015
 2229SOL     OW 7585   5.172   0.518   3.428
 2229SOL    HW1 7586   5.104   0.461   3.473
 2229SOL    HW2 7587   5.221   0.572   3.497
 2230SOL     OW 7588   1.236   5.987   0.291
 2230SOL    HW1 7589   1.185   6.016   0.209
 2230SOL    HW2 7590   1.292   5.908   0.268
 2231SOL     OW 7591   2.788   6.759   1.595
 2231SOL    HW1 7592   2.818   6.672   1.634
 2231SOL    HW2 7593   2.688   6.762   1.592
 2232SOL     OW 7594   6.385   2.720   3.138
 2232SOL    HW1 7595   6.412   2.626   3.160
 2232SOL    HW2 7596   6.466   2.772   3.108
 2233SOL     OW 7597   4.242   0.803   0.077
 2233SOL    HW1 7598   4.185   0.722   0.083
 2233SOL    HW2 7599   4.185   0.882   0.055
 2234SOL     OW 7600   3.217   1.540   0.880
 2234SOL    HW1 7601   3.255   1.549   0.972
 2234SOL    HW2 7602   3.277   1.481   0.825
 2235SOL     OW 7603   1.824   6.962   1.139
 2235SOL    HW1 7604   1.826   0.034   1.172
 2235SOL    HW2 7605   1.782   6.960   1.048
 2236SOL     OW 7606   0.155   4.046   1.227
 2236SOL    HW1 7607   0.198   3.975   1.281
 2236SOL    HW2 7608   0.182   4.136   1.262
 2237SOL     OW 7609   6.170   2.370   3.929
 2237SOL    HW1 7610   6.137   2.356   3.836
 2237SOL    HW2 7611   6.102   2.335   3.994
 2238SOL     OW 7612   1.634   5.784   2.344
 2238SOL    HW1 7613   1.577   5.808   2.423
 2238SOL    HW2 7614   1.641   5.684   2.337
 2239SOL     OW 7615   4.226   5.447   3.255
 2239SOL    HW1 7616   4.209   5.385   3.178
 2239SOL    HW2 7617   4.325   5.449   3.274
 2240SOL     OW 7618   5.522   4.034   2.079
 2240SOL    HW1 7619   5.483   4.118   2.117
 2240SOL    HW2 7620   5.616   4.023   2.112
 2241SOL     OW 7621   0.528   0.357   2.486
 2241SOL    HW1 7622   0.507   0.450   2.457
 2241SOL    HW2 7623   0.522   0.351   2.586
 2242SOL     OW 7624   5.183   2.115   2.482
 2242SOL    HW1 7625   5.134   2.058   2.547
 2242SOL    HW2 7626   5.135   2.115   2.394
 2243SOL     OW 7627   2.354   6.367   5.295
 2243SOL    HW1 7628   2.414   6.446   5.281
 2243SOL    HW2 7629   2.288   6.362   5.220
 2244SOL     OW 7630   2.940   0.501   5.052
 2244SOL    HW1 7631   2.944   0.401   5.056
 2244SOL    HW2 7632   2.952   0.538   5.144
 2245SOL     OW 7633   1.646   1.261   1.892
 2245SOL    HW1 7634   1.560   1.304   1.919
 2245SOL    HW2 7635   1.708   1.330   1.856
 2246SOL     OW 7636   1.348   3.428   5.481
 2246SOL    HW1 7637   1.411   3.482   5.537
 2246SOL    HW2 7638   1.300   3.488   5.417
 2247SOL     OW 7639   1.769   2.310   5.931
 2247SOL    HW1 7640   1.829   2.230   5.938
 2247SOL    HW2 7641   1.678   2.287   5.964
 2248SOL     OW 7642   5.189   3.116   5.121
 2248SOL    HW1 7643   5.099   3.086   5.153
 2248SOL    HW2 7644   5.226   3.184   5.184
 2249SOL     OW 7645   5.023   5.039   4.280
 2249SOL    HW1 7646   5.027   5.138   4.272
 2249SOL    HW2 7647   5.107   4.998   4.243
 2250SOL     OW 7648   6.407   4.233   6.804
 2250SOL    HW1 7649   6.459   4.177   6.869
 2250SOL    HW2 7650   6.447   4.325   6.802
 2251SOL     OW 7651   6.117   0.921   6.858
 2251SOL    HW1 7652   6.162   0.876   6.781
 2251SOL    HW2 7653   6.175   0.916   6.938
 2252SOL     OW 7654   4.217   1.858   5.684
 2252SOL    HW1 7655   4.264   1.939   5.647
 2252SOL    HW2 7656   4.167   1.884   5.766
 2253SOL     OW 7657   2.155   3.490   6.610
 2253SOL    HW1 7658   2.189   3.546   6.534
 2253SOL    HW2 7659   2.189   3.527   6.697
 2254SOL     OW 7660   1.840   3.678   6.649
 2254SOL    HW1 7661   1.900   3.599   6.634
 2254SOL    HW2 7662   1.894   3.762   6.643
 2255SOL     OW 7663   5.694   2.986   1.287
 2255SOL    HW1 7664   5.739   3.068   1.322
 2255SOL    HW2 7665   5.761   2.928   1.240
 2256SOL     OW 7666   4.303   4.961   1.976
 2256SOL    HW1 7667   4.267   5.021   1.905
 2256SOL    HW2 7668   4.238   4.955   2.051
 2257SOL     OW 7669   2.251   4.360   4.104
 2257SOL    HW1 7670   2.248   4.260   4.100
 2257SOL    HW2 7671   2.333   4.393   4.056
 2258SOL     OW 7672   1.469   5.553   4.151
 2258SOL    HW1 7673   1.507   5.607   4.076
 2258SOL    HW2 7674   1.488   5.598   4.238
 2259SOL     OW 7675   5.987   3.072   6.515
 2259SOL    HW1 7676   5.983   3.150   6.452
 2259SOL    HW2 7677   5.916   3.006   6.491
 2260SOL     OW 7678   5.756   5.150   1.060
 2260SOL    HW1 7679   5.815   5.069   1.054
 2260SOL    HW2 7680   5.664   5.125   1.029
 2261SOL     OW 7681   4.803   6.196   6.622
 2261SOL    HW1 7682   4.891   6.153   6.646
 2261SOL    HW2 7683   4.814   6.247   6.536
 2262SOL     OW 7684   4.380   1.836   2.925
 2262SOL    HW1 7685   4.439   1.755   2.924
 2262SOL    HW2 7686   4.430   1.915   2.890
 2263SOL     OW 7687   0.182   5.442   6.267
 2263SOL    HW1 7688   0.277   5.416   6.255
 2263SOL    HW2 7689   0.176   5.525   6.323
 2264SOL     OW 7690   3.778   4.050   3.962
 2264SOL    HW1 7691   3.766   4.104   3.879
 2264SOL    HW2 7692   3.697   4.061   4.020
 2265SOL     OW 7693   0.313   0.846   1.639
 2265SOL    HW1 7694   0.341   0.776   1.573
 2265SOL    HW2 7695   0.357   0.830   1.727
 2266SOL     OW 7696   6.074   6.759   0.948
 2266SOL    HW1 7697   6.072   6.771   1.047
 2266SOL    HW2 7698   6.144   6.692   0.924
 2267SOL     OW 7699   6.148   2.450   5.836
 2267SOL    HW1 7700   6.072   2.509   5.810
 2267SOL    HW2 7701   6.142   2.429   5.933
 2268SOL     OW 7702   6.514   5.431   0.322
 2268SOL    HW1 7703   6.448   5.357   0.339
 2268SOL    HW2 7704   6.476   5.495   0.256
 2269SOL     OW 7705   6.826   5.353   5.339
 2269SOL    HW1 7706   6.843   5.259   5.312
 2269SOL    HW2 7707   6.903   5.387   5.393
 2270SOL     OW 7708   4.172   3.559   1.901
 2270SOL    HW1 7709   4.173   3.603   1.990
 2270SOL    HW2 7710   4.155   3.461   1.912
 2271SOL     OW 7711   6.386   4.332   2.831
 2271SOL    HW1 7712   6.358   4.403   2.766
 2271SOL    HW2 7713   6.305   4.289   2.871
 2272SOL     OW 7714   5.885   1.744   6.341
 2272SOL    HW1 7715   5.972   1.722   6.385
 2272SOL    HW2 7716   5.815   1.758   6.411
 2273SOL     OW 7717   1.753   1.378   3.259
 2273SOL    HW1 7718   1.840   1.424   3.275
 2273SOL    HW2 7719   1.768   1.296   3.203
 2274SOL     OW 7720   1.811   3.661   3.914
 2274SOL    HW1 7721   1.810   3.755   3.879
 2274SOL    HW2 7722   1.811   3.662   4.014
 2275SOL     OW 7723   5.056   6.381   3.392
 2275SOL    HW1 7724   4.991   6.306   3.399
 2275SOL    HW2 7725   5.113   6.368   3.310
 2276SOL     OW 7726   4.942   4.702   1.589
 2276SOL    HW1 7727   5.002   4.626   1.562
 2276SOL    HW2 7728   4.863   4.666   1.639
 2277SOL     OW 7729   3.080   3.811   0.149
 2277SOL    HW1 7730   3.022   3.891   0.138
 2277SOL    HW2 7731   3.083   3.786   0.246
 2278SOL     OW 7732   5.733   6.623   1.284
 2278SOL    HW1 7733   5.772   6.561   1.216
 2278SOL    HW2 7734   5.807   6.662   1.340
 2279SOL     OW 7735   5.566   4.282   4.700
 2279SOL    HW1 7736   5.537   4.294   4.795
 2279SOL    HW2 7737   5.486   4.269   4.642
 2280SOL     OW 7738   5.906   6.484   6.050
 2280SOL    HW1 7739   5.984   6.422   6.042
 2280SOL    HW2 7740   5.935   6.568   6.097
 2281SOL     OW 7741   3.866   2.937   1.091
 2281SOL    HW1 7742   3.878   2.838   1.084
 2281SOL    HW2 7743   3.780   2.957   1.137
 2282SOL     OW 7744   3.824   5.128   3.043
 2282SOL    HW1 7745   3.829   5.217   2.998
 2282SOL    HW2 7746   3.819   5.140   3.142
 2283SOL     OW 7747   6.662   3.591   3.397
 2283SOL    HW1 7748   6.722   3.590   3.317
 2283SOL    HW2 7749   6.592   3.520   3.387
 2284SOL     OW 7750   2.112   2.493   2.212
 2284SOL    HW1 7751   2.151   2.403   2.234
 2284SOL    HW2 7752   2.181   2.564   2.227
 2285SOL     OW 7753   2.206   4.624   0.298
 2285SOL    HW1 7754   2.244   4.573   0.375
 2285SOL    HW2 7755   2.108   4.606   0.290
 2286SOL     OW 7756   6.013   6.464   4.398
 2286SOL    HW1 7757   6.042   6.514   4.479
 2286SOL    HW2 7758   5.992   6.528   4.324
 2287SOL     OW 7759   2.245   2.856   2.052
 2287SOL    HW1 7760   2.148   2.834   2.063
 2287SOL    HW2 7761   2.256   2.952   2.028
 2288SOL     OW 7762   0.176   6.525   4.103
 2288SOL    HW1 7763   0.175   6.616   4.144
 2288SOL    HW2 7764   0.082   6.490   4.098
 2289SOL     OW 7765   4.992   2.629   1.284
 2289SOL    HW1 7766   4.963   2.697   1.351
 2289SOL    HW2 7767   4.912   2.590   1.239
 2290SOL     OW 7768   3.410   3.084   3.218
 2290SOL    HW1 7769   3.431   3.155   3.285
 2290SOL    HW2 7770   3.322   3.041   3.242
 2291SOL     OW 7771   1.895   2.659   0.335
 2291SOL    HW1 7772   1.960   2.589   0.305
 2291SOL    HW2 7773   1.919   2.747   0.294
 2292SOL     OW 7774   4.467   2.144   2.836
 2292SOL    HW1 7775   4.430   2.188   2.917
 2292SOL    HW2 7776   4.391   2.114   2.777
 2293SOL     OW 7777   6.179   1.243   6.986
 2293SOL    HW1 7778   6.089   1.265   0.003
 2293SOL    HW2 7779   6.187   1.285   6.896
 2294SOL     OW 7780   0.598   1.808   6.123
 2294SOL    HW1 7781   0.517   1.753   6.143
 2294SOL    HW2 7782   0.575   1.878   6.055
 2295SOL     OW 7783   6.127   6.249   1.510
 2295SOL    HW1 7784   6.086   6.158   1.515
 2295SOL    HW2 7785   6.192   6.252   1.434
 2296SOL     OW 7786   3.000   5.276   4.084
 2296SOL    HW1 7787   3.016   5.367   4.045
 2296SOL    HW2 7788   3.029   5.276   4.179
 2297SOL     OW 7789   4.333   4.180   5.390
 2297SOL    HW1 7790   4.272   4.258   5.408
 2297SOL    HW2 7791   4.294   4.097   5.429
 2298SOL     OW 7792   4.174   3.397   4.456
 2298SOL    HW1 7793   4.177   3.376   4.358
 2298SOL    HW2 7794   4.134   3.320   4.506
 2299SOL     OW 7795   5.191   3.341   4.912
 2299SOL    HW1 7796   5.207   3.263   4.972
 2299SOL    HW2 7797   5.095   3.343   4.884
 2300SOL     OW 7798   4.467   6.504   2.427
 2300SOL    HW1 7799   4.404   6.470   2.357
 2300SOL    HW2 7800   4.416   6.559   2.493
 2301SOL     OW 7801   4.004   3.076   4.181
 2301SOL    HW1 7802   4.061   3.157   4.192
 2301SOL    HW2 7803   3.972   3.070   4.087
 2302SOL     OW 7804   4.102   2.030   0.241
 2302SOL    HW1 7805   4.181   2.060   0.294
 2302SOL    HW2 7806   4.132   1.994   0.153
 2303SOL     OW 7807   3.824   2.483   0.058
 2303SOL    HW1 7808   3.856   2.404   0.007
 2303SOL    HW2 7809   3.734   2.464   0.097
 2304SOL     OW 7810   5.668   5.744   1.614
 2304SOL    HW1 7811   5.683   5.682   1.537
 2304SOL    HW2 7812   5.656   5.838   1.580
 2305SOL     OW 7813   2.180   1.090   5.429
 2305SOL    HW1 7814   2.240   1.170   5.437
 2305SOL    HW2 7815   2.087   1.116   5.454
 2306SOL     OW 7816   1.629   5.643   3.953
 2306SOL    HW1 7817   1.707   5.660   3.893
 2306SOL    HW2 7818   1.544   5.662   3.903
 2307SOL     OW 7819   0.053   3.028   6.062
 2307SOL    HW1 7820   0.072   3.126   6.071
 2307SOL    HW2 7821   0.108   2.977   6.127
 2308SOL     OW 7822   2.525   4.859   1.707
 2308SOL    HW1 7823   2.493   4.768   1.680
 2308SOL    HW2 7824   2.595   4.850   1.778
 2309SOL     OW 7825   1.728   6.458   5.353
 2309SOL    HW1 7826   1.763   6.441   5.445
 2309SOL    HW2 7827   1.798   6.433   5.286
 2310SOL     OW 7828   4.582   6.367   1.697
 2310SOL    HW1 7829   4.580   6.363   1.597
 2310SOL    HW2 7830   4.550   6.456   1.727
 2311SOL     OW 7831   2.638   6.056   1.441
 2311SOL    HW1 7832   2.629   6.031   1.344
 2311SOL    HW2 7833   2.569   6.006   1.494
 2312SOL     OW 7834   2.992   4.836   2.622
 2312SOL    HW1 7835   2.908   4.792   2.591
 2312SOL    HW2 7836   3.055   4.846   2.545
 2313SOL     OW 7837   4.037   5.694   1.671
 2313SOL    HW1 7838   4.122   5.738   1.700
 2313SOL    HW2 7839   4.014   5.724   1.579
 2314SOL     OW 7840   2.646   5.713   4.181
 2314SOL    HW1 7841   2.670   5.625   4.140
 2314SOL    HW2 7842   2.585   5.763   4.119
 2315SOL     OW 7843   4.484   3.029   6.491
 2315SOL    HW1 7844   4.470   3.104   6.556
 2315SOL    HW2 7845   4.533   3.064   6.411
 2316SOL     OW 7846   5.579   3.213   2.741
 2316SOL    HW1 7847   5.672   3.237   2.770
 2316SOL    HW2 7848   5.580   3.122   2.699
 2317SOL     OW 7849   0.878   5.108   3.609
 2317SOL    HW1 7850   0.844   5.184   3.553
 2317SOL    HW2 7851   0.968   5.081   3.577
 2318SOL     OW 7852   6.949   1.547   3.560
 2318SOL    HW1 7853   6.998   1.476   3.510
 2318SOL    HW2 7854   6.990   1.636   3.540
 2319SOL     OW 7855   0.959   4.250   4.421
 2319SOL    HW1 7856   1.033   4.290   4.474
 2319SOL    HW2 7857   0.907   4.186   4.478
 2320SOL     OW 7858   6.514   4.022   4.841
 2320SOL    HW1 7859   6.450   3.992   4.913
 2320SOL    HW2 7860   6.480   3.992   4.752
 2321SOL     OW 7861   2.958   6.456   5.518
 2321SOL    HW1 7862   3.009   6.378   5.480
 2321SOL    HW2 7863   3.017   6.506   5.581
 2322SOL     OW 7864   2.531   6.942   5.970
 2322SOL    HW1 7865   2.486   0.009   5.985
 2322SOL    HW2 7866   2.539   6.894   6.057
 2323SOL     OW 7867   4.785   5.015   2.281
 2323SOL    HW1 7868   4.817   5.079   2.350
 2323SOL    HW2 7869   4.822   4.924   2.300
 2324SOL     OW 7870   6.407   5.605   3.461
 2324SOL    HW1 7871   6.407   5.700   3.432
 2324SOL    HW2 7872   6.397   5.545   3.381
 2325SOL     OW 7873   0.066   3.729   0.510
 2325SOL    HW1 7874   0.073   3.799   0.439
 2325SOL    HW2 7875   0.135   3.659   0.495
 2326SOL     OW 7876   1.600   5.253   0.183
 2326SOL    HW1 7877   1.635   5.335   0.229
 2326SOL    HW2 7878   1.634   5.171   0.229
 2327SOL     OW 7879   5.149   2.535   4.812
 2327SOL    HW1 7880   5.064   2.490   4.840
 2327SOL    HW2 7881   5.126   2.618   4.761
 2328SOL     OW 7882   4.810   6.591   3.210
 2328SOL    HW1 7883   4.829   6.493   3.218
 2328SOL    HW2 7884   4.878   6.634   3.150
 2329SOL     OW 7885   0.162   5.975   3.803
 2329SOL    HW1 7886   0.191   6.028   3.723
 2329SOL    HW2 7887   0.166   6.032   3.884
 2330SOL     OW 7888   0.233   4.124   2.731
 2330SOL    HW1 7889   0.183   4.050   2.776
 2330SOL    HW2 7890   0.209   4.211   2.773
 2331SOL     OW 7891   0.894   4.539   5.337
 2331SOL    HW1 7892   0.922   4.465   5.399
 2331SOL    HW2 7893   0.805   4.574   5.365
 2332SOL     OW 7894   5.352   2.251   5.288
 2332SOL    HW1 7895   5.289   2.293   5.224
 2332SOL    HW2 7896   5.355   2.152   5.274
 2333SOL     OW 7897   1.024   5.709   4.181
 2333SOL    HW1 7898   0.960   5.780   4.212
 2333SOL    HW2 7899   1.117   5.734   4.209
 2334SOL     OW 7900   3.006   6.954   0.326
 2334SOL    HW1 7901   2.916   6.998   0.320
 2334SOL    HW2 7902   2.994   6.855   0.330
 2335SOL     OW 7903   5.293   6.518   3.866
 2335SOL    HW1 7904   5.204   6.507   3.821
 2335SOL    HW2 7905   5.339   6.599   3.830
 2336SOL     OW 7906   4.750   1.447   6.017
 2336SOL    HW1 7907   4.660   1.435   5.975
 2336SOL    HW2 7908   4.752   1.400   6.105
 2337SOL     OW 7909   5.700   0.518   2.637
 2337SOL    HW1 7910   5.673   0.564   2.722
 2337SOL    HW2 7911   5.636   0.444   2.618
 2338SOL     OW 7912   0.933   6.681   6.346
 2338SOL    HW1 7913   0.908   6.584   6.343
 2338SOL    HW2 7914   0.922   6.715   6.439
 2339SOL     OW 7915   3.585   4.362   0.188
 2339SOL    HW1 7916   3.619   4.326   0.101
 2339SOL    HW2 7917   3.491   4.330   0.203
 2340SOL     OW 7918   3.209   5.102   4.986
 2340SOL    HW1 7919   3.238   5.063   5.074
 2340SOL    HW2 7920   3.176   5.196   5.001
 2341SOL     OW 7921   5.847   5.270   0.050
 2341SOL    HW1 7922   5.794   5.352   0.023
 2341SOL    HW2 7923   5.924   5.297   0.106
 2342SOL     OW 7924   6.636   0.533   5.759
 2342SOL    HW1 7925   6.705   0.604   5.771
 2342SOL    HW2 7926   6.670   0.464   5.695
 2343SOL     OW 7927   1.318   6.727   0.971
 2343SOL    HW1 7928   1.338   6.675   0.887
 2343SOL    HW2 7929   1.221   6.716   0.994
 2344SOL     OW 7930   1.945   2.270   2.541
 2344SOL    HW1 7931   2.043   2.257   2.558
 2344SOL    HW2 7932   1.923   2.241   2.448
 2345SOL     OW 7933   2.114   1.712   4.378
 2345SOL    HW1 7934   2.073   1.767   4.451
 2345SOL    HW2 7935   2.206   1.684   4.405
 2346SOL     OW 7936   4.744   3.550   5.774
 2346SOL    HW1 7937   4.677   3.613   5.736
 2346SOL    HW2 7938   4.708   3.456   5.770
 2347SOL     OW 7939   1.572   3.172   1.693
 2347SOL    HW1 7940   1.653   3.230   1.703
 2347SOL    HW2 7941   1.508   3.191   1.768
 2348SOL     OW 7942   2.718   6.621   1.860
 2348SOL    HW1 7943   2.636   6.602   1.914
 2348SOL    HW2 7944   2.767   6.536   1.844
 2349SOL     OW 7945   5.156   5.353   5.613
 2349SOL    HW1 7946   5.231   5.404   5.570
 2349SOL    HW2 7947   5.115   5.410   5.684
 2350SOL     OW 7948   2.539   6.584   5.336
 2350SOL    HW1 7949   2.587   6.535   5.408
 2350SOL    HW2 7950   2.528   6.680   5.362
 2351SOL     OW 7951   2.353   5.404   4.711
 2351SOL    HW1 7952   2.258   5.397   4.741
 2351SOL    HW2 7953   2.366   5.490   4.662
 2352SOL     OW 7954   0.850   3.570   2.381
 2352SOL    HW1 7955   0.854   3.470   2.385
 2352SOL    HW2 7956   0.800   3.598   2.300
 2353SOL     OW 7957   2.794   4.059   6.329
 2353SOL    HW1 7958   2.869   4.124   6.330
 2353SOL    HW2 7959   2.708   4.107   6.309
 2354SOL     OW 7960   4.210   2.471   0.434
 2354SOL    HW1 7961   4.263   2.525   0.499
 2354SOL    HW2 7962   4.160   2.399   0.482
 2355SOL     OW 7963   0.531   6.847   0.908
 2355SOL    HW1 7964   0.558   6.775   0.844
 2355SOL    HW2 7965   0.516   6.932   0.857
 2356SOL     OW 7966   2.843   5.078   3.473
 2356SOL    HW1 7967   2.835   4.982   3.502
 2356SOL    HW2 7968   2.935   5.112   3.496
 2357SOL     OW 7969   6.561   4.516   1.438
 2357SOL    HW1 7970   6.574   4.480   1.531
 2357SOL    HW2 7971   6.632   4.480   1.378
 2358SOL     OW 7972   4.116   1.502   5.835
 2358SOL    HW1 7973   4.087   1.538   5.924
 2358SOL    HW2 7974   4.077   1.557   5.762
 2359SOL     OW 7975   1.189   1.314   5.824
 2359SOL    HW1 7976   1.255   1.378   5.864
 2359SOL    HW2 7977   1.182   1.233   5.881
 2360SOL     OW 7978   4.374   4.322   0.664
 2360SOL    HW1 7979   4.437   4.379   0.717
 2360SOL    HW2 7980   4.291   4.304   0.718
 2361SOL     OW 7981   3.871   6.116   1.424
 2361SOL    HW1 7982   3.967   6.097   1.445
 2361SOL    HW2 7983   3.843   6.200   1.470
 2362SOL     OW 7984   4.107   6.367   3.807
 2362SOL    HW1 7985   4.007   6.368   3.807
 2362SOL    HW2 7986   4.140   6.304   3.877
 2363SOL     OW 7987   2.836   3.767   0.745
 2363SOL    HW1 7988   2.794   3.858   0.741
 2363SOL    HW2 7989   2.931   3.775   0.774
 2364SOL     OW 7990   4.216   1.494   2.231
 2364SOL    HW1 7991   4.162   1.477   2.148
 2364SOL    HW2 7992   4.207   1.590   2.257
 2365SOL     OW 7993   4.926   3.019   3.692
 2365SOL    HW1 7994   5.009   2.964   3.705
 2365SOL    HW2 7995   4.861   2.968   3.636
 2366SOL     OW 7996   2.671   4.637   5.262
 2366SOL    HW1 7997   2.744   4.613   5.199
 2366SOL    HW2 7998   2.643   4.556   5.313
 2367SOL     OW 7999   6.942   4.480   5.297
 2367SOL    HW1 8000   7.012   4.517   5.236
 2367SOL    HW2 8001   6.985   4.416   5.361
 2368SOL     OW 8002   5.380   6.267   4.247
 2368SOL    HW1 8003   5.371   6.195   4.178
 2368SOL    HW2 8004   5.474   6.268   4.281
 2369SOL     OW 8005   3.019   1.789   4.288
 2369SOL    HW1 8006   3.035   1.751   4.379
 2369SOL    HW2 8007   3.107   1.815   4.248
 2370SOL     OW 8008   5.407   2.807   1.209
 2370SOL    HW1 8009   5.452   2.737   1.265
 2370SOL    HW2 8010   5.473   2.844   1.144
 2371SOL     OW 8011   0.780   6.606   3.077
 2371SOL    HW1 8012   0.800   6.622   3.173
 2371SOL    HW2 8013   0.752   6.511   3.064
 2372SOL     OW 8014   6.219   0.953   5.862
 2372SOL    HW1 8015   6.296   0.998   5.907
 2372SOL    HW2 8016   6.248   0.862   5.831
 2373SOL     OW 8017   5.645   5.751   6.034
 2373SOL    HW1 8018   5.684   5.764   6.125
 2373SOL    HW2 8019   5.690   5.812   5.969
 2374SOL     OW 8020   6.057   6.203   2.251
 2374SOL    HW1 8021   6.092   6.116   2.286
 2374SOL    HW2 8022   6.085   6.277   2.313
 2375SOL     OW 8023   1.261   0.425   4.221
 2375SOL    HW1 8024   1.194   0.387   4.285
 2375SOL    HW2 8025   1.318   0.492   4.268
 2376SOL     OW 8026   5.706   1.363   3.153
 2376SOL    HW1 8027   5.800   1.372   3.121
 2376SOL    HW2 8028   5.705   1.315   3.241
 2377SOL     OW 8029   4.632   5.106   5.698
 2377SOL    HW1 8030   4.628   5.206   5.694
 2377SOL    HW2 8031   4.544   5.068   5.670
 2378SOL     OW 8032   6.707   1.100   0.667
 2378SOL    HW1 8033   6.684   1.065   0.758
 2378SOL    HW2 8034   6.734   1.023   0.608
 2379SOL     OW 8035   0.265   5.095   1.104
 2379SOL    HW1 8036   0.364   5.098   1.115
 2379SOL    HW2 8037   0.222   5.159   1.168
 2380SOL     OW 8038   4.942   4.620   4.902
 2380SOL    HW1 8039   5.012   4.675   4.947
 2380SOL    HW2 8040   4.949   4.631   4.803
 2381SOL     OW 8041   2.667   5.017   4.746
 2381SOL    HW1 8042   2.661   4.991   4.650
 2381SOL    HW2 8043   2.661   4.935   4.803
 2382SOL     OW 8044   1.044   5.837   2.309
 2382SOL    HW1 8045   0.958   5.839   2.360
 2382SOL    HW2 8046   1.117   5.804   2.368
 2383SOL     OW 8047   5.166   5.554   5.055
 2383SOL    HW1 8048   5.172   5.562   5.154
 2383SOL    HW2 8049   5.103   5.623   5.019
 2384SOL     OW 8050   0.642   1.787   2.313
 2384SOL    HW1 8051   0.689   1.700   2.325
 2384SOL    HW2 8052   0.569   1.795   2.380
 2385SOL     OW 8053   0.758   2.213   1.167
 2385SOL    HW1 8054   0.841   2.177   1.126
 2385SOL    HW2 8055   0.725   2.291   1.114
 2386SOL     OW 8056   4.756   5.942   4.451
 2386SOL    HW1 8057   4.714   6.029   4.425
 2386SOL    HW2 8058   4.693   5.867   4.429
 2387SOL     OW 8059   1.500   1.753   4.230
 2387SOL    HW1 8060   1.471   1.823   4.164
 2387SOL    HW2 8061   1.501   1.792   4.322
 2388SOL     OW 8062   6.723   1.698   5.506
 2388SOL    HW1 8063   6.716   1.752   5.423
 2388SOL    HW2 8064   6.694   1.753   5.584
 2389SOL     OW 8065   5.404   4.534   4.156
 2389SOL    HW1 8066   5.434   4.561   4.247
 2389SOL    HW2 8067   5.375   4.615   4.105
 2390SOL     OW 8068   4.156   3.965   5.782
 2390SOL    HW1 8069   4.159   4.047   5.839
 2390SOL    HW2 8070   4.080   3.907   5.811
 2391SOL     OW 8071   3.414   4.088   6.100
 2391SOL    HW1 8072   3.378   4.124   6.186
 2391SOL    HW2 8073   3.442   4.165   6.042
 2392SOL     OW 8074   3.864   5.385   5.712
 2392SOL    HW1 8075   3.819   5.318   5.653
 2392SOL    HW2 8076   3.794   5.444   5.753
 2393SOL     OW 8077   3.058   5.679   1.821
 2393SOL    HW1 8078   3.124   5.726   1.879
 2393SOL    HW2 8079   3.030   5.593   1.865
 2394SOL     OW 8080   1.077   2.673   3.480
 2394SOL    HW1 8081   1.081   2.579   3.515
 2394SOL    HW2 8082   1.117   2.675   3.388
 2395SOL     OW 8083   0.232   1.935   4.631
 2395SOL    HW1 8084   0.290   1.971   4.704
 2395SOL    HW2 8085   0.284   1.870   4.576
 2396SOL     OW 8086   6.883   1.092   5.425
 2396SOL    HW1 8087   6.923   1.121   5.339
 2396SOL    HW2 8088   6.784   1.107   5.423
 2397SOL     OW 8089   0.222   4.727   5.393
 2397SOL    HW1 8090   0.237   4.774   5.480
 2397SOL    HW2 8091   0.270   4.639   5.393
 2398SOL     OW 8092   3.076   6.296   3.125
 2398SOL    HW1 8093   3.133   6.371   3.160
 2398SOL    HW2 8094   2.980   6.319   3.138
 2399SOL     OW 8095   2.656   2.354   4.483
 2399SOL    HW1 8096   2.569   2.398   4.505
 2399SOL    HW2 8097   2.644   2.254   4.484
 2400SOL     OW 8098   0.701   4.373   0.780
 2400SOL    HW1 8099   0.612   4.399   0.744
 2400SOL    HW2 8100   0.773   4.413   0.723
 2401SOL     OW 8101   3.674   6.763   5.866
 2401SOL    HW1 8102   3.635   6.793   5.779
 2401SOL    HW2 8103   3.612   6.697   5.909
 2402SOL     OW 8104   1.299   4.532   2.199
 2402SOL    HW1 8105   1.302   4.432   2.187
 2402SOL    HW2 8106   1.386   4.571   2.172
 2403SOL     OW 8107   3.591   4.018   2.879
 2403SOL    HW1 8108   3.625   3.934   2.839
 2403SOL    HW2 8109   3.584   4.088   2.808
 2404SOL     OW 8110   6.095   1.852   1.058
 2404SOL    HW1 8111   6.089   1.754   1.075
 2404SOL    HW2 8112   6.116   1.900   1.143
 2405SOL     OW 8113   2.101   3.571   0.761
 2405SOL    HW1 8114   2.109   3.635   0.685
 2405SOL    HW2 8115   2.083   3.622   0.845
 2406SOL     OW 8116   2.396   6.625   4.689
 2406SOL    HW1 8117   2.399   6.661   4.783
 2406SOL    HW2 8118   2.488   6.631   4.649
 2407SOL     OW 8119   3.310   1.386   3.722
 2407SOL    HW1 8120   3.227   1.378   3.667
 2407SOL    HW2 8121   3.291   1.441   3.803
 2408SOL     OW 8122   3.140   5.799   4.573
 2408SOL    HW1 8123   3.064   5.738   4.595
 2408SOL    HW2 8124   3.223   5.767   4.618
 2409SOL     OW 8125   1.801   2.779   1.272
 2409SOL    HW1 8126   1.748   2.699   1.244
 2409SOL    HW2 8127   1.892   2.775   1.231
 2410SOL     OW 8128   0.305   3.667   5.297
 2410SOL    HW1 8129   0.252   3.600   5.350
 2410SOL    HW2 8130   0.367   3.619   5.236
 2411SOL     OW 8131   2.599   3.835   0.229
 2411SOL    HW1 8132   2.610   3.877   0.319
 2411SOL    HW2 8133   2.646   3.890   0.160
 2412SOL     OW 8134   3.591   1.728   6.508
 2412SOL    HW1 8135   3.497   1.695   6.504
 2412SOL    HW2 8136   3.622   1.728   6.603
 2413SOL     OW 8137   6.553   2.903   6.772
 2413SOL    HW1 8138   6.495   2.965   6.719
 2413SOL    HW2 8139   6.542   2.810   6.739
 2414SOL     OW 8140   6.332   2.370   4.531
 2414SOL    HW1 8141   6.243   2.337   4.561
 2414SOL    HW2 8142   6.349   2.462   4.567
 2415SOL     OW 8143   2.677   5.387   0.841
 2415SOL    HW1 8144   2.701   5.483   0.851
 2415SOL    HW2 8145   2.691   5.358   0.746
 2416SOL     OW 8146   6.922   3.601   2.587
 2416SOL    HW1 8147   6.962   3.670   2.526
 2416SOL    HW2 8148   6.979   3.519   2.586
 2417SOL     OW 8149   3.522   3.449   0.863
 2417SOL    HW1 8150   3.510   3.421   0.958
 2417SOL    HW2 8151   3.619   3.464   0.845
 2418SOL     OW 8152   4.470   3.603   5.691
 2418SOL    HW1 8153   4.451   3.693   5.651
 2418SOL    HW2 8154   4.447   3.531   5.625
 2419SOL     OW 8155   1.685   6.589   4.263
 2419SOL    HW1 8156   1.649   6.678   4.291
 2419SOL    HW2 8157   1.611   6.532   4.226
 2420SOL     OW 8158   1.920   4.253   2.605
 2420SOL    HW1 8159   1.890   4.189   2.675
 2420SOL    HW2 8160   2.008   4.223   2.568
 2421SOL     OW 8161   2.810   6.635   4.374
 2421SOL    HW1 8162   2.810   6.599   4.281
 2421SOL    HW2 8163   2.904   6.640   4.407
 2422SOL     OW 8164   4.551   6.153   0.512
 2422SOL    HW1 8165   4.555   6.198   0.422
 2422SOL    HW2 8166   4.617   6.195   0.573
 2423SOL     OW 8167   2.608   5.391   2.228
 2423SOL    HW1 8168   2.573   5.347   2.145
 2423SOL    HW2 8169   2.707   5.401   2.221
 2424SOL     OW 8170   5.719   1.178   5.775
 2424SOL    HW1 8171   5.670   1.093   5.755
 2424SOL    HW2 8172   5.699   1.208   5.868
 2425SOL     OW 8173   4.960   5.336   5.435
 2425SOL    HW1 8174   4.985   5.354   5.340
 2425SOL    HW2 8175   5.041   5.341   5.493
 2426SOL     OW 8176   1.263   4.886   6.021
 2426SOL    HW1 8177   1.190   4.819   6.011
 2426SOL    HW2 8178   1.297   4.885   6.115
 2427SOL     OW 8179   5.188   0.616   6.842
 2427SOL    HW1 8180   5.258   0.650   6.780
 2427SOL    HW2 8181   5.185   0.516   6.839
 2428SOL     OW 8182   0.329   1.261   3.409
 2428SOL    HW1 8183   0.388   1.225   3.480
 2428SOL    HW2 8184   0.240   1.286   3.448
 2429SOL     OW 8185   5.066   5.525   1.566
 2429SOL    HW1 8186   5.011   5.608   1.581
 2429SOL    HW2 8187   5.056   5.464   1.644
 2430SOL     OW 8188   6.263   2.116   6.581
 2430SOL    HW1 8189   6.246   2.053   6.656
 2430SOL    HW2 8190   6.293   2.204   6.618
 2431SOL     OW 8191   6.871   2.303   1.330
 2431SOL    HW1 8192   6.948   2.262   1.281
 2431SOL    HW2 8193   6.880   2.284   1.427
 2432SOL     OW 8194   3.390   5.365   2.265
 2432SOL    HW1 8195   3.411   5.408   2.177
 2432SOL    HW2 8196   3.357   5.434   2.329
 2433SOL     OW 8197   6.522   4.193   0.041
 2433SOL    HW1 8198   6.478   4.118   0.091
 2433SOL    HW2 8199   6.603   4.223   0.092
 2434SOL     OW 8200   4.500   1.581   3.015
 2434SOL    HW1 8201   4.582   1.615   3.061
 2434SOL    HW2 8202   4.432   1.554   3.084
 2435SOL     OW 8203   5.696   6.379   6.917
 2435SOL    HW1 8204   5.709   6.417   6.826
 2435SOL    HW2 8205   5.665   6.450   6.979
 2436SOL     OW 8206   2.622   1.511   1.866
 2436SOL    HW1 8207   2.701   1.465   1.906
 2436SOL    HW2 8208   2.600   1.592   1.920
 2437SOL     OW 8209   7.009   5.001   2.627
 2437SOL    HW1 8210   0.069   5.046   2.590
 2437SOL    HW2 8211   0.015   4.923   2.684
 2438SOL     OW 8212   3.274   1.390   4.975
 2438SOL    HW1 8213   3.189   1.442   4.973
 2438SOL    HW2 8214   3.349   1.448   4.945
 2439SOL     OW 8215   0.635   5.761   0.726
 2439SOL    HW1 8216   0.693   5.831   0.767
 2439SOL    HW2 8217   0.556   5.804   0.682
 2440SOL     OW 8218   5.235   0.789   5.336
 2440SOL    HW1 8219   5.226   0.877   5.290
 2440SOL    HW2 8220   5.163   0.728   5.305
 2441SOL     OW 8221   5.982   0.151   0.161
 2441SOL    HW1 8222   5.953   0.092   0.236
 2441SOL    HW2 8223   5.943   0.243   0.174
 2442SOL     OW 8224   5.100   3.363   2.032
 2442SOL    HW1 8225   5.012   3.344   1.989
 2442SOL    HW2 8226   5.171   3.307   1.989
 2443SOL     OW 8227   2.080   2.088   0.933
 2443SOL    HW1 8228   2.109   2.012   0.992
 2443SOL    HW2 8229   2.034   2.052   0.852
 2444SOL     OW 8230   3.727   5.899   1.181
 2444SOL    HW1 8231   3.673   5.889   1.265
 2444SOL    HW2 8232   3.686   5.843   1.109
 2445SOL     OW 8233   7.000   2.939   0.737
 2445SOL    HW1 8234   6.968   2.949   0.831
 2445SOL    HW2 8235   6.925   2.962   0.674
 2446SOL     OW 8236   1.866   4.216   1.092
 2446SOL    HW1 8237   1.876   4.257   1.001
 2446SOL    HW2 8238   1.773   4.233   1.125
 2447SOL     OW 8239   3.581   0.081   0.672
 2447SOL    HW1 8240   3.551   0.084   0.767
 2447SOL    HW2 8241   3.522   0.019   0.620
 2448SOL     OW 8242   5.982   1.484   3.478
 2448SOL    HW1 8243   6.077   1.459   3.497
 2448SOL    HW2 8244   5.967   1.580   3.500
 2449SOL     OW 8245   2.027   4.488   1.929
 2449SOL    HW1 8246   2.125   4.506   1.934
 2449SOL    HW2 8247   1.997   4.493   1.834
 2450SOL     OW 8248   1.535   5.941   6.163
 2450SOL    HW1 8249   1.518   6.035   6.195
 2450SOL    HW2 8250   1.526   5.878   6.241
 2451SOL     OW 8251   0.633   0.349   4.981
 2451SOL    HW1 8252   0.629   0.392   4.891
 2451SOL    HW2 8253   0.582   0.405   5.047
 2452SOL     OW 8254   2.723   2.028   3.958
 2452SOL    HW1 8255   2.641   2.084   3.942
 2452SOL    HW2 8256   2.756   2.043   4.051
 2453SOL     OW 8257   0.755   1.437   6.669
 2453SOL    HW1 8258   0.853   1.421   6.687
 2453SOL    HW2 8259   0.743   1.527   6.628
 2454SOL     OW 8260   3.829   5.337   0.861
 2454SOL    HW1 8261   3.863   5.264   0.921
 2454SOL    HW2 8262   3.819   5.301   0.768
 2455SOL     OW 8263   4.151   1.271   0.418
 2455SOL    HW1 8264   4.162   1.243   0.322
 2455SOL    HW2 8265   4.110   1.362   0.421
 2456SOL     OW 8266   0.813   4.678   6.579
 2456SOL    HW1 8267   0.877   4.752   6.561
 2456SOL    HW2 8268   0.847   4.593   6.538
 2457SOL     OW 8269   5.428   1.998   5.149
 2457SOL    HW1 8270   5.451   1.996   5.052
 2457SOL    HW2 8271   5.377   1.915   5.173
 2458SOL     OW 8272   1.272   6.882   2.589
 2458SOL    HW1 8273   1.367   6.906   2.608
 2458SOL    HW2 8274   1.229   6.850   2.673
 2459SOL     OW 8275   2.514   6.108   0.963
 2459SOL    HW1 8276   2.585   6.147   0.903
 2459SOL    HW2 8277   2.483   6.178   1.027
 2460SOL     OW 8278   1.713   0.927   6.085
 2460SOL    HW1 8279   1.658   1.004   6.054
 2460SOL    HW2 8280   1.656   0.867   6.142
 2461SOL     OW 8281   3.984   1.135   4.095
 2461SOL    HW1 8282   4.033   1.222   4.099
 2461SOL    HW2 8283   3.910   1.135   4.162
 2462SOL     OW 8284   0.553   5.152   1.217
 2462SOL    HW1 8285   0.603   5.158   1.131
 2462SOL    HW2 8286   0.507   5.239   1.235
 2463SOL     OW 8287   0.172   1.112   6.217
 2463SOL    HW1 8288   0.121   1.145   6.297
 2463SOL    HW2 8289   0.144   1.017   6.198
 2464SOL     OW 8290   0.940   1.900   2.991
 2464SOL    HW1 8291   0.956   1.849   3.075
 2464SOL    HW2 8292   0.842   1.915   2.980
 2465SOL     OW 8293   0.688   4.580   5.718
 2465SOL    HW1 8294   0.625   4.528   5.775
 2465SOL    HW2 8295   0.780   4.542   5.726
 2466SOL     OW 8296   1.395   2.276   1.822
 2466SOL    HW1 8297   1.477   2.245   1.774
 2466SOL    HW2 8298   1.315   2.259   1.765
 2467SOL     OW 8299   5.024   1.315   5.944
 2467SOL    HW1 8300   5.066   1.395   5.902
 2467SOL    HW2 8301   4.930   1.337   5.970
 2468SOL     OW 8302   3.825   6.977   5.493
 2468SOL    HW1 8303   3.890   0.031   5.503
 2468SOL    HW2 8304   3.868   6.902   5.442
 2469SOL     OW 8305   3.647   2.687   5.285
 2469SOL    HW1 8306   3.617   2.592   5.281
 2469SOL    HW2 8307   3.628   2.725   5.375
 2470SOL     OW 8308   3.456   5.203   0.240
 2470SOL    HW1 8309   3.504   5.115   0.245
 2470SOL    HW2 8310   3.364   5.189   0.205
 2471SOL     OW 8311   3.700   6.380   1.143
 2471SOL    HW1 8312   3.780   6.403   1.199
 2471SOL    HW2 8313   3.619   6.380   1.202
 2472SOL     OW 8314   4.843   2.173   3.943
 2472SOL    HW1 8315   4.926   2.229   3.954
 2472SOL    HW2 8316   4.824   2.125   4.028
 2473SOL     OW 8317   0.530   4.651   4.958
 2473SOL    HW1 8318   0.529   4.551   4.961
 2473SOL    HW2 8319   0.546   4.687   5.050
 2474SOL     OW 8320   1.147   5.728   1.309
 2474SOL    HW1 8321   1.103   5.733   1.220
 2474SOL    HW2 8322   1.183   5.818   1.335
 2475SOL     OW 8323   5.094   0.456   0.750
 2475SOL    HW1 8324   5.166   0.495   0.694
 2475SOL    HW2 8325   5.100   0.356   0.747
 2476SOL     OW 8326   5.932   0.444   1.049
 2476SOL    HW1 8327   5.834   0.463   1.037
 2476SOL    HW2 8328   5.946   0.395   1.134
 2477SOL     OW 8329   3.603   0.869   3.515
 2477SOL    HW1 8330   3.582   0.956   3.470
 2477SOL    HW2 8331   3.594   0.795   3.449
 2478SOL     OW 8332   4.343   1.454   3.217
 2478SOL    HW1 8333   4.345   1.501   3.306
 2478SOL    HW2 8334   4.372   1.359   3.228
 2479SOL     OW 8335   0.929   3.081   1.388
 2479SOL    HW1 8336   0.899   3.167   1.347
 2479SOL    HW2 8337   1.029   3.076   1.385
 2480SOL     OW 8338   3.590   2.317   1.057
 2480SOL    HW1 8339   3.571   2.411   1.086
 2480SOL    HW2 8340   3.576   2.309   0.959
 2481SOL     OW 8341   3.561   0.848   1.616
 2481SOL    HW1 8342   3.620   0.884   1.544
 2481SOL    HW2 8343   3.541   0.920   1.682
 2482SOL     OW 8344   5.480   3.605   6.827
 2482SOL    HW1 8345   5.509   3.526   6.881
 2482SOL    HW2 8346   5.429   3.669   6.885
 2483SOL     OW 8347   0.641   2.515   0.568
 2483SOL    HW1 8348   0.705   2.578   0.614
 2483SOL    HW2 8349   0.693   2.442   0.523
 2484SOL     OW 8350   4.990   1.620   2.269
 2484SOL    HW1 8351   4.980   1.699   2.209
 2484SOL    HW2 8352   4.940   1.542   2.231
 2485SOL     OW 8353   5.222   1.950   6.262
 2485SOL    HW1 8354   5.221   2.041   6.303
 2485SOL    HW2 8355   5.307   1.903   6.287
 2486SOL     OW 8356   0.257   4.398   5.731
 2486SOL    HW1 8357   0.292   4.317   5.778
 2486SOL    HW2 8358   0.172   4.428   5.775
 2487SOL     OW 8359   4.899   6.272   0.589
 2487SOL    HW1 8360   4.873   6.182   0.625
 2487SOL    HW2 8361   4.869   6.343   0.653
 2488SOL     OW 8362   7.021   4.148   2.018
 2488SOL    HW1 8363   0.043   4.174   1.932
 2488SOL    HW2 8364   0.069   4.111   2.080
 2489SOL     OW 8365   0.468   5.925   4.359
 2489SOL    HW1 8366   0.450   5.971   4.446
 2489SOL    HW2 8367   0.383   5.886   4.323
 2490SOL     OW 8368   1.324   6.260   1.991
 2490SOL    HW1 8369   1.336   6.289   2.086
 2490SOL    HW2 8370   1.262   6.182   1.987
 2491SOL     OW 8371   4.180   4.690   1.728
 2491SOL    HW1 8372   4.176   4.738   1.640
 2491SOL    HW2 8373   4.198   4.593   1.712
 2492SOL     OW 8374   4.895   3.296   0.763
 2492SOL    HW1 8375   4.930   3.244   0.841
 2492SOL    HW2 8376   4.809   3.256   0.731
 2493SOL     OW 8377   7.012   6.622   1.410
 2493SOL    HW1 8378   6.957   6.662   1.484
 2493SOL    HW2 8379   6.967   6.539   1.377
 2494SOL     OW 8380   5.865   2.733   1.744
 2494SOL    HW1 8381   5.811   2.800   1.694
 2494SOL    HW2 8382   5.819   2.712   1.831
 2495SOL     OW 8383   5.274   5.572   3.511
 2495SOL    HW1 8384   5.180   5.591   3.483
 2495SOL    HW2 8385   5.337   5.622   3.452
 2496SOL     OW 8386   0.139   3.863   6.618
 2496SOL    HW1 8387   0.130   3.854   6.717
 2496SOL    HW2 8388   0.107   3.780   6.574
 2497SOL     OW 8389   0.375   0.546   0.705
 2497SOL    HW1 8390   0.279   0.573   0.700
 2497SOL    HW2 8391   0.425   0.584   0.628
 2498SOL     OW 8392   3.418   2.768   5.697
 2498SOL    HW1 8393   3.318   2.761   5.700
 2498SOL    HW2 8394   3.447   2.800   5.607
 2499SOL     OW 8395   5.884   3.388   1.155
 2499SOL    HW1 8396   5.860   3.363   1.249
 2499SOL    HW2 8397   5.829   3.334   1.091
 2500SOL     OW 8398   3.581   3.373   6.143
 2500SOL    HW1 8399   3.576   3.347   6.240
 2500SOL    HW2 8400   3.571   3.472   6.136
 2501SOL     OW 8401   6.034   5.856   0.061
 2501SOL    HW1 8402   5.993   5.848   0.152
 2501SOL    HW2 8403   6.010   5.775   0.006
 2502SOL     OW 8404   2.217   6.385   4.614
 2502SOL    HW1 8405   2.276   6.412   4.689
 2502SOL    HW2 8406   2.129   6.353   4.650
 2503SOL     OW 8407   3.179   6.593   5.677
 2503SOL    HW1 8408   3.264   6.548   5.647
 2503SOL    HW2 8409   3.154   6.558   5.768
 2504SOL     OW 8410   3.173   5.310   2.590
 2504SOL    HW1 8411   3.230   5.283   2.667
 2504SOL    HW2 8412   3.213   5.389   2.543
 2505SOL     OW 8413   0.110   5.942   3.205
 2505SOL    HW1 8414   0.173   6.018   3.190
 2505SOL    HW2 8415   0.137   5.892   3.288
 2506SOL     OW 8416   6.064   3.560   6.002
 2506SOL    HW1 8417   5.988   3.523   5.949
 2506SOL    HW2 8418   6.045   3.550   6.100
 2507SOL     OW 8419   6.774   3.339   0.211
 2507SOL    HW1 8420   6.746   3.402   0.283
 2507SOL    HW2 8421   6.860   3.372   0.170
 2508SOL     OW 8422   2.734   2.019   4.678
 2508SOL    HW1 8423   2.762   2.111   4.703
 2508SOL    HW2 8424   2.788   1.953   4.730
 2509SOL     OW 8425   6.710   4.185   0.278
 2509SOL    HW1 8426   6.689   4.088   0.285
 2509SOL    HW2 8427   6.802   4.202   0.312
 2510SOL     OW 8428   3.409   4.284   1.094
 2510SOL    HW1 8429   3.468   4.273   1.174
 2510SOL    HW2 8430   3.314   4.267   1.120
 2511SOL     OW 8431   2.117   1.340   5.186
 2511SOL    HW1 8432   2.166   1.278   5.124
 2511SOL    HW2 8433   2.076   1.288   5.260
 2512SOL     OW 8434   4.062   4.239   5.592
 2512SOL    HW1 8435   4.087   4.287   5.509
 2512SOL    HW2 8436   3.984   4.180   5.574
 2513SOL     OW 8437   2.220   5.915   5.756
 2513SOL    HW1 8438   2.309   5.904   5.712
 2513SOL    HW2 8439   2.157   5.844   5.723
 2514SOL     OW 8440   0.603   3.442   4.423
 2514SOL    HW1 8441   0.660   3.407   4.498
 2514SOL    HW2 8442   0.553   3.367   4.381
 2515SOL     OW 8443   2.028   0.282   1.436
 2515SOL    HW1 8444   1.962   0.352   1.407
 2515SOL    HW2 8445   2.114   0.295   1.387
 2516SOL     OW 8446   4.717   1.308   2.691
 2516SOL    HW1 8447   4.814   1.285   2.689
 2516SOL    HW2 8448   4.675   1.270   2.773
 2517SOL     OW 8449   2.250   0.015   5.712
 2517SOL    HW1 8450   2.199   0.012   5.798
 2517SOL    HW2 8451   2.334   6.983   5.720
 2518SOL     OW 8452   1.909   5.612   1.377
 2518SOL    HW1 8453   1.897   5.617   1.477
 2518SOL    HW2 8454   1.843   5.547   1.339
 2519SOL     OW 8455   3.558   0.914   1.242
 2519SOL    HW1 8456   3.473   0.862   1.239
 2519SOL    HW2 8457   3.538   1.011   1.251
 2520SOL     OW 8458   3.328   1.843   6.759
 2520SOL    HW1 8459   3.327   1.758   6.707
 2520SOL    HW2 8460   3.419   1.884   6.755
 2521SOL     OW 8461   3.678   1.880   5.589
 2521SOL    HW1 8462   3.709   1.971   5.563
 2521SOL    HW2 8463   3.712   1.858   5.680
 2522SOL     OW 8464   0.857   1.843   5.526
 2522SOL    HW1 8465   0.848   1.914   5.456
 2522SOL    HW2 8466   0.916   1.876   5.599
 2523SOL     OW 8467   1.706   3.832   0.801
 2523SOL    HW1 8468   1.762   3.876   0.872
 2523SOL    HW2 8469   1.722   3.734   0.802
 2524SOL     OW 8470   0.421   6.888   4.533
 2524SOL    HW1 8471   0.488   6.960   4.549
 2524SOL    HW2 8472   0.432   6.817   4.603
 2525SOL     OW 8473   1.355   3.207   4.843
 2525SOL    HW1 8474   1.269   3.160   4.826
 2525SOL    HW2 8475   1.424   3.141   4.873
 2526SOL     OW 8476   1.503   4.838   6.813
 2526SOL    HW1 8477   1.575   4.844   6.743
 2526SOL    HW2 8478   1.414   4.832   6.769
 2527SOL     OW 8479   5.381   5.447   5.480
 2527SOL    HW1 8480   5.346   5.380   5.414
 2527SOL    HW2 8481   5.476   5.469   5.458
 2528SOL     OW 8482   5.456   4.160   5.456
 2528SOL    HW1 8483   5.455   4.114   5.545
 2528SOL    HW2 8484   5.400   4.243   5.461
 2529SOL     OW 8485   0.570   0.349   6.751
 2529SOL    HW1 8486   0.491   0.299   6.714
 2529SOL    HW2 8487   0.622   0.389   6.676
 2530SOL     OW 8488   2.424   5.899   5.530
 2530SOL    HW1 8489   2.384   5.948   5.452
 2530SOL    HW2 8490   2.405   5.801   5.520
 2531SOL     OW 8491   5.775   5.594   5.723
 2531SOL    HW1 8492   5.754   5.670   5.662
 2531SOL    HW2 8493   5.853   5.617   5.781
 2532SOL     OW 8494   0.460   6.439   0.539
 2532SOL    HW1 8495   0.540   6.380   0.551
 2532SOL    HW2 8496   0.459   6.475   0.445
 2533SOL     OW 8497   4.591   1.258   3.698
 2533SOL    HW1 8498   4.576   1.159   3.693
 2533SOL    HW2 8499   4.612   1.284   3.792
 2534SOL     OW 8500   4.529   1.639   1.595
 2534SOL    HW1 8501   4.522   1.628   1.694
 2534SOL    HW2 8502   4.587   1.567   1.557
 2535SOL     OW 8503   3.034   2.321   6.975
 2535SOL    HW1 8504   3.001   2.347   6.885
 2535SOL    HW2 8505   3.084   2.397   7.017
 2536SOL     OW 8506   1.593   0.744   6.268
 2536SOL    HW1 8507   1.530   0.765   6.342
 2536SOL    HW2 8508   1.566   0.658   6.224
 2537SOL     OW 8509   3.476   6.922   6.213
 2537SOL    HW1 8510   3.462   6.966   6.125
 2537SOL    HW2 8511   3.533   6.981   6.271
 2538SOL     OW 8512   0.501   3.990   4.037
 2538SOL    HW1 8513   0.407   3.958   4.027
 2538SOL    HW2 8514   0.536   4.021   3.949
 2539SOL     OW 8515   5.423   0.616   4.026
 2539SOL    HW1 8516   5.349   0.615   3.959
 2539SOL    HW2 8517   5.482   0.695   4.009
 2540SOL     OW 8518   4.227   2.184   2.638
 2540SOL    HW1 8519   4.294   2.250   2.604
 2540SOL    HW2 8520   4.184   2.137   2.561
 2541SOL     OW 8521   2.740   6.907   5.580
 2541SOL    HW1 8522   2.641   6.912   5.592
 2541SOL    HW2 8523   2.761   6.861   5.494
 2542SOL     OW 8524   3.205   3.835   6.887
 2542SOL    HW1 8525   3.120   3.794   6.856
 2542SOL    HW2 8526   3.186   3.925   6.928
 2543SOL     OW 8527   1.224   1.503   3.688
 2543SOL    HW1 8528   1.309   1.509   3.741
 2543SOL    HW2 8529   1.216   1.411   3.649
 2544SOL     OW 8530   0.409   5.991   0.450
 2544SOL    HW1 8531   0.470   6.048   0.396
 2544SOL    HW2 8532   0.417   5.896   0.421
 2545SOL     OW 8533   1.424   0.137   2.329
 2545SOL    HW1 8534   1.427   0.181   2.419
 2545SOL    HW2 8535   1.474   0.193   2.263
 2546SOL     OW 8536   6.876   2.002   1.106
 2546SOL    HW1 8537   6.821   1.924   1.137
 2546SOL    HW2 8538   6.955   2.013   1.165
 2547SOL     OW 8539   0.266   3.558   6.943
 2547SOL    HW1 8540   0.203   3.497   6.992
 2547SOL    HW2 8541   0.355   3.513   6.934
 2548SOL     OW 8542   0.639   0.025   4.578
 2548SOL    HW1 8543   0.612   0.106   4.630
 2548SOL    HW2 8544   0.638   0.047   4.480
 2549SOL     OW 8545   1.057   0.708   1.625
 2549SOL    HW1 8546   1.008   0.672   1.545
 2549SOL    HW2 8547   1.143   0.749   1.596
 2550SOL     OW 8548   6.502   6.799   0.622
 2550SOL    HW1 8549   6.540   6.842   0.540
 2550SOL    HW2 8550   6.507   6.863   0.698
 2551SOL     OW 8551   3.035   4.705   0.309
 2551SOL    HW1 8552   3.059   4.688   0.405
 2551SOL    HW2 8553   2.989   4.624   0.272
 2552SOL     OW 8554   2.302   5.724   5.229
 2552SOL    HW1 8555   2.336   5.652   5.289
 2552SOL    HW2 8556   2.326   5.703   5.134
 2553SOL     OW 8557   3.950   3.364   5.829
 2553SOL    HW1 8558   3.874   3.402   5.882
 2553SOL    HW2 8559   4.012   3.438   5.803
 2554SOL     OW 8560   2.618   1.010   0.185
 2554SOL    HW1 8561   2.558   0.956   0.244
 2554SOL    HW2 8562   2.638   1.098   0.228
 2555SOL     OW 8563   5.688   2.131   4.534
 2555SOL    HW1 8564   5.652   2.079   4.457
 2555SOL    HW2 8565   5.692   2.074   4.615
 2556SOL     OW 8566   4.109   5.856   0.334
 2556SOL    HW1 8567   4.129   5.880   0.429
 2556SOL    HW2 8568   4.192   5.818   0.292
 2557SOL     OW 8569   1.834   3.629   6.926
 2557SOL    HW1 8570   1.847   3.727   6.912
 2557SOL    HW2 8571   1.782   3.591   6.849
 2558SOL     OW 8572   5.477   0.946   5.426
 2558SOL    HW1 8573   5.446   1.007   5.354
 2558SOL    HW2 8574   5.398   0.906   5.473
 2559SOL     OW 8575   1.310   4.380   5.713
 2559SOL    HW1 8576   1.293   4.419   5.804
 2559SOL    HW2 8577   1.408   4.386   5.692
 2560SOL     OW 8578   6.920   2.261   5.839
 2560SOL    HW1 8579   6.861   2.337   5.866
 2560SOL    HW2 8580   6.999   2.297   5.789
 2561SOL     OW 8581   2.569   4.760   5.492
 2561SOL    HW1 8582   2.622   4.743   5.409
 2561SOL    HW2 8583   2.490   4.698   5.493
 2562SOL     OW 8584   2.479   4.324   1.249
 2562SOL    HW1 8585   2.411   4.377   1.199
 2562SOL    HW2 8586   2.497   4.239   1.200
 2563SOL     OW 8587   3.301   1.149   0.681
 2563SOL    HW1 8588   3.391   1.142   0.638
 2563SOL    HW2 8589   3.235   1.095   0.629
 2564SOL     OW 8590   1.411   5.398   0.843
 2564SOL    HW1 8591   1.452   5.421   0.754
 2564SOL    HW2 8592   1.328   5.345   0.829
 2565SOL     OW 8593   0.865   0.706   0.013
 2565SOL    HW1 8594   0.915   0.624   0.040
 2565SOL    HW2 8595   0.811   0.687   6.952
 2566SOL     OW 8596   2.476   6.735   1.615
 2566SOL    HW1 8597   2.490   6.639   1.639
 2566SOL    HW2 8598   2.430   6.741   1.526
 2567SOL     OW 8599   1.434   0.281   1.153
 2567SOL    HW1 8600   1.394   0.193   1.178
 2567SOL    HW2 8601   1.500   0.268   1.079
 2568SOL     OW 8602   4.297   2.304   6.801
 2568SOL    HW1 8603   4.258   2.239   6.736
 2568SOL    HW2 8604   4.259   2.395   6.784
 2569SOL     OW 8605   3.547   1.117   3.387
 2569SOL    HW1 8606   3.551   1.064   3.302
 2569SOL    HW2 8607   3.520   1.211   3.366
 2570SOL     OW 8608   5.740   0.746   5.505
 2570SOL    HW1 8609   5.822   0.802   5.515
 2570SOL    HW2 8610   5.744   0.697   5.418
 2571SOL     OW 8611   1.375   5.038   4.117
 2571SOL    HW1 8612   1.356   5.063   4.212
 2571SOL    HW2 8613   1.308   5.082   4.057
 2572SOL     OW 8614   2.997   5.157   2.425
 2572SOL    HW1 8615   2.905   5.190   2.447
 2572SOL    HW2 8616   3.059   5.179   2.500
 2573SOL     OW 8617   0.932   2.095   0.769
 2573SOL    HW1 8618   0.959   2.053   0.682
 2573SOL    HW2 8619   0.849   2.051   0.803
 2574SOL     OW 8620   4.967   3.570   0.896
 2574SOL    HW1 8621   5.005   3.496   0.952
 2574SOL    HW2 8622   4.868   3.557   0.887
 2575SOL     OW 8623   6.008   5.542   6.591
 2575SOL    HW1 8624   6.039   5.637   6.592
 2575SOL    HW2 8625   5.997   5.512   6.496
 2576SOL     OW 8626   4.323   6.377   4.700
 2576SOL    HW1 8627   4.254   6.414   4.762
 2576SOL    HW2 8628   4.367   6.298   4.742
 2577SOL     OW 8629   2.872   5.121   2.163
 2577SOL    HW1 8630   2.935   5.117   2.241
 2577SOL    HW2 8631   2.864   5.216   2.132
 2578SOL     OW 8632   3.970   1.370   3.855
 2578SOL    HW1 8633   3.884   1.320   3.847
 2578SOL    HW2 8634   3.966   1.452   3.799
 2579SOL     OW 8635   0.210   6.189   3.990
 2579SOL    HW1 8636   0.156   6.117   4.034
 2579SOL    HW2 8637   0.284   6.217   4.051
 2580SOL     OW 8638   2.182   4.768   0.060
 2580SOL    HW1 8639   2.203   4.698   0.128
 2580SOL    HW2 8640   2.172   4.725   6.992
 2581SOL     OW 8641   2.375   5.912   6.973
 2581SOL    HW1 8642   2.417   5.939   6.886
 2581SOL    HW2 8643   2.351   5.815   6.969
 2582SOL     OW 8644   0.144   4.212   1.560
 2582SOL    HW1 8645   0.182   4.246   1.473
 2582SOL    HW2 8646   0.053   4.175   1.544
 2583SOL     OW 8647   0.504   0.607   0.061
 2583SOL    HW1 8648   0.522   0.697   0.101
 2583SOL    HW2 8649   0.417   0.611   0.011
 2584SOL     OW 8650   4.416   5.315   5.763
 2584SOL    HW1 8651   4.344   5.378   5.734
 2584SOL    HW2 8652   4.380   5.253   5.832
 2585SOL     OW 8653   2.870   4.695   6.993
 2585SOL    HW1 8654   2.776   4.663   6.983
 2585SOL    HW2 8655   2.928   4.619   7.020
 2586SOL     OW 8656   2.820   0.947   5.613
 2586SOL    HW1 8657   2.759   1.024   5.596
 2586SOL    HW2 8658   2.779   0.888   5.683
 2587SOL     OW 8659   0.478   1.617   3.076
 2587SOL    HW1 8660   0.471   1.541   3.011
 2587SOL    HW2 8661   0.447   1.701   3.032
 2588SOL     OW 8662   4.040   2.319   5.329
 2588SOL    HW1 8663   3.950   2.347   5.362
 2588SOL    HW2 8664   4.082   2.394   5.278
 2589SOL     OW 8665   1.030   6.371   6.987
 2589SOL    HW1 8666   0.966   6.336   6.919
 2589SOL    HW2 8667   0.989   6.363   0.057
 2590SOL     OW 8668   2.718   5.014   0.441
 2590SOL    HW1 8669   2.742   5.040   0.534
 2590SOL    HW2 8670   2.741   5.088   0.378
 2591SOL     OW 8671   6.025   5.432   3.658
 2591SOL    HW1 8672   6.044   5.514   3.604
 2591SOL    HW2 8673   6.061   5.444   3.751
 2592SOL     OW 8674   2.473   4.138   6.568
 2592SOL    HW1 8675   2.459   4.089   6.482
 2592SOL    HW2 8676   2.497   4.072   6.640
 2593SOL     OW 8677   3.199   5.684   0.787
 2593SOL    HW1 8678   3.274   5.713   0.846
 2593SOL    HW2 8679   3.234   5.620   0.718
 2594SOL     OW 8680   2.607   4.275   6.237
 2594SOL    HW1 8681   2.649   4.350   6.185
 2594SOL    HW2 8682   2.536   4.233   6.181
 2595SOL     OW 8683   0.941   1.234   4.423
 2595SOL    HW1 8684   0.971   1.306   4.361
 2595SOL    HW2 8685   0.851   1.200   4.394
 2596SOL     OW 8686   2.033   2.761   1.120
 2596SOL    HW1 8687   2.080   2.850   1.123
 2596SOL    HW2 8688   2.011   2.738   1.026
 2597SOL     OW 8689   6.873   5.082   6.265
 2597SOL    HW1 8690   6.774   5.093   6.257
 2597SOL    HW2 8691   6.894   4.987   6.286
 2598SOL     OW 8692   6.287   1.462   1.627
 2598SOL    HW1 8693   6.344   1.433   1.550
 2598SOL    HW2 8694   6.291   1.561   1.636
 2599SOL     OW 8695   2.025   6.572   1.305
 2599SOL    HW1 8696   2.064   6.493   1.352
 2599SOL    HW2 8697   2.028   6.556   1.206
 2600SOL     OW 8698   5.922   3.751   4.561
 2600SOL    HW1 8699   5.922   3.658   4.597
 2600SOL    HW2 8700   6.017   3.785   4.558
 2601SOL     OW 8701   1.691   2.036   2.377
 2601SOL    HW1 8702   1.616   2.097   2.402
 2601SOL    HW2 8703   1.719   2.055   2.282
 2602SOL     OW 8704   1.958   4.860   4.086
 2602SOL    HW1 8705   2.022   4.915   4.139
 2602SOL    HW2 8706   1.988   4.764   4.085
 2603SOL     OW 8707   2.918   1.166   2.349
 2603SOL    HW1 8708   2.992   1.173   2.417
 2603SOL    HW2 8709   2.958   1.163   2.257
 2604SOL     OW 8710   4.849   1.639   1.716
 2604SOL    HW1 8711   4.868   1.683   1.804
 2604SOL    HW2 8712   4.821   1.545   1.732
 2605SOL     OW 8713   1.236   4.209   2.420
 2605SOL    HW1 8714   1.262   4.129   2.475
 2605SOL    HW2 8715   1.305   4.224   2.349
 2606SOL     OW 8716   5.614   4.891   1.235
 2606SOL    HW1 8717   5.668   4.808   1.220
 2606SOL    HW2 8718   5.665   4.954   1.293
 2607SOL     OW 8719   1.645   2.469   1.582
 2607SOL    HW1 8720   1.679   2.559   1.609
 2607SOL    HW2 8721   1.546   2.473   1.569
 2608SOL     OW 8722   2.221   6.456   6.580
 2608SOL    HW1 8723   2.177   6.540   6.612
 2608SOL    HW2 8724   2.207   6.383   6.647
 2609SOL     OW 8725   0.888   1.229   0.843
 2609SOL    HW1 8726   0.873   1.192   0.751
 2609SOL    HW2 8727   0.804   1.221   0.896
 2610SOL     OW 8728   1.325   5.325   4.219
 2610SOL    HW1 8729   1.373   5.412   4.210
 2610SOL    HW2 8730   1.226   5.341   4.215
 2611SOL     OW 8731   4.949   6.147   0.239
 2611SOL    HW1 8732   4.992   6.237   0.243
 2611SOL    HW2 8733   4.964   6.099   0.325
 2612SOL     OW 8734   4.927   6.610   4.599
 2612SOL    HW1 8735   4.965   6.522   4.628
 2612SOL    HW2 8736   4.994   6.659   4.544
 2613SOL     OW 8737   1.017   5.613   6.379
 2613SOL    HW1 8738   0.974   5.592   6.467
 2613SOL    HW2 8739   0.999   5.708   6.355
 2614SOL     OW 8740   5.949   1.054   6.029
 2614SOL    HW1 8741   6.036   1.062   5.980
 2614SOL    HW2 8742   5.881   1.012   5.969
 2615SOL     OW 8743   1.013   3.551   1.357
 2615SOL    HW1 8744   1.006   3.544   1.457
 2615SOL    HW2 8745   0.951   3.622   1.324
 2616SOL     OW 8746   1.386   1.019   5.617
 2616SOL    HW1 8747   1.302   0.997   5.666
 2616SOL    HW2 8748   1.419   0.937   5.569
 2617SOL     OW 8749   5.423   0.307   0.778
 2617SOL    HW1 8750   5.328   0.279   0.764
 2617SOL    HW2 8751   5.452   0.281   0.870
 2618SOL     OW 8752   1.672   5.594   5.666
 2618SOL    HW1 8753   1.612   5.513   5.668
 2618SOL    HW2 8754   1.727   5.593   5.583
 2619SOL     OW 8755   4.292   1.910   1.626
 2619SOL    HW1 8756   4.231   1.918   1.705
 2619SOL    HW2 8757   4.276   1.822   1.581
 2620SOL     OW 8758   6.352   5.808   1.779
 2620SOL    HW1 8759   6.324   5.776   1.688
 2620SOL    HW2 8760   6.444   5.775   1.799
 2621SOL     OW 8761   0.354   5.762   2.692
 2621SOL    HW1 8762   0.409   5.817   2.756
 2621SOL    HW2 8763   0.259   5.760   2.723
 2622SOL     OW 8764   3.026   3.106   6.028
 2622SOL    HW1 8765   3.044   3.171   5.954
 2622SOL    HW2 8766   3.081   3.131   6.108
 2623SOL     OW 8767   0.401   6.997   4.136
 2623SOL    HW1 8768   0.436   6.928   4.073
 2623SOL    HW2 8769   0.321   6.961   4.184
 2624SOL     OW 8770   6.531   1.837   4.512
 2624SOL    HW1 8771   6.613   1.783   4.532
 2624SOL    HW2 8772   6.557   1.919   4.462
 2625SOL     OW 8773   1.846   5.599   5.439
 2625SOL    HW1 8774   1.940   5.596   5.405
 2625SOL    HW2 8775   1.785   5.557   5.372
 2626SOL     OW 8776   6.459   6.801   5.435
 2626SOL    HW1 8777   6.394   6.739   5.392
 2626SOL    HW2 8778   6.426   6.895   5.427
 2627SOL     OW 8779   1.031   0.075   5.742
 2627SOL    HW1 8780   1.068   0.152   5.796
 2627SOL    HW2 8781   1.061   7.010   5.783
 2628SOL     OW 8782   1.857   3.689   3.590
 2628SOL    HW1 8783   1.805   3.674   3.674
 2628SOL    HW2 8784   1.954   3.677   3.608
 2629SOL     OW 8785   3.277   3.847   3.437
 2629SOL    HW1 8786   3.341   3.846   3.514
 2629SOL    HW2 8787   3.287   3.933   3.387
 2630SOL     OW 8788   4.100   1.533   3.093
 2630SOL    HW1 8789   4.182   1.526   3.150
 2630SOL    HW2 8790   4.060   1.624   3.104
 2631SOL     OW 8791   5.747   0.365   6.704
 2631SOL    HW1 8792   5.654   0.343   6.734
 2631SOL    HW2 8793   5.801   0.281   6.697
 2632SOL     OW 8794   5.784   4.960   1.597
 2632SOL    HW1 8795   5.862   4.988   1.652
 2632SOL    HW2 8796   5.773   5.024   1.520
 2633SOL     OW 8797   6.982   2.522   5.069
 2633SOL    HW1 8798   6.940   2.546   4.982
 2633SOL    HW2 8799   0.048   2.570   5.078
 2634SOL     OW 8800   6.441   6.762   4.581
 2634SOL    HW1 8801   6.512   6.742   4.648
 2634SOL    HW2 8802   6.365   6.807   4.627
 2635SOL     OW 8803   5.136   5.417   4.065
 2635SOL    HW1 8804   5.112   5.473   3.985
 2635SOL    HW2 8805   5.184   5.335   4.034
 2636SOL     OW 8806   4.018   0.484   6.058
 2636SOL    HW1 8807   3.958   0.469   6.137
 2636SOL    HW2 8808   3.966   0.529   5.985
 2637SOL     OW 8809   0.671   1.612   2.760
 2637SOL    HW1 8810   0.660   1.562   2.674
 2637SOL    HW2 8811   0.764   1.647   2.767
 2638SOL     OW 8812   0.865   0.632   3.981
 2638SOL    HW1 8813   0.920   0.551   3.961
 2638SOL    HW2 8814   0.922   0.713   3.977
 2639SOL     OW 8815   4.569   4.810   4.711
 2639SOL    HW1 8816   4.568   4.884   4.644
 2639SOL    HW2 8817   4.610   4.843   4.797
 2640SOL     OW 8818   1.090   0.119   4.612
 2640SOL    HW1 8819   1.019   0.065   4.658
 2640SOL    HW2 8820   1.114   0.198   4.668
 2641SOL     OW 8821   5.172   2.590   0.262
 2641SOL    HW1 8822   5.144   2.612   0.356
 2641SOL    HW2 8823   5.098   2.614   0.199
 2642SOL     OW 8824   6.948   1.432   4.353
 2642SOL    HW1 8825   6.947   1.339   4.388
 2642SOL    HW2 8826   6.904   1.434   4.263
 2643SOL     OW 8827   1.263   3.886   3.584
 2643SOL    HW1 8828   1.181   3.919   3.629
 2643SOL    HW2 8829   1.260   3.912   3.487
 2644SOL     OW 8830   4.720   5.464   4.565
 2644SOL    HW1 8831   4.652   5.459   4.638
 2644SOL    HW2 8832   4.708   5.386   4.503
 2645SOL     OW 8833   4.779   5.444   3.728
 2645SOL    HW1 8834   4.680   5.436   3.711
 2645SOL    HW2 8835   4.801   5.398   3.814
 2646SOL     OW 8836   0.526   3.756   6.062
 2646SOL    HW1 8837   0.560   3.681   6.005
 2646SOL    HW2 8838   0.452   3.722   6.121
 2647SOL     OW 8839   5.468   0.005   1.775
 2647SOL    HW1 8840   5.492   6.933   1.747
 2647SOL    HW2 8841   5.486   0.015   1.873
 2648SOL     OW 8842   0.658   0.334   4.184
 2648SOL    HW1 8843   0.559   0.351   4.178
 2648SOL    HW2 8844   0.694   0.315   4.093
 2649SOL     OW 8845   5.082   2.811   1.999
 2649SOL    HW1 8846   5.018   2.854   1.935
 2649SOL    HW2 8847   5.165   2.784   1.951
 2650SOL     OW 8848   3.454   5.693   5.077
 2650SOL    HW1 8849   3.500   5.768   5.030
 2650SOL    HW2 8850   3.399   5.729   5.152
 2651SOL     OW 8851   4.226   1.901   5.344
 2651SOL    HW1 8852   4.173   1.830   5.392
 2651SOL    HW2 8853   4.286   1.947   5.409
 2652SOL     OW 8854   5.003   3.404   5.401
 2652SOL    HW1 8855   4.978   3.353   5.484
 2652SOL    HW2 8856   4.955   3.365   5.322
 2653SOL     OW 8857   3.388   6.431   6.593
 2653SOL    HW1 8858   3.475   6.406   6.635
 2653SOL    HW2 8859   3.317   6.433   6.664
 2654SOL     OW 8860   5.128   0.197   0.445
 2654SOL    HW1 8861   5.108   0.277   0.389
 2654SOL    HW2 8862   5.176   0.129   0.390
 2655SOL     OW 8863   5.381   6.570   2.972
 2655SOL    HW1 8864   5.314   6.600   2.905
 2655SOL    HW2 8865   5.362   6.612   3.061
 2656SOL     OW 8866   3.776   5.827   3.763
 2656SOL    HW1 8867   3.830   5.752   3.726
 2656SOL    HW2 8868   3.821   5.865   3.843
 2657SOL     OW 8869   2.328   3.324   0.236
 2657SOL    HW1 8870   2.310   3.275   0.152
 2657SOL    HW2 8871   2.389   3.270   0.294
 2658SOL     OW 8872   4.333   4.415   6.139
 2658SOL    HW1 8873   4.385   4.415   6.053
 2658SOL    HW2 8874   4.336   4.323   6.179
 2659SOL     OW 8875   5.585   2.382   4.900
 2659SOL    HW1 8876   5.623   2.308   4.845
 2659SOL    HW2 8877   5.487   2.366   4.915
 2660SOL     OW 8878   1.244   1.731   1.107
 2660SOL    HW1 8879   1.253   1.706   1.010
 2660SOL    HW2 8880   1.149   1.756   1.126
 2661SOL     OW 8881   1.566   0.712   1.342
 2661SOL    HW1 8882   1.616   0.784   1.390
 2661SOL    HW2 8883   1.587   0.717   1.244
 2662SOL     OW 8884   3.126   0.730   3.027
 2662SOL    HW1 8885   3.188   0.808   3.035
 2662SOL    HW2 8886   3.125   0.697   2.933
 2663SOL     OW 8887   3.199   0.067   6.184
 2663SOL    HW1 8888   3.228   0.158   6.214
 2663SOL    HW2 8889   3.266   0.029   6.120
 2664SOL     OW 8890   3.621   2.861   5.086
 2664SOL    HW1 8891   3.639   2.797   5.161
 2664SOL    HW2 8892   3.650   2.953   5.114
 2665SOL     OW 8893   2.272   3.846   5.365
 2665SOL    HW1 8894   2.364   3.830   5.401
 2665SOL    HW2 8895   2.278   3.891   5.276
 2666SOL     OW 8896   2.238   4.167   2.217
 2666SOL    HW1 8897   2.233   4.081   2.167
 2666SOL    HW2 8898   2.159   4.223   2.195
 2667SOL     OW 8899   5.817   4.246   3.645
 2667SOL    HW1 8900   5.860   4.331   3.613
 2667SOL    HW2 8901   5.853   4.223   3.735
 2668SOL     OW 8902   5.854   1.732   4.510
 2668SOL    HW1 8903   5.805   1.646   4.518
 2668SOL    HW2 8904   5.900   1.736   4.421
 2669SOL     OW 8905   2.445   0.001   0.512
 2669SOL    HW1 8906   2.436   0.061   0.433
 2669SOL    HW2 8907   2.372   6.955   0.511
 2670SOL     OW 8908   6.947   1.514   5.490
 2670SOL    HW1 8909   6.870   1.578   5.491
 2670SOL    HW2 8910   0.012   1.564   5.482
 2671SOL     OW 8911   4.084   5.765   6.031
 2671SOL    HW1 8912   4.061   5.851   6.075
 2671SOL    HW2 8913   4.050   5.765   5.937
 2672SOL     OW 8914   4.049   1.084   1.659
 2672SOL    HW1 8915   4.018   1.076   1.753
 2672SOL    HW2 8916   4.005   1.014   1.603
 2673SOL     OW 8917   4.631   0.189   2.607
 2673SOL    HW1 8918   4.648   0.133   2.689
 2673SOL    HW2 8919   4.717   0.200   2.557
 2674SOL     OW 8920   0.987   5.466   3.004
 2674SOL    HW1 8921   1.063   5.525   3.030
 2674SOL    HW2 8922   0.995   5.378   3.051
 2675SOL     OW 8923   6.534   6.565   3.918
 2675SOL    HW1 8924   6.630   6.555   3.891
 2675SOL    HW2 8925   6.516   6.659   3.945
 2676SOL     OW 8926   3.373   3.578   2.823
 2676SOL    HW1 8927   3.353   3.489   2.784
 2676SOL    HW2 8928   3.308   3.599   2.896
 2677SOL     OW 8929   2.020   4.672   1.487
 2677SOL    HW1 8930   2.057   4.692   1.578
 2677SOL    HW2 8931   1.920   4.678   1.490
 2678SOL     OW 8932   5.795   2.476   2.788
 2678SOL    HW1 8933   5.698   2.458   2.772
 2678SOL    HW2 8934   5.821   2.440   2.878
 2679SOL     OW 8935   2.013   5.048   3.366
 2679SOL    HW1 8936   2.102   5.077   3.333
 2679SOL    HW2 8937   1.971   4.985   3.300
 2680SOL     OW 8938   1.220   2.412   6.781
 2680SOL    HW1 8939   1.251   2.458   6.865
 2680SOL    HW2 8940   1.247   2.467   6.702
 2681SOL     OW 8941   1.489   2.986   5.232
 2681SOL    HW1 8942   1.489   2.888   5.212
 2681SOL    HW2 8943   1.508   3.000   5.329
 2682SOL     OW 8944   4.771   4.191   2.070
 2682SOL    HW1 8945   4.680   4.213   2.034
 2682SOL    HW2 8946   4.816   4.128   2.007
 2683SOL     OW 8947   2.131   4.073   2.915
 2683SOL    HW1 8948   2.192   4.089   2.838
 2683SOL    HW2 8949   2.136   3.976   2.942
 2684SOL     OW 8950   5.451   6.154   2.078
 2684SOL    HW1 8951   5.470   6.062   2.043
 2684SOL    HW2 8952   5.538   6.198   2.102
 2685SOL     OW 8953   0.166   5.993   5.009
 2685SOL    HW1 8954   0.193   5.988   4.913
 2685SOL    HW2 8955   0.239   5.955   5.066
 2686SOL     OW 8956   1.061   1.316   4.699
 2686SOL    HW1 8957   1.131   1.375   4.660
 2686SOL    HW2 8958   0.994   1.291   4.628
 2687SOL     OW 8959   3.959   1.408   2.096
 2687SOL    HW1 8960   3.862   1.432   2.093
 2687SOL    HW2 8961   3.998   1.415   2.004
 2688SOL     OW 8962   3.643   2.559   6.409
 2688SOL    HW1 8963   3.586   2.592   6.484
 2688SOL    HW2 8964   3.666   2.463   6.425
 2689SOL     OW 8965   0.599   4.401   3.033
 2689SOL    HW1 8966   0.581   4.330   3.101
 2689SOL    HW2 8967   0.666   4.466   3.069
 2690SOL     OW 8968   3.379   1.596   5.838
 2690SOL    HW1 8969   3.471   1.559   5.844
 2690SOL    HW2 8970   3.313   1.521   5.836
 2691SOL     OW 8971   0.154   4.184   3.862
 2691SOL    HW1 8972   0.223   4.178   3.790
 2691SOL    HW2 8973   0.073   4.132   3.834
 2692SOL     OW 8974   3.035   5.612   2.562
 2692SOL    HW1 8975   3.010   5.653   2.649
 2692SOL    HW2 8976   2.956   5.565   2.523
 2693SOL     OW 8977   1.509   5.898   4.041
 2693SOL    HW1 8978   1.597   5.868   4.078
 2693SOL    HW2 8979   1.512   5.894   3.941
 2694SOL     OW 8980   3.108   6.724   3.954
 2694SOL    HW1 8981   3.181   6.708   3.889
 2694SOL    HW2 8982   3.108   6.820   3.982
 2695SOL     OW 8983   6.875   6.514   2.883
 2695SOL    HW1 8984   6.788   6.564   2.889
 2695SOL    HW2 8985   6.914   6.526   2.791
 2696SOL     OW 8986   5.185   4.295   6.117
 2696SOL    HW1 8987   5.262   4.289   6.180
 2696SOL    HW2 8988   5.100   4.304   6.168
 2697SOL     OW 8989   4.085   2.250   0.552
 2697SOL    HW1 8990   4.098   2.163   0.502
 2697SOL    HW2 8991   3.987   2.269   0.561
 2698SOL     OW 8992   1.405   4.669   6.145
 2698SOL    HW1 8993   1.404   4.753   6.200
 2698SOL    HW2 8994   1.461   4.684   6.064
 2699SOL     OW 8995   3.357   5.830   2.260
 2699SOL    HW1 8996   3.395   5.909   2.307
 2699SOL    HW2 8997   3.268   5.806   2.300
 2700SOL     OW 8998   2.732   2.262   1.235
 2700SOL    HW1 8999   2.806   2.234   1.296
 2700SOL    HW2 9000   2.656   2.197   1.244
 2701SOL     OW 9001   5.352   2.830   4.685
 2701SOL    HW1 9002   5.353   2.885   4.768
 2701SOL    HW2 9003   5.289   2.871   4.618
 2702SOL     OW 9004   2.645   1.905   4.446
 2702SOL    HW1 9005   2.686   1.947   4.528
 2702SOL    HW2 9006   2.643   1.806   4.457
 2703SOL     OW 9007   1.499   6.602   2.353
 2703SOL    HW1 9008   1.586   6.642   2.323
 2703SOL    HW2 9009   1.517   6.539   2.429
 2704SOL     OW 9010   6.372   6.140   3.282
 2704SOL    HW1 9011   6.305   6.206   3.317
 2704SOL    HW2 9012   6.458   6.187   3.264
 2705SOL     OW 9013   0.543   0.731   4.731
 2705SOL    HW1 9014   0.556   0.819   4.776
 2705SOL    HW2 9015   0.453   0.695   4.755
 2706SOL     OW 9016   6.524   4.461   4.425
 2706SOL    HW1 9017   6.460   4.513   4.481
 2706SOL    HW2 9018   6.476   4.423   4.345
 2707SOL     OW 9019   4.028   0.206   2.977
 2707SOL    HW1 9020   4.061   0.166   2.891
 2707SOL    HW2 9021   4.063   0.299   2.986
 2708SOL     OW 9022   5.689   2.763   6.939
 2708SOL    HW1 9023   5.766   2.823   6.916
 2708SOL    HW2 9024   5.627   2.812   7.001
 2709SOL     OW 9025   5.422   6.992   5.510
 2709SOL    HW1 9026   5.416   0.031   5.431
 2709SOL    HW2 9027   5.463   6.904   5.483
 2710SOL     OW 9028   1.435   3.225   4.168
 2710SOL    HW1 9029   1.389   3.192   4.250
 2710SOL    HW2 9030   1.380   3.204   4.088
 2711SOL     OW 9031   3.464   2.026   3.766
 2711SOL    HW1 9032   3.439   2.036   3.670
 2711SOL    HW2 9033   3.424   1.942   3.802
 2712SOL     OW 9034   3.905   5.615   2.722
 2712SOL    HW1 9035   3.808   5.605   2.700
 2712SOL    HW2 9036   3.947   5.682   2.660
 2713SOL     OW 9037   4.225   4.580   6.360
 2713SOL    HW1 9038   4.250   4.517   6.433
 2713SOL    HW2 9039   4.278   4.558   6.277
 2714SOL     OW 9040   3.082   4.068   6.952
 2714SOL    HW1 9041   3.039   4.076   6.863
 2714SOL    HW2 9042   3.012   4.070   0.002
 2715SOL     OW 9043   5.299   1.237   1.123
 2715SOL    HW1 9044   5.390   1.204   1.097
 2715SOL    HW2 9045   5.301   1.336   1.132
 2716SOL     OW 9046   4.119   1.871   2.879
 2716SOL    HW1 9047   4.057   1.825   2.942
 2716SOL    HW2 9048   4.213   1.855   2.907
 2717SOL     OW 9049   1.062   1.459   2.578
 2717SOL    HW1 9050   1.033   1.423   2.490
 2717SOL    HW2 9051   1.136   1.402   2.614
 2718SOL     OW 9052   0.547   0.272   6.099
 2718SOL    HW1 9053   0.567   0.271   6.001
 2718SOL    HW2 9054   0.557   0.366   6.134
 2719SOL     OW 9055   1.834   3.847   1.959
 2719SOL    HW1 9056   1.910   3.785   1.978
 2719SOL    HW2 9057   1.766   3.840   2.033
 2720SOL     OW 9058   1.075   0.199   5.273
 2720SOL    HW1 9059   0.997   0.236   5.223
 2720SOL    HW2 9060   1.087   0.102   5.248
 2721SOL     OW 9061   2.815   5.411   1.840
 2721SOL    HW1 9062   2.812   5.485   1.773
 2721SOL    HW2 9063   2.820   5.323   1.792
 2722SOL     OW 9064   4.294   5.413   6.971
 2722SOL    HW1 9065   4.198   5.440   6.965
 2722SOL    HW2 9066   4.350   5.495   6.985
 2723SOL     OW 9067   3.247   6.356   0.516
 2723SOL    HW1 9068   3.273   6.260   0.524
 2723SOL    HW2 9069   3.153   6.363   0.482
 2724SOL     OW 9070   0.953   5.825   0.544
 2724SOL    HW1 9071   0.904   5.911   0.558
 2724SOL    HW2 9072   0.938   5.765   0.623
 2725SOL     OW 9073   5.113   3.040   4.653
 2725SOL    HW1 9074   5.183   3.111   4.641
 2725SOL    HW2 9075   5.052   3.066   4.728
 2726SOL     OW 9076   0.615   1.662   1.120
 2726SOL    HW1 9077   0.657   1.751   1.135
 2726SOL    HW2 9078   0.667   1.591   1.168
 2727SOL     OW 9079   2.239   4.244   4.674
 2727SOL    HW1 9080   2.174   4.169   4.662
 2727SOL    HW2 9081   2.213   4.321   4.617
 2728SOL     OW 9082   5.110   5.047   6.480
 2728SOL    HW1 9083   5.204   5.079   6.466
 2728SOL    HW2 9084   5.109   4.948   6.485
 2729SOL     OW 9085   5.147   6.043   6.180
 2729SOL    HW1 9086   5.244   6.021   6.185
 2729SOL    HW2 9087   5.132   6.114   6.111
 2730SOL     OW 9088   0.707   5.796   2.187
 2730SOL    HW1 9089   0.784   5.813   2.125
 2730SOL    HW2 9090   0.733   5.725   2.254
 2731SOL     OW 9091   3.204   3.050   3.881
 2731SOL    HW1 9092   3.125   3.028   3.938
 2731SOL    HW2 9093   3.280   2.989   3.904
 2732SOL     OW 9094   5.061   1.228   1.444
 2732SOL    HW1 9095   5.144   1.195   1.398
 2732SOL    HW2 9096   5.019   1.300   1.389
 2733SOL     OW 9097   0.243   0.277   5.951
 2733SOL    HW1 9098   0.333   0.306   5.919
 2733SOL    HW2 9099   0.178   0.280   5.876
 2734SOL     OW 9100   3.390   5.928   1.734
 2734SOL    HW1 9101   3.358   6.016   1.700
 2734SOL    HW2 9102   3.490   5.927   1.735
 2735SOL     OW 9103   1.276   2.008   1.059
 2735SOL    HW1 9104   1.285   1.962   1.147
 2735SOL    HW2 9105   1.182   2.042   1.049
 2736SOL     OW 9106   4.920   6.152   3.444
 2736SOL    HW1 9107   4.829   6.114   3.461
 2736SOL    HW2 9108   4.988   6.078   3.448
 2737SOL     OW 9109   2.781   1.722   6.257
 2737SOL    HW1 9110   2.846   1.788   6.221
 2737SOL    HW2 9111   2.733   1.762   6.335
 2738SOL     OW 9112   5.747   0.272   1.172
 2738SOL    HW1 9113   5.668   0.241   1.118
 2738SOL    HW2 9114   5.717   0.340   1.239
 2739SOL     OW 9115   1.033   5.319   1.975
 2739SOL    HW1 9116   1.068   5.356   1.889
 2739SOL    HW2 9117   1.058   5.379   2.051
 2740SOL     OW 9118   6.952   6.420   2.347
 2740SOL    HW1 9119   6.863   6.457   2.322
 2740SOL    HW2 9120   0.003   6.473   2.304
 2741SOL     OW 9121   1.173   1.942   4.228
 2741SOL    HW1 9122   1.268   1.972   4.241
 2741SOL    HW2 9123   1.118   2.017   4.192
 2742SOL     OW 9124   3.522   4.615   1.534
 2742SOL    HW1 9125   3.581   4.535   1.529
 2742SOL    HW2 9126   3.515   4.645   1.630
 2743SOL     OW 9127   6.539   4.708   2.270
 2743SOL    HW1 9128   6.633   4.738   2.257
 2743SOL    HW2 9129   6.537   4.610   2.287
 2744SOL     OW 9130   2.997   3.500   2.801
 2744SOL    HW1 9131   3.086   3.481   2.843
 2744SOL    HW2 9132   2.981   3.436   2.726
 2745SOL     OW 9133   6.749   1.201   5.702
 2745SOL    HW1 9134   6.845   1.203   5.674
 2745SOL    HW2 9135   6.697   1.146   5.638
 2746SOL     OW 9136   1.177   1.257   3.574
 2746SOL    HW1 9137   1.119   1.182   3.607
 2746SOL    HW2 9138   1.139   1.293   3.489
 2747SOL     OW 9139   3.679   5.587   0.977
 2747SOL    HW1 9140   3.713   5.514   0.917
 2747SOL    HW2 9141   3.702   5.676   0.938
 2748SOL     OW 9142   4.453   6.982   1.243
 2748SOL    HW1 9143   4.397   0.044   1.241
 2748SOL    HW2 9144   4.470   6.956   1.338
 2749SOL     OW 9145   2.005   3.396   0.571
 2749SOL    HW1 9146   2.049   3.434   0.653
 2749SOL    HW2 9147   2.070   3.340   0.521
 2750SOL     OW 9148   2.418   5.371   2.661
 2750SOL    HW1 9149   2.326   5.336   2.679
 2750SOL    HW2 9150   2.435   5.373   2.563
 2751SOL     OW 9151   1.389   2.566   1.555
 2751SOL    HW1 9152   1.359   2.633   1.487
 2751SOL    HW2 9153   1.370   2.602   1.646
 2752SOL     OW 9154   4.248   4.684   5.453
 2752SOL    HW1 9155   4.187   4.722   5.384
 2752SOL    HW2 9156   4.338   4.666   5.413
 2753SOL     OW 9157   6.393   6.383   5.178
 2753SOL    HW1 9158   6.299   6.359   5.152
 2753SOL    HW2 9159   6.443   6.300   5.202
 2754SOL     OW 9160   0.511   6.407   6.436
 2754SOL    HW1 9161   0.443   6.366   6.496
 2754SOL    HW2 9162   0.492   6.505   6.427
 2755SOL     OW 9163   2.705   6.659   2.863
 2755SOL    HW1 9164   2.708   6.730   2.933
 2755SOL    HW2 9165   2.716   6.700   2.772
 2756SOL     OW 9166   5.499   6.617   0.470
 2756SOL    HW1 9167   5.569   6.669   0.420
 2756SOL    HW2 9168   5.469   6.671   0.549
 2757SOL     OW 9169   0.751   5.200   1.609
 2757SOL    HW1 9170   0.743   5.263   1.686
 2757SOL    HW2 9171   0.819   5.130   1.630
 2758SOL     OW 9172   5.505   0.312   5.374
 2758SOL    HW1 9173   5.589   0.315   5.429
 2758SOL    HW2 9174   5.476   0.405   5.352
 2759SOL     OW 9175   5.844   6.238   3.848
 2759SOL    HW1 9176   5.935   6.203   3.825
 2759SOL    HW2 9177   5.844   6.272   3.942
 2760SOL     OW 9178   2.172   5.274   2.192
 2760SOL    HW1 9179   2.230   5.288   2.272
 2760SOL    HW2 9180   2.178   5.353   2.131
 2761SOL     OW 9181   0.891   5.756   3.269
 2761SOL    HW1 9182   0.915   5.750   3.366
 2761SOL    HW2 9183   0.970   5.732   3.213
 2762SOL     OW 9184   1.364   6.779   5.490
 2762SOL    HW1 9185   1.309   6.835   5.427
 2762SOL    HW2 9186   1.461   6.791   5.469
 2763SOL     OW 9187   5.678   2.111   3.737
 2763SOL    HW1 9188   5.662   2.170   3.816
 2763SOL    HW2 9189   5.676   2.166   3.654
 2764SOL     OW 9190   5.687   6.898   1.147
 2764SOL    HW1 9191   5.671   6.956   1.067
 2764SOL    HW2 9192   5.693   6.803   1.119
 2765SOL     OW 9193   5.462   1.292   2.158
 2765SOL    HW1 9194   5.381   1.332   2.203
 2765SOL    HW2 9195   5.440   1.271   2.063
 2766SOL     OW 9196   5.552   1.424   1.268
 2766SOL    HW1 9197   5.460   1.454   1.243
 2766SOL    HW2 9198   5.615   1.447   1.195
 2767SOL     OW 9199   6.113   4.146   6.437
 2767SOL    HW1 9200   6.133   4.168   6.532
 2767SOL    HW2 9201   6.086   4.230   6.389
 2768SOL     OW 9202   5.094   1.034   0.029
 2768SOL    HW1 9203   5.032   1.035   6.972
 2768SOL    HW2 9204   5.060   1.097   0.098
 2769SOL     OW 9205   6.751   3.973   2.763
 2769SOL    HW1 9206   6.735   3.919   2.681
 2769SOL    HW2 9207   6.755   3.913   2.843
 2770SOL     OW 9208   1.482   5.412   1.401
 2770SOL    HW1 9209   1.576   5.395   1.373
 2770SOL    HW2 9210   1.450   5.498   1.361
 2771SOL     OW 9211   5.107   1.534   1.349
 2771SOL    HW1 9212   5.116   1.520   1.448
 2771SOL    HW2 9213   5.096   1.631   1.330
 2772SOL     OW 9214   4.399   2.607   0.238
 2772SOL    HW1 9215   4.373   2.583   0.331
 2772SOL    HW2 9216   4.346   2.552   0.173
 2773SOL     OW 9217   4.204   3.652   6.129
 2773SOL    HW1 9218   4.289   3.633   6.079
 2773SOL    HW2 9219   4.203   3.600   6.214
 2774SOL     OW 9220   5.888   2.334   2.221
 2774SOL    HW1 9221   5.885   2.325   2.121
 2774SOL    HW2 9222   5.937   2.418   2.245
 2775SOL     OW 9223   0.017   6.035   1.412
 2775SOL    HW1 9224   0.111   6.041   1.445
 2775SOL    HW2 9225   6.990   5.963   1.461
 2776SOL     OW 9226   3.939   5.765   5.421
 2776SOL    HW1 9227   3.879   5.760   5.501
 2776SOL    HW2 9228   3.980   5.856   5.416
 2777SOL     OW 9229   3.473   1.072   2.522
 2777SOL    HW1 9230   3.573   1.074   2.518
 2777SOL    HW2 9231   3.441   0.980   2.498
 2778SOL     OW 9232   2.109   1.670   5.500
 2778SOL    HW1 9233   2.107   1.700   5.404
 2778SOL    HW2 9234   2.037   1.603   5.516
 2779SOL     OW 9235   5.354   6.906   0.061
 2779SOL    HW1 9236   5.449   6.877   0.045
 2779SOL    HW2 9237   5.339   6.918   0.159
 2780SOL     OW 9238   5.293   5.398   6.269
 2780SOL    HW1 9239   5.381   5.350   6.264
 2780SOL    HW2 9240   5.295   5.463   6.344
 2781SOL     OW 9241   5.950   4.542   1.727
 2781SOL    HW1 9242   5.963   4.555   1.825
 2781SOL    HW2 9243   6.024   4.589   1.677
 2782SOL     OW 9244   2.871   2.836   6.342
 2782SOL    HW1 9245   2.923   2.751   6.353
 2782SOL    HW2 9246   2.775   2.814   6.328
 2783SOL     OW 9247   6.737   4.087   5.015
 2783SOL    HW1 9248   6.688   4.134   5.089
 2783SOL    HW2 9249   6.674   4.071   4.939
 2784SOL     OW 9250   2.203   2.682   1.347
 2784SOL    HW1 9251   2.142   2.673   1.269
 2784SOL    HW2 9252   2.298   2.671   1.317
 2785SOL     OW 9253   6.459   1.349   6.730
 2785SOL    HW1 9254   6.520   1.274   6.753
 2785SOL    HW2 9255   6.505   1.436   6.748
 2786SOL     OW 9256   3.992   6.379   0.767
 2786SOL    HW1 9257   4.064   6.365   0.699
 2786SOL    HW2 9258   3.974   6.294   0.816
 2787SOL     OW 9259   1.831   4.090   6.713
 2787SOL    HW1 9260   1.794   4.036   6.638
 2787SOL    HW2 9261   1.883   4.167   6.677
 2788SOL     OW 9262   2.409   4.213   0.367
 2788SOL    HW1 9263   2.363   4.234   0.280
 2788SOL    HW2 9264   2.497   4.260   0.370
 2789SOL     OW 9265   1.432   1.759   3.635
 2789SOL    HW1 9266   1.470   1.744   3.544
 2789SOL    HW2 9267   1.420   1.671   3.682
 2790SOL     OW 9268   3.506   5.303   3.293
 2790SOL    HW1 9269   3.491   5.377   3.228
 2790SOL    HW2 9270   3.603   5.275   3.290
 2791SOL     OW 9271   1.863   4.473   5.328
 2791SOL    HW1 9272   1.930   4.475   5.254
 2791SOL    HW2 9273   1.780   4.521   5.299
 2792SOL     OW 9274   1.266   0.448   5.118
 2792SOL    HW1 9275   1.240   0.505   5.040
 2792SOL    HW2 9276   1.221   0.483   5.200
 2793SOL     OW 9277   5.287   1.402   2.517
 2793SOL    HW1 9278   5.256   1.330   2.455
 2793SOL    HW2 9279   5.231   1.484   2.503
 2794SOL     OW 9280   0.127   2.279   0.396
 2794SOL    HW1 9281   0.127   2.269   0.297
 2794SOL    HW2 9282   0.196   2.346   0.424
 2795SOL     OW 9283   2.972   3.973   1.399
 2795SOL    HW1 9284   3.072   3.976   1.399
 2795SOL    HW2 9285   2.935   4.065   1.412
 2796SOL     OW 9286   6.290   4.008   2.283
 2796SOL    HW1 9287   6.207   4.054   2.253
 2796SOL    HW2 9288   6.283   3.910   2.265
 2797SOL     OW 9289   5.271   5.355   4.673
 2797SOL    HW1 9290   5.225   5.407   4.601
 2797SOL    HW2 9291   5.209   5.285   4.708
 2798SOL     OW 9292   0.728   3.781   3.002
 2798SOL    HW1 9293   0.672   3.860   3.026
 2798SOL    HW2 9294   0.822   3.795   3.035
 2799SOL     OW 9295   0.170   5.631   6.493
 2799SOL    HW1 9296   0.247   5.695   6.487
 2799SOL    HW2 9297   0.142   5.622   6.588
 2800SOL     OW 9298   4.250   5.108   0.084
 2800SOL    HW1 9299   4.161   5.095   0.040
 2800SOL    HW2 9300   4.303   5.176   0.033
 2801SOL     OW 9301   4.299   5.390   2.493
 2801SOL    HW1 9302   4.200   5.406   2.493
 2801SOL    HW2 9303   4.346   5.474   2.520
 2802SOL     OW 9304   3.836   2.080   6.150
 2802SOL    HW1 9305   3.759   2.145   6.149
 2802SOL    HW2 9306   3.922   2.131   6.142
 2803SOL     OW 9307   2.245   5.941   6.160
 2803SOL    HW1 9308   2.159   5.989   6.142
 2803SOL    HW2 9309   2.320   6.008   6.167
 2804SOL     OW 9310   0.060   4.549   3.470
 2804SOL    HW1 9311   0.004   4.605   3.531
 2804SOL    HW2 9312   0.024   4.457   3.467
 2805SOL     OW 9313   4.866   3.467   1.302
 2805SOL    HW1 9314   4.812   3.449   1.220
 2805SOL    HW2 9315   4.881   3.382   1.352
 2806SOL     OW 9316   5.748   5.267   2.774
 2806SOL    HW1 9317   5.823   5.204   2.795
 2806SOL    HW2 9318   5.676   5.217   2.726
 2807SOL     OW 9319   4.491   4.606   3.737
 2807SOL    HW1 9320   4.473   4.510   3.754
 2807SOL    HW2 9321   4.534   4.647   3.818
 2808SOL     OW 9322   5.253   1.487   3.369
 2808SOL    HW1 9323   5.210   1.562   3.419
 2808SOL    HW2 9324   5.352   1.502   3.364
 2809SOL     OW 9325   5.857   2.803   1.125
 2809SOL    HW1 9326   5.854   2.740   1.202
 2809SOL    HW2 9327   5.807   2.764   1.048
 2810SOL     OW 9328   3.084   6.591   5.091
 2810SOL    HW1 9329   3.177   6.619   5.116
 2810SOL    HW2 9330   3.089   6.532   5.010
 2811SOL     OW 9331   0.925   0.949   2.673
 2811SOL    HW1 9332   1.001   1.014   2.676
 2811SOL    HW2 9333   0.901   0.931   2.577
 2812SOL     OW 9334   4.956   3.413   2.319
 2812SOL    HW1 9335   4.954   3.449   2.226
 2812SOL    HW2 9336   5.018   3.335   2.324
 2813SOL     OW 9337   5.809   6.455   5.408
 2813SOL    HW1 9338   5.730   6.458   5.469
 2813SOL    HW2 9339   5.875   6.526   5.435
 2814SOL     OW 9340   3.850   4.348   5.732
 2814SOL    HW1 9341   3.839   4.447   5.728
 2814SOL    HW2 9342   3.941   4.324   5.697
 2815SOL     OW 9343   6.508   0.842   4.465
 2815SOL    HW1 9344   6.515   0.760   4.522
 2815SOL    HW2 9345   6.414   0.875   4.464
 2816SOL     OW 9346   5.923   6.756   3.754
 2816SOL    HW1 9347   5.907   6.665   3.792
 2816SOL    HW2 9348   5.876   6.765   3.666
 2817SOL     OW 9349   1.733   0.892   1.479
 2817SOL    HW1 9350   1.710   0.926   1.570
 2817SOL    HW2 9351   1.832   0.877   1.473
 2818SOL     OW 9352   6.553   5.094   6.548
 2818SOL    HW1 9353   6.628   5.032   6.570
 2818SOL    HW2 9354   6.588   5.172   6.496
 2819SOL     OW 9355   0.164   2.126   0.800
 2819SOL    HW1 9356   0.093   2.184   0.841
 2819SOL    HW2 9357   0.124   2.038   0.774
 2820SOL     OW 9358   0.183   2.520   2.222
 2820SOL    HW1 9359   0.206   2.616   2.236
 2820SOL    HW2 9360   0.136   2.484   2.303
 2821SOL     OW 9361   2.507   3.906   6.158
 2821SOL    HW1 9362   2.558   3.820   6.172
 2821SOL    HW2 9363   2.539   3.949   6.073
 2822SOL     OW 9364   4.592   2.542   7.000
 2822SOL    HW1 9365   4.496   2.562   6.978
 2822SOL    HW2 9366   4.615   2.451   6.967
 2823SOL     OW 9367   2.524   6.688   2.068
 2823SOL    HW1 9368   2.477   6.619   2.122
 2823SOL    HW2 9369   2.534   6.772   2.121
 2824SOL     OW 9370   2.314   1.519   5.233
 2824SOL    HW1 9371   2.395   1.492   5.285
 2824SOL    HW2 9372   2.250   1.442   5.228
 2825SOL     OW 9373   0.150   6.858   0.882
 2825SOL    HW1 9374   0.087   6.825   0.952
 2825SOL    HW2 9375   0.196   6.780   0.839
 2826SOL     OW 9376   5.472   1.754   5.421
 2826SOL    HW1 9377   5.432   1.676   5.468
 2826SOL    HW2 9378   5.464   1.836   5.479
 2827SOL     OW 9379   6.790   1.516   4.796
 2827SOL    HW1 9380   6.745   1.470   4.721
 2827SOL    HW2 9381   6.727   1.524   4.874
 2828SOL     OW 9382   3.938   0.867   6.294
 2828SOL    HW1 9383   4.033   0.840   6.313
 2828SOL    HW2 9384   3.880   0.786   6.292
 2829SOL     OW 9385   3.740   5.148   6.286
 2829SOL    HW1 9386   3.744   5.247   6.271
 2829SOL    HW2 9387   3.824   5.117   6.329
 2830SOL     OW 9388   5.814   3.773   6.249
 2830SOL    HW1 9389   5.909   3.758   6.221
 2830SOL    HW2 9390   5.810   3.849   6.314
 2831SOL     OW 9391   6.093   6.146   4.441
 2831SOL    HW1 9392   6.110   6.058   4.487
 2831SOL    HW2 9393   6.178   6.198   4.437
 2832SOL     OW 9394   0.211   1.784   1.617
 2832SOL    HW1 9395   0.141   1.717   1.592
 2832SOL    HW2 9396   0.167   1.872   1.636
 2833SOL     OW 9397   5.896   1.869   2.053
 2833SOL    HW1 9398   5.991   1.882   2.025
 2833SOL    HW2 9399   5.874   1.933   2.126
 2834SOL     OW 9400   2.828   1.258   6.202
 2834SOL    HW1 9401   2.767   1.312   6.260
 2834SOL    HW2 9402   2.827   1.162   6.232
 2835SOL     OW 9403   0.071   0.053   1.886
 2835SOL    HW1 9404   6.994   0.072   1.881
 2835SOL    HW2 9405   0.114   0.083   1.800
 2836SOL     OW 9406   6.959   0.204   1.696
 2836SOL    HW1 9407   6.919   0.294   1.714
 2836SOL    HW2 9408   0.028   0.215   1.655
 2837SOL     OW 9409   5.057   2.912   2.980
 2837SOL    HW1 9410   5.061   2.951   2.888
 2837SOL    HW2 9411   4.980   2.952   3.030
 2838SOL     OW 9412   2.306   4.529   1.933
 2838SOL    HW1 9413   2.366   4.588   1.880
 2838SOL    HW2 9414   2.349   4.510   2.022
 2839SOL     OW 9415   5.661   1.201   2.593
 2839SOL    HW1 9416   5.722   1.278   2.607
 2839SOL    HW2 9417   5.674   1.165   2.501
 2840SOL     OW 9418   0.714   1.278   5.325
 2840SOL    HW1 9419   0.634   1.241   5.372
 2840SOL    HW2 9420   0.778   1.204   5.305
 2841SOL     OW 9421   0.887   6.452   0.180
 2841SOL    HW1 9422   0.804   6.483   0.226
 2841SOL    HW2 9423   0.955   6.427   0.249
 2842SOL     OW 9424   6.904   2.888   3.659
 2842SOL    HW1 9425   6.973   2.844   3.716
 2842SOL    HW2 9426   6.836   2.932   3.717
 2843SOL     OW 9427   3.409   1.518   4.229
 2843SOL    HW1 9428   3.315   1.516   4.263
 2843SOL    HW2 9429   3.457   1.597   4.267
 2844SOL     OW 9430   0.840   4.164   0.045
 2844SOL    HW1 9431   0.934   4.199   0.039
 2844SOL    HW2 9432   0.789   4.218   0.112
 2845SOL     OW 9433   0.907   3.891   0.556
 2845SOL    HW1 9434   0.925   3.989   0.555
 2845SOL    HW2 9435   0.993   3.841   0.547
 2846SOL     OW 9436   5.216   1.373   6.918
 2846SOL    HW1 9437   5.171   1.295   6.875
 2846SOL    HW2 9438   5.164   1.456   6.898
 2847SOL     OW 9439   5.609   4.060   3.289
 2847SOL    HW1 9440   5.582   4.154   3.267
 2847SOL    HW2 9441   5.530   4.000   3.280
 2848SOL     OW 9442   0.287   4.335   5.249
 2848SOL    HW1 9443   0.251   4.423   5.218
 2848SOL    HW2 9444   0.215   4.265   5.241
 2849SOL     OW 9445   3.563   1.123   0.566
 2849SOL    HW1 9446   3.617   1.056   0.616
 2849SOL    HW2 9447   3.621   1.171   0.500
 2850SOL     OW 9448   3.468   0.554   1.236
 2850SOL    HW1 9449   3.407   0.591   1.306
 2850SOL    HW2 9450   3.453   0.456   1.227
 2851SOL     OW 9451   1.269   4.894   5.329
 2851SOL    HW1 9452   1.213   4.837   5.390
 2851SOL    HW2 9453   1.293   4.979   5.375
 2852SOL     OW 9454   5.932   3.984   6.684
 2852SOL    HW1 9455   5.904   3.966   6.778
 2852SOL    HW2 9456   6.018   4.035   6.684
 2853SOL     OW 9457   3.264   2.534   0.428
 2853SOL    HW1 9458   3.267   2.633   0.443
 2853SOL    HW2 9459   3.189   2.495   0.481
 2854SOL     OW 9460   2.687   1.027   4.226
 2854SOL    HW1 9461   2.647   0.971   4.299
 2854SOL    HW2 9462   2.631   1.020   4.144
 2855SOL     OW 9463   2.109   0.591   6.099
 2855SOL    HW1 9464   2.106   0.676   6.151
 2855SOL    HW2 9465   2.156   0.607   6.012
 2856SOL     OW 9466   2.666   2.919   5.924
 2856SOL    HW1 9467   2.684   2.969   6.009
 2856SOL    HW2 9468   2.693   2.975   5.846
 2857SOL     OW 9469   2.949   1.692   1.674
 2857SOL    HW1 9470   2.903   1.736   1.751
 2857SOL    HW2 9471   3.040   1.732   1.662
 2858SOL     OW 9472   6.415   2.490   2.310
 2858SOL    HW1 9473   6.400   2.483   2.409
 2858SOL    HW2 9474   6.328   2.488   2.262
 2859SOL     OW 9475   4.734   1.146   0.785
 2859SOL    HW1 9476   4.824   1.103   0.779
 2859SOL    HW2 9477   4.671   1.101   0.721
 2860SOL     OW 9478   4.492   1.572   1.857
 2860SOL    HW1 9479   4.520   1.514   1.933
 2860SOL    HW2 9480   4.407   1.620   1.881
 2861SOL     OW 9481   4.879   5.786   5.642
 2861SOL    HW1 9482   4.802   5.846   5.621
 2861SOL    HW2 9483   4.864   5.741   5.730
 2862SOL     OW 9484   5.628   1.840   3.727
 2862SOL    HW1 9485   5.669   1.783   3.798
 2862SOL    HW2 9486   5.668   1.932   3.731
 2863SOL     OW 9487   6.113   1.963   0.303
 2863SOL    HW1 9488   6.094   2.008   0.216
 2863SOL    HW2 9489   6.205   1.988   0.333
 2864SOL     OW 9490   3.694   0.377   1.043
 2864SOL    HW1 9491   3.742   0.432   1.111
 2864SOL    HW2 9492   3.602   0.413   1.029
 2865SOL     OW 9493   4.658   4.453   5.104
 2865SOL    HW1 9494   4.726   4.396   5.150
 2865SOL    HW2 9495   4.620   4.405   5.026
 2866SOL     OW 9496   6.617   6.469   6.716
 2866SOL    HW1 9497   6.640   6.548   6.773
 2866SOL    HW2 9498   6.668   6.473   6.630
 2867SOL     OW 9499   6.031   4.176   2.251
 2867SOL    HW1 9500   6.061   4.221   2.335
 2867SOL    HW2 9501   5.932   4.175   2.247
 2868SOL     OW 9502   0.601   3.540   5.570
 2868SOL    HW1 9503   0.607   3.453   5.520
 2868SOL    HW2 9504   0.519   3.589   5.540
 2869SOL     OW 9505   6.341   0.710   2.432
 2869SOL    HW1 9506   6.286   0.629   2.411
 2869SOL    HW2 9507   6.364   0.758   2.347
 2870SOL     OW 9508   6.361   1.719   3.960
 2870SOL    HW1 9509   6.327   1.625   3.953
 2870SOL    HW2 9510   6.391   1.750   3.869
 2871SOL     OW 9511   1.878   1.949   6.467
 2871SOL    HW1 9512   1.914   1.880   6.530
 2871SOL    HW2 9513   1.910   1.930   6.374
 2872SOL     OW 9514   2.874   1.547   4.018
 2872SOL    HW1 9515   2.879   1.646   4.010
 2872SOL    HW2 9516   2.917   1.518   4.104
 2873SOL     OW 9517   0.593   6.158   2.730
 2873SOL    HW1 9518   0.621   6.253   2.715
 2873SOL    HW2 9519   0.585   6.141   2.829
 2874SOL     OW 9520   5.401   4.264   2.180
 2874SOL    HW1 9521   5.317   4.287   2.132
 2874SOL    HW2 9522   5.389   4.281   2.278
 2875SOL     OW 9523   3.867   6.392   6.296
 2875SOL    HW1 9524   3.845   6.431   6.207
 2875SOL    HW2 9525   3.914   6.305   6.284
 2876SOL     OW 9526   0.668   1.025   1.905
 2876SOL    HW1 9527   0.766   1.044   1.893
 2876SOL    HW2 9528   0.625   1.015   1.816
 2877SOL     OW 9529   3.447   2.884   5.436
 2877SOL    HW1 9530   3.420   2.801   5.387
 2877SOL    HW2 9531   3.463   2.957   5.370
 2878SOL     OW 9532   2.663   5.181   5.076
 2878SOL    HW1 9533   2.738   5.121   5.049
 2878SOL    HW2 9534   2.613   5.138   5.151
 2879SOL     OW 9535   5.083   5.149   0.464
 2879SOL    HW1 9536   5.010   5.191   0.411
 2879SOL    HW2 9537   5.169   5.198   0.448
 2880SOL     OW 9538   6.858   6.547   0.449
 2880SOL    HW1 9539   6.794   6.548   0.526
 2880SOL    HW2 9540   6.944   6.589   0.477
 2881SOL     OW 9541   6.699   6.431   1.229
 2881SOL    HW1 9542   6.737   6.489   1.157
 2881SOL    HW2 9543   6.754   6.348   1.237
 2882SOL     OW 9544   1.080   3.504   2.551
 2882SOL    HW1 9545   1.005   3.438   2.542
 2882SOL    HW2 9546   1.070   3.576   2.482
 2883SOL     OW 9547   3.430   0.011   3.819
 2883SOL    HW1 9548   3.415   0.082   3.751
 2883SOL    HW2 9549   3.345   6.983   3.836
 2884SOL     OW 9550   0.341   7.008   3.509
 2884SOL    HW1 9551   0.313   6.961   3.425
 2884SOL    HW2 9552   0.432   0.026   3.497
 2885SOL     OW 9553   0.291   2.204   3.124
 2885SOL    HW1 9554   0.249   2.256   3.198
 2885SOL    HW2 9555   0.380   2.169   3.154
 2886SOL     OW 9556   2.473   2.781   6.844
 2886SOL    HW1 9557   2.449   2.822   6.756
 2886SOL    HW2 9558   2.545   2.713   6.831
 2887SOL     OW 9559   2.716   6.582   5.107
 2887SOL    HW1 9560   2.644   6.553   5.171
 2887SOL    HW2 9561   2.801   6.595   5.157
 2888SOL     OW 9562   6.995   5.091   6.566
 2888SOL    HW1 9563   7.002   5.191   6.556
 2888SOL    HW2 9564   6.903   5.062   6.543
 2889SOL     OW 9565   1.631   0.953   1.744
 2889SOL    HW1 9566   1.621   0.918   1.837
 2889SOL    HW2 9567   1.707   1.018   1.741
 2890SOL     OW 9568   3.558   0.361   1.514
 2890SOL    HW1 9569   3.520   0.299   1.446
 2890SOL    HW2 9570   3.649   0.330   1.541
 2891SOL     OW 9571   2.066   4.846   3.586
 2891SOL    HW1 9572   2.042   4.856   3.490
 2891SOL    HW2 9573   1.982   4.847   3.642
 2892SOL     OW 9574   4.337   3.999   6.631
 2892SOL    HW1 9575   4.414   4.061   6.615
 2892SOL    HW2 9576   4.265   4.019   6.564
 2893SOL     OW 9577   2.044   6.382   5.654
 2893SOL    HW1 9578   2.069   6.404   5.748
 2893SOL    HW2 9579   2.073   6.456   5.594
 2894SOL     OW 9580   2.701   2.625   6.982
 2894SOL    HW1 9581   2.776   2.681   6.947
 2894SOL    HW2 9582   2.726   2.587   0.049
 2895SOL     OW 9583   3.934   3.257   6.552
 2895SOL    HW1 9584   3.850   3.308   6.535
 2895SOL    HW2 9585   3.932   3.171   6.500
 2896SOL     OW 9586   2.600   5.338   6.691
 2896SOL    HW1 9587   2.629   5.275   6.763
 2896SOL    HW2 9588   2.681   5.375   6.645
 2897SOL     OW 9589   2.310   6.837   3.875
 2897SOL    HW1 9590   2.226   6.790   3.847
 2897SOL    HW2 9591   2.331   6.812   3.970
 2898SOL     OW 9592   4.362   5.224   2.744
 2898SOL    HW1 9593   4.336   5.295   2.678
 2898SOL    HW2 9594   4.281   5.170   2.767
 2899SOL     OW 9595   0.238   0.569   6.577
 2899SOL    HW1 9596   0.248   0.656   6.529
 2899SOL    HW2 9597   0.144   0.559   6.608
 2900SOL     OW 9598   1.031   4.640   5.644
 2900SOL    HW1 9599   1.003   4.550   5.677
 2900SOL    HW2 9600   0.993   4.711   5.702
 2901SOL     OW 9601   2.329   0.558   2.390
 2901SOL    HW1 9602   2.381   0.533   2.472
 2901SOL    HW2 9603   2.235   0.526   2.399
 2902SOL     OW 9604   5.376   6.112   0.596
 2902SOL    HW1 9605   5.306   6.173   0.558
 2902SOL    HW2 9606   5.401   6.044   0.527
 2903SOL     OW 9607   3.304   0.469   2.160
 2903SOL    HW1 9608   3.306   0.569   2.158
 2903SOL    HW2 9609   3.397   0.434   2.157
 2904SOL     OW 9610   2.393   3.268   5.357
 2904SOL    HW1 9611   2.425   3.190   5.302
 2904SOL    HW2 9612   2.304   3.298   5.324
 2905SOL     OW 9613   1.869   1.098   2.579
 2905SOL    HW1 9614   1.908   1.156   2.651
 2905SOL    HW2 9615   1.920   1.112   2.494
 2906SOL     OW 9616   5.234   4.999   1.682
 2906SOL    HW1 9617   5.188   4.968   1.765
 2906SOL    HW2 9618   5.327   4.962   1.680
 2907SOL     OW 9619   6.612   1.630   4.956
 2907SOL    HW1 9620   6.544   1.591   5.018
 2907SOL    HW2 9621   6.584   1.721   4.928
 2908SOL     OW 9622   3.693   6.425   4.150
 2908SOL    HW1 9623   3.617   6.465   4.100
 2908SOL    HW2 9624   3.706   6.330   4.121
 2909SOL     OW 9625   0.530   5.188   4.657
 2909SOL    HW1 9626   0.626   5.212   4.673
 2909SOL    HW2 9627   0.500   5.123   4.727
 2910SOL     OW 9628   3.489   6.317   4.976
 2910SOL    HW1 9629   3.539   6.364   4.904
 2910SOL    HW2 9630   3.474   6.221   4.950
 2911SOL     OW 9631   2.503   5.045   3.336
 2911SOL    HW1 9632   2.493   4.948   3.362
 2911SOL    HW2 9633   2.457   5.102   3.404
 2912SOL     OW 9634   2.705   6.044   0.247
 2912SOL    HW1 9635   2.773   5.994   0.301
 2912SOL    HW2 9636   2.728   6.142   0.248
 2913SOL     OW 9637   1.736   4.166   2.439
 2913SOL    HW1 9638   1.794   4.217   2.503
 2913SOL    HW2 9639   1.753   4.068   2.451
 2914SOL     OW 9640   5.865   4.683   5.803
 2914SOL    HW1 9641   5.906   4.596   5.829
 2914SOL    HW2 9642   5.923   4.758   5.835
 2915SOL     OW 9643   4.615   1.363   3.970
 2915SOL    HW1 9644   4.711   1.354   3.996
 2915SOL    HW2 9645   4.580   1.451   4.003
 2916SOL     OW 9646   6.346   4.304   5.610
 2916SOL    HW1 9647   6.310   4.356   5.687
 2916SOL    HW2 9648   6.294   4.219   5.599
 2917SOL     OW 9649   4.179   0.069   0.572
 2917SOL    HW1 9650   4.189   0.165   0.597
 2917SOL    HW2 9651   4.083   0.043   0.574
 2918SOL     OW 9652   0.033   3.647   3.272
 2918SOL    HW1 9653   0.112   3.589   3.256
 2918SOL    HW2 9654   6.977   3.615   3.217
 2919SOL     OW 9655   6.206   0.014   0.706
 2919SOL    HW1 9656   6.172   0.084   0.643
 2919SOL    HW2 9657   6.141   0.004   0.781
 2920SOL     OW 9658   3.437   2.128   2.587
 2920SOL    HW1 9659   3.511   2.194   2.568
 2920SOL    HW2 9660   3.445   2.096   2.681
 2921SOL     OW 9661   6.863   1.444   2.539
 2921SOL    HW1 9662   6.790   1.505   2.569
 2921SOL    HW2 9663   6.947   1.496   2.526
 2922SOL     OW 9664   5.646   6.462   6.196
 2922SOL    HW1 9665   5.603   6.428   6.112
 2922SOL    HW2 9666   5.740   6.489   6.176
 2923SOL     OW 9667   6.624   5.658   2.560
 2923SOL    HW1 9668   6.566   5.646   2.479
 2923SOL    HW2 9669   6.720   5.652   2.533
 2924SOL     OW 9670   1.011   1.631   5.917
 2924SOL    HW1 9671   0.973   1.672   6.000
 2924SOL    HW2 9672   0.953   1.555   5.888
 2925SOL     OW 9673   5.816   1.900   2.716
 2925SOL    HW1 9674   5.814   1.937   2.808
 2925SOL    HW2 9675   5.741   1.940   2.663
 2926SOL     OW 9676   0.064   1.563   4.844
 2926SOL    HW1 9677   0.074   1.621   4.763
 2926SOL    HW2 9678   6.989   1.536   4.854
 2927SOL     OW 9679   1.324   2.754   2.285
 2927SOL    HW1 9680   1.231   2.716   2.290
 2927SOL    HW2 9681   1.389   2.685   2.317
 2928SOL     OW 9682   6.751   0.970   6.622
 2928SOL    HW1 9683   6.693   1.008   6.693
 2928SOL    HW2 9684   6.828   1.032   6.605
 2929SOL     OW 9685   0.420   1.004   6.169
 2929SOL    HW1 9686   0.348   1.068   6.196
 2929SOL    HW2 9687   0.463   0.966   6.251
 2930SOL     OW 9688   4.972   6.991   4.586
 2930SOL    HW1 9689   4.911   0.016   4.651
 2930SOL    HW2 9690   5.041   6.939   4.636
 2931SOL     OW 9691   5.035   5.627   6.386
 2931SOL    HW1 9692   5.127   5.617   6.424
 2931SOL    HW2 9693   5.016   5.552   6.323
 2932SOL     OW 9694   1.853   4.537   1.701
 2932SOL    HW1 9695   1.828   4.633   1.692
 2932SOL    HW2 9696   1.803   4.497   1.779
 2933SOL     OW 9697   5.487   2.084   4.159
 2933SOL    HW1 9698   5.447   2.170   4.192
 2933SOL    HW2 9699   5.437   2.007   4.199
 2934SOL     OW 9700   3.731   6.824   0.777
 2934SOL    HW1 9701   3.797   6.870   0.717
 2934SOL    HW2 9702   3.748   6.851   0.872
 2935SOL     OW 9703   6.508   3.535   1.382
 2935SOL    HW1 9704   6.413   3.515   1.405
 2935SOL    HW2 9705   6.567   3.462   1.416
 2936SOL     OW 9706   4.955   5.823   1.049
 2936SOL    HW1 9707   5.041   5.771   1.045
 2936SOL    HW2 9708   4.975   5.921   1.048
 2937SOL     OW 9709   3.168   5.276   0.947
 2937SOL    HW1 9710   3.113   5.345   0.994
 2937SOL    HW2 9711   3.169   5.295   0.849
 2938SOL     OW 9712   4.853   4.856   5.297
 2938SOL    HW1 9713   4.764   4.846   5.252
 2938SOL    HW2 9714   4.861   4.949   5.334
 2939SOL     OW 9715   6.167   0.108   4.706
 2939SOL    HW1 9716   6.176   0.139   4.801
 2939SOL    HW2 9717   6.073   0.122   4.675
 2940SOL     OW 9718   6.014   6.714   5.308
 2940SOL    HW1 9719   6.003   6.790   5.245
 2940SOL    HW2 9720   5.948   6.724   5.383
 2941SOL     OW 9721   1.796   2.111   5.650
 2941SOL    HW1 9722   1.853   2.185   5.615
 2941SOL    HW2 9723   1.740   2.145   5.726
 2942SOL     OW 9724   3.135   0.391   2.370
 2942SOL    HW1 9725   3.165   0.451   2.296
 2942SOL    HW2 9726   3.043   0.357   2.350
 2943SOL     OW 9727   5.472   2.982   2.353
 2943SOL    HW1 9728   5.424   3.052   2.406
 2943SOL    HW2 9729   5.406   2.913   2.322
 2944SOL     OW 9730   3.012   5.276   5.906
 2944SOL    HW1 9731   2.926   5.227   5.895
 2944SOL    HW2 9732   3.075   5.221   5.960
 2945SOL     OW 9733   3.747   3.444   3.094
 2945SOL    HW1 9734   3.708   3.478   3.008
 2945SOL    HW2 9735   3.843   3.420   3.081
 2946SOL     OW 9736   6.826   6.044   5.565
 2946SOL    HW1 9737   6.894   5.971   5.567
 2946SOL    HW2 9738   6.872   6.131   5.545
 2947SOL     OW 9739   6.942   3.945   6.282
 2947SOL    HW1 9740   6.906   3.854   6.304
 2947SOL    HW2 9741   6.880   3.991   6.219
 2948SOL     OW 9742   6.338   3.480   5.596
 2948SOL    HW1 9743   6.255   3.535   5.588
 2948SOL    HW2 9744   6.347   3.447   5.690
 2949SOL     OW 9745   1.663   6.641   1.001
 2949SOL    HW1 9746   1.612   6.709   1.053
 2949SOL    HW2 9747   1.686   6.564   1.060
 2950SOL     OW 9748   5.450   3.581   4.170
 2950SOL    HW1 9749   5.361   3.606   4.132
 2950SOL    HW2 9750   5.522   3.636   4.127
 2951SOL     OW 9751   6.730   2.172   0.537
 2951SOL    HW1 9752   6.795   2.240   0.505
 2951SOL    HW2 9753   6.705   2.191   0.631
 2952SOL     OW 9754   0.997   4.774   3.148
 2952SOL    HW1 9755   1.072   4.780   3.214
 2952SOL    HW2 9756   0.942   4.692   3.169
 2953SOL     OW 9757   4.873   2.718   2.178
 2953SOL    HW1 9758   4.947   2.736   2.113
 2953SOL    HW2 9759   4.845   2.622   2.171
 2954SOL     OW 9760   0.623   6.289   1.809
 2954SOL    HW1 9761   0.543   6.232   1.792
 2954SOL    HW2 9762   0.622   6.320   1.905
 2955SOL     OW 9763   0.586   3.218   0.567
 2955SOL    HW1 9764   0.579   3.131   0.617
 2955SOL    HW2 9765   0.505   3.273   0.585
 2956SOL     OW 9766   0.443   6.088   3.033
 2956SOL    HW1 9767   0.448   6.111   3.130
 2956SOL    HW2 9768   0.347   6.087   3.005
 2957SOL     OW 9769   0.398   3.849   0.446
 2957SOL    HW1 9770   0.479   3.898   0.481
 2957SOL    HW2 9771   0.404   3.843   0.347
 2958SOL     OW 9772   1.874   4.205   5.905
 2958SOL    HW1 9773   1.961   4.175   5.866
 2958SOL    HW2 9774   1.821   4.252   5.835
 2959SOL     OW 9775   5.693   4.602   6.028
 2959SOL    HW1 9776   5.768   4.595   5.961
 2959SOL    HW2 9777   5.606   4.596   5.980
 2960SOL     OW 9778   3.076   1.303   0.247
 2960SOL    HW1 9779   2.991   1.289   0.195
 2960SOL    HW2 9780   3.095   1.401   0.252
 2961SOL     OW 9781   5.482   3.226   5.000
 2961SOL    HW1 9782   5.431   3.163   4.941
 2961SOL    HW2 9783   5.519   3.175   5.078
 2962SOL     OW 9784   4.812   1.224   3.527
 2962SOL    HW1 9785   4.786   1.171   3.445
 2962SOL    HW2 9786   4.729   1.248   3.578
 2963SOL     OW 9787   1.922   1.877   5.613
 2963SOL    HW1 9788   1.906   1.972   5.642
 2963SOL    HW2 9789   1.996   1.876   5.546
 2964SOL     OW 9790   1.741   0.355   2.127
 2964SOL    HW1 9791   1.759   0.444   2.084
 2964SOL    HW2 9792   1.826   0.302   2.130
 2965SOL     OW 9793   0.357   0.912   5.254
 2965SOL    HW1 9794   0.285   0.956   5.307
 2965SOL    HW2 9795   0.432   0.885   5.315
 2966SOL     OW 9796   5.483   4.453   3.440
 2966SOL    HW1 9797   5.410   4.520   3.453
 2966SOL    HW2 9798   5.455   4.386   3.372
 2967SOL     OW 9799   6.018   2.524   3.451
 2967SOL    HW1 9800   6.107   2.569   3.441
 2967SOL    HW2 9801   5.946   2.593   3.458
 2968SOL     OW 9802   0.793   3.735   5.429
 2968SOL    HW1 9803   0.751   3.825   5.430
 2968SOL    HW2 9804   0.732   3.669   5.472
 2969SOL     OW 9805   5.709   2.086   4.852
 2969SOL    HW1 9806   5.617   2.049   4.839
 2969SOL    HW2 9807   5.754   2.039   4.927
 2970SOL     OW 9808   1.293   4.548   6.660
 2970SOL    HW1 9809   1.265   4.630   6.709
 2970SOL    HW2 9810   1.213   4.506   6.617
 2971SOL     OW 9811   5.884   3.241   3.546
 2971SOL    HW1 9812   5.981   3.261   3.558
 2971SOL    HW2 9813   5.844   3.216   3.635
 2972SOL     OW 9814   6.832   3.895   6.658
 2972SOL    HW1 9815   6.811   3.944   6.574
 2972SOL    HW2 9816   6.813   3.798   6.646
 2973SOL     OW 9817   5.502   0.265   3.941
 2973SOL    HW1 9818   5.409   0.300   3.925
 2973SOL    HW2 9819   5.497   0.181   3.995
 2974SOL     OW 9820   5.544   4.071   2.964
 2974SOL    HW1 9821   5.574   3.979   2.991
 2974SOL    HW2 9822   5.612   4.138   2.995
 2975SOL     OW 9823   0.673   1.733   5.260
 2975SOL    HW1 9824   0.760   1.691   5.287
 2975SOL    HW2 9825   0.679   1.765   5.165
 2976SOL     OW 9826   4.052   1.202   2.970
 2976SOL    HW1 9827   4.046   1.292   3.015
 2976SOL    HW2 9828   3.985   1.140   3.011
 2977SOL     OW 9829   2.566   0.189   4.336
 2977SOL    HW1 9830   2.530   0.201   4.429
 2977SOL    HW2 9831   2.653   0.140   4.340
 2978SOL     OW 9832   4.537   5.046   0.310
 2978SOL    HW1 9833   4.610   5.016   0.371
 2978SOL    HW2 9834   4.480   4.967   0.285
 2979SOL     OW 9835   3.467   0.628   3.650
 2979SOL    HW1 9836   3.560   0.589   3.651
 2979SOL    HW2 9837   3.402   0.559   3.683
 2980SOL     OW 9838   0.832   6.444   4.470
 2980SOL    HW1 9839   0.904   6.417   4.407
 2980SOL    HW2 9840   0.743   6.418   4.431
 2981SOL     OW 9841   1.434   0.911   5.967
 2981SOL    HW1 9842   1.356   0.947   5.916
 2981SOL    HW2 9843   1.469   0.829   5.921
 2982SOL     OW 9844   3.890   6.158   3.045
 2982SOL    HW1 9845   3.942   6.143   2.961
 2982SOL    HW2 9846   3.813   6.094   3.048
 2983SOL     OW 9847   0.388   0.925   4.226
 2983SOL    HW1 9848   0.374   0.876   4.141
 2983SOL    HW2 9849   0.419   0.861   4.297
 2984SOL     OW 9850   6.339   5.500   1.529
 2984SOL    HW1 9851   6.410   5.515   1.461
 2984SOL    HW2 9852   6.360   5.417   1.582
 2985SOL     OW 9853   0.858   1.842   4.412
 2985SOL    HW1 9854   0.778   1.894   4.440
 2985SOL    HW2 9855   0.938   1.876   4.461
 2986SOL     OW 9856   2.436   4.133   5.626
 2986SOL    HW1 9857   2.390   4.051   5.660
 2986SOL    HW2 9858   2.529   4.110   5.599
 2987SOL     OW 9859   4.937   0.956   4.353
 2987SOL    HW1 9860   4.887   0.878   4.317
 2987SOL    HW2 9861   5.035   0.942   4.340
 2988SOL     OW 9862   1.169   0.748   2.191
 2988SOL    HW1 9863   1.261   0.740   2.227
 2988SOL    HW2 9864   1.164   0.702   2.102
 2989SOL     OW 9865   6.382   5.233   1.104
 2989SOL    HW1 9866   6.442   5.167   1.061
 2989SOL    HW2 9867   6.399   5.324   1.066
 2990SOL     OW 9868   3.766   0.267   2.806
 2990SOL    HW1 9869   3.828   0.332   2.762
 2990SOL    HW2 9870   3.789   0.174   2.778
 2991SOL     OW 9871   0.066   4.192   0.549
 2991SOL    HW1 9872   6.996   4.155   0.561
 2991SOL    HW2 9873   0.133   4.131   0.590
 2992SOL     OW 9874   3.238   5.727   6.450
 2992SOL    HW1 9875   3.181   5.649   6.474
 2992SOL    HW2 9876   3.331   5.712   6.483
 2993SOL     OW 9877   2.002   4.260   2.102
 2993SOL    HW1 9878   1.933   4.189   2.089
 2993SOL    HW2 9879   1.986   4.335   2.037
 2994SOL     OW 9880   5.027   0.162   6.728
 2994SOL    HW1 9881   5.028   0.130   6.634
 2994SOL    HW2 9882   4.945   0.216   6.745
 2995SOL     OW 9883   1.290   1.914   0.059
 2995SOL    HW1 9884   1.206   1.962   0.084
 2995SOL    HW2 9885   1.304   1.919   6.982
 2996SOL     OW 9886   2.812   5.861   4.830
 2996SOL    HW1 9887   2.826   5.959   4.814
 2996SOL    HW2 9888   2.857   5.835   4.915
 2997SOL     OW 9889   5.211   6.011   1.838
 2997SOL    HW1 9890   5.154   6.040   1.914
 2997SOL    HW2 9891   5.268   6.088   1.808
 2998SOL     OW 9892   5.009   5.901   4.498
 2998SOL    HW1 9893   5.041   5.907   4.404
 2998SOL    HW2 9894   4.910   5.910   4.500
 2999SOL     OW 9895   3.189   5.927   3.425
 2999SOL    HW1 9896   3.136   5.986   3.486
 2999SOL    HW2 9897   3.222   5.847   3.476
 3000SOL     OW 9898   1.576   3.487   5.636
 3000SOL    HW1 9899   1.657   3.500   5.579
 3000SOL    HW2 9900   1.599   3.509   5.731
 3001SOL     OW 9901   4.774   0.089   6.500
 3001SOL    HW1 9902   4.691   0.146   6.506
 3001SOL    HW2 9903   4.748   7.014   6.499
 3002SOL     OW 9904   4.116   0.003   5.502
 3002SOL    HW1 9905   4.104   0.087   5.449
 3002SOL    HW2 9906   4.209   6.989   5.488
 3003SOL     OW 9907   2.610   6.006   5.984
 3003SOL    HW1 9908   2.531   6.066   6.000
 3003SOL    HW2 9909   2.694   6.061   5.985
 3004SOL     OW 9910   6.290   3.704   3.843
 3004SOL    HW1 9911   6.338   3.791   3.846
 3004SOL    HW2 9912   6.210   3.712   3.783
 3005SOL     OW 9913   3.249   3.214   1.691
 3005SOL    HW1 9914   3.260   3.269   1.608
 3005SOL    HW2 9915   3.154   3.182   1.697
 3006SOL     OW 9916   6.118   1.347   0.843
 3006SOL    HW1 9917   6.118   1.401   0.759
 3006SOL    HW2 9918   6.203   1.363   0.893
 3007SOL     OW 9919   5.376   5.047   2.031
 3007SOL    HW1 9920   5.444   4.974   2.027
 3007SOL    HW2 9921   5.333   5.048   2.121
 3008SOL     OW 9922   4.139   0.277   5.924
 3008SOL    HW1 9923   4.089   0.350   5.972
 3008SOL    HW2 9924   4.220   0.316   5.880
 3009SOL     OW 9925   0.539   0.327   2.770
 3009SOL    HW1 9926   0.492   0.415   2.772
 3009SOL    HW2 9927   0.596   0.318   2.852
 3010SOL     OW 9928   4.208   5.928   2.992
 3010SOL    HW1 9929   4.301   5.931   2.955
 3010SOL    HW2 9930   4.147   5.982   2.934
 3011SOL     OW 9931   6.287   0.845   6.648
 3011SOL    HW1 9932   6.379   0.848   6.609
 3011SOL    HW2 9933   6.226   0.902   6.593
 3012SOL     OW 9934   0.377   3.513   4.045
 3012SOL    HW1 9935   0.310   3.552   3.981
 3012SOL    HW2 9936   0.463   3.496   3.996
 3013SOL     OW 9937   5.923   6.024   2.646
 3013SOL    HW1 9938   5.917   5.974   2.559
 3013SOL    HW2 9939   5.832   6.059   2.670
 3014SOL     OW 9940   5.454   1.725   4.092
 3014SOL    HW1 9941   5.435   1.644   4.147
 3014SOL    HW2 9942   5.552   1.742   4.089
 3015SOL     OW 9943   2.107   1.950   0.528
 3015SOL    HW1 9944   2.151   1.875   0.478
 3015SOL    HW2 9945   2.067   1.915   0.613
 3016SOL     OW 9946   3.478   5.809   4.596
 3016SOL    HW1 9947   3.423   5.884   4.559
 3016SOL    HW2 9948   3.425   5.724   4.591
 3017SOL     OW 9949   0.621   5.648   1.127
 3017SOL    HW1 9950   0.670   5.568   1.163
 3017SOL    HW2 9951   0.679   5.729   1.136
 3018SOL     OW 9952   4.124   0.551   6.867
 3018SOL    HW1 9953   4.128   0.552   6.967
 3018SOL    HW2 9954   4.029   0.560   6.837
 3019SOL     OW 9955   3.121   6.537   0.923
 3019SOL    HW1 9956   3.187   6.473   0.886
 3019SOL    HW2 9957   3.162   6.628   0.927
 3020SOL     OW 9958   3.843   3.644   1.760
 3020SOL    HW1 9959   3.896   3.715   1.806
 3020SOL    HW2 9960   3.765   3.686   1.713
 3021SOL     OW 9961   1.554   1.859   6.724
 3021SOL    HW1 9962   1.620   1.934   6.718
 3021SOL    HW2 9963   1.462   1.896   6.735
 3022SOL     OW 9964   3.722   5.862   2.770
 3022SOL    HW1 9965   3.718   5.901   2.863
 3022SOL    HW2 9966   3.684   5.770   2.771
 3023SOL     OW 9967   3.486   6.069   3.424
 3023SOL    HW1 9968   3.514   6.103   3.334
 3023SOL    HW2 9969   3.400   6.018   3.415
 3024SOL     OW 9970   2.902   0.702   6.684
 3024SOL    HW1 9971   2.860   0.760   6.754
 3024SOL    HW2 9972   3.002   0.706   6.694
 3025SOL     OW 9973   2.925   3.217   0.884
 3025SOL    HW1 9974   2.894   3.311   0.872
 3025SOL    HW2 9975   2.899   3.163   0.804
 3026SOL     OW 9976   1.418   3.442   1.285
 3026SOL    HW1 9977   1.369   3.507   1.228
 3026SOL    HW2 9978   1.360   3.363   1.304
 3027SOL     OW 9979   4.012   0.819   2.366
 3027SOL    HW1 9980   3.921   0.791   2.395
 3027SOL    HW2 9981   4.037   0.769   2.283
 3028SOL     OW 9982   1.291   5.030   0.013
 3028SOL    HW1 9983   1.203   5.078   0.018
 3028SOL    HW2 9984   1.319   5.001   0.105
 3029SOL     OW 9985   6.138   4.607   5.472
 3029SOL    HW1 9986   6.214   4.670   5.455
 3029SOL    HW2 9987   6.081   4.603   5.390
 3030SOL     OW 9988   1.184   1.239   5.456
 3030SOL    HW1 9989   1.225   1.328   5.433
 3030SOL    HW2 9990   1.113   1.252   5.525
 3031SOL     OW 9991   0.789   3.628   0.661
 3031SOL    HW1 9992   0.819   3.723   0.664
 3031SOL    HW2 9993   0.869   3.568   0.654
 3032SOL     OW 9994   5.142   0.068   6.973
 3032SOL    HW1 9995   5.105   0.065   6.881
 3032SOL    HW2 9996   5.223   0.009   6.979
 3033SOL     OW 9997   0.757   3.194   0.343
 3033SOL    HW1 9998   0.698   3.221   0.267
 3033SOL    HW2 9999   0.704   3.190   0.427
 3034SOL     OW10000   2.201   6.748   3.455
 3034SOL    HW110001   2.152   6.702   3.529
 3034SOL    HW210002   2.260   6.683   3.408
 3035SOL     OW10003   6.494   1.351   0.674
 3035SOL    HW110004   6.437   1.416   0.623
 3035SOL    HW210005   6.590   1.371   0.656
 3036SOL     OW10006   1.453   3.793   6.998
 3036SOL    HW110007   1.485   3.791   6.903
 3036SOL    HW210008   1.467   3.703   0.019
 3037SOL     OW10009   5.841   5.647   4.524
 3037SOL    HW110010   5.862   5.569   4.467
 3037SOL    HW210011   5.917   5.712   4.523
 3038SOL     OW10012   5.380   6.699   6.265
 3038SOL    HW110013   5.345   6.644   6.340
 3038SOL    HW210014   5.444   6.767   6.301
 3039SOL     OW10015   6.433   4.617   2.678
 3039SOL    HW110016   6.482   4.638   2.762
 3039SOL    HW210017   6.446   4.691   2.612
 3040SOL     OW10018   3.804   4.059   6.265
 3040SOL    HW110019   3.877   4.118   6.231
 3040SOL    HW210020   3.725   4.115   6.289
 3041SOL     OW10021   1.932   3.199   5.886
 3041SOL    HW110022   1.894   3.124   5.832
 3041SOL    HW210023   1.857   3.250   5.928
 3042SOL     OW10024   4.964   0.464   2.260
 3042SOL    HW110025   4.919   0.553   2.259
 3042SOL    HW210026   5.054   0.471   2.216
 3043SOL     OW10027   0.415   5.582   0.443
 3043SOL    HW110028   0.381   5.630   0.524
 3043SOL    HW210029   0.427   5.485   0.465
 3044SOL     OW10030   3.481   4.806   5.535
 3044SOL    HW110031   3.382   4.817   5.530
 3044SOL    HW210032   3.503   4.732   5.600
 3045SOL     OW10033   5.369   0.707   2.628
 3045SOL    HW110034   5.323   0.692   2.715
 3045SOL    HW210035   5.359   0.626   2.570
 3046SOL     OW10036   0.826   3.344   5.365
 3046SOL    HW110037   0.857   3.257   5.327
 3046SOL    HW210038   0.878   3.419   5.325
 3047SOL     OW10039   5.411   4.997   1.391
 3047SOL    HW110040   5.416   4.959   1.483
 3047SOL    HW210041   5.492   4.969   1.339
 3048SOL     OW10042   4.575   3.519   1.332
 3048SOL    HW110043   4.612   3.542   1.421
 3048SOL    HW210044   4.498   3.455   1.343
 3049SOL     OW10045   0.911   0.214   1.525
 3049SOL    HW110046   0.981   0.277   1.558
 3049SOL    HW210047   0.867   0.170   1.603
 3050SOL     OW10048   3.261   6.773   3.599
 3050SOL    HW110049   3.179   6.829   3.600
 3050SOL    HW210050   3.236   6.676   3.604
 3051SOL     OW10051   2.480   4.576   6.472
 3051SOL    HW110052   2.543   4.500   6.486
 3051SOL    HW210053   2.464   4.623   6.559
 3052SOL     OW10054   3.657   0.235   3.058
 3052SOL    HW110055   3.704   0.161   3.107
 3052SOL    HW210056   3.700   0.249   2.969
 3053SOL     OW10057   5.781   0.531   6.986
 3053SOL    HW110058   5.755   0.507   6.892
 3053SOL    HW210059   5.811   0.626   6.989
 3054SOL     OW10060   6.890   2.923   0.015
 3054SOL    HW110061   6.891   2.971   0.103
 3054SOL    HW210062   6.822   2.849   0.018
 3055SOL     OW10063   5.247   0.106   3.759
 3055SOL    HW110064   5.236   0.179   3.826
 3055SOL    HW210065   5.158   0.081   3.721
 3056SOL     OW10066   6.253   0.149   0.235
 3056SOL    HW110067   6.154   0.138   0.244
 3056SOL    HW210068   6.278   0.140   0.138
 3057SOL     OW10069   4.951   5.473   2.417
 3057SOL    HW110070   5.004   5.456   2.335
 3057SOL    HW210071   4.879   5.540   2.398
 3058SOL     OW10072   6.511   5.881   1.178
 3058SOL    HW110073   6.452   5.940   1.234
 3058SOL    HW210074   6.463   5.857   1.093
 3059SOL     OW10075   0.952   3.149   5.183
 3059SOL    HW110076   1.051   3.143   5.195
 3059SOL    HW210077   0.932   3.212   5.108
 3060SOL     OW10078   0.752   0.041   0.328
 3060SOL    HW110079   0.818   0.116   0.316
 3060SOL    HW210080   0.660   0.079   0.330
 3061SOL     OW10081   0.317   0.700   5.097
 3061SOL    HW110082   0.333   0.785   5.148
 3061SOL    HW210083   0.397   0.640   5.108
 3062SOL     OW10084   2.335   6.627   1.852
 3062SOL    HW110085   2.396   6.644   1.928
 3062SOL    HW210086   2.363   6.682   1.773
 3063SOL     OW10087   2.105   4.910   2.086
 3063SOL    HW110088   2.192   4.949   2.057
 3063SOL    HW210089   2.121   4.842   2.158
 3064SOL     OW10090   5.728   3.429   3.949
 3064SOL    HW110091   5.692   3.484   4.024
 3064SOL    HW210092   5.774   3.489   3.883
 3065SOL     OW10093   1.998   0.772   6.549
 3065SOL    HW110094   2.064   0.748   6.478
 3065SOL    HW210095   1.941   0.693   6.570
 3066SOL     OW10096   5.776   4.441   0.234
 3066SOL    HW110097   5.760   4.343   0.246
 3066SOL    HW210098   5.708   4.493   0.284
 3067SOL     OW10099   3.827   0.785   5.053
 3067SOL    HW110100   3.769   0.865   5.073
 3067SOL    HW210101   3.856   0.788   4.958
 3068SOL     OW10102   5.960   5.878   0.848
 3068SOL    HW110103   5.863   5.866   0.870
 3068SOL    HW210104   6.016   5.844   0.923
 3069SOL     OW10105   0.403   5.384   1.958
 3069SOL    HW110106   0.331   5.335   2.007
 3069SOL    HW210107   0.370   5.474   1.931
 3070SOL     OW10108   2.154   1.309   3.086
 3070SOL    HW110109   2.236   1.270   3.129
 3070SOL    HW210110   2.179   1.350   2.998
 3071SOL     OW10111   6.072   0.321   3.703
 3071SOL    HW110112   6.054   0.325   3.605
 3071SOL    HW210113   5.989   0.346   3.753
 3072SOL     OW10114   0.791   6.716   1.862
 3072SOL    HW110115   0.888   6.692   1.857
 3072SOL    HW210116   0.769   6.783   1.791
 3073SOL     OW10117   0.546   3.546   5.211
 3073SOL    HW110118   0.520   3.450   5.207
 3073SOL    HW210119   0.640   3.557   5.178
 3074SOL     OW10120   4.691   2.978   0.237
 3074SOL    HW110121   4.602   2.934   0.223
 3074SOL    HW210122   4.692   3.067   0.192
 3075SOL     OW10123   1.626   6.768   1.463
 3075SOL    HW110124   1.714   6.774   1.416
 3075SOL    HW210125   1.576   6.854   1.453
 3076SOL     OW10126   6.393   0.534   4.737
 3076SOL    HW110127   6.330   0.563   4.665
 3076SOL    HW210128   6.487   0.560   4.711
 3077SOL     OW10129   5.684   4.875   3.711
 3077SOL    HW110130   5.632   4.905   3.791
 3077SOL    HW210131   5.743   4.949   3.680
 3078SOL     OW10132   2.034   3.693   2.063
 3078SOL    HW110133   1.978   3.648   2.132
 3078SOL    HW210134   2.079   3.624   2.006
 3079SOL     OW10135   1.462   2.756   5.064
 3079SOL    HW110136   1.446   2.725   5.158
 3079SOL    HW210137   1.558   2.746   5.041
 3080SOL     OW10138   6.170   4.855   1.383
 3080SOL    HW110139   6.121   4.940   1.365
 3080SOL    HW210140   6.238   4.840   1.311
 3081SOL     OW10141   0.255   4.449   6.032
 3081SOL    HW110142   0.332   4.387   6.048
 3081SOL    HW210143   0.289   4.542   6.018
 3082SOL     OW10144   3.737   6.895   3.431
 3082SOL    HW110145   3.644   6.883   3.466
 3082SOL    HW210146   3.802   6.889   3.507
 3083SOL     OW10147   3.396   0.186   2.682
 3083SOL    HW110148   3.374   0.104   2.629
 3083SOL    HW210149   3.484   0.222   2.652
 3084SOL     OW10150   4.380   4.550   4.013
 3084SOL    HW110151   4.446   4.479   3.989
 3084SOL    HW210152   4.423   4.640   4.005
 3085SOL     OW10153   6.928   4.674   3.245
 3085SOL    HW110154   6.992   4.626   3.305
 3085SOL    HW210155   6.834   4.646   3.267
 3086SOL     OW10156   4.208   0.999   1.892
 3086SOL    HW110157   4.132   1.042   1.940
 3086SOL    HW210158   4.263   1.069   1.846
 3087SOL     OW10159   6.546   4.493   3.484
 3087SOL    HW110160   6.635   4.465   3.520
 3087SOL    HW210161   6.523   4.438   3.404
 3088SOL     OW10162   2.546   5.102   5.324
 3088SOL    HW110163   2.551   5.192   5.368
 3088SOL    HW210164   2.596   5.035   5.378
 3089SOL     OW10165   1.377   3.046   0.270
 3089SOL    HW110166   1.324   2.976   0.221
 3089SOL    HW210167   1.316   3.099   0.328
 3090SOL     OW10168   1.715   1.352   1.348
 3090SOL    HW110169   1.801   1.340   1.299
 3090SOL    HW210170   1.674   1.440   1.323
 3091SOL     OW10171   3.417   0.063   0.318
 3091SOL    HW110172   3.416   7.019   0.394
 3091SOL    HW210173   3.367   0.145   0.344
 3092SOL     OW10174   5.596   6.587   0.073
 3092SOL    HW110175   5.597   6.676   0.027
 3092SOL    HW210176   5.615   6.600   0.170
 3093SOL     OW10177   5.839   5.126   5.789
 3093SOL    HW110178   5.857   5.147   5.693
 3093SOL    HW210179   5.778   5.047   5.796
 3094SOL     OW10180   2.851   6.134   4.847
 3094SOL    HW110181   2.800   6.178   4.773
 3094SOL    HW210182   2.829   6.178   4.934
 3095SOL     OW10183   2.633   4.669   4.609
 3095SOL    HW110184   2.567   4.594   4.600
 3095SOL    HW210185   2.666   4.673   4.703
 3096SOL     OW10186   6.663   0.510   4.663
 3096SOL    HW110187   6.671   0.461   4.750
 3096SOL    HW210188   6.738   0.575   4.655
 3097SOL     OW10189   0.640   2.630   0.905
 3097SOL    HW110190   0.606   2.708   0.958
 3097SOL    HW210191   0.714   2.661   0.844
 3098SOL     OW10192   2.756   3.269   1.322
 3098SOL    HW110193   2.797   3.242   1.235
 3098SOL    HW210194   2.675   3.212   1.339
 3099SOL     OW10195   6.889   5.681   4.376
 3099SOL    HW110196   6.846   5.593   4.395
 3099SOL    HW210197   6.904   5.731   4.461
 3100SOL     OW10198   6.884   0.115   4.948
 3100SOL    HW110199   6.928   0.070   5.026
 3100SOL    HW210200   6.951   0.172   4.900
 3101SOL     OW10201   4.858   5.877   5.154
 3101SOL    HW110202   4.790   5.880   5.228
 3101SOL    HW210203   4.946   5.910   5.188
 3102SOL     OW10204   0.997   4.359   1.225
 3102SOL    HW110205   0.981   4.440   1.282
 3102SOL    HW210206   0.929   4.356   1.152
 3103SOL     OW10207   3.567   2.423   0.724
 3103SOL    HW110208   3.483   2.369   0.730
 3103SOL    HW210209   3.580   2.454   0.630
 3104SOL     OW10210   5.639   5.864   4.150
 3104SOL    HW110211   5.653   5.913   4.064
 3104SOL    HW210212   5.676   5.918   4.225
 3105SOL     OW10213   5.634   5.837   3.485
 3105SOL    HW110214   5.698   5.898   3.438
 3105SOL    HW210215   5.674   5.809   3.572
 3106SOL     OW10216   6.366   2.090   2.297
 3106SOL    HW110217   6.432   2.160   2.271
 3106SOL    HW210218   6.308   2.125   2.371
 3107SOL     OW10219   3.434   0.604   4.119
 3107SOL    HW110220   3.437   0.523   4.177
 3107SOL    HW210221   3.489   0.677   4.160
 3108SOL     OW10222   1.616   0.937   4.611
 3108SOL    HW110223   1.631   0.964   4.706
 3108SOL    HW210224   1.618   1.018   4.553
 3109SOL     OW10225   5.184   5.993   2.495
 3109SOL    HW110226   5.185   6.061   2.569
 3109SOL    HW210227   5.275   5.952   2.487
 3110SOL     OW10228   0.269   2.786   3.838
 3110SOL    HW110229   0.355   2.768   3.886
 3110SOL    HW210230   0.261   2.884   3.819
 3111SOL     OW10231   6.150   5.350   3.958
 3111SOL    HW110232   6.166   5.387   4.049
 3111SOL    HW210233   6.192   5.410   3.890
 3112SOL     OW10234   4.559   2.654   6.075
 3112SOL    HW110235   4.614   2.723   6.028
 3112SOL    HW210236   4.487   2.621   6.014
 3113SOL     OW10237   2.505   0.143   4.018
 3113SOL    HW110238   2.433   0.103   3.961
 3113SOL    HW210239   2.504   0.099   4.108
 3114SOL     OW10240   5.232   3.789   6.648
 3114SOL    HW110241   5.318   3.738   6.642
 3114SOL    HW210242   5.252   3.887   6.643
 3115SOL     OW10243   3.814   4.020   0.512
 3115SOL    HW110244   3.775   4.021   0.419
 3115SOL    HW210245   3.796   3.931   0.554
 3116SOL     OW10246   6.610   2.393   6.665
 3116SOL    HW110247   6.699   2.375   6.707
 3116SOL    HW210248   6.614   2.373   6.567
 3117SOL     OW10249   4.417   3.385   5.498
 3117SOL    HW110250   4.507   3.343   5.494
 3117SOL    HW210251   4.400   3.435   5.413
 3118SOL     OW10252   6.516   4.505   6.837
 3118SOL    HW110253   6.531   4.596   6.876
 3118SOL    HW210254   6.515   4.512   6.737
 3119SOL     OW10255   2.077   4.303   5.405
 3119SOL    HW110256   1.995   4.354   5.377
 3119SOL    HW210257   2.150   4.317   5.338
 3120SOL     OW10258   2.294   5.852   4.548
 3120SOL    HW110259   2.200   5.863   4.517
 3120SOL    HW210260   2.333   5.942   4.566
 3121SOL     OW10261   0.726   1.625   1.886
 3121SOL    HW110262   0.684   1.534   1.881
 3121SOL    HW210263   0.750   1.657   1.795
 3122SOL     OW10264   2.988   5.306   6.373
 3122SOL    HW110265   2.903   5.334   6.328
 3122SOL    HW210266   3.032   5.235   6.318
 3123SOL     OW10267   3.243   6.243   3.749
 3123SOL    HW110268   3.159   6.193   3.729
 3123SOL    HW210269   3.321   6.181   3.740
 3124SOL     OW10270   4.784   0.420   5.338
 3124SOL    HW110271   4.797   0.517   5.359
 3124SOL    HW210272   4.835   0.365   5.403
 3125SOL     OW10273   6.291   1.975   5.588
 3125SOL    HW110274   6.288   2.031   5.506
 3125SOL    HW210275   6.238   2.019   5.661
 3126SOL     OW10276   5.443   4.589   5.931
 3126SOL    HW110277   5.409   4.591   6.025
 3126SOL    HW210278   5.377   4.634   5.870
 3127SOL     OW10279   1.091   1.635   3.447
 3127SOL    HW110280   1.161   1.610   3.514
 3127SOL    HW210281   1.057   1.553   3.402
 3128SOL     OW10282   1.598   0.696   0.299
 3128SOL    HW110283   1.625   0.734   0.210
 3128SOL    HW210284   1.580   0.598   0.289
 3129SOL     OW10285   0.632   3.881   5.594
 3129SOL    HW110286   0.548   3.826   5.596
 3129SOL    HW210287   0.608   3.978   5.593
 3130SOL     OW10288   2.584   4.637   2.624
 3130SOL    HW110289   2.638   4.638   2.709
 3130SOL    HW210290   2.642   4.667   2.548
 3131SOL     OW10291   0.914   3.089   3.175
 3131SOL    HW110292   0.993   3.031   3.156
 3131SOL    HW210293   0.912   3.113   3.272
 3132SOL     OW10294   5.468   5.816   5.174
 3132SOL    HW110295   5.423   5.744   5.226
 3132SOL    HW210296   5.410   5.898   5.173
 3133SOL     OW10297   2.211   1.940   4.214
 3133SOL    HW110298   2.130   1.991   4.185
 3133SOL    HW210299   2.183   1.850   4.246
 3134SOL     OW10300   4.904   3.210   1.417
 3134SOL    HW110301   4.867   3.222   1.509
 3134SOL    HW210302   4.940   3.118   1.407
 3135SOL     OW10303   4.258   1.987   4.285
 3135SOL    HW110304   4.304   1.952   4.203
 3135SOL    HW210305   4.323   2.043   4.337
 3136SOL     OW10306   5.727   5.915   6.349
 3136SOL    HW110307   5.710   5.936   6.445
 3136SOL    HW210308   5.707   5.995   6.293
 3137SOL     OW10309   5.082   1.616   4.085
 3137SOL    HW110310   4.998   1.569   4.058
 3137SOL    HW210311   5.138   1.633   4.005
 3138SOL     OW10312   6.173   1.698   4.787
 3138SOL    HW110313   6.218   1.772   4.736
 3138SOL    HW210314   6.099   1.736   4.842
 3139SOL     OW10315   5.039   6.579   5.719
 3139SOL    HW110316   5.116   6.518   5.700
 3139SOL    HW210317   5.004   6.617   5.633
 3140SOL     OW10318   6.706   6.541   6.443
 3140SOL    HW110319   6.648   6.611   6.400
 3140SOL    HW210320   6.798   6.547   6.406
 3141SOL     OW10321   0.418   6.353   6.870
 3141SOL    HW110322   0.397   6.442   6.910
 3141SOL    HW210323   0.456   6.294   6.941
 3142SOL     OW10324   4.948   5.873   0.084
 3142SOL    HW110325   5.021   5.840   0.025
 3142SOL    HW210326   4.903   5.796   0.129
 3143SOL     OW10327   6.786   1.920   0.153
 3143SOL    HW110328   6.884   1.940   0.152
 3143SOL    HW210329   6.738   1.988   0.208
 3144SOL     OW10330   1.756   3.513   0.915
 3144SOL    HW110331   1.703   3.461   0.982
 3144SOL    HW210332   1.840   3.547   0.957
 3145SOL     OW10333   3.025   5.736   2.876
 3145SOL    HW110334   2.994   5.826   2.846
 3145SOL    HW210335   2.948   5.687   2.919
 3146SOL     OW10336   1.608   0.094   3.483
 3146SOL    HW110337   1.623   0.187   3.514
 3146SOL    HW210338   1.560   0.095   3.395
 3147SOL     OW10339   4.364   4.956   0.904
 3147SOL    HW110340   4.419   4.991   0.979
 3147SOL    HW210341   4.421   4.947   0.822
 3148SOL     OW10342   3.944   5.189   3.906
 3148SOL    HW110343   3.895   5.265   3.949
 3148SOL    HW210344   4.040   5.192   3.933
 3149SOL     OW10345   2.928   0.365   5.502
 3149SOL    HW110346   2.887   0.274   5.505
 3149SOL    HW210347   2.900   0.417   5.583
 3150SOL     OW10348   5.056   6.941   5.198
 3150SOL    HW110349   5.052   6.893   5.110
 3150SOL    HW210350   5.114   6.890   5.261
 3151SOL     OW10351   4.931   1.298   6.642
 3151SOL    HW110352   4.863   1.251   6.585
 3151SOL    HW210353   5.020   1.295   6.596
 3152SOL     OW10354   0.612   5.395   1.463
 3152SOL    HW110355   0.679   5.454   1.508
 3152SOL    HW210356   0.603   5.310   1.514
 3153SOL     OW10357   6.379   3.964   1.585
 3153SOL    HW110358   6.291   3.968   1.634
 3153SOL    HW210359   6.395   4.050   1.538
 3154SOL     OW10360   6.734   2.295   6.426
 3154SOL    HW110361   6.828   2.284   6.394
 3154SOL    HW210362   6.683   2.211   6.408
 3155SOL     OW10363   6.455   5.313   0.830
 3155SOL    HW110364   6.373   5.325   0.774
 3155SOL    HW210365   6.447   5.228   0.882
 3156SOL     OW10366   3.614   4.093   3.139
 3156SOL    HW110367   3.704   4.077   3.180
 3156SOL    HW210368   3.616   4.065   3.043
 3157SOL     OW10369   2.098   3.471   4.828
 3157SOL    HW110370   2.078   3.382   4.868
 3157SOL    HW210371   2.179   3.465   4.770
 3158SOL     OW10372   4.889   6.608   1.793
 3158SOL    HW110373   4.898   6.598   1.892
 3158SOL    HW210374   4.966   6.661   1.757
 3159SOL     OW10375   5.035   5.498   5.793
 3159SOL    HW110376   4.936   5.511   5.785
 3159SOL    HW210377   5.076   5.581   5.830
 3160SOL     OW10378   5.087   3.700   6.078
 3160SOL    HW110379   5.168   3.728   6.026
 3160SOL    HW210380   5.092   3.602   6.098
 3161SOL     OW10381   1.565   1.009   2.803
 3161SOL    HW110382   1.556   1.102   2.766
 3161SOL    HW210383   1.618   1.012   2.888
 3162SOL     OW10384   0.355   5.536   6.907
 3162SOL    HW110385   0.394   5.617   6.864
 3162SOL    HW210386   0.339   5.555   7.004
 3163SOL     OW10387   3.816   2.955   6.722
 3163SOL    HW110388   3.856   2.985   6.635
 3163SOL    HW210389   3.754   3.026   6.756
 3164SOL     OW10390   5.245   4.268   0.737
 3164SOL    HW110391   5.325   4.211   0.718
 3164SOL    HW210392   5.244   4.291   0.834
 3165SOL     OW10393   0.729   7.000   2.070
 3165SOL    HW110394   0.634   6.970   2.055
 3165SOL    HW210395   0.765   6.958   2.152
 3166SOL     OW10396   4.781   2.791   5.938
 3166SOL    HW110397   4.854   2.756   5.879
 3166SOL    HW210398   4.820   2.849   6.009
 3167SOL     OW10399   0.150   4.304   1.809
 3167SOL    HW110400   0.247   4.315   1.827
 3167SOL    HW210401   0.136   4.275   1.714
 3168SOL     OW10402   5.239   2.824   0.646
 3168SOL    HW110403   5.268   2.761   0.717
 3168SOL    HW210404   5.248   2.918   0.680
 3169SOL     OW10405   0.890   2.538   5.804
 3169SOL    HW110406   0.801   2.564   5.768
 3169SOL    HW210407   0.884   2.448   5.848
 3170SOL     OW10408   4.584   0.667   6.405
 3170SOL    HW110409   4.495   0.624   6.392
 3170SOL    HW210410   4.585   0.756   6.361
 3171SOL     OW10411   6.749   0.310   1.968
 3171SOL    HW110412   6.678   0.375   1.996
 3171SOL    HW210413   6.781   0.333   1.876
 3172SOL     OW10414   6.240   6.861   4.721
 3172SOL    HW110415   6.224   6.960   4.719
 3172SOL    HW210416   6.278   6.836   4.810
 3173SOL     OW10417   2.554   0.333   2.053
 3173SOL    HW110418   2.548   0.410   2.117
 3173SOL    HW210419   2.540   0.247   2.102
 3174SOL     OW10420   3.144   2.795   5.691
 3174SOL    HW110421   3.119   2.884   5.654
 3174SOL    HW210422   3.087   2.724   5.650
 3175SOL     OW10423   1.092   6.345   0.337
 3175SOL    HW110424   1.119   6.407   0.410
 3175SOL    HW210425   1.167   6.281   0.319
 3176SOL     OW10426   1.404   4.131   6.441
 3176SOL    HW110427   1.435   4.131   6.536
 3176SOL    HW210428   1.482   4.152   6.381
 3177SOL     OW10429   5.313   5.049   5.552
 3177SOL    HW110430   5.268   5.107   5.620
 3177SOL    HW210431   5.245   5.008   5.492
 3178SOL     OW10432   0.343   4.500   2.264
 3178SOL    HW110433   0.422   4.558   2.243
 3178SOL    HW210434   0.345   4.474   2.360
 3179SOL     OW10435   1.773   2.074   2.090
 3179SOL    HW110436   1.871   2.091   2.081
 3179SOL    HW210437   1.723   2.154   2.058
 3180SOL     OW10438   5.628   6.974   5.724
 3180SOL    HW110439   5.571   6.976   5.642
 3180SOL    HW210440   5.722   6.998   5.699
 3181SOL     OW10441   0.751   1.322   3.662
 3181SOL    HW110442   0.776   1.336   3.566
 3181SOL    HW210443   0.654   1.342   3.675
 3182SOL     OW10444   0.660   5.809   5.451
 3182SOL    HW110445   0.604   5.730   5.479
 3182SOL    HW210446   0.755   5.794   5.480
 3183SOL     OW10447   4.592   5.126   1.963
 3183SOL    HW110448   4.573   5.163   2.054
 3183SOL    HW210449   4.584   5.026   1.965
 3184SOL     OW10450   2.523   1.995   3.021
 3184SOL    HW110451   2.520   2.026   2.926
 3184SOL    HW210452   2.607   1.943   3.037
 3185SOL     OW10453   0.267   6.575   5.160
 3185SOL    HW110454   0.244   6.570   5.258
 3185SOL    HW210455   0.367   6.569   5.150
 3186SOL     OW10456   3.567   1.020   3.089
 3186SOL    HW110457   3.597   1.078   3.013
 3186SOL    HW210458   3.639   0.954   3.111
 3187SOL     OW10459   3.237   4.809   6.934
 3187SOL    HW110460   3.159   4.790   6.874
 3187SOL    HW210461   3.302   4.733   6.929
 3188SOL     OW10462   3.289   5.577   2.922
 3188SOL    HW110463   3.237   5.654   2.885
 3188SOL    HW210464   3.226   5.509   2.959
 3189SOL     OW10465   1.056   0.401   3.503
 3189SOL    HW110466   0.961   0.425   3.483
 3189SOL    HW210467   1.103   0.378   3.418
 3190SOL     OW10468   1.475   5.918   1.781
 3190SOL    HW110469   1.394   5.900   1.726
 3190SOL    HW210470   1.507   6.011   1.764
 3191SOL     OW10471   4.196   0.350   0.611
 3191SOL    HW110472   4.233   0.426   0.557
 3191SOL    HW210473   4.099   0.368   0.631
 3192SOL     OW10474   0.631   2.574   2.189
 3192SOL    HW110475   0.718   2.599   2.147
 3192SOL    HW210476   0.648   2.513   2.266
 3193SOL     OW10477   4.472   1.772   6.179
 3193SOL    HW110478   4.539   1.752   6.108
 3193SOL    HW210479   4.519   1.795   6.264
 3194SOL     OW10480   1.344   3.330   6.052
 3194SOL    HW110481   1.283   3.299   5.979
 3194SOL    HW210482   1.390   3.414   6.022
 3195SOL     OW10483   1.314   2.971   3.817
 3195SOL    HW110484   1.399   3.022   3.822
 3195SOL    HW210485   1.330   2.881   3.777
 3196SOL     OW10486   0.317   0.404   4.809
 3196SOL    HW110487   0.277   0.362   4.890
 3196SOL    HW210488   0.300   0.503   4.811
 3197SOL     OW10489   1.282   5.093   3.715
 3197SOL    HW110490   1.368   5.135   3.685
 3197SOL    HW210491   1.252   5.136   3.800
 3198SOL     OW10492   7.000   1.966   6.418
 3198SOL    HW110493   0.042   1.991   6.491
 3198SOL    HW210494   0.028   1.919   6.345
 3199SOL     OW10495   4.478   1.792   2.323
 3199SOL    HW110496   4.521   1.747   2.244
 3199SOL    HW210497   4.497   1.738   2.405
 3200SOL     OW10498   6.466   2.316   0.487
 3200SOL    HW110499   6.484   2.222   0.515
 3200SOL    HW210500   6.440   2.318   0.391
 3201SOL     OW10501   5.293   3.759   3.760
 3201SOL    HW110502   5.283   3.766   3.661
 3201SOL    HW210503   5.244   3.678   3.793
 3202SOL     OW10504   1.998   4.915   2.371
 3202SOL    HW110505   1.939   4.882   2.444
 3202SOL    HW210506   2.071   4.849   2.355
 3203SOL     OW10507   0.010   0.857   1.184
 3203SOL    HW110508   6.955   0.792   1.188
 3203SOL    HW210509   7.014   0.931   1.249
 3204SOL     OW10510   6.830   5.290   1.894
 3204SOL    HW110511   6.843   5.192   1.909
 3204SOL    HW210512   6.874   5.341   1.968
 3205SOL     OW10513   7.006   3.594   5.207
 3205SOL    HW110514   6.951   3.574   5.126
 3205SOL    HW210515   0.017   3.688   5.203
 3206SOL     OW10516   1.317   6.649   5.716
 3206SOL    HW110517   1.366   6.566   5.689
 3206SOL    HW210518   1.327   6.719   5.646
 3207SOL     OW10519   0.965   1.406   4.940
 3207SOL    HW110520   1.019   1.371   5.016
 3207SOL    HW210521   0.998   1.367   4.854
 3208SOL     OW10522   4.657   5.666   5.317
 3208SOL    HW110523   4.666   5.765   5.330
 3208SOL    HW210524   4.655   5.621   5.407
 3209SOL     OW10525   2.540   0.448   4.083
 3209SOL    HW110526   2.468   0.390   4.122
 3209SOL    HW210527   2.615   0.456   4.148
 3210SOL     OW10528   6.536   4.099   2.884
 3210SOL    HW110529   6.479   4.181   2.884
 3210SOL    HW210530   6.602   4.103   2.809
 3211SOL     OW10531   2.277   4.545   1.421
 3211SOL    HW110532   2.192   4.593   1.442
 3211SOL    HW210533   2.282   4.525   1.323
 3212SOL     OW10534   5.082   2.275   6.735
 3212SOL    HW110535   5.108   2.352   6.677
 3212SOL    HW210536   5.136   2.278   6.819
 3213SOL     OW10537   5.506   5.449   2.776
 3213SOL    HW110538   5.522   5.531   2.831
 3213SOL    HW210539   5.592   5.419   2.735
 3214SOL     OW10540   4.253   5.721   6.745
 3214SOL    HW110541   4.294   5.727   6.654
 3214SOL    HW210542   4.161   5.682   6.737
 3215SOL     OW10543   6.092   2.682   6.422
 3215SOL    HW110544   6.023   2.610   6.423
 3215SOL    HW210545   6.068   2.750   6.352
 3216SOL     OW10546   5.464   6.878   2.903
 3216SOL    HW110547   5.462   6.975   2.878
 3216SOL    HW210548   5.547   6.858   2.954
 3217SOL     OW10549   6.893   4.730   2.195
 3217SOL    HW110550   6.874   4.752   2.099
 3217SOL    HW210551   6.990   4.714   2.207
 3218SOL     OW10552   4.000   0.514   3.591
 3218SOL    HW110553   4.006   0.418   3.564
 3218SOL    HW210554   4.040   0.572   3.520
 3219SOL     OW10555   0.350   0.675   3.282
 3219SOL    HW110556   0.292   0.689   3.202
 3219SOL    HW210557   0.442   0.649   3.251
 3220SOL     OW10558   0.161   4.543   5.112
 3220SOL    HW110559   0.126   4.495   5.032
 3220SOL    HW210560   0.190   4.635   5.087
 3221SOL     OW10561   2.849   0.145   3.711
 3221SOL    HW110562   2.818   0.141   3.806
 3221SOL    HW210563   2.901   0.062   3.689
 3222SOL     OW10564   6.033   2.513   3.161
 3222SOL    HW110565   6.025   2.594   3.102
 3222SOL    HW210566   6.005   2.537   3.254
 3223SOL     OW10567   2.183   4.943   6.166
 3223SOL    HW110568   2.083   4.949   6.163
 3223SOL    HW210569   2.210   4.880   6.239
 3224SOL     OW10570   4.395   4.791   0.542
 3224SOL    HW110571   4.448   4.864   0.585
 3224SOL    HW210572   4.450   4.708   0.537
 3225SOL     OW10573   2.797   3.396   0.574
 3225SOL    HW110574   2.801   3.451   0.491
 3225SOL    HW210575   2.835   3.448   0.650
 3226SOL     OW10576   1.496   0.671   3.892
 3226SOL    HW110577   1.482   0.586   3.942
 3226SOL    HW210578   1.409   0.703   3.855
 3227SOL     OW10579   3.304   1.035   5.545
 3227SOL    HW110580   3.218   1.017   5.593
 3227SOL    HW210581   3.318   1.133   5.537
 3228SOL     OW10582   5.296   3.671   4.395
 3228SOL    HW110583   5.244   3.592   4.428
 3228SOL    HW210584   5.330   3.654   4.303
 3229SOL     OW10585   4.301   1.599   5.377
 3229SOL    HW110586   4.271   1.535   5.306
 3229SOL    HW210587   4.285   1.559   5.467
 3230SOL     OW10588   0.677   0.541   3.802
 3230SOL    HW110589   0.749   0.593   3.848
 3230SOL    HW210590   0.590   0.591   3.809
 3231SOL     OW10591   6.201   6.277   0.857
 3231SOL    HW110592   6.184   6.282   0.956
 3231SOL    HW210593   6.126   6.228   0.813
 3232SOL     OW10594   2.933   4.767   4.517
 3232SOL    HW110595   2.975   4.738   4.603
 3232SOL    HW210596   2.843   4.806   4.536
 3233SOL     OW10597   0.719   4.130   1.254
 3233SOL    HW110598   0.815   4.115   1.228
 3233SOL    HW210599   0.666   4.047   1.236
 3234SOL     OW10600   0.146   1.722   6.616
 3234SOL    HW110601   0.240   1.699   6.642
 3234SOL    HW210602   0.147   1.781   6.535
 3235SOL     OW10603   5.307   6.719   2.394
 3235SOL    HW110604   5.264   6.725   2.484
 3235SOL    HW210605   5.255   6.655   2.337
 3236SOL     OW10606   1.082   3.152   2.687
 3236SOL    HW110607   1.087   3.187   2.781
 3236SOL    HW210608   1.152   3.082   2.674
 3237SOL     OW10609   3.051   0.229   4.949
 3237SOL    HW110610   2.957   0.228   4.913
 3237SOL    HW210611   3.082   0.135   4.961
 3238SOL     OW10612   0.435   6.286   6.198
 3238SOL    HW110613   0.467   6.193   6.179
 3238SOL    HW210614   0.472   6.316   6.286
 3239SOL     OW10615   6.847   0.287   5.221
 3239SOL    HW110616   6.755   0.269   5.188
 3239SOL    HW210617   6.898   0.201   5.229
 3240SOL     OW10618   1.755   0.545   4.763
 3240SOL    HW110619   1.764   0.529   4.665
 3240SOL    HW210620   1.662   0.573   4.785
 3241SOL     OW10621   4.889   1.099   4.049
 3241SOL    HW110622   4.973   1.046   4.060
 3241SOL    HW210623   4.821   1.044   4.001
 3242SOL     OW10624   3.980   6.473   6.980
 3242SOL    HW110625   4.021   6.479   0.050
 3242SOL    HW210626   3.896   6.418   6.986
 3243SOL     OW10627   4.453   5.152   1.085
 3243SOL    HW110628   4.366   5.196   1.062
 3243SOL    HW210629   4.526   5.220   1.084
 3244SOL     OW10630   3.096   6.359   6.429
 3244SOL    HW110631   3.062   6.282   6.483
 3244SOL    HW210632   3.106   6.439   6.488
 3245SOL     OW10633   3.676   2.338   6.748
 3245SOL    HW110634   3.733   2.417   6.727
 3245SOL    HW210635   3.601   2.332   6.682
 3246SOL     OW10636   5.342   6.272   2.889
 3246SOL    HW110637   5.294   6.259   2.802
 3246SOL    HW210638   5.374   6.366   2.896
 3247SOL     OW10639   0.759   2.426   4.029
 3247SOL    HW110640   0.766   2.373   3.944
 3247SOL    HW210641   0.849   2.461   4.054
 3248SOL     OW10642   6.274   3.411   1.411
 3248SOL    HW110643   6.263   3.333   1.350
 3248SOL    HW210644   6.205   3.480   1.391
 3249SOL     OW10645   2.591   4.765   4.965
 3249SOL    HW110646   2.520   4.698   4.943
 3249SOL    HW210647   2.650   4.729   5.037
 3250SOL     OW10648   4.817   6.282   2.529
 3250SOL    HW110649   4.803   6.306   2.433
 3250SOL    HW210650   4.783   6.357   2.587
 3251SOL     OW10651   3.593   2.136   3.062
 3251SOL    HW110652   3.598   2.098   2.970
 3251SOL    HW210653   3.509   2.188   3.073
 3252SOL     OW10654   3.245   0.898   2.654
 3252SOL    HW110655   3.296   0.904   2.740
 3252SOL    HW210656   3.302   0.856   2.584
 3253SOL     OW10657   5.014   3.129   0.941
 3253SOL    HW110658   5.049   3.086   1.023
 3253SOL    HW210659   5.076   3.113   0.864
 3254SOL     OW10660   4.651   4.325   3.174
 3254SOL    HW110661   4.581   4.333   3.103
 3254SOL    HW210662   4.609   4.337   3.263
 3255SOL     OW10663   4.854   5.307   0.325
 3255SOL    HW110664   4.785   5.273   0.261
 3255SOL    HW210665   4.904   5.382   0.284
 3256SOL     OW10666   5.350   6.551   5.737
 3256SOL    HW110667   5.314   6.640   5.763
 3256SOL    HW210668   5.376   6.500   5.819
 3257SOL     OW10669   1.713   2.493   1.290
 3257SOL    HW110670   1.638   2.462   1.232
 3257SOL    HW210671   1.692   2.474   1.386
 3258SOL     OW10672   5.505   6.648   1.935
 3258SOL    HW110673   5.417   6.601   1.935
 3258SOL    HW210674   5.502   6.726   1.873
 3259SOL     OW10675   4.150   6.560   4.047
 3259SOL    HW110676   4.058   6.555   4.008
 3259SOL    HW210677   4.161   6.488   4.115
 3260SOL     OW10678   2.188   2.433   6.941
 3260SOL    HW110679   2.139   2.357   6.897
 3260SOL    HW210680   2.194   2.509   6.877
 3261SOL     OW10681   4.204   0.049   1.083
 3261SOL    HW110682   4.164   0.071   0.994
 3261SOL    HW210683   4.191   0.127   1.145
 3262SOL     OW10684   3.956   1.848   3.110
 3262SOL    HW110685   3.929   1.831   3.205
 3262SOL    HW210686   3.953   1.946   3.092
 3263SOL     OW10687   4.384   6.594   1.425
 3263SOL    HW110688   4.366   6.517   1.486
 3263SOL    HW210689   4.476   6.585   1.387
 3264SOL     OW10690   6.513   4.807   7.004
 3264SOL    HW110691   6.517   4.745   0.061
 3264SOL    HW210692   6.514   4.901   0.014
 3265SOL     OW10693   5.078   0.319   6.047
 3265SOL    HW110694   5.136   0.400   6.039
 3265SOL    HW210695   5.117   0.257   6.114
 3266SOL     OW10696   0.966   1.349   6.075
 3266SOL    HW110697   0.968   1.355   5.975
 3266SOL    HW210698   0.872   1.334   6.105
 3267SOL     OW10699   3.366   1.755   0.746
 3267SOL    HW110700   3.461   1.753   0.776
 3267SOL    HW210701   3.321   1.669   0.772
 3268SOL     OW10702   1.251   4.468   5.979
 3268SOL    HW110703   1.250   4.562   6.014
 3268SOL    HW210704   1.305   4.410   6.040
 3269SOL     OW10705   4.299   4.329   1.445
 3269SOL    HW110706   4.363   4.387   1.396
 3269SOL    HW210707   4.331   4.234   1.442
 3270SOL     OW10708   0.671   6.209   4.414
 3270SOL    HW110709   0.754   6.205   4.470
 3270SOL    HW210710   0.692   6.178   4.321
 3271SOL     OW10711   5.898   1.696   1.369
 3271SOL    HW110712   5.845   1.624   1.415
 3271SOL    HW210713   5.849   1.726   1.287
 3272SOL     OW10714   4.443   0.116   0.450
 3272SOL    HW110715   4.473   0.170   0.528
 3272SOL    HW210716   4.353   0.077   0.469
 3273SOL     OW10717   0.099   6.556   2.179
 3273SOL    HW110718   0.198   6.559   2.165
 3273SOL    HW210719   0.057   6.636   2.136
 3274SOL     OW10720   3.099   1.962   5.824
 3274SOL    HW110721   3.146   2.043   5.788
 3274SOL    HW210722   3.080   1.898   5.749
 3275SOL     OW10723   2.516   0.308   6.739
 3275SOL    HW110724   2.613   0.286   6.726
 3275SOL    HW210725   2.466   0.289   6.654
 3276SOL     OW10726   3.300   6.413   0.190
 3276SOL    HW110727   3.367   6.389   0.260
 3276SOL    HW210728   3.208   6.406   0.229
 3277SOL     OW10729   0.205   6.268   5.074
 3277SOL    HW110730   0.172   6.187   5.026
 3277SOL    HW210731   0.292   6.297   5.033
 3278SOL     OW10732   1.295   0.688   6.102
 3278SOL    HW110733   1.367   0.628   6.135
 3278SOL    HW210734   1.335   0.773   6.068
 3279SOL     OW10735   1.145   6.996   1.108
 3279SOL    HW110736   1.218   0.018   1.160
 3279SOL    HW210737   1.056   0.004   1.144
 3280SOL     OW10738   2.013   4.554   5.651
 3280SOL    HW110739   2.067   4.609   5.715
 3280SOL    HW210740   2.061   4.467   5.634
 3281SOL     OW10741   2.393   5.326   0.910
 3281SOL    HW110742   2.377   5.377   0.994
 3281SOL    HW210743   2.484   5.349   0.873
 3282SOL     OW10744   2.695   5.316   3.423
 3282SOL    HW110745   2.732   5.226   3.444
 3282SOL    HW210746   2.673   5.322   3.326
 3283SOL     OW10747   2.390   0.980   3.776
 3283SOL    HW110748   2.397   1.078   3.761
 3283SOL    HW210749   2.393   0.932   3.688
 3284SOL     OW10750   0.346   4.961   6.928
 3284SOL    HW110751   0.317   4.876   6.886
 3284SOL    HW210752   0.266   5.014   6.957
 3285SOL     OW10753   0.862   1.641   3.701
 3285SOL    HW110754   0.834   1.642   3.797
 3285SOL    HW210755   0.882   1.546   3.674
 3286SOL     OW10756   3.560   3.521   4.616
 3286SOL    HW110757   3.601   3.483   4.699
 3286SOL    HW210758   3.598   3.612   4.599
 3287SOL     OW10759   1.667   5.197   0.793
 3287SOL    HW110760   1.605   5.257   0.743
 3287SOL    HW210761   1.701   5.244   0.875
 3288SOL     OW10762   0.524   6.042   6.053
 3288SOL    HW110763   0.517   5.942   6.051
 3288SOL    HW210764   0.600   6.069   6.113
 3289SOL     OW10765   1.514   6.419   4.673
 3289SOL    HW110766   1.486   6.508   4.638
 3289SOL    HW210767   1.551   6.429   4.765
 3290SOL     OW10768   6.702   4.866   1.165
 3290SOL    HW110769   6.741   4.841   1.076
 3290SOL    HW210770   6.763   4.835   1.238
 3291SOL     OW10771   1.561   6.512   0.520
 3291SOL    HW110772   1.648   6.543   0.480
 3291SOL    HW210773   1.571   6.504   0.619
 3292SOL     OW10774   0.142   6.650   5.410
 3292SOL    HW110775   0.128   6.608   5.499
 3292SOL    HW210776   0.062   6.633   5.352
 3293SOL     OW10777   6.952   1.188   2.458
 3293SOL    HW110778   6.937   1.273   2.509
 3293SOL    HW210779   0.005   1.201   2.393
 3294SOL     OW10780   0.009   0.672   0.134
 3294SOL    HW110781   0.041   0.710   0.047
 3294SOL    HW210782   0.060   0.713   0.209
 3295SOL     OW10783   1.979   2.927   0.228
 3295SOL    HW110784   1.974   3.027   0.224
 3295SOL    HW210785   1.966   2.889   0.137
 3296SOL     OW10786   1.995   0.107   2.475
 3296SOL    HW110787   1.911   0.057   2.493
 3296SOL    HW210788   2.067   0.042   2.450
 3297SOL     OW10789   2.927   2.326   6.504
 3297SOL    HW110790   3.011   2.332   6.557
 3297SOL    HW210791   2.940   2.366   6.414
 3298SOL     OW10792   6.469   2.889   2.739
 3298SOL    HW110793   6.399   2.830   2.779
 3298SOL    HW210794   6.546   2.896   2.803
 3299SOL     OW10795   2.050   6.874   4.895
 3299SOL    HW110796   2.021   6.783   4.865
 3299SOL    HW210797   1.970   6.930   4.916
 3300SOL     OW10798   6.258   6.410   4.269
 3300SOL    HW110799   6.170   6.411   4.318
 3300SOL    HW210800   6.331   6.438   4.332
 3301SOL     OW10801   0.587   3.621   3.200
 3301SOL    HW110802   0.531   3.695   3.239
 3301SOL    HW210803   0.636   3.656   3.120
 3302SOL     OW10804   1.010   5.021   4.220
 3302SOL    HW110805   1.080   4.956   4.248
 3302SOL    HW210806   0.920   4.988   4.249
 3303SOL     OW10807   3.814   3.673   3.472
 3303SOL    HW110808   3.793   3.747   3.409
 3303SOL    HW210809   3.758   3.683   3.555
 3304SOL     OW10810   0.189   6.558   4.508
 3304SOL    HW110811   0.157   6.464   4.504
 3304SOL    HW210812   0.118   6.619   4.472
 3305SOL     OW10813   2.284   1.274   2.368
 3305SOL    HW110814   2.329   1.240   2.450
 3305SOL    HW210815   2.312   1.218   2.289
 3306SOL     OW10816   1.488   3.966   3.371
 3306SOL    HW110817   1.557   3.893   3.371
 3306SOL    HW210818   1.523   4.045   3.321
 3307SOL     OW10819   6.903   5.934   6.708
 3307SOL    HW110820   6.917   6.023   6.751
 3307SOL    HW210821   6.964   5.925   6.629
 3308SOL     OW10822   4.840   5.941   0.674
 3308SOL    HW110823   4.751   5.895   0.672
 3308SOL    HW210824   4.891   5.912   0.755
 3309SOL     OW10825   0.066   4.544   2.989
 3309SOL    HW110826   0.164   4.549   3.012
 3309SOL    HW210827   0.027   4.636   2.990
 3310SOL     OW10828   1.089   5.470   2.206
 3310SOL    HW110829   1.158   5.507   2.144
 3310SOL    HW210830   1.109   5.500   2.299
 3311SOL     OW10831   4.537   6.588   0.829
 3311SOL    HW110832   4.538   6.501   0.780
 3311SOL    HW210833   4.477   6.652   0.781
 3312SOL     OW10834   3.391   3.647   6.914
 3312SOL    HW110835   3.331   3.727   6.906
 3312SOL    HW210836   3.479   3.676   6.952
 3313SOL     OW10837   6.846   5.535   4.040
 3313SOL    HW110838   6.765   5.476   4.038
 3313SOL    HW210839   6.923   5.484   4.077
 3314SOL     OW10840   1.209   3.193   5.475
 3314SOL    HW110841   1.265   3.274   5.493
 3314SOL    HW210842   1.218   3.167   5.379
 3315SOL     OW10843   0.069   2.248   3.810
 3315SOL    HW110844   0.159   2.289   3.826
 3315SOL    HW210845   0.035   2.209   3.896
 3316SOL     OW10846   4.737   1.814   6.631
 3316SOL    HW110847   4.740   1.848   6.725
 3316SOL    HW210848   4.810   1.748   6.616
 3317SOL     OW10849   4.482   2.849   0.791
 3317SOL    HW110850   4.505   2.840   0.694
 3317SOL    HW210851   4.521   2.772   0.841
 3318SOL     OW10852   2.594   5.548   5.740
 3318SOL    HW110853   2.586   5.448   5.735
 3318SOL    HW210854   2.688   5.573   5.762
 3319SOL     OW10855   0.323   5.845   5.176
 3319SOL    HW110856   0.390   5.855   5.103
 3319SOL    HW210857   0.369   5.858   5.264
 3320SOL     OW10858   6.480   1.016   5.990
 3320SOL    HW110859   6.562   0.959   5.983
 3320SOL    HW210860   6.507   1.110   6.011
 3321SOL     OW10861   3.521   3.544   3.214
 3321SOL    HW110862   3.524   3.643   3.197
 3321SOL    HW210863   3.599   3.500   3.169
 3322SOL     OW10864   3.615   1.493   0.579
 3322SOL    HW110865   3.649   1.579   0.541
 3322SOL    HW210866   3.686   1.453   0.638
 3323SOL     OW10867   2.321   4.975   0.291
 3323SOL    HW110868   2.321   5.050   0.357
 3323SOL    HW210869   2.228   4.958   0.259
 3324SOL     OW10870   1.425   2.714   0.857
 3324SOL    HW110871   1.431   2.762   0.769
 3324SOL    HW210872   1.417   2.616   0.841
 3325SOL     OW10873   1.287   2.748   1.371
 3325SOL    HW110874   1.272   2.845   1.351
 3325SOL    HW210875   1.201   2.698   1.360
 3326SOL     OW10876   6.068   1.598   1.181
 3326SOL    HW110877   6.017   1.642   1.256
 3326SOL    HW210878   6.004   1.551   1.120
 3327SOL     OW10879   2.974   6.713   2.383
 3327SOL    HW110880   2.946   6.658   2.305
 3327SOL    HW210881   3.051   6.670   2.429
 3328SOL     OW10882   4.483   1.068   2.023
 3328SOL    HW110883   4.439   1.054   2.112
 3328SOL    HW210884   4.536   0.987   1.999
 3329SOL     OW10885   4.810   6.990   5.557
 3329SOL    HW110886   4.903   6.995   5.595
 3329SOL    HW210887   4.757   6.922   5.609
 3330SOL     OW10888   6.549   5.948   2.560
 3330SOL    HW110889   6.484   6.023   2.574
 3330SOL    HW210890   6.525   5.872   2.619
 3331SOL     OW10891   2.045   3.402   2.703
 3331SOL    HW110892   1.955   3.445   2.701
 3331SOL    HW210893   2.052   3.343   2.784
 3332SOL     OW10894   4.295   5.544   1.041
 3332SOL    HW110895   4.358   5.534   0.965
 3332SOL    HW210896   4.279   5.454   1.083
 3333SOL     OW10897   3.949   3.692   1.498
 3333SOL    HW110898   3.907   3.619   1.552
 3333SOL    HW210899   4.026   3.730   1.549
 3334SOL     OW10900   1.643   2.252   2.936
 3334SOL    HW110901   1.673   2.206   2.853
 3334SOL    HW210902   1.712   2.320   2.964
 3335SOL     OW10903   4.159   4.390   5.389
 3335SOL    HW110904   4.178   4.479   5.430
 3335SOL    HW210905   4.179   4.393   5.291
 3336SOL     OW10906   4.874   6.071   4.102
 3336SOL    HW110907   4.865   6.141   4.173
 3336SOL    HW210908   4.932   5.996   4.136
 3337SOL     OW10909   3.522   3.539   3.577
 3337SOL    HW110910   3.429   3.517   3.608
 3337SOL    HW210911   3.529   3.524   3.478
 3338SOL     OW10912   2.340   1.624   1.306
 3338SOL    HW110913   2.395   1.694   1.260
 3338SOL    HW210914   2.268   1.669   1.359
 3339SOL     OW10915   2.014   6.814   5.344
 3339SOL    HW110916   2.105   6.840   5.312
 3339SOL    HW210917   1.986   6.876   5.417
 3340SOL     OW10918   4.410   1.135   4.537
 3340SOL    HW110919   4.312   1.137   4.553
 3340SOL    HW210920   4.439   1.222   4.497
 3341SOL     OW10921   2.308   4.331   2.947
 3341SOL    HW110922   2.341   4.259   2.886
 3341SOL    HW210923   2.251   4.291   3.018
 3342SOL     OW10924   6.813   0.753   2.932
 3342SOL    HW110925   6.896   0.754   2.875
 3342SOL    HW210926   6.767   0.665   2.921
 3343SOL     OW10927   5.113   5.104   6.763
 3343SOL    HW110928   5.019   5.092   6.796
 3343SOL    HW210929   5.120   5.070   6.669
 3344SOL     OW10930   0.462   2.795   3.215
 3344SOL    HW110931   0.481   2.708   3.168
 3344SOL    HW210932   0.543   2.853   3.213
 3345SOL     OW10933   6.735   4.603   0.515
 3345SOL    HW110934   6.809   4.666   0.489
 3345SOL    HW210935   6.658   4.656   0.550
 3346SOL     OW10936   2.014   0.938   0.227
 3346SOL    HW110937   1.982   1.019   0.276
 3346SOL    HW210938   1.996   0.856   0.281
 3347SOL     OW10939   0.029   3.492   6.301
 3347SOL    HW110940   6.995   3.431   6.244
 3347SOL    HW210941   0.119   3.452   6.315
 3348SOL     OW10942   3.819   3.904   6.015
 3348SOL    HW110943   3.838   3.991   6.061
 3348SOL    HW210944   3.730   3.871   6.044
 3349SOL     OW10945   2.397   5.157   4.038
 3349SOL    HW110946   2.319   5.159   3.976
 3349SOL    HW210947   2.399   5.242   4.091
 3350SOL     OW10948   0.411   3.942   5.272
 3350SOL    HW110949   0.403   3.843   5.290
 3350SOL    HW210950   0.459   3.956   5.186
 3351SOL     OW10951   5.409   0.845   1.362
 3351SOL    HW110952   5.484   0.807   1.417
 3351SOL    HW210953   5.443   0.870   1.271
 3352SOL     OW10954   5.723   2.143   6.821
 3352SOL    HW110955   5.681   2.233   6.836
 3352SOL    HW210956   5.713   2.088   6.904
 3353SOL     OW10957   2.978   0.487   1.633
 3353SOL    HW110958   2.952   0.466   1.727
 3353SOL    HW210959   3.062   0.541   1.633
 3354SOL     OW10960   3.654   3.474   6.590
 3354SOL    HW110961   3.558   3.488   6.616
 3354SOL    HW210962   3.709   3.548   6.628
 3355SOL     OW10963   2.311   0.292   5.395
 3355SOL    HW110964   2.355   0.312   5.482
 3355SOL    HW210965   2.274   0.377   5.356
 3356SOL     OW10966   1.802   6.673   5.195
 3356SOL    HW110967   1.874   6.726   5.240
 3356SOL    HW210968   1.751   6.621   5.263
 3357SOL     OW10969   3.480   3.446   1.558
 3357SOL    HW110970   3.566   3.440   1.506
 3357SOL    HW210971   3.411   3.389   1.513
 3358SOL     OW10972   0.223   1.317   2.287
 3358SOL    HW110973   0.182   1.404   2.315
 3358SOL    HW210974   0.310   1.304   2.334
 3359SOL     OW10975   6.524   6.281   4.112
 3359SOL    HW110976   6.538   6.318   4.204
 3359SOL    HW210977   6.522   6.357   4.047
 3360SOL     OW10978   6.954   3.264   5.209
 3360SOL    HW110979   6.875   3.297   5.157
 3360SOL    HW210980   0.017   3.289   5.161
 3361SOL     OW10981   0.160   0.895   4.483
 3361SOL    HW110982   0.238   0.956   4.470
 3361SOL    HW210983   0.142   0.845   4.398
 3362SOL     OW10984   3.685   1.588   3.978
 3362SOL    HW110985   3.678   1.624   3.885
 3362SOL    HW210986   3.726   1.497   3.976
 3363SOL     OW10987   5.817   3.786   0.516
 3363SOL    HW110988   5.771   3.871   0.543
 3363SOL    HW210989   5.798   3.715   0.583
 3364SOL     OW10990   1.962   4.123   4.109
 3364SOL    HW110991   1.944   4.218   4.084
 3364SOL    HW210992   2.056   4.099   4.086
 3365SOL     OW10993   2.228   4.061   4.053
 3365SOL    HW110994   2.187   4.024   3.969
 3365SOL    HW210995   2.327   4.045   4.052
 3366SOL     OW10996   5.855   3.656   4.297
 3366SOL    HW110997   5.861   3.558   4.314
 3366SOL    HW210998   5.842   3.704   4.385
 3367SOL     OW10999   3.856   3.387   3.988
 3367SOL    HW111000   3.758   3.398   4.008
 3367SOL    HW211001   3.879   3.290   3.986
 3368SOL     OW11002   1.286   5.880   0.995
 3368SOL    HW111003   1.304   5.969   1.037
 3368SOL    HW211004   1.253   5.893   0.902
 3369SOL     OW11005   4.359   2.902   1.269
 3369SOL    HW111006   4.330   2.947   1.353
 3369SOL    HW211007   4.426   2.959   1.222
 3370SOL     OW11008   0.516   5.848   2.922
 3370SOL    HW111009   0.579   5.803   2.985
 3370SOL    HW211010   0.471   5.924   2.969
 3371SOL     OW11011   1.714   3.077   3.303
 3371SOL    HW111012   1.667   3.012   3.363
 3371SOL    HW211013   1.650   3.112   3.235
 3372SOL     OW11014   6.889   4.007   1.754
 3372SOL    HW111015   6.799   4.023   1.714
 3372SOL    HW211016   6.879   3.968   1.845
 3373SOL     OW11017   7.005   2.880   1.725
 3373SOL    HW111018   0.024   2.845   1.641
 3373SOL    HW211019   6.957   2.807   1.772
 3374SOL     OW11020   0.269   0.557   4.283
 3374SOL    HW111021   0.205   0.510   4.222
 3374SOL    HW211022   0.326   0.490   4.330
 3375SOL     OW11023   6.412   5.230   5.964
 3375SOL    HW111024   6.375   5.315   6.003
 3375SOL    HW211025   6.337   5.167   5.943
 3376SOL     OW11026   2.822   3.948   5.237
 3376SOL    HW111027   2.859   3.928   5.147
 3376SOL    HW211028   2.722   3.943   5.234
 3377SOL     OW11029   6.040   4.424   3.177
 3377SOL    HW111030   5.950   4.390   3.206
 3377SOL    HW211031   6.054   4.516   3.213
 3378SOL     OW11032   1.153   6.237   0.637
 3378SOL    HW111033   1.139   6.332   0.609
 3378SOL    HW211034   1.225   6.196   0.581
 3379SOL     OW11035   6.752   4.422   3.674
 3379SOL    HW111036   6.813   4.480   3.730
 3379SOL    HW211037   6.728   4.340   3.726
 3380SOL     OW11038   3.102   4.482   6.481
 3380SOL    HW111039   3.132   4.462   6.575
 3380SOL    HW211040   3.165   4.548   6.440
 3381SOL     OW11041   1.357   3.436   0.850
 3381SOL    HW111042   1.445   3.409   0.812
 3381SOL    HW211043   1.303   3.482   0.779
 3382SOL     OW11044   0.068   2.768   1.488
 3382SOL    HW111045   0.146   2.817   1.451
 3382SOL    HW211046   0.070   2.673   1.456
 3383SOL     OW11047   5.312   5.267   0.379
 3383SOL    HW111048   5.323   5.358   0.341
 3383SOL    HW211049   5.376   5.204   0.335
 3384SOL     OW11050   2.465   4.658   6.736
 3384SOL    HW111051   2.525   4.624   6.808
 3384SOL    HW211052   2.385   4.700   6.776
 3385SOL     OW11053   0.513   2.116   3.935
 3385SOL    HW111054   0.540   2.185   3.868
 3385SOL    HW211055   0.569   2.126   4.018
 3386SOL     OW11056   6.802   4.712   6.239
 3386SOL    HW111057   6.812   4.616   6.265
 3386SOL    HW211058   6.876   4.765   6.278
 3387SOL     OW11059   6.607   0.528   3.526
 3387SOL    HW111060   6.543   0.601   3.502
 3387SOL    HW211061   6.648   0.547   3.615
 3388SOL     OW11062   6.345   3.227   1.195
 3388SOL    HW111063   6.289   3.286   1.137
 3388SOL    HW211064   6.438   3.223   1.159
 3389SOL     OW11065   6.494   6.097   0.528
 3389SOL    HW111066   6.536   6.092   0.438
 3389SOL    HW211067   6.548   6.158   0.587
 3390SOL     OW11068   3.956   6.795   5.890
 3390SOL    HW111069   3.985   6.863   5.822
 3390SOL    HW211070   3.867   6.758   5.863
 3391SOL     OW11071   5.633   3.163   4.048
 3391SOL    HW111072   5.693   3.085   4.030
 3391SOL    HW211073   5.689   3.243   4.072
 3392SOL     OW11074   4.621   6.535   5.836
 3392SOL    HW111075   4.710   6.552   5.878
 3392SOL    HW211076   4.587   6.445   5.864
 3393SOL     OW11077   4.797   5.680   1.226
 3393SOL    HW111078   4.739   5.748   1.270
 3393SOL    HW211079   4.839   5.719   1.144
 3394SOL     OW11080   2.801   5.173   1.673
 3394SOL    HW111081   2.851   5.193   1.589
 3394SOL    HW211082   2.855   5.111   1.730
 3395SOL     OW11083   2.700   0.303   3.565
 3395SOL    HW111084   2.765   0.358   3.513
 3395SOL    HW211085   2.749   0.239   3.624
 3396SOL     OW11086   4.668   1.948   4.553
 3396SOL    HW111087   4.752   1.972   4.506
 3396SOL    HW211088   4.662   1.849   4.563
 3397SOL     OW11089   2.405   5.527   0.544
 3397SOL    HW111090   2.440   5.580   0.467
 3397SOL    HW211091   2.402   5.584   0.626
 3398SOL     OW11092   6.692   1.973   4.150
 3398SOL    HW111093   6.600   1.937   4.164
 3398SOL    HW211094   6.692   2.035   4.071
 3399SOL     OW11095   6.592   5.304   2.351
 3399SOL    HW111096   6.582   5.403   2.358
 3399SOL    HW211097   6.529   5.268   2.283
 3400SOL     OW11098   5.466   1.745   5.984
 3400SOL    HW111099   5.429   1.830   5.948
 3400SOL    HW211100   5.403   1.670   5.963
 3401SOL     OW11101   6.794   3.290   5.422
 3401SOL    HW111102   6.717   3.348   5.398
 3401SOL    HW211103   6.859   3.287   5.346
 3402SOL     OW11104   6.516   3.776   1.755
 3402SOL    HW111105   6.470   3.827   1.683
 3402SOL    HW211106   6.596   3.729   1.716
 3403SOL     OW11107   4.774   6.297   0.081
 3403SOL    HW111108   4.690   6.286   0.134
 3403SOL    HW211109   4.853   6.299   0.143
 3404SOL     OW11110   5.181   4.122   4.983
 3404SOL    HW111111   5.265   4.078   4.953
 3404SOL    HW211112   5.166   4.103   5.080
 3405SOL     OW11113   5.246   5.839   5.775
 3405SOL    HW111114   5.202   5.850   5.686
 3405SOL    HW211115   5.316   5.768   5.770
 3406SOL     OW11116   2.263   4.976   1.624
 3406SOL    HW111117   2.258   4.957   1.526
 3406SOL    HW211118   2.357   4.964   1.656
 3407SOL     OW11119   1.304   3.595   0.617
 3407SOL    HW111120   1.235   3.658   0.581
 3407SOL    HW211121   1.389   3.643   0.633
 3408SOL     OW11122   4.906   2.406   3.603
 3408SOL    HW111123   4.998   2.436   3.625
 3408SOL    HW211124   4.894   2.311   3.631
 3409SOL     OW11125   4.622   0.633   0.455
 3409SOL    HW111126   4.697   0.628   0.522
 3409SOL    HW211127   4.624   0.552   0.397
 3410SOL     OW11128   4.866   0.182   2.461
 3410SOL    HW111129   4.957   0.154   2.490
 3410SOL    HW211130   4.871   0.224   2.370
 3411SOL     OW11131   6.269   2.699   0.540
 3411SOL    HW111132   6.273   2.785   0.489
 3411SOL    HW211133   6.216   2.711   0.623
 3412SOL     OW11134   5.170   3.340   1.299
 3412SOL    HW111135   5.230   3.418   1.284
 3412SOL    HW211136   5.160   3.323   1.397
 3413SOL     OW11137   0.161   2.866   6.251
 3413SOL    HW111138   0.128   2.850   6.345
 3413SOL    HW211139   0.255   2.834   6.243
 3414SOL     OW11140   3.119   3.841   0.824
 3414SOL    HW111141   3.129   3.935   0.857
 3414SOL    HW211142   3.209   3.797   0.824
 3415SOL     OW11143   2.373   2.518   5.662
 3415SOL    HW111144   2.361   2.599   5.719
 3415SOL    HW211145   2.296   2.456   5.675
 3416SOL     OW11146   5.898   0.074   6.350
 3416SOL    HW111147   5.983   0.116   6.381
 3416SOL    HW211148   5.849   0.036   6.428
 3417SOL     OW11149   6.353   0.064   2.909
 3417SOL    HW111150   6.345   0.020   2.820
 3417SOL    HW211151   6.264   0.063   2.955
 3418SOL     OW11152   4.972   4.646   0.833
 3418SOL    HW111153   5.054   4.625   0.887
 3418SOL    HW211154   4.910   4.568   0.836
 3419SOL     OW11155   2.633   6.010   5.712
 3419SOL    HW111156   2.652   5.979   5.805
 3419SOL    HW211157   2.547   5.969   5.681
 3420SOL     OW11158   4.349   2.286   3.054
 3420SOL    HW111159   4.406   2.365   3.074
 3420SOL    HW211160   4.327   2.239   3.140
 3421SOL     OW11161   6.409   2.265   3.297
 3421SOL    HW111162   6.309   2.259   3.305
 3421SOL    HW211163   6.439   2.212   3.218
 3422SOL     OW11164   2.586   0.144   0.989
 3422SOL    HW111165   2.611   0.169   1.082
 3422SOL    HW211166   2.654   0.080   0.952
 3423SOL     OW11167   1.353   4.892   6.279
 3423SOL    HW111168   1.265   4.870   6.321
 3423SOL    HW211169   1.395   4.969   6.326
 3424SOL     OW11170   4.396   0.559   1.770
 3424SOL    HW111171   4.389   0.497   1.848
 3424SOL    HW211172   4.317   0.621   1.770
 3425SOL     OW11173   5.725   3.598   0.761
 3425SOL    HW111174   5.721   3.570   0.857
 3425SOL    HW211175   5.680   3.687   0.751
 3426SOL     OW11176   5.763   3.126   6.820
 3426SOL    HW111177   5.855   3.165   6.816
 3426SOL    HW211178   5.706   3.168   6.750
 3427SOL     OW11179   1.530   2.527   0.566
 3427SOL    HW111180   1.483   2.607   0.527
 3427SOL    HW211181   1.600   2.496   0.502
 3428SOL     OW11182   4.475   5.964   6.269
 3428SOL    HW111183   4.531   5.891   6.228
 3428SOL    HW211184   4.494   5.970   6.367
 3429SOL     OW11185   6.707   0.175   1.279
 3429SOL    HW111186   6.788   0.219   1.318
 3429SOL    HW211187   6.635   0.243   1.266
 3430SOL     OW11188   2.320   4.755   5.280
 3430SOL    HW111189   2.407   4.799   5.260
 3430SOL    HW211190   2.312   4.670   5.227
 3431SOL     OW11191   1.703   5.800   3.409
 3431SOL    HW111192   1.683   5.814   3.312
 3431SOL    HW211193   1.727   5.704   3.424
 3432SOL     OW11194   1.900   4.286   0.830
 3432SOL    HW111195   1.969   4.241   0.773
 3432SOL    HW211196   1.809   4.269   0.791
 3433SOL     OW11197   2.458   1.446   6.780
 3433SOL    HW111198   2.474   1.347   6.773
 3433SOL    HW211199   2.426   1.468   6.872
 3434SOL     OW11200   3.040   2.458   0.548
 3434SOL    HW111201   3.033   2.391   0.622
 3434SOL    HW211202   3.009   2.547   0.581
 3435SOL     OW11203   2.228   0.661   0.843
 3435SOL    HW111204   2.245   0.624   0.751
 3435SOL    HW211205   2.173   0.744   0.835
 3436SOL     OW11206   2.994   6.188   6.628
 3436SOL    HW111207   3.010   6.204   6.726
 3436SOL    HW211208   3.046   6.107   6.599
 3437SOL     OW11209   1.643   6.652   6.707
 3437SOL    HW111210   1.723   6.592   6.715
 3437SOL    HW211211   1.603   6.642   6.616
 3438SOL     OW11212   1.387   3.864   1.359
 3438SOL    HW111213   1.441   3.948   1.365
 3438SOL    HW211214   1.378   3.823   1.450
 3439SOL     OW11215   2.296   5.128   1.996
 3439SOL    HW111216   2.394   5.117   2.013
 3439SOL    HW211217   2.255   5.184   2.068
 3440SOL     OW11218   3.884   3.617   4.677
 3440SOL    HW111219   3.879   3.522   4.645
 3440SOL    HW211220   3.975   3.654   4.659
 3441SOL     OW11221   5.302   4.885   5.825
 3441SOL    HW111222   5.217   4.898   5.877
 3441SOL    HW211223   5.313   4.961   5.761
 3442SOL     OW11224   3.249   3.337   0.802
 3442SOL    HW111225   3.199   3.404   0.857
 3442SOL    HW211226   3.342   3.328   0.838
 3443SOL     OW11227   1.651   6.978   2.295
 3443SOL    HW111228   1.560   7.021   2.299
 3443SOL    HW211229   1.674   6.957   2.200
 3444SOL     OW11230   6.444   3.985   0.185
 3444SOL    HW111231   6.353   3.952   0.158
 3444SOL    HW211232   6.469   3.946   0.273
 3445SOL     OW11233   5.970   4.600   2.847
 3445SOL    HW111234   5.983   4.506   2.879
 3445SOL    HW211235   5.991   4.606   2.750
 3446SOL     OW11236   5.104   1.062   1.042
 3446SOL    HW111237   5.016   1.108   1.058
 3446SOL    HW211238   5.178   1.127   1.058
 3447SOL     OW11239   5.566   1.212   6.804
 3447SOL    HW111240   5.611   1.133   6.846
 3447SOL    HW211241   5.526   1.269   6.875
 3448SOL     OW11242   1.624   6.198   5.021
 3448SOL    HW111243   1.530   6.164   5.027
 3448SOL    HW211244   1.624   6.287   4.976
 3449SOL     OW11245   6.829   3.961   5.236
 3449SOL    HW111246   6.784   3.986   5.150
 3449SOL    HW211247   6.768   3.980   5.312
 3450SOL     OW11248   1.552   6.437   1.323
 3450SOL    HW111249   1.588   6.529   1.336
 3450SOL    HW211250   1.453   6.438   1.339
 3451SOL     OW11251   2.471   0.933   1.429
 3451SOL    HW111252   2.546   0.921   1.494
 3451SOL    HW211253   2.406   0.859   1.439
 3452SOL     OW11254   4.721   6.972   5.013
 3452SOL    HW111255   4.739   6.883   4.970
 3452SOL    HW211256   4.733   6.964   5.112
 3453SOL     OW11257   4.664   6.190   6.212
 3453SOL    HW111258   4.631   6.098   6.191
 3453SOL    HW211259   4.594   6.257   6.185
 3454SOL     OW11260   0.891   2.584   1.677
 3454SOL    HW111261   0.870   2.680   1.690
 3454SOL    HW211262   0.817   2.528   1.715
 3455SOL     OW11263   0.662   3.061   5.548
 3455SOL    HW111264   0.734   3.030   5.485
 3455SOL    HW211265   0.641   3.157   5.530
 3456SOL     OW11266   5.680   4.375   2.253
 3456SOL    HW111267   5.595   4.333   2.220
 3456SOL    HW211268   5.713   4.441   2.186
 3457SOL     OW11269   4.074   5.125   5.823
 3457SOL    HW111270   3.998   5.175   5.865
 3457SOL    HW211271   4.038   5.067   5.750
 3458SOL     OW11272   4.033   1.167   2.626
 3458SOL    HW111273   3.959   1.224   2.661
 3458SOL    HW211274   4.056   1.195   2.533
 3459SOL     OW11275   4.911   6.333   2.887
 3459SOL    HW111276   4.860   6.411   2.850
 3459SOL    HW211277   4.896   6.253   2.829
 3460SOL     OW11278   3.819   1.262   5.207
 3460SOL    HW111279   3.768   1.325   5.265
 3460SOL    HW211280   3.914   1.259   5.237
 3461SOL     OW11281   6.042   5.395   5.043
 3461SOL    HW111282   5.984   5.448   5.105
 3461SOL    HW211283   6.051   5.301   5.078
 3462SOL     OW11284   1.498   4.153   6.724
 3462SOL    HW111285   1.571   4.222   6.723
 3462SOL    HW211286   1.538   4.062   6.738
 3463SOL     OW11287   6.044   4.303   1.031
 3463SOL    HW111288   6.020   4.214   1.069
 3463SOL    HW211289   6.143   4.317   1.040
 3464SOL     OW11290   6.539   4.751   6.151
 3464SOL    HW111291   6.631   4.723   6.178
 3464SOL    HW211292   6.497   4.804   6.225
 3465SOL     OW11293   2.040   0.630   1.240
 3465SOL    HW111294   2.056   0.571   1.160
 3465SOL    HW211295   1.966   0.694   1.221
 3466SOL     OW11296   6.563   4.210   5.239
 3466SOL    HW111297   6.477   4.191   5.285
 3466SOL    HW211298   6.572   4.309   5.225
 3467SOL     OW11299   1.919   2.032   6.907
 3467SOL    HW111300   1.994   2.099   6.898
 3467SOL    HW211301   1.957   1.940   6.908
 3468SOL     OW11302   3.269   6.960   4.214
 3468SOL    HW111303   3.256   0.038   4.211
 3468SOL    HW211304   3.224   6.923   4.296
 3469SOL     OW11305   5.544   2.540   2.717
 3469SOL    HW111306   5.474   2.468   2.713
 3469SOL    HW211307   5.573   2.563   2.624
 3470SOL     OW11308   0.217   5.800   1.057
 3470SOL    HW111309   0.212   5.762   1.150
 3470SOL    HW211310   0.126   5.825   1.026
 3471SOL     OW11311   3.778   6.407   4.629
 3471SOL    HW111312   3.752   6.463   4.550
 3471SOL    HW211313   3.697   6.385   4.682
 3472SOL     OW11314   3.137   1.136   5.217
 3472SOL    HW111315   3.172   1.069   5.152
 3472SOL    HW211316   3.071   1.093   5.279
 3473SOL     OW11317   5.482   0.513   6.031
 3473SOL    HW111318   5.418   0.459   5.976
 3473SOL    HW211319   5.560   0.456   6.057
 3474SOL     OW11320   4.842   5.400   1.078
 3474SOL    HW111321   4.747   5.381   1.105
 3474SOL    HW211322   4.889   5.448   1.153
 3475SOL     OW11323   1.735   5.979   4.594
 3475SOL    HW111324   1.722   5.989   4.496
 3475SOL    HW211325   1.760   6.067   4.633
 3476SOL     OW11326   4.864   0.571   4.496
 3476SOL    HW111327   4.951   0.618   4.492
 3476SOL    HW211328   4.870   0.484   4.447
 3477SOL     OW11329   3.927   6.174   1.138
 3477SOL    HW111330   3.897   6.086   1.174
 3477SOL    HW211331   3.927   6.242   1.211
 3478SOL     OW11332   4.126   4.711   0.586
 3478SOL    HW111333   4.222   4.723   0.563
 3478SOL    HW211334   4.108   4.614   0.603
 3479SOL     OW11335   0.968   0.646   2.346
 3479SOL    HW111336   1.045   0.675   2.289
 3479SOL    HW211337   0.935   0.557   2.315
 3480SOL     OW11338   1.049   1.421   3.316
 3480SOL    HW111339   1.018   1.327   3.304
 3480SOL    HW211340   1.104   1.449   3.237
 3481SOL     OW11341   2.386   6.274   0.129
 3481SOL    HW111342   2.392   6.182   0.167
 3481SOL    HW211343   2.449   6.334   0.178
 3482SOL     OW11344   0.348   2.413   0.436
 3482SOL    HW111345   0.355   2.510   0.459
 3482SOL    HW211346   0.407   2.394   0.357
 3483SOL     OW11347   3.261   6.854   1.562
 3483SOL    HW111348   3.319   6.804   1.498
 3483SOL    HW211349   3.307   6.939   1.588
 3484SOL     OW11350   3.591   3.873   3.454
 3484SOL    HW111351   3.543   3.852   3.368
 3484SOL    HW211352   3.543   3.946   3.502
 3485SOL     OW11353   1.140   2.397   5.063
 3485SOL    HW111354   1.138   2.442   4.974
 3485SOL    HW211355   1.225   2.345   5.073
 3486SOL     OW11356   4.291   1.736   1.954
 3486SOL    HW111357   4.194   1.733   1.932
 3486SOL    HW211358   4.314   1.826   1.992
 3487SOL     OW11359   6.546   0.690   6.986
 3487SOL    HW111360   6.488   0.770   6.969
 3487SOL    HW211361   6.610   0.711   0.038
 3488SOL     OW11362   5.505   3.425   3.780
 3488SOL    HW111363   5.524   3.460   3.688
 3488SOL    HW211364   5.591   3.410   3.828
 3489SOL     OW11365   3.493   7.012   1.200
 3489SOL    HW111366   3.563   6.941   1.195
 3489SOL    HW211367   3.407   6.972   1.230
 3490SOL     OW11368   3.976   4.282   0.233
 3490SOL    HW111369   4.038   4.287   0.311
 3490SOL    HW211370   3.918   4.364   0.231
 3491SOL     OW11371   0.586   3.078   4.911
 3491SOL    HW111372   0.565   3.116   5.001
 3491SOL    HW211373   0.508   3.092   4.850
 3492SOL     OW11374   6.799   4.491   6.844
 3492SOL    HW111375   6.705   4.458   6.844
 3492SOL    HW211376   6.824   4.521   6.752
 3493SOL     OW11377   6.561   4.183   0.856
 3493SOL    HW111378   6.577   4.251   0.785
 3493SOL    HW211379   6.618   4.204   0.936
 3494SOL     OW11380   3.356   0.277   0.637
 3494SOL    HW111381   3.311   0.237   0.557
 3494SOL    HW211382   3.442   0.229   0.655
 3495SOL     OW11383   5.173   4.901   0.418
 3495SOL    HW111384   5.138   4.994   0.432
 3495SOL    HW211385   5.134   4.840   0.486
 3496SOL     OW11386   2.248   2.950   1.126
 3496SOL    HW111387   2.286   3.022   1.068
 3496SOL    HW211388   2.321   2.887   1.153
 3497SOL     OW11389   4.713   0.181   3.465
 3497SOL    HW111390   4.634   0.243   3.467
 3497SOL    HW211391   4.730   0.146   3.557
 3498SOL     OW11392   2.595   1.257   2.025
 3498SOL    HW111393   2.534   1.257   1.945
 3498SOL    HW211394   2.681   1.302   2.001
 3499SOL     OW11395   6.637   3.301   3.986
 3499SOL    HW111396   6.657   3.345   4.074
 3499SOL    HW211397   6.707   3.328   3.920
 3500SOL     OW11398   6.431   3.423   0.052
 3500SOL    HW111399   6.398   3.514   0.078
 3500SOL    HW211400   6.496   3.432   6.998
 3501SOL     OW11401   1.509   4.691   4.680
 3501SOL    HW111402   1.591   4.737   4.646
 3501SOL    HW211403   1.464   4.749   4.748
 3502SOL     OW11404   0.788   2.929   1.568
 3502SOL    HW111405   0.831   2.993   1.504
 3502SOL    HW211406   0.777   2.973   1.657
 3503SOL     OW11407   5.278   5.769   4.470
 3503SOL    HW111408   5.184   5.798   4.486
 3503SOL    HW211409   5.305   5.792   4.377
 3504SOL     OW11410   2.225   3.231   1.619
 3504SOL    HW111411   2.276   3.274   1.693
 3504SOL    HW211412   2.242   3.279   1.533
 3505SOL     OW11413   5.390   4.862   5.207
 3505SOL    HW111414   5.431   4.818   5.287
 3505SOL    HW211415   5.439   4.833   5.125
 3506SOL     OW11416   4.516   5.219   2.962
 3506SOL    HW111417   4.477   5.213   2.870
 3506SOL    HW211418   4.573   5.138   2.979
 3507SOL     OW11419   0.972   0.058   6.178
 3507SOL    HW111420   0.993   0.140   6.232
 3507SOL    HW211421   0.873   0.045   6.173
 3508SOL     OW11422   5.876   3.430   6.906
 3508SOL    HW111423   5.907   3.525   6.897
 3508SOL    HW211424   5.940   3.369   6.859
 3509SOL     OW11425   6.724   6.773   0.999
 3509SOL    HW111426   6.684   6.865   0.992
 3509SOL    HW211427   6.652   6.705   0.989
 3510SOL     OW11428   1.982   3.053   2.273
 3510SOL    HW111429   2.050   3.119   2.303
 3510SOL    HW211430   1.914   3.040   2.345
 3511SOL     OW11431   0.880   1.794   6.153
 3511SOL    HW111432   0.909   1.880   6.196
 3511SOL    HW211433   0.781   1.796   6.140
 3512SOL     OW11434   2.587   3.372   0.918
 3512SOL    HW111435   2.684   3.383   0.937
 3512SOL    HW211436   2.572   3.370   0.819
 3513SOL     OW11437   6.544   5.033   1.001
 3513SOL    HW111438   6.599   4.992   1.074
 3513SOL    HW211439   6.534   4.967   0.926
 3514SOL     OW11440   0.871   6.055   1.276
 3514SOL    HW111441   0.847   5.979   1.216
 3514SOL    HW211442   0.919   6.020   1.357
 3515SOL     OW11443   2.552   6.259   3.860
 3515SOL    HW111444   2.544   6.225   3.954
 3515SOL    HW211445   2.532   6.357   3.858
 3516SOL     OW11446   2.892   1.365   1.246
 3516SOL    HW111447   2.898   1.462   1.222
 3516SOL    HW211448   2.921   1.310   1.168
 3517SOL     OW11449   0.813   0.936   6.162
 3517SOL    HW111450   0.795   1.002   6.235
 3517SOL    HW211451   0.864   0.859   6.200
 3518SOL     OW11452   3.826   2.902   5.748
 3518SOL    HW111453   3.820   3.002   5.757
 3518SOL    HW211454   3.855   2.863   5.836
 3519SOL     OW11455   1.723   6.050   0.575
 3519SOL    HW111456   1.648   6.039   0.641
 3519SOL    HW211457   1.810   6.029   0.620
 3520SOL     OW11458   4.433   5.816   0.880
 3520SOL    HW111459   4.500   5.849   0.947
 3520SOL    HW211460   4.366   5.758   0.926
 3521SOL     OW11461   5.632   2.929   0.463
 3521SOL    HW111462   5.715   2.875   0.477
 3521SOL    HW211463   5.552   2.874   0.484
 3522SOL     OW11464   3.102   4.911   2.114
 3522SOL    HW111465   3.030   4.895   2.182
 3522SOL    HW211466   3.180   4.956   2.157
 3523SOL     OW11467   2.236   4.961   5.450
 3523SOL    HW111468   2.257   4.891   5.381
 3523SOL    HW211469   2.221   4.917   5.538
 3524SOL     OW11470   2.945   0.233   0.593
 3524SOL    HW111471   2.915   0.260   0.684
 3524SOL    HW211472   2.979   0.313   0.544
 3525SOL     OW11473   0.726   2.577   2.935
 3525SOL    HW111474   0.793   2.513   2.896
 3525SOL    HW211475   0.714   2.654   2.873
 3526SOL     OW11476   2.400   1.207   2.615
 3526SOL    HW111477   2.400   1.113   2.649
 3526SOL    HW211478   2.495   1.239   2.607
 3527SOL     OW11479   5.182   2.460   5.813
 3527SOL    HW111480   5.215   2.373   5.776
 3527SOL    HW211481   5.260   2.522   5.825
 3528SOL     OW11482   0.174   6.973   4.636
 3528SOL    HW111483   0.129   7.010   4.554
 3528SOL    HW211484   0.272   6.966   4.621
 3529SOL     OW11485   3.626   6.230   6.443
 3529SOL    HW111486   3.721   6.230   6.472
 3529SOL    HW211487   3.621   6.220   6.343
 3530SOL     OW11488   1.873   6.186   3.468
 3530SOL    HW111489   1.870   6.087   3.481
 3530SOL    HW211490   1.964   6.220   3.490
 3531SOL     OW11491   4.860   3.686   6.874
 3531SOL    HW111492   4.840   3.673   6.777
 3531SOL    HW211493   4.948   3.733   6.885
 3532SOL     OW11494   1.847   6.720   0.041
 3532SOL    HW111495   1.751   6.743   0.054
 3532SOL    HW211496   1.858   6.621   0.040
 3533SOL     OW11497   1.757   1.336   2.925
 3533SOL    HW111498   1.796   1.428   2.935
 3533SOL    HW211499   1.831   1.270   2.916
 3534SOL     OW11500   5.317   0.971   4.543
 3534SOL    HW111501   5.255   1.049   4.556
 3534SOL    HW211502   5.406   0.992   4.584
 3535SOL     OW11503   5.558   5.306   6.311
 3535SOL    HW111504   5.649   5.323   6.349
 3535SOL    HW211505   5.567   5.277   6.215
 3536SOL     OW11506   1.011   4.076   3.343
 3536SOL    HW111507   1.037   4.073   3.439
 3536SOL    HW211508   0.976   4.166   3.320
 3537SOL     OW11509   2.146   5.035   1.059
 3537SOL    HW111510   2.158   4.942   1.094
 3537SOL    HW211511   2.200   5.046   0.975
 3538SOL     OW11512   2.753   1.229   4.459
 3538SOL    HW111513   2.752   1.155   4.392
 3538SOL    HW211514   2.673   1.220   4.519
 3539SOL     OW11515   5.234   5.114   6.125
 3539SOL    HW111516   5.311   5.152   6.177
 3539SOL    HW211517   5.201   5.181   6.059
 3540SOL     OW11518   3.002   3.716   6.549
 3540SOL    HW111519   2.982   3.706   6.452
 3540SOL    HW211520   2.949   3.793   6.587
 3541SOL     OW11521   3.091   2.622   0.989
 3541SOL    HW111522   3.132   2.712   0.974
 3541SOL    HW211523   3.038   2.624   1.074
 3542SOL     OW11524   5.627   2.107   6.189
 3542SOL    HW111525   5.691   2.131   6.262
 3542SOL    HW211526   5.646   2.014   6.157
 3543SOL     OW11527   1.112   2.476   3.684
 3543SOL    HW111528   1.070   2.413   3.619
 3543SOL    HW211529   1.199   2.439   3.716
 3544SOL     OW11530   2.476   4.507   6.051
 3544SOL    HW111531   2.469   4.531   5.954
 3544SOL    HW211532   2.570   4.523   6.083
 3545SOL     OW11533   3.688   6.750   1.209
 3545SOL    HW111534   3.684   6.708   1.300
 3545SOL    HW211535   3.655   6.685   1.141
 3546SOL     OW11536   0.040   3.872   3.456
 3546SOL    HW111537   0.035   3.798   3.388
 3546SOL    HW211538   6.984   3.933   3.445
 3547SOL     OW11539   0.569   4.149   5.620
 3547SOL    HW111540   0.493   4.130   5.683
 3547SOL    HW211541   0.538   4.212   5.549
 3548SOL     OW11542   6.319   0.502   5.341
 3548SOL    HW111543   6.378   0.560   5.284
 3548SOL    HW211544   6.226   0.538   5.340
 3549SOL     OW11545   2.876   6.304   7.009
 3549SOL    HW111546   2.866   6.358   6.926
 3549SOL    HW211547   2.804   6.234   7.013
 3550SOL     OW11548   5.658   1.020   4.984
 3550SOL    HW111549   5.578   0.980   4.940
 3550SOL    HW211550   5.681   0.968   5.066
 3551SOL     OW11551   4.522   1.652   4.236
 3551SOL    HW111552   4.611   1.621   4.202
 3551SOL    HW211553   4.534   1.688   4.329
 3552SOL     OW11554   0.460   6.494   2.994
 3552SOL    HW111555   0.439   6.487   2.896
 3552SOL    HW211556   0.538   6.435   3.015
 3553SOL     OW11557   5.040   5.451   0.189
 3553SOL    HW111558   5.125   5.476   0.236
 3553SOL    HW211559   5.062   5.408   0.102
 3554SOL     OW11560   5.305   3.223   1.080
 3554SOL    HW111561   5.318   3.299   1.018
 3554SOL    HW211562   5.250   3.252   1.158
 3555SOL     OW11563   2.289   1.994   5.648
 3555SOL    HW111564   2.309   1.896   5.655
 3555SOL    HW211565   2.363   2.039   5.597
 3556SOL     OW11566   5.157   0.861   5.582
 3556SOL    HW111567   5.191   0.805   5.506
 3556SOL    HW211568   5.197   0.829   5.667
 3557SOL     OW11569   6.922   1.088   1.295
 3557SOL    HW111570   6.900   1.021   1.366
 3557SOL    HW211571   6.930   1.179   1.335
 3558SOL     OW11572   3.382   6.317   2.268
 3558SOL    HW111573   3.375   6.217   2.261
 3558SOL    HW211574   3.323   6.359   2.199
 3559SOL     OW11575   4.274   6.159   5.136
 3559SOL    HW111576   4.207   6.091   5.106
 3559SOL    HW211577   4.228   6.226   5.194
 3560SOL     OW11578   2.203   5.454   4.386
 3560SOL    HW111579   2.139   5.528   4.362
 3560SOL    HW211580   2.269   5.487   4.453
 3561SOL     OW11581   4.852   4.032   5.435
 3561SOL    HW111582   4.886   4.122   5.462
 3561SOL    HW211583   4.783   4.043   5.364
 3562SOL     OW11584   2.334   1.547   5.827
 3562SOL    HW111585   2.247   1.500   5.811
 3562SOL    HW211586   2.390   1.494   5.891
 3563SOL     OW11587   5.961   2.855   4.788
 3563SOL    HW111588   5.900   2.921   4.743
 3563SOL    HW211589   5.918   2.822   4.872
 3564SOL     OW11590   6.561   4.055   2.017
 3564SOL    HW111591   6.657   4.028   2.022
 3564SOL    HW211592   6.503   3.975   2.027
 3565SOL     OW11593   3.810   5.882   3.287
 3565SOL    HW111594   3.832   5.920   3.377
 3565SOL    HW211595   3.845   5.788   3.281
 3566SOL     OW11596   1.331   0.619   5.610
 3566SOL    HW111597   1.405   0.621   5.678
 3566SOL    HW211598   1.313   0.524   5.584
 3567SOL     OW11599   0.592   4.036   6.066
 3567SOL    HW111600   0.652   4.043   6.146
 3567SOL    HW211601   0.581   3.940   6.041
 3568SOL     OW11602   6.007   3.878   5.724
 3568SOL    HW111603   6.015   3.927   5.637
 3568SOL    HW211604   6.057   3.927   5.795
 3569SOL     OW11605   1.559   1.910   5.407
 3569SOL    HW111606   1.574   1.815   5.433
 3569SOL    HW211607   1.646   1.959   5.408
 3570SOL     OW11608   6.367   1.445   3.975
 3570SOL    HW111609   6.410   1.360   3.944
 3570SOL    HW211610   6.403   1.471   4.064
 3571SOL     OW11611   6.422   6.094   5.876
 3571SOL    HW111612   6.380   6.004   5.861
 3571SOL    HW211613   6.522   6.084   5.877
 3572SOL     OW11614   5.730   4.845   4.647
 3572SOL    HW111615   5.803   4.914   4.645
 3572SOL    HW211616   5.689   4.838   4.556
 3573SOL     OW11617   1.240   2.946   2.616
 3573SOL    HW111618   1.330   2.912   2.592
 3573SOL    HW211619   1.188   2.966   2.533
 3574SOL     OW11620   0.249   3.995   0.625
 3574SOL    HW111621   0.306   3.948   0.558
 3574SOL    HW211622   0.210   3.928   0.688
 3575SOL     OW11623   6.011   4.719   2.030
 3575SOL    HW111624   6.014   4.797   1.967
 3575SOL    HW211625   6.103   4.696   2.060
 3576SOL     OW11626   0.402   1.337   6.351
 3576SOL    HW111627   0.501   1.324   6.345
 3576SOL    HW211628   0.361   1.326   6.261
 3577SOL     OW11629   0.981   3.002   0.077
 3577SOL    HW111630   1.011   3.097   0.076
 3577SOL    HW211631   0.883   2.998   0.099
 3578SOL     OW11632   3.402   5.009   0.560
 3578SOL    HW111633   3.488   5.013   0.610
 3578SOL    HW211634   3.330   4.975   0.621
 3579SOL     OW11635   6.795   3.792   4.600
 3579SOL    HW111636   6.852   3.816   4.521
 3579SOL    HW211637   6.757   3.876   4.640
 3580SOL     OW11638   6.196   2.239   2.124
 3580SOL    HW111639   6.241   2.187   2.051
 3580SOL    HW211640   6.175   2.177   2.200
 3581SOL     OW11641   0.303   0.385   3.089
 3581SOL    HW111642   0.265   0.418   3.002
 3581SOL    HW211643   0.237   0.322   3.132
 3582SOL     OW11644   1.343   0.202   6.670
 3582SOL    HW111645   1.441   0.217   6.654
 3582SOL    HW211646   1.304   0.155   6.592
 3583SOL     OW11647   1.066   5.359   0.371
 3583SOL    HW111648   0.981   5.345   0.320
 3583SOL    HW211649   1.081   5.457   0.386
 3584SOL     OW11650   5.099   5.892   6.404
 3584SOL    HW111651   5.104   5.939   6.316
 3584SOL    HW211652   5.060   5.801   6.391
 3585SOL     OW11653   3.426   4.936   4.132
 3585SOL    HW111654   3.410   4.898   4.223
 3585SOL    HW211655   3.359   4.898   4.068
 3586SOL     OW11656   6.562   3.241   5.840
 3586SOL    HW111657   6.564   3.213   5.936
 3586SOL    HW211658   6.481   3.296   5.823
 3587SOL     OW11659   4.412   6.518   6.975
 3587SOL    HW111660   4.487   6.527   6.909
 3587SOL    HW211661   4.372   6.608   6.993
 3588SOL     OW11662   1.108   2.152   6.070
 3588SOL    HW111663   1.174   2.113   6.006
 3588SOL    HW211664   1.136   2.244   6.096
 3589SOL     OW11665   2.948   0.990   5.338
 3589SOL    HW111666   2.898   0.947   5.414
 3589SOL    HW211667   2.884   1.035   5.277
 3590SOL     OW11668   1.472   5.158   6.664
 3590SOL    HW111669   1.491   5.143   6.761
 3590SOL    HW211670   1.506   5.247   6.636
 3591SOL     OW11671   5.391   1.978   5.873
 3591SOL    HW111672   5.366   2.073   5.890
 3591SOL    HW211673   5.455   1.974   5.796
 3592SOL     OW11674   5.173   2.921   2.521
 3592SOL    HW111675   5.135   2.830   2.504
 3592SOL    HW211676   5.137   2.985   2.453
 3593SOL     OW11677   1.354   6.590   3.923
 3593SOL    HW111678   1.367   6.688   3.938
 3593SOL    HW211679   1.405   6.539   3.992
 3594SOL     OW11680   2.828   1.416   4.278
 3594SOL    HW111681   2.760   1.457   4.218
 3594SOL    HW211682   2.782   1.353   4.341
 3595SOL     OW11683   2.879   5.774   6.400
 3595SOL    HW111684   2.821   5.804   6.324
 3595SOL    HW211685   2.968   5.820   6.395
 3596SOL     OW11686   6.192   1.853   2.273
 3596SOL    HW111687   6.267   1.789   2.287
 3596SOL    HW211688   6.228   1.946   2.266
 3597SOL     OW11689   2.898   5.641   3.699
 3597SOL    HW111690   2.860   5.575   3.764
 3597SOL    HW211691   2.853   5.729   3.712
 3598SOL     OW11692   1.087   7.014   6.524
 3598SOL    HW111693   1.055   6.941   6.463
 3598SOL    HW211694   1.170   0.034   6.485
 3599SOL     OW11695   0.376   1.547   4.846
 3599SOL    HW111696   0.430   1.577   4.925
 3599SOL    HW211697   0.278   1.557   4.867
 3600SOL     OW11698   5.678   2.645   0.654
 3600SOL    HW111699   5.733   2.631   0.571
 3600SOL    HW211700   5.590   2.686   0.629
 3601SOL     OW11701   0.293   4.119   6.574
 3601SOL    HW111702   0.340   4.179   6.509
 3601SOL    HW211703   0.204   4.093   6.537
 3602SOL     OW11704   2.003   0.921   6.977
 3602SOL    HW111705   2.021   0.930   0.054
 3602SOL    HW211706   1.961   0.832   6.959
 3603SOL     OW11707   3.978   5.014   3.611
 3603SOL    HW111708   4.046   4.959   3.562
 3603SOL    HW211709   3.987   4.998   3.710
 3604SOL     OW11710   0.263   2.424   2.838
 3604SOL    HW111711   0.327   2.464   2.903
 3604SOL    HW211712   0.242   2.330   2.865
 3605SOL     OW11713   5.590   3.180   6.071
 3605SOL    HW111714   5.546   3.213   5.988
 3605SOL    HW211715   5.612   3.258   6.131
 3606SOL     OW11716   0.549   4.217   5.322
 3606SOL    HW111717   0.528   4.119   5.319
 3606SOL    HW211718   0.467   4.270   5.303
 3607SOL     OW11719   5.542   6.951   0.749
 3607SOL    HW111720   5.529   6.957   0.650
 3607SOL    HW211721   5.453   6.955   0.795
 3608SOL     OW11722   0.349   2.418   1.595
 3608SOL    HW111723   0.323   2.324   1.569
 3608SOL    HW211724   0.446   2.431   1.579
 3609SOL     OW11725   6.638   0.719   4.969
 3609SOL    HW111726   6.664   0.625   4.944
 3609SOL    HW211727   6.694   0.784   4.919
 3610SOL     OW11728   1.500   6.478   6.014
 3610SOL    HW111729   1.452   6.392   6.035
 3610SOL    HW211730   1.526   6.479   5.918
 3611SOL     OW11731   3.685   5.533   5.839
 3611SOL    HW111732   3.681   5.609   5.904
 3611SOL    HW211733   3.595   5.518   5.799
 3612SOL     OW11734   1.512   6.853   1.116
 3612SOL    HW111735   1.548   6.922   1.054
 3612SOL    HW211736   1.420   6.827   1.087
 3613SOL     OW11737   5.454   5.000   6.661
 3613SOL    HW111738   5.391   5.055   6.605
 3613SOL    HW211739   5.408   4.918   6.693
 3614SOL     OW11740   3.984   3.055   3.197
 3614SOL    HW111741   3.989   3.012   3.288
 3614SOL    HW211742   3.921   3.003   3.139
 3615SOL     OW11743   5.805   5.176   5.354
 3615SOL    HW111744   5.829   5.266   5.392
 3615SOL    HW211745   5.718   5.146   5.392
 3616SOL     OW11746   6.822   2.302   5.064
 3616SOL    HW111747   6.857   2.382   5.114
 3616SOL    HW211748   6.879   2.286   4.984
 3617SOL     OW11749   6.802   1.402   6.537
 3617SOL    HW111750   6.864   1.443   6.470
 3617SOL    HW211751   6.847   1.397   6.626
 3618SOL     OW11752   1.764   2.073   6.688
 3618SOL    HW111753   1.822   2.056   6.767
 3618SOL    HW211754   1.811   2.043   6.605
 3619SOL     OW11755   5.757   1.926   4.164
 3619SOL    HW111756   5.690   1.996   4.136
 3619SOL    HW211757   5.810   1.898   4.084
 3620SOL     OW11758   5.976   0.369   5.117
 3620SOL    HW111759   5.991   0.336   5.024
 3620SOL    HW211760   6.014   0.460   5.127
 3621SOL     OW11761   2.680   3.139   5.745
 3621SOL    HW111762   2.610   3.128   5.674
 3621SOL    HW211763   2.702   3.236   5.755
 3622SOL     OW11764   1.056   2.127   2.272
 3622SOL    HW111765   1.147   2.090   2.256
 3622SOL    HW211766   1.014   2.079   2.350
 3623SOL     OW11767   4.876   5.132   3.522
 3623SOL    HW111768   4.918   5.136   3.432
 3623SOL    HW211769   4.942   5.165   3.591
 3624SOL     OW11770   2.730   6.846   3.072
 3624SOL    HW111771   2.711   6.792   3.154
 3624SOL    HW211772   2.818   6.892   3.081
 3625SOL     OW11773   6.107   3.201   5.547
 3625SOL    HW111774   6.195   3.164   5.577
 3625SOL    HW211775   6.102   3.199   5.448
 3626SOL     OW11776   1.868   3.745   5.740
 3626SOL    HW111777   1.945   3.784   5.790
 3626SOL    HW211778   1.896   3.721   5.648
 3627SOL     OW11779   3.519   3.810   3.989
 3627SOL    HW111780   3.552   3.722   3.956
 3627SOL    HW211781   3.507   3.807   4.088
 3628SOL     OW11782   2.249   5.561   2.458
 3628SOL    HW111783   2.283   5.475   2.421
 3628SOL    HW211784   2.326   5.624   2.471
 3629SOL     OW11785   5.854   1.880   5.077
 3629SOL    HW111786   5.881   1.866   4.981
 3629SOL    HW211787   5.886   1.803   5.132
 3630SOL     OW11788   6.200   2.161   4.310
 3630SOL    HW111789   6.173   2.257   4.304
 3630SOL    HW211790   6.233   2.142   4.403
 3631SOL     OW11791   2.441   0.112   4.567
 3631SOL    HW111792   2.378   0.052   4.518
 3631SOL    HW211793   2.390   0.175   4.625
 3632SOL     OW11794   4.967   1.014   0.781
 3632SOL    HW111795   4.977   0.932   0.724
 3632SOL    HW211796   5.017   1.002   0.866
 3633SOL     OW11797   2.881   2.452   6.248
 3633SOL    HW111798   2.782   2.439   6.252
 3633SOL    HW211799   2.906   2.495   6.161
 3634SOL     OW11800   2.001   6.316   4.729
 3634SOL    HW111801   1.977   6.263   4.811
 3634SOL    HW211802   1.920   6.326   4.672
 3635SOL     OW11803   2.609   1.708   5.665
 3635SOL    HW111804   2.633   1.647   5.740
 3635SOL    HW211805   2.511   1.728   5.668
 3636SOL     OW11806   0.190   5.651   5.784
 3636SOL    HW111807   0.258   5.724   5.788
 3636SOL    HW211808   0.205   5.597   5.701
 3637SOL     OW11809   5.424   1.321   1.510
 3637SOL    HW111810   5.441   1.231   1.552
 3637SOL    HW211811   5.461   1.321   1.417
 3638SOL     OW11812   6.634   4.712   4.376
 3638SOL    HW111813   6.621   4.613   4.374
 3638SOL    HW211814   6.678   4.739   4.462
 3639SOL     OW11815   2.370   4.337   0.948
 3639SOL    HW111816   2.293   4.281   0.917
 3639SOL    HW211817   2.450   4.280   0.962
 3640SOL     OW11818   3.224   5.902   1.256
 3640SOL    HW111819   3.263   5.974   1.198
 3640SOL    HW211820   3.280   5.890   1.337
 3641SOL     OW11821   3.318   1.162   4.832
 3641SOL    HW111822   3.241   1.127   4.779
 3641SOL    HW211823   3.299   1.256   4.860
 3642SOL     OW11824   4.621   0.412   4.887
 3642SOL    HW111825   4.570   0.402   4.972
 3642SOL    HW211826   4.571   0.367   4.813
 3643SOL     OW11827   2.939   5.104   4.960
 3643SOL    HW111828   3.036   5.080   4.967
 3643SOL    HW211829   2.926   5.167   4.883
 3644SOL     OW11830   6.398   2.680   0.904
 3644SOL    HW111831   6.359   2.631   0.982
 3644SOL    HW211832   6.420   2.774   0.931
 3645SOL     OW11833   4.701   1.601   3.421
 3645SOL    HW111834   4.772   1.666   3.450
 3645SOL    HW211835   4.739   1.536   3.356
 3646SOL     OW11836   0.086   4.774   5.935
 3646SOL    HW111837   0.001   4.749   5.889
 3646SOL    HW211838   0.074   4.862   5.981
 3647SOL     OW11839   1.057   3.045   0.897
 3647SOL    HW111840   0.982   3.081   0.953
 3647SOL    HW211841   1.061   2.946   0.908
 3648SOL     OW11842   3.689   5.508   1.805
 3648SOL    HW111843   3.590   5.498   1.807
 3648SOL    HW211844   3.726   5.492   1.897
 3649SOL     OW11845   4.395   3.841   0.965
 3649SOL    HW111846   4.316   3.816   0.908
 3649SOL    HW211847   4.367   3.846   1.061
 3650SOL     OW11848   0.572   6.062   1.319
 3650SOL    HW111849   0.669   6.065   1.294
 3650SOL    HW211850   0.518   6.107   1.248
 3651SOL     OW11851   0.473   5.706   2.465
 3651SOL    HW111852   0.425   5.713   2.553
 3651SOL    HW211853   0.406   5.701   2.391
 3652SOL     OW11854   4.638   6.087   3.476
 3652SOL    HW111855   4.598   6.178   3.492
 3652SOL    HW211856   4.605   6.051   3.389
 3653SOL     OW11857   6.183   1.610   3.152
 3653SOL    HW111858   6.244   1.613   3.073
 3653SOL    HW211859   6.116   1.537   3.140
 3654SOL     OW11860   2.289   6.456   0.365
 3654SOL    HW111861   2.257   6.509   0.443
 3654SOL    HW211862   2.255   6.362   0.373
 3655SOL     OW11863   1.861   0.121   4.749
 3655SOL    HW111864   1.771   0.147   4.714
 3655SOL    HW211865   1.852   0.092   4.844
 3656SOL     OW11866   2.025   2.397   1.975
 3656SOL    HW111867   2.006   2.476   2.034
 3656SOL    HW211868   2.121   2.373   1.981
 3657SOL     OW11869   3.885   5.756   0.215
 3657SOL    HW111870   3.834   5.832   0.174
 3657SOL    HW211871   3.974   5.789   0.247
 3658SOL     OW11872   1.243   5.567   5.001
 3658SOL    HW111873   1.206   5.591   5.090
 3658SOL    HW211874   1.343   5.561   5.006
 3659SOL     OW11875   2.947   4.950   0.291
 3659SOL    HW111876   2.862   4.961   0.344
 3659SOL    HW211877   2.975   4.854   0.294
 3660SOL     OW11878   4.609   5.960   1.623
 3660SOL    HW111879   4.574   5.996   1.537
 3660SOL    HW211880   4.605   5.860   1.622
 3661SOL     OW11881   5.354   1.996   0.826
 3661SOL    HW111882   5.353   1.901   0.857
 3661SOL    HW211883   5.298   2.052   0.886
 3662SOL     OW11884   3.731   0.234   5.239
 3662SOL    HW111885   3.703   0.138   5.238
 3662SOL    HW211886   3.682   0.284   5.168
 3663SOL     OW11887   1.648   2.190   0.286
 3663SOL    HW111888   1.610   2.098   0.286
 3663SOL    HW211889   1.687   2.211   0.197
 3664SOL     OW11890   5.401   1.644   0.624
 3664SOL    HW111891   5.361   1.733   0.606
 3664SOL    HW211892   5.355   1.575   0.568
 3665SOL     OW11893   0.611   6.869   5.039
 3665SOL    HW111894   0.599   6.858   5.138
 3665SOL    HW211895   0.527   6.841   4.992
 3666SOL     OW11896   1.359   4.344   4.309
 3666SOL    HW111897   1.352   4.416   4.377
 3666SOL    HW211898   1.376   4.384   4.219
 3667SOL     OW11899   6.548   0.662   6.475
 3667SOL    HW111900   6.509   0.753   6.464
 3667SOL    HW211901   6.543   0.613   6.388
 3668SOL     OW11902   1.431   6.984   3.193
 3668SOL    HW111903   1.470   7.006   3.103
 3668SOL    HW211904   1.354   0.023   3.211
 3669SOL     OW11905   6.069   1.941   4.221
 3669SOL    HW111906   6.114   2.027   4.241
 3669SOL    HW211907   5.979   1.939   4.264
 3670SOL     OW11908   2.016   5.359   6.935
 3670SOL    HW111909   2.050   5.439   6.885
 3670SOL    HW211910   1.916   5.354   6.925
 3671SOL     OW11911   0.180   0.483   3.402
 3671SOL    HW111912   0.265   0.533   3.389
 3671SOL    HW211913   0.140   0.462   3.313
 3672SOL     OW11914   6.240   2.424   0.654
 3672SOL    HW111915   6.213   2.512   0.616
 3672SOL    HW211916   6.298   2.376   0.588
 3673SOL     OW11917   4.161   1.251   6.723
 3673SOL    HW111918   4.073   1.295   6.701
 3673SOL    HW211919   4.144   1.156   6.751
 3674SOL     OW11920   0.406   6.606   6.966
 3674SOL    HW111921   0.381   6.657   0.027
 3674SOL    HW211922   0.340   6.624   6.894
 3675SOL     OW11923   1.410   2.891   5.851
 3675SOL    HW111924   1.458   2.804   5.860
 3675SOL    HW211925   1.417   2.923   5.756
 3676SOL     OW11926   3.531   5.165   4.286
 3676SOL    HW111927   3.528   5.109   4.369
 3676SOL    HW211928   3.562   5.109   4.209
 3677SOL     OW11929   0.131   6.947   2.842
 3677SOL    HW111930   0.035   6.970   2.822
 3677SOL    HW211931   0.186   6.965   2.761
 3678SOL     OW11932   1.668   2.508   3.788
 3678SOL    HW111933   1.677   2.588   3.848
 3678SOL    HW211934   1.606   2.442   3.830
 3679SOL     OW11935   0.641   0.933   2.641
 3679SOL    HW111936   0.688   0.929   2.553
 3679SOL    HW211937   0.644   0.843   2.685
 3680SOL     OW11938   6.060   3.008   3.998
 3680SOL    HW111939   6.081   3.042   3.906
 3680SOL    HW211940   6.130   2.941   4.025
 3681SOL     OW11941   0.865   0.498   6.212
 3681SOL    HW111942   0.775   0.519   6.249
 3681SOL    HW211943   0.858   0.487   6.113
 3682SOL     OW11944   6.457   1.915   5.308
 3682SOL    HW111945   6.556   1.900   5.305
 3682SOL    HW211946   6.410   1.828   5.291
 3683SOL     OW11947   6.241   6.186   4.739
 3683SOL    HW111948   6.190   6.105   4.709
 3683SOL    HW211949   6.181   6.266   4.737
 3684SOL     OW11950   1.953   2.958   1.793
 3684SOL    HW111951   1.936   3.044   1.841
 3684SOL    HW211952   2.007   2.897   1.852
 3685SOL     OW11953   6.326   5.914   6.354
 3685SOL    HW111954   6.228   5.931   6.353
 3685SOL    HW211955   6.363   5.939   6.444
 3686SOL     OW11956   6.233   4.993   2.166
 3686SOL    HW111957   6.191   5.025   2.251
 3686SOL    HW211958   6.274   4.903   2.180
 3687SOL     OW11959   2.944   7.018   6.650
 3687SOL    HW111960   2.897   6.929   6.651
 3687SOL    HW211961   3.015   7.018   6.721
 3688SOL     OW11962   0.999   3.487   0.604
 3688SOL    HW111963   1.007   3.493   0.504
 3688SOL    HW211964   1.066   3.421   0.638
 3689SOL     OW11965   1.695   1.409   5.383
 3689SOL    HW111966   1.667   1.471   5.310
 3689SOL    HW211967   1.616   1.356   5.414
 3690SOL     OW11968   5.206   0.553   5.994
 3690SOL    HW111969   5.133   0.562   5.927
 3690SOL    HW211970   5.264   0.635   5.991
 3691SOL     OW11971   2.901   3.751   6.954
 3691SOL    HW111972   2.854   3.670   6.920
 3691SOL    HW211973   2.977   3.723   7.013
 3692SOL     OW11974   0.825   6.167   4.871
 3692SOL    HW111975   0.775   6.101   4.814
 3692SOL    HW211976   0.816   6.141   4.967
 3693SOL     OW11977   2.446   2.441   3.622
 3693SOL    HW111978   2.471   2.357   3.574
 3693SOL    HW211979   2.408   2.507   3.556
 3694SOL     OW11980   0.612   6.266   3.306
 3694SOL    HW111981   0.608   6.179   3.354
 3694SOL    HW211982   0.520   6.307   3.303
 3695SOL     OW11983   1.464   2.061   2.841
 3695SOL    HW111984   1.377   2.087   2.799
 3695SOL    HW211985   1.524   2.141   2.845
 3696SOL     OW11986   4.662   6.393   5.197
 3696SOL    HW111987   4.573   6.423   5.165
 3696SOL    HW211988   4.666   6.399   5.296
 3697SOL     OW11989   6.847   6.923   3.625
 3697SOL    HW111990   6.829   6.844   3.567
 3697SOL    HW211991   6.916   6.981   3.581
 3698SOL     OW11992   3.546   0.347   5.459
 3698SOL    HW111993   3.604   0.425   5.482
 3698SOL    HW211994   3.450   0.372   5.473
 3699SOL     OW11995   0.149   3.437   2.706
 3699SOL    HW111996   0.238   3.391   2.707
 3699SOL    HW211997   0.133   3.475   2.615
 3700SOL     OW11998   6.180   0.073   4.362
 3700SOL    HW111999   6.165   6.996   4.355
 3700SOL    HW212000   6.277   0.093   4.345
 3701SOL     OW12001   0.193   0.763   3.728
 3701SOL    HW112002   0.104   0.717   3.724
 3701SOL    HW212003   0.219   0.795   3.637
 3702SOL     OW12004   3.799   0.289   1.638
 3702SOL    HW112005   3.754   0.207   1.672
 3702SOL    HW212006   3.824   0.348   1.715
 3703SOL     OW12007   4.063   4.490   6.080
 3703SOL    HW112008   4.162   4.482   6.089
 3703SOL    HW212009   4.039   4.580   6.044
 3704SOL     OW12010   3.046   1.293   2.630
 3704SOL    HW112011   3.133   1.293   2.679
 3704SOL    HW212012   2.984   1.228   2.674
 3705SOL     OW12013   4.996   0.494   3.764
 3705SOL    HW112014   4.935   0.461   3.836
 3705SOL    HW212015   4.972   0.451   3.677
 3706SOL     OW12016   1.770   3.187   4.384
 3706SOL    HW112017   1.739   3.257   4.448
 3706SOL    HW212018   1.718   3.103   4.399
 3707SOL     OW12019   5.230   2.235   5.695
 3707SOL    HW112020   5.183   2.181   5.625
 3707SOL    HW212021   5.328   2.216   5.692
 3708SOL     OW12022   6.217   0.487   6.852
 3708SOL    HW112023   6.151   0.554   6.817
 3708SOL    HW212024   6.171   0.399   6.866
 3709SOL     OW12025   4.219   0.697   6.034
 3709SOL    HW112026   4.179   0.605   6.041
 3709SOL    HW212027   4.171   0.749   5.963
 3710SOL     OW12028   6.283   5.313   0.420
 3710SOL    HW112029   6.215   5.383   0.443
 3710SOL    HW212030   6.261   5.229   0.468
 3711SOL     OW12031   0.405   6.069   2.036
 3711SOL    HW112032   0.456   6.054   2.121
 3711SOL    HW212033   0.340   6.143   2.049
 3712SOL     OW12034   0.524   6.648   6.592
 3712SOL    HW112035   0.589   6.592   6.645
 3712SOL    HW212036   0.560   6.740   6.582
 3713SOL     OW12037   2.528   5.896   4.863
 3713SOL    HW112038   2.625   5.876   4.848
 3713SOL    HW212039   2.481   5.813   4.894
 3714SOL     OW12040   4.487   6.789   3.993
 3714SOL    HW112041   4.489   6.702   4.042
 3714SOL    HW212042   4.483   6.864   4.059
 3715SOL     OW12043   5.353   5.007   3.858
 3715SOL    HW112044   5.419   4.954   3.911
 3715SOL    HW212045   5.275   4.948   3.834
 3716SOL     OW12046   6.339   0.284   4.515
 3716SOL    HW112047   6.277   0.297   4.438
 3716SOL    HW212048   6.304   0.212   4.575
 3717SOL     OW12049   6.289   5.530   1.017
 3717SOL    HW112050   6.318   5.570   1.103
 3717SOL    HW212051   6.345   5.566   0.942
 3718SOL     OW12052   1.060   6.713   0.062
 3718SOL    HW112053   1.006   6.635   0.031
 3718SOL    HW212054   1.064   6.782   7.011
 3719SOL     OW12055   4.978   4.897   7.008
 3719SOL    HW112056   4.973   4.812   6.955
 3719SOL    HW212057   5.041   4.884   0.064
 3720SOL     OW12058   6.812   1.771   6.419
 3720SOL    HW112059   6.880   1.844   6.417
 3720SOL    HW212060   6.801   1.739   6.513
 3721SOL     OW12061   6.183   4.599   6.988
 3721SOL    HW112062   6.173   4.584   6.889
 3721SOL    HW212063   6.247   4.675   7.003
 3722SOL     OW12064   0.041   6.020   2.696
 3722SOL    HW112065   0.010   5.936   2.651
 3722SOL    HW212066   6.985   6.060   2.745
 3723SOL     OW12067   5.781   6.789   1.629
 3723SOL    HW112068   5.774   6.855   1.554
 3723SOL    HW212069   5.872   6.748   1.628
 3724SOL     OW12070   0.737   5.198   0.561
 3724SOL    HW112071   0.730   5.295   0.536
 3724SOL    HW212072   0.673   5.145   0.506
 3725SOL     OW12073   6.623   6.158   6.825
 3725SOL    HW112074   6.535   6.146   6.780
 3725SOL    HW212075   6.674   6.232   6.780
 3726SOL     OW12076   6.135   3.599   1.707
 3726SOL    HW112077   6.114   3.690   1.742
 3726SOL    HW212078   6.223   3.569   1.743
 3727SOL     OW12079   1.056   2.944   5.025
 3727SOL    HW112080   1.014   3.034   5.007
 3727SOL    HW212081   1.003   2.873   4.979
 3728SOL     OW12082   2.305   3.047   0.434
 3728SOL    HW112083   2.319   2.959   0.479
 3728SOL    HW212084   2.212   3.053   0.400
 3729SOL     OW12085   0.903   2.184   3.094
 3729SOL    HW112086   0.833   2.140   3.151
 3729SOL    HW212087   0.896   2.151   3.000
 3730SOL     OW12088   3.215   0.591   6.790
 3730SOL    HW112089   3.272   0.662   6.831
 3730SOL    HW212090   3.185   0.528   6.861
 3731SOL     OW12091   4.352   1.522   1.131
 3731SOL    HW112092   4.367   1.562   1.041
 3731SOL    HW212093   4.437   1.479   1.163
 3732SOL     OW12094   2.187   3.594   5.588
 3732SOL    HW112095   2.275   3.565   5.549
 3732SOL    HW212096   2.129   3.513   5.601
 3733SOL     OW12097   2.556   3.780   1.410
 3733SOL    HW112098   2.511   3.694   1.431
 3733SOL    HW212099   2.648   3.781   1.450
 3734SOL     OW12100   4.210   1.297   2.419
 3734SOL    HW112101   4.215   1.340   2.509
 3734SOL    HW212102   4.202   1.367   2.349
 3735SOL     OW12103   1.833   2.440   2.962
 3735SOL    HW112104   1.924   2.400   2.954
 3735SOL    HW212105   1.839   2.523   3.019
 3736SOL     OW12106   6.671   2.837   0.935
 3736SOL    HW112107   6.703   2.743   0.936
 3736SOL    HW212108   6.622   2.857   1.020
 3737SOL     OW12109   5.107   0.102   2.515
 3737SOL    HW112110   5.167   0.115   2.436
 3737SOL    HW212111   5.161   0.083   2.596
 3738SOL     OW12112   6.113   6.264   3.394
 3738SOL    HW112113   6.055   6.345   3.409
 3738SOL    HW212114   6.061   6.195   3.344
 3739SOL     OW12115   1.494   4.024   2.091
 3739SOL    HW112116   1.542   3.951   2.140
 3739SOL    HW212117   1.552   4.059   2.018
 3740SOL     OW12118   5.015   1.253   0.184
 3740SOL    HW112119   5.086   1.317   0.155
 3740SOL    HW212120   4.945   1.303   0.235
 3741SOL     OW12121   4.296   3.452   1.039
 3741SOL    HW112122   4.366   3.413   0.979
 3741SOL    HW212123   4.338   3.476   1.127
 3742SOL     OW12124   3.411   1.982   5.922
 3742SOL    HW112125   3.388   2.021   5.833
 3742SOL    HW212126   3.469   2.045   5.973
 3743SOL     OW12127   6.444   4.994   0.365
 3743SOL    HW112128   6.448   5.061   0.291
 3743SOL    HW212129   6.378   5.023   0.433
 3744SOL     OW12130   0.163   5.270   3.924
 3744SOL    HW112131   0.137   5.355   3.877
 3744SOL    HW212132   0.247   5.286   3.977
 3745SOL     OW12133   3.634   5.605   2.700
 3745SOL    HW112134   3.586   5.667   2.638
 3745SOL    HW212135   3.583   5.519   2.707
 3746SOL     OW12136   4.171   2.161   1.525
 3746SOL    HW112137   4.090   2.185   1.578
 3746SOL    HW212138   4.224   2.091   1.574
 3747SOL     OW12139   3.228   6.811   0.012
 3747SOL    HW112140   3.223   6.874   0.089
 3747SOL    HW212141   3.318   6.766   0.012
 3748SOL     OW12142   5.783   0.617   1.345
 3748SOL    HW112143   5.740   0.665   1.421
 3748SOL    HW212144   5.727   0.626   1.263
 3749SOL     OW12145   1.137   6.920   4.026
 3749SOL    HW112146   1.081   6.858   3.971
 3749SOL    HW212147   1.108   6.916   4.121
 3750SOL     OW12148   0.074   3.897   0.299
 3750SOL    HW112149   0.027   3.978   0.266
 3750SOL    HW212150   0.084   3.831   0.224
 3751SOL     OW12151   0.051   4.175   3.081
 3751SOL    HW112152   7.010   4.098   3.068
 3751SOL    HW212153   0.087   4.174   3.174
 3752SOL     OW12154   5.906   1.393   5.709
 3752SOL    HW112155   5.864   1.304   5.725
 3752SOL    HW212156   5.906   1.445   5.794
 3753SOL     OW12157   6.175   1.128   3.770
 3753SOL    HW112158   6.082   1.160   3.788
 3753SOL    HW212159   6.230   1.204   3.735
 3754SOL     OW12160   2.315   1.483   2.189
 3754SOL    HW112161   2.303   1.426   2.271
 3754SOL    HW212162   2.234   1.541   2.176
 3755SOL     OW12163   3.205   5.126   4.290
 3755SOL    HW112164   3.167   5.047   4.241
 3755SOL    HW212165   3.131   5.173   4.339
 3756SOL     OW12166   2.450   5.982   0.233
 3756SOL    HW112167   2.437   5.956   0.137
 3756SOL    HW212168   2.547   5.997   0.251
 3757SOL     OW12169   6.578   4.396   1.674
 3757SOL    HW112170   6.532   4.320   1.629
 3757SOL    HW212171   6.596   4.371   1.770
 3758SOL     OW12172   1.979   0.330   3.484
 3758SOL    HW112173   2.066   0.329   3.435
 3758SOL    HW212174   1.989   0.283   3.572
 3759SOL     OW12175   5.062   0.357   4.189
 3759SOL    HW112176   5.122   0.435   4.204
 3759SOL    HW212177   5.082   0.285   4.255
 3760SOL     OW12178   7.007   0.584   3.727
 3760SOL    HW112179   6.963   0.609   3.641
 3760SOL    HW212180   6.960   0.629   3.803
 3761SOL     OW12181   5.680   0.921   4.145
 3761SOL    HW112182   5.661   1.019   4.132
 3761SOL    HW212183   5.677   0.875   4.057
 3762SOL     OW12184   1.197   3.816   2.486
 3762SOL    HW112185   1.162   3.857   2.402
 3762SOL    HW212186   1.254   3.882   2.535
 3763SOL     OW12187   6.954   4.306   0.342
 3763SOL    HW112188   6.965   4.405   0.354
 3763SOL    HW212189   6.984   4.259   0.425
 3764SOL     OW12190   1.518   0.451   3.349
 3764SOL    HW112191   1.598   0.422   3.402
 3764SOL    HW212192   1.487   0.375   3.291
 3765SOL     OW12193   6.141   1.724   1.513
 3765SOL    HW112194   6.114   1.771   1.597
 3765SOL    HW212195   6.065   1.725   1.448
 3766SOL     OW12196   1.738   3.824   3.384
 3766SOL    HW112197   1.786   3.773   3.456
 3766SOL    HW212198   1.801   3.889   3.341
 3767SOL     OW12199   2.639   4.738   6.290
 3767SOL    HW112200   2.682   4.803   6.353
 3767SOL    HW212201   2.592   4.667   6.341
 3768SOL     OW12202   1.690   0.175   5.115
 3768SOL    HW112203   1.764   0.242   5.116
 3768SOL    HW212204   1.612   0.211   5.063
 3769SOL     OW12205   4.591   5.801   4.659
 3769SOL    HW112206   4.597   5.863   4.738
 3769SOL    HW212207   4.593   5.855   4.575
 3770SOL     OW12208   0.912   1.612   0.437
 3770SOL    HW112209   1.010   1.594   0.434
 3770SOL    HW212210   0.881   1.641   0.346
 3771SOL     OW12211   0.331   4.611   0.625
 3771SOL    HW112212   0.272   4.531   0.637
 3771SOL    HW212213   0.346   4.656   0.713
 3772SOL     OW12214   1.155   5.945   0.768
 3772SOL    HW112215   1.112   6.030   0.799
 3772SOL    HW212216   1.125   5.925   0.675
 3773SOL     OW12217   5.799   2.996   5.983
 3773SOL    HW112218   5.805   2.993   5.884
 3773SOL    HW212219   5.753   3.080   6.011
 3774SOL     OW12220   5.368   6.214   1.504
 3774SOL    HW112221   5.416   6.298   1.477
 3774SOL    HW212222   5.282   6.208   1.455
 3775SOL     OW12223   3.875   4.900   3.352
 3775SOL    HW112224   3.877   4.948   3.440
 3775SOL    HW212225   3.953   4.838   3.346
 3776SOL     OW12226   3.261   2.535   6.815
 3776SOL    HW112227   3.211   2.458   6.775
 3776SOL    HW212228   3.231   2.620   6.773
 3777SOL     OW12229   2.945   6.164   4.183
 3777SOL    HW112230   2.942   6.211   4.095
 3777SOL    HW212231   2.938   6.065   4.169
 3778SOL     OW12232   3.086   5.571   4.875
 3778SOL    HW112233   3.108   5.513   4.953
 3778SOL    HW212234   3.012   5.529   4.822
 3779SOL     OW12235   0.004   5.150   0.252
 3779SOL    HW112236   0.037   5.207   0.327
 3779SOL    HW212237   0.039   5.185   0.165
 3780SOL     OW12238   6.507   3.073   1.648
 3780SOL    HW112239   6.537   3.134   1.575
 3780SOL    HW212240   6.407   3.072   1.653
 3781SOL     OW12241   2.142   6.500   5.120
 3781SOL    HW112242   2.101   6.533   5.034
 3781SOL    HW212243   2.214   6.563   5.149
 3782SOL     OW12244   4.931   6.026   1.406
 3782SOL    HW112245   4.947   6.065   1.497
 3782SOL    HW212246   5.007   6.049   1.346
 3783SOL     OW12247   5.583   4.924   6.105
 3783SOL    HW112248   5.607   5.005   6.053
 3783SOL    HW212249   5.649   4.851   6.086
 3784SOL     OW12250   5.188   2.377   3.693
 3784SOL    HW112251   5.190   2.287   3.651
 3784SOL    HW212252   5.275   2.424   3.675
 3785SOL     OW12253   1.137   3.925   4.540
 3785SOL    HW112254   1.124   3.841   4.594
 3785SOL    HW212255   1.114   4.004   4.596
 3786SOL     OW12256   2.190   2.659   4.512
 3786SOL    HW112257   2.256   2.648   4.438
 3786SOL    HW212258   2.186   2.574   4.566
 3787SOL     OW12259   4.360   0.136   3.271
 3787SOL    HW112260   4.406   0.202   3.331
 3787SOL    HW212261   4.413   0.051   3.269
 3788SOL     OW12262   0.230   3.045   5.181
 3788SOL    HW112263   0.308   2.997   5.220
 3788SOL    HW212264   0.149   3.029   5.237
 3789SOL     OW12265   1.833   2.782   2.780
 3789SOL    HW112266   1.869   2.873   2.760
 3789SOL    HW212267   1.786   2.783   2.868
 3790SOL     OW12268   0.634   6.911   0.542
 3790SOL    HW112269   0.706   6.936   0.477
 3790SOL    HW212270   0.621   6.986   0.607
 3791SOL     OW12271   5.764   0.878   5.898
 3791SOL    HW112272   5.702   0.929   5.839
 3791SOL    HW212273   5.713   0.836   5.974
 3792SOL     OW12274   0.883   1.215   3.891
 3792SOL    HW112275   0.844   1.259   3.810
 3792SOL    HW212276   0.828   1.135   3.915
 3793SOL     OW12277   6.433   6.350   0.417
 3793SOL    HW112278   6.498   6.366   0.342
 3793SOL    HW212279   6.443   6.256   0.450
 3794SOL     OW12280   2.194   4.051   0.437
 3794SOL    HW112281   2.223   3.957   0.422
 3794SOL    HW212282   2.273   4.112   0.432
 3795SOL     OW12283   2.538   5.367   1.286
 3795SOL    HW112284   2.494   5.408   1.206
 3795SOL    HW212285   2.471   5.359   1.360
 3796SOL     OW12286   3.961   2.037   6.809
 3796SOL    HW112287   3.944   1.948   6.768
 3796SOL    HW212288   4.026   2.088   6.753
 3797SOL     OW12289   0.816   4.536   3.210
 3797SOL    HW112290   0.808   4.494   3.300
 3797SOL    HW212291   0.893   4.494   3.160
 3798SOL     OW12292   2.364   6.161   3.152
 3798SOL    HW112293   2.463   6.167   3.164
 3798SOL    HW212294   2.338   6.204   3.066
 3799SOL     OW12295   6.794   2.337   3.000
 3799SOL    HW112296   6.702   2.353   3.037
 3799SOL    HW212297   6.802   2.383   2.912
 3800SOL     OW12298   5.503   1.752   3.111
 3800SOL    HW112299   5.474   1.672   3.059
 3800SOL    HW212300   5.527   1.725   3.204
 3801SOL     OW12301   5.299   0.192   2.310
 3801SOL    HW112302   5.270   0.104   2.272
 3801SOL    HW212303   5.326   0.253   2.235
 3802SOL     OW12304   6.106   1.800   1.791
 3802SOL    HW112305   6.135   1.739   1.865
 3802SOL    HW212306   6.009   1.784   1.771
 3803SOL     OW12307   2.905   3.672   4.249
 3803SOL    HW112308   2.808   3.698   4.250
 3803SOL    HW212309   2.959   3.744   4.205
 3804SOL     OW12310   3.525   0.042   4.830
 3804SOL    HW112311   3.605   0.096   4.857
 3804SOL    HW212312   3.477   0.088   4.756
 3805SOL     OW12313   2.239   3.088   0.101
 3805SOL    HW112314   2.189   3.117   0.183
 3805SOL    HW212315   2.270   2.994   0.112
 3806SOL     OW12316   4.267   4.231   6.785
 3806SOL    HW112317   4.243   4.214   6.881
 3806SOL    HW212318   4.307   4.148   6.746
 3807SOL     OW12319   1.148   5.132   4.001
 3807SOL    HW112320   1.137   5.223   3.961
 3807SOL    HW212321   1.062   5.102   4.042
 3808SOL     OW12322   4.486   6.765   6.163
 3808SOL    HW112323   4.426   6.741   6.086
 3808SOL    HW212324   4.580   6.773   6.130
 3809SOL     OW12325   5.524   1.987   1.650
 3809SOL    HW112326   5.452   1.990   1.580
 3809SOL    HW212327   5.493   1.931   1.726
 3810SOL     OW12328   6.555   2.261   2.152
 3810SOL    HW112329   6.626   2.302   2.095
 3810SOL    HW212330   6.497   2.334   2.190
 3811SOL     OW12331   6.810   5.281   4.897
 3811SOL    HW112332   6.784   5.294   4.801
 3811SOL    HW212333   6.898   5.325   4.913
 3812SOL     OW12334   3.700   6.126   0.161
 3812SOL    HW112335   3.618   6.073   0.184
 3812SOL    HW212336   3.767   6.117   0.235
 3813SOL     OW12337   6.767   3.633   1.044
 3813SOL    HW112338   6.784   3.591   1.134
 3813SOL    HW212339   6.682   3.596   1.006
 3814SOL     OW12340   6.564   0.425   4.423
 3814SOL    HW112341   6.482   0.374   4.450
 3814SOL    HW212342   6.608   0.461   4.505
 3815SOL     OW12343   4.559   3.473   0.446
 3815SOL    HW112344   4.568   3.440   0.352
 3815SOL    HW212345   4.649   3.480   0.488
 3816SOL     OW12346   1.377   6.205   5.964
 3816SOL    HW112347   1.474   6.187   5.945
 3816SOL    HW212348   1.321   6.138   5.917
 3817SOL     OW12349   5.117   3.526   2.554
 3817SOL    HW112350   5.168   3.451   2.596
 3817SOL    HW212351   5.046   3.489   2.494
 3818SOL     OW12352   0.750   0.888   2.143
 3818SOL    HW112353   0.764   0.813   2.079
 3818SOL    HW212354   0.659   0.926   2.131
 3819SOL     OW12355   6.270   4.871   3.472
 3819SOL    HW112356   6.189   4.817   3.497
 3819SOL    HW212357   6.242   4.948   3.415
 3820SOL     OW12358   5.473   6.780   4.388
 3820SOL    HW112359   5.476   6.838   4.307
 3820SOL    HW212360   5.554   6.721   4.389
 3821SOL     OW12361   0.727   6.960   0.057
 3821SOL    HW112362   0.699   0.030   0.028
 3821SOL    HW212363   0.710   6.949   0.155
 3822SOL     OW12364   3.561   1.312   6.950
 3822SOL    HW112365   3.572   1.345   6.857
 3822SOL    HW212366   3.529   1.387   7.009
 3823SOL     OW12367   4.900   4.689   6.070
 3823SOL    HW112368   4.947   4.602   6.058
 3823SOL    HW212369   4.953   4.762   6.027
 3824SOL     OW12370   1.780   3.172   0.238
 3824SOL    HW112371   1.712   3.190   0.167
 3824SOL    HW212372   1.733   3.149   0.324
 3825SOL     OW12373   1.542   3.846   6.707
 3825SOL    HW112374   1.620   3.834   6.645
 3825SOL    HW212375   1.458   3.850   6.653
 3826SOL     OW12376   6.157   4.345   1.856
 3826SOL    HW112377   6.177   4.263   1.909
 3826SOL    HW212378   6.220   4.418   1.882
 3827SOL     OW12379   1.000   1.008   1.484
 3827SOL    HW112380   1.020   1.020   1.387
 3827SOL    HW212381   1.055   0.932   1.520
 3828SOL     OW12382   3.710   4.050   4.767
 3828SOL    HW112383   3.784   4.062   4.700
 3828SOL    HW212384   3.639   3.991   4.727
 3829SOL     OW12385   0.143   4.735   2.257
 3829SOL    HW112386   0.184   4.653   2.219
 3829SOL    HW212387   0.151   4.734   2.357
 3830SOL     OW12388   0.774   0.716   5.186
 3830SOL    HW112389   0.717   0.783   5.234
 3830SOL    HW212390   0.799   0.752   5.096
 3831SOL     OW12391   4.664   1.815   3.189
 3831SOL    HW112392   4.603   1.889   3.218
 3831SOL    HW212393   4.734   1.800   3.259
 3832SOL     OW12394   0.876   0.367   2.268
 3832SOL    HW112395   0.812   0.293   2.290
 3832SOL    HW212396   0.852   0.406   2.179
 3833SOL     OW12397   1.337   0.080   6.412
 3833SOL    HW112398   1.314   0.159   6.355
 3833SOL    HW212399   1.375   0.008   6.355
 3834SOL     OW12400   4.653   4.201   1.143
 3834SOL    HW112401   4.736   4.254   1.157
 3834SOL    HW212402   4.646   4.174   1.047
 3835SOL     OW12403   3.466   6.032   5.472
 3835SOL    HW112404   3.512   5.997   5.391
 3835SOL    HW212405   3.464   5.962   5.543
 3836SOL     OW12406   0.445   5.434   6.537
 3836SOL    HW112407   0.378   5.360   6.537
 3836SOL    HW212408   0.459   5.466   6.443
 3837SOL     OW12409   4.028   4.722   5.285
 3837SOL    HW112410   3.972   4.722   5.368
 3837SOL    HW212411   4.023   4.812   5.242
 3838SOL     OW12412   1.990   0.960   3.308
 3838SOL    HW112413   1.909   0.928   3.358
 3838SOL    HW212414   2.028   1.040   3.354
 3839SOL     OW12415   4.470   0.307   3.536
 3839SOL    HW112416   4.504   0.364   3.611
 3839SOL    HW212417   4.392   0.254   3.569
 3840SOL     OW12418   2.592   0.430   0.449
 3840SOL    HW112419   2.496   0.412   0.426
 3840SOL    HW212420   2.651   0.368   0.399
 3841SOL     OW12421   6.650   5.190   3.980
 3841SOL    HW112422   6.626   5.267   4.039
 3841SOL    HW212423   6.578   5.121   3.985
 3842SOL     OW12424   2.342   2.706   4.873
 3842SOL    HW112425   2.440   2.724   4.858
 3842SOL    HW212426   2.295   2.792   4.890
 3843SOL     OW12427   5.100   3.255   0.574
 3843SOL    HW112428   5.060   3.245   0.482
 3843SOL    HW212429   5.028   3.275   0.639
 3844SOL     OW12430   1.386   5.018   0.319
 3844SOL    HW112431   1.390   5.117   0.304
 3844SOL    HW212432   1.454   4.992   0.387
 3845SOL     OW12433   2.078   5.794   0.138
 3845SOL    HW112434   2.165   5.744   0.131
 3845SOL    HW212435   2.037   5.803   0.047
 3846SOL     OW12436   0.928   3.234   4.496
 3846SOL    HW112437   0.893   3.233   4.402
 3846SOL    HW212438   0.859   3.274   4.556
 3847SOL     OW12439   5.749   1.555   4.844
 3847SOL    HW112440   5.724   1.572   4.939
 3847SOL    HW212441   5.768   1.457   4.831
 3848SOL     OW12442   4.821   3.144   2.482
 3848SOL    HW112443   4.798   3.077   2.413
 3848SOL    HW212444   4.837   3.233   2.439
 3849SOL     OW12445   0.787   6.347   5.832
 3849SOL    HW112446   0.697   6.303   5.830
 3849SOL    HW212447   0.784   6.426   5.893
 3850SOL     OW12448   2.889   2.392   1.544
 3850SOL    HW112449   2.908   2.356   1.453
 3850SOL    HW212450   2.932   2.332   1.613
 3851SOL     OW12451   0.169   5.247   3.403
 3851SOL    HW112452   0.152   5.257   3.305
 3851SOL    HW212453   0.089   5.205   3.446
 3852SOL     OW12454   3.101   6.935   4.437
 3852SOL    HW112455   3.073   6.839   4.435
 3852SOL    HW212456   3.037   6.987   4.495
 3853SOL     OW12457   2.067   1.665   4.051
 3853SOL    HW112458   2.032   1.603   3.981
 3853SOL    HW212459   1.993   1.693   4.111
 3854SOL     OW12460   1.484   2.748   2.805
 3854SOL    HW112461   1.425   2.667   2.808
 3854SOL    HW212462   1.545   2.742   2.727
 3855SOL     OW12463   4.891   6.658   0.278
 3855SOL    HW112464   4.913   6.753   0.299
 3855SOL    HW212465   4.830   6.622   0.348
 3856SOL     OW12466   6.849   2.014   6.694
 3856SOL    HW112467   6.933   2.003   6.748
 3856SOL    HW212468   6.863   1.979   6.601
 3857SOL     OW12469   2.179   6.479   5.878
 3857SOL    HW112470   2.224   6.441   5.958
 3857SOL    HW212471   2.123   6.557   5.905
 3858SOL     OW12472   3.750   1.441   5.442
 3858SOL    HW112473   3.781   1.524   5.397
 3858SOL    HW212474   3.657   1.454   5.476
 3859SOL     OW12475   5.631   0.595   1.084
 3859SOL    HW112476   5.598   0.689   1.093
 3859SOL    HW212477   5.556   0.536   1.053
 3860SOL     OW12478   1.948   0.834   4.361
 3860SOL    HW112479   2.030   0.885   4.387
 3860SOL    HW212480   1.902   0.880   4.285
 3861SOL     OW12481   4.293   5.765   2.714
 3861SOL    HW112482   4.299   5.671   2.748
 3861SOL    HW212483   4.355   5.824   2.766
 3862SOL     OW12484   0.438   0.678   4.051
 3862SOL    HW112485   0.353   0.655   4.097
 3862SOL    HW212486   0.429   0.660   3.953
 3863SOL     OW12487   5.153   0.469   0.124
 3863SOL    HW112488   5.057   0.481   0.150
 3863SOL    HW212489   5.185   0.551   0.077
 3864SOL     OW12490   2.560   0.422   5.191
 3864SOL    HW112491   2.619   0.369   5.252
 3864SOL    HW212492   2.487   0.465   5.243
 3865SOL     OW12493   4.875   1.081   0.368
 3865SOL    HW112494   4.825   1.124   0.294
 3865SOL    HW212495   4.969   1.115   0.370
 3866SOL     OW12496   3.593   1.718   6.782
 3866SOL    HW112497   3.619   1.672   6.867
 3866SOL    HW212498   3.618   1.815   6.788
 3867SOL     OW12499   1.412   4.783   3.147
 3867SOL    HW112500   1.442   4.688   3.142
 3867SOL    HW212501   1.337   4.790   3.213
 3868SOL     OW12502   3.895   0.656   6.524
 3868SOL    HW112503   3.852   0.635   6.436
 3868SOL    HW212504   3.854   0.739   6.562
 3869SOL     OW12505   6.852   3.493   3.929
 3869SOL    HW112506   6.903   3.550   3.993
 3869SOL    HW212507   6.856   3.533   3.838
 3870SOL     OW12508   6.661   6.697   2.866
 3870SOL    HW112509   6.577   6.682   2.918
 3870SOL    HW212510   6.639   6.742   2.779
 3871SOL     OW12511   2.875   6.693   3.706
 3871SOL    HW112512   2.893   6.603   3.667
 3871SOL    HW212513   2.866   6.685   3.806
 3872SOL     OW12514   3.319   2.942   4.204
 3872SOL    HW112515   3.239   3.001   4.203
 3872SOL    HW212516   3.350   2.929   4.298
 3873SOL     OW12517   5.194   3.939   0.655
 3873SOL    HW112518   5.174   4.006   0.727
 3873SOL    HW212519   5.109   3.891   0.631
 3874SOL     OW12520   4.574   0.378   0.310
 3874SOL    HW112521   4.573   0.321   0.392
 3874SOL    HW212522   4.553   0.323   0.230
 3875SOL     OW12523   2.159   3.343   4.034
 3875SOL    HW112524   2.164   3.373   4.129
 3875SOL    HW212525   2.100   3.405   3.982
 3876SOL     OW12526   3.913   6.068   0.313
 3876SOL    HW112527   3.970   6.127   0.257
 3876SOL    HW212528   3.970   6.002   0.361
 3877SOL     OW12529   6.470   2.414   0.827
 3877SOL    HW112530   6.412   2.406   0.746
 3877SOL    HW212531   6.489   2.511   0.844
 3878SOL     OW12532   4.715   6.504   4.325
 3878SOL    HW112533   4.761   6.593   4.327
 3878SOL    HW212534   4.617   6.518   4.337
 3879SOL     OW12535   5.752   5.010   0.096
 3879SOL    HW112536   5.800   4.939   0.147
 3879SOL    HW212537   5.811   5.090   0.087
 3880SOL     OW12538   5.172   3.470   4.494
 3880SOL    HW112539   5.207   3.382   4.462
 3880SOL    HW212540   5.089   3.455   4.548
 3881SOL     OW12541   1.187   3.744   1.246
 3881SOL    HW112542   1.257   3.803   1.285
 3881SOL    HW212543   1.136   3.699   1.319
 3882SOL     OW12544   1.608   1.289   7.012
 3882SOL    HW112545   1.695   1.240   7.014
 3882SOL    HW212546   1.565   1.277   6.922
 3883SOL     OW12547   4.579   0.648   2.681
 3883SOL    HW112548   4.658   0.620   2.627
 3883SOL    HW212549   4.509   0.686   2.621
 3884SOL     OW12550   0.669   5.771   3.132
 3884SOL    HW112551   0.738   5.785   3.203
 3884SOL    HW212552   0.688   5.686   3.083
 3885SOL     OW12553   5.762   6.356   3.155
 3885SOL    HW112554   5.788   6.412   3.234
 3885SOL    HW212555   5.741   6.415   3.077
 3886SOL     OW12556   5.124   5.832   5.506
 3886SOL    HW112557   5.124   5.917   5.454
 3886SOL    HW212558   5.031   5.811   5.536
 3887SOL     OW12559   1.114   6.906   0.469
 3887SOL    HW112560   1.113   6.917   0.568
 3887SOL    HW212561   1.030   6.861   0.439
 3888SOL     OW12562   6.131   5.924   4.649
 3888SOL    HW112563   6.032   5.927   4.654
 3888SOL    HW212564   6.162   5.829   4.658
 3889SOL     OW12565   6.405   2.629   6.910
 3889SOL    HW112566   6.351   2.640   6.826
 3889SOL    HW212567   6.362   2.681   6.984
 3890SOL     OW12568   5.358   4.309   4.030
 3890SOL    HW112569   5.444   4.267   3.999
 3890SOL    HW212570   5.376   4.401   4.065
 3891SOL     OW12571   5.207   3.847   3.474
 3891SOL    HW112572   5.196   3.937   3.517
 3891SOL    HW212573   5.130   3.789   3.500
 3892SOL     OW12574   0.280   3.100   1.392
 3892SOL    HW112575   0.377   3.124   1.385
 3892SOL    HW212576   0.263   3.016   1.340
 3893SOL     OW12577   4.294   3.854   1.214
 3893SOL    HW112578   4.233   3.925   1.249
 3893SOL    HW212579   4.286   3.772   1.271
 3894SOL     OW12580   5.444   0.868   6.352
 3894SOL    HW112581   5.394   0.943   6.396
 3894SOL    HW212582   5.381   0.793   6.334
 3895SOL     OW12583   1.902   0.334   5.167
 3895SOL    HW112584   1.970   0.269   5.201
 3895SOL    HW212585   1.867   0.389   5.243
 3896SOL     OW12586   0.505   1.160   6.634
 3896SOL    HW112587   0.499   1.168   6.734
 3896SOL    HW212588   0.529   1.248   6.595
 3897SOL     OW12589   4.045   5.803   2.609
 3897SOL    HW112590   4.131   5.794   2.660
 3897SOL    HW212591   4.064   5.840   2.518
 3898SOL     OW12592   3.415   2.173   6.841
 3898SOL    HW112593   3.434   2.271   6.836
 3898SOL    HW212594   3.499   2.122   6.823
 3899SOL     OW12595   4.557   6.452   6.107
 3899SOL    HW112596   4.490   6.509   6.061
 3899SOL    HW212597   4.604   6.505   6.178
 3900SOL     OW12598   5.110   2.694   3.987
 3900SOL    HW112599   5.120   2.764   4.058
 3900SOL    HW212600   5.182   2.707   3.918
 3901SOL     OW12601   3.562   0.865   6.275
 3901SOL    HW112602   3.469   0.828   6.271
 3901SOL    HW212603   3.570   0.928   6.352
 3902SOL     OW12604   5.973   3.068   2.110
 3902SOL    HW112605   6.029   3.107   2.038
 3902SOL    HW212606   6.020   3.079   2.198
 3903SOL     OW12607   3.591   6.631   0.292
 3903SOL    HW112608   3.593   6.582   0.379
 3903SOL    HW212609   3.678   6.679   0.279
 3904SOL     OW12610   1.784   0.590   6.645
 3904SOL    HW112611   1.688   0.564   6.635
 3904SOL    HW212612   1.840   0.537   6.581
 3905SOL     OW12613   0.064   6.494   5.626
 3905SOL    HW112614   0.009   6.427   5.577
 3905SOL    HW212615   0.119   6.449   5.695
 3906SOL     OW12616   5.736   6.594   5.864
 3906SOL    HW112617   5.732   6.669   5.930
 3906SOL    HW212618   5.796   6.522   5.898
 3907SOL     OW12619   5.928   0.827   3.961
 3907SOL    HW112620   6.026   0.844   3.969
 3907SOL    HW212621   5.911   0.729   3.967
 3908SOL     OW12622   0.782   2.596   0.026
 3908SOL    HW112623   0.836   2.672   7.012
 3908SOL    HW212624   0.830   2.510   0.007
 3909SOL     OW12625   5.806   6.084   4.279
 3909SOL    HW112626   5.727   6.133   4.315
 3909SOL    HW212627   5.874   6.072   4.351
 3910SOL     OW12628   3.341   3.745   2.617
 3910SOL    HW112629   3.358   3.685   2.695
 3910SOL    HW212630   3.285   3.697   2.549
 3911SOL     OW12631   5.961   1.714   5.246
 3911SOL    HW112632   6.017   1.633   5.262
 3911SOL    HW212633   5.874   1.705   5.295
 3912SOL     OW12634   5.628   0.351   4.920
 3912SOL    HW112635   5.584   0.390   5.001
 3912SOL    HW212636   5.714   0.399   4.903
 3913SOL     OW12637   2.229   6.343   6.117
 3913SOL    HW112638   2.144   6.292   6.120
 3913SOL    HW212639   2.270   6.344   6.209
 3914SOL     OW12640   2.933   0.994   1.661
 3914SOL    HW112641   2.940   0.934   1.741
 3914SOL    HW212642   3.018   1.045   1.649
 3915SOL     OW12643   5.285   6.488   1.010
 3915SOL    HW112644   5.385   6.492   1.010
 3915SOL    HW212645   5.254   6.447   1.096
 3916SOL     OW12646   0.855   6.983   4.129
 3916SOL    HW112647   0.820   6.924   4.057
 3916SOL    HW212648   0.850   6.935   4.217
 3917SOL     OW12649   0.022   6.408   6.643
 3917SOL    HW112650   7.007   6.482   6.699
 3917SOL    HW212651   7.019   6.422   6.547
 3918SOL     OW12652   5.663   5.899   1.231
 3918SOL    HW112653   5.727   5.823   1.241
 3918SOL    HW212654   5.708   5.984   1.260
 3919SOL     OW12655   4.901   6.940   0.304
 3919SOL    HW112656   4.837   6.968   0.233
 3919SOL    HW212657   4.855   6.940   0.393
 3920SOL     OW12658   2.506   3.427   0.661
 3920SOL    HW112659   2.573   3.395   0.595
 3920SOL    HW212660   2.500   3.526   0.658
 3921SOL     OW12661   0.065   3.241   1.379
 3921SOL    HW112662   0.155   3.200   1.380
 3921SOL    HW212663   0.008   3.199   1.450
 3922SOL     OW12664   6.965   3.763   1.984
 3922SOL    HW112665   0.038   3.797   1.982
 3922SOL    HW212666   6.902   3.839   2.002
 3923SOL     OW12667   0.306   1.154   0.323
 3923SOL    HW112668   0.258   1.121   0.405
 3923SOL    HW212669   0.258   1.233   0.286
 3924SOL     OW12670   5.020   5.236   3.718
 3924SOL    HW112671   4.951   5.240   3.791
 3924SOL    HW212672   5.110   5.218   3.759
 3925SOL     OW12673   1.911   5.145   1.158
 3925SOL    HW112674   1.978   5.085   1.116
 3925SOL    HW212675   1.823   5.097   1.166
 3926SOL     OW12676   5.466   4.727   1.829
 3926SOL    HW112677   5.475   4.628   1.819
 3926SOL    HW212678   5.381   4.749   1.878
 3927SOL     OW12679   6.552   2.588   4.794
 3927SOL    HW112680   6.636   2.550   4.755
 3927SOL    HW212681   6.498   2.630   4.721
 3928SOL     OW12682   3.952   6.046   6.853
 3928SOL    HW112683   3.924   5.957   6.887
 3928SOL    HW212684   4.049   6.043   6.826
 3929SOL     OW12685   0.254   0.661   4.840
 3929SOL    HW112686   0.269   0.672   4.938
 3929SOL    HW212687   0.209   0.743   4.804
 3930SOL     OW12688   2.825   2.301   4.258
 3930SOL    HW112689   2.798   2.334   4.349
 3930SOL    HW212690   2.825   2.201   4.257
 3931SOL     OW12691   1.455   1.545   1.462
 3931SOL    HW112692   1.366   1.565   1.504
 3931SOL    HW212693   1.490   1.458   1.498
 3932SOL     OW12694   1.205   4.761   3.680
 3932SOL    HW112695   1.249   4.688   3.733
 3932SOL    HW212696   1.216   4.848   3.728
 3933SOL     OW12697   1.841   6.235   6.763
 3933SOL    HW112698   1.818   6.331   6.744
 3933SOL    HW212699   1.925   6.211   6.715
 3934SOL     OW12700   6.920   1.154   0.125
 3934SOL    HW112701   6.987   1.219   0.160
 3934SOL    HW212702   6.832   1.169   0.170
 3935SOL     OW12703   3.162   6.986   6.823
 3935SOL    HW112704   3.193   6.900   6.865
 3935SOL    HW212705   3.241   0.021   6.799
 3936SOL     OW12706   6.636   5.095   5.338
 3936SOL    HW112707   6.555   5.149   5.361
 3936SOL    HW212708   6.694   5.086   5.418
 3937SOL     OW12709   0.420   1.818   2.896
 3937SOL    HW112710   0.390   1.754   2.826
 3937SOL    HW212711   0.362   1.900   2.894
 3938SOL     OW12712   0.453   2.135   3.350
 3938SOL    HW112713   0.394   2.105   3.425
 3938SOL    HW212714   0.485   2.228   3.368
 3939SOL     OW12715   1.895   3.239   3.232
 3939SOL    HW112716   1.844   3.318   3.197
 3939SOL    HW212717   1.833   3.181   3.285
 3940SOL     OW12718   5.008   4.352   1.156
 3940SOL    HW112719   4.943   4.408   1.105
 3940SOL    HW212720   5.004   4.375   1.253
 3941SOL     OW12721   5.348   3.502   5.078
 3941SOL    HW112722   5.419   3.566   5.048
 3941SOL    HW212723   5.324   3.441   5.002
 3942SOL     OW12724   0.287   6.669   6.727
 3942SOL    HW112725   0.200   6.645   6.685
 3942SOL    HW212726   0.362   6.634   6.672
 3943SOL     OW12727   0.089   2.616   3.726
 3943SOL    HW112728   0.044   2.654   3.645
 3943SOL    HW212729   0.162   2.677   3.755
 3944SOL     OW12730   4.900   2.770   4.763
 3944SOL    HW112731   4.925   2.831   4.688
 3944SOL    HW212732   4.841   2.818   4.827
 3945SOL     OW12733   0.281   2.067   0.525
 3945SOL    HW112734   0.310   2.105   0.612
 3945SOL    HW212735   0.233   2.136   0.471
 3946SOL     OW12736   5.244   4.570   4.479
 3946SOL    HW112737   5.192   4.552   4.563
 3946SOL    HW212738   5.194   4.636   4.422
 3947SOL     OW12739   5.586   6.144   0.171
 3947SOL    HW112740   5.599   6.236   0.210
 3947SOL    HW212741   5.632   6.138   0.083
 3948SOL     OW12742   6.683   5.215   2.756
 3948SOL    HW112743   6.748   5.186   2.827
 3948SOL    HW212744   6.638   5.135   2.717
 3949SOL     OW12745   5.146   6.892   3.341
 3949SOL    HW112746   5.189   6.888   3.431
 3949SOL    HW212747   5.049   6.869   3.349
 3950SOL     OW12748   1.935   4.276   0.524
 3950SOL    HW112749   1.850   4.327   0.539
 3950SOL    HW212750   1.913   4.187   0.483
 3951SOL     OW12751   4.540   0.752   1.153
 3951SOL    HW112752   4.639   0.738   1.153
 3951SOL    HW212753   4.516   0.821   1.084
 3952SOL     OW12754   6.793   2.898   2.019
 3952SOL    HW112755   6.817   2.822   1.959
 3952SOL    HW212756   6.706   2.879   2.065
 3953SOL     OW12757   4.298   4.791   1.494
 3953SOL    HW112758   4.201   4.812   1.483
 3953SOL    HW212759   4.336   4.762   1.406
 3954SOL     OW12760   4.209   5.077   5.515
 3954SOL    HW112761   4.125   5.047   5.560
 3954SOL    HW212762   4.196   5.079   5.416
 3955SOL     OW12763   2.931   0.334   6.499
 3955SOL    HW112764   2.986   0.415   6.478
 3955SOL    HW212765   2.879   0.307   6.417
 3956SOL     OW12766   1.109   0.594   2.768
 3956SOL    HW112767   1.203   0.573   2.743
 3956SOL    HW212768   1.102   0.689   2.798
 3957SOL     OW12769   4.741   6.735   3.869
 3957SOL    HW112770   4.664   6.776   3.919
 3957SOL    HW212771   4.789   6.672   3.929
 3958SOL     OW12772   5.454   1.487   4.314
 3958SOL    HW112773   5.455   1.420   4.388
 3958SOL    HW212774   5.397   1.453   4.239
 3959SOL     OW12775   5.006   6.423   0.249
 3959SOL    HW112776   4.968   6.513   0.272
 3959SOL    HW212777   5.106   6.429   0.249
 3960SOL     OW12778   5.067   0.774   6.524
 3960SOL    HW112779   5.111   0.779   6.434
 3960SOL    HW212780   5.061   0.679   6.553
 3961SOL     OW12781   5.108   1.194   2.442
 3961SOL    HW112782   5.154   1.111   2.474
 3961SOL    HW212783   5.032   1.169   2.382
 3962SOL     OW12784   2.338   5.089   6.387
 3962SOL    HW112785   2.370   5.074   6.480
 3962SOL    HW212786   2.273   5.018   6.361
 3963SOL     OW12787   4.467   5.611   2.513
 3963SOL    HW112788   4.463   5.701   2.469
 3963SOL    HW212789   4.515   5.619   2.600
 3964SOL     OW12790   4.164   4.848   3.457
 3964SOL    HW112791   4.239   4.906   3.489
 3964SOL    HW212792   4.170   4.838   3.358
 3965SOL     OW12793   4.877   3.172   4.540
 3965SOL    HW112794   4.870   3.198   4.636
 3965SOL    HW212795   4.935   3.237   4.491
 3966SOL     OW12796   4.231   6.021   6.726
 3966SOL    HW112797   4.297   6.088   6.691
 3966SOL    HW212798   4.247   5.933   6.683
 3967SOL     OW12799   2.213   3.894   2.112
 3967SOL    HW112800   2.267   3.925   2.033
 3967SOL    HW212801   2.161   3.813   2.086
 3968SOL     OW12802   4.231   0.825   0.725
 3968SOL    HW112803   4.144   0.776   0.735
 3968SOL    HW212804   4.303   0.760   0.702
 3969SOL     OW12805   1.393   4.883   2.201
 3969SOL    HW112806   1.327   4.858   2.130
 3969SOL    HW212807   1.392   4.814   2.273
 3970SOL     OW12808   4.717   6.020   2.965
 3970SOL    HW112809   4.765   6.056   2.886
 3970SOL    HW212810   4.676   6.095   3.017
 3971SOL     OW12811   3.260   5.410   4.495
 3971SOL    HW112812   3.315   5.393   4.412
 3971SOL    HW212813   3.165   5.386   4.477
 3972SOL     OW12814   1.336   3.949   0.489
 3972SOL    HW112815   1.417   3.925   0.436
 3972SOL    HW212816   1.355   3.936   0.586
 3973SOL     OW12817   1.389   5.762   6.452
 3973SOL    HW112818   1.483   5.742   6.423
 3973SOL    HW212819   1.347   5.678   6.487
 3974SOL     OW12820   2.107   6.621   5.488
 3974SOL    HW112821   2.063   6.685   5.425
 3974SOL    HW212822   2.202   6.650   5.503
 3975SOL     OW12823   5.269   1.470   6.157
 3975SOL    HW112824   5.332   1.492   6.231
 3975SOL    HW212825   5.198   1.540   6.151
 3976SOL     OW12826   1.713   6.175   2.826
 3976SOL    HW112827   1.807   6.164   2.794
 3976SOL    HW212828   1.710   6.244   2.898
 3977SOL     OW12829   1.746   3.030   6.068
 3977SOL    HW112830   1.650   3.024   6.095
 3977SOL    HW212831   1.800   3.061   6.146
 3978SOL     OW12832   5.516   5.323   3.325
 3978SOL    HW112833   5.494   5.230   3.356
 3978SOL    HW212834   5.550   5.319   3.231
 3979SOL     OW12835   4.167   0.951   6.748
 3979SOL    HW112836   4.148   0.961   6.845
 3979SOL    HW212837   4.215   0.865   6.732
 3980SOL     OW12838   5.724   6.639   6.824
 3980SOL    HW112839   5.818   6.657   6.855
 3980SOL    HW212840   5.706   6.690   6.740
 3981SOL     OW12841   3.647   6.464   0.490
 3981SOL    HW112842   3.638   6.499   0.583
 3981SOL    HW212843   3.705   6.383   0.490
 3982SOL     OW12844   2.257   6.498   3.303
 3982SOL    HW112845   2.199   6.436   3.356
 3982SOL    HW212846   2.231   6.493   3.206
 3983SOL     OW12847   4.570   4.778   4.008
 3983SOL    HW112848   4.661   4.797   3.970
 3983SOL    HW212849   4.555   4.835   4.088
 3984SOL     OW12850   6.695   1.272   1.923
 3984SOL    HW112851   6.724   1.192   1.871
 3984SOL    HW212852   6.635   1.242   1.997
 3985SOL     OW12853   2.848   4.940   6.888
 3985SOL    HW112854   2.783   4.918   6.816
 3985SOL    HW212855   2.860   4.861   6.948
 3986SOL     OW12856   5.128   1.629   2.521
 3986SOL    HW112857   5.189   1.696   2.564
 3986SOL    HW212858   5.103   1.661   2.429
 3987SOL     OW12859   3.591   5.279   3.721
 3987SOL    HW112860   3.691   5.272   3.711
 3987SOL    HW212861   3.552   5.188   3.730
 3988SOL     OW12862   3.372   5.115   6.901
 3988SOL    HW112863   3.315   5.147   6.977
 3988SOL    HW212864   3.320   5.051   6.845
 3989SOL     OW12865   6.478   2.384   7.010
 3989SOL    HW112866   6.571   2.398   6.977
 3989SOL    HW212867   6.423   2.465   6.990
 3990SOL     OW12868   4.640   2.530   2.556
 3990SOL    HW112869   4.717   2.476   2.590
 3990SOL    HW212870   4.670   2.625   2.543
 3991SOL     OW12871   6.816   1.450   2.103
 3991SOL    HW112872   6.747   1.498   2.157
 3991SOL    HW212873   6.770   1.390   2.037
 3992SOL     OW12874   2.886   1.420   0.043
 3992SOL    HW112875   2.883   1.517   0.018
 3992SOL    HW212876   2.897   1.365   6.982
 3993SOL     OW12877   1.569   3.029   2.178
 3993SOL    HW112878   1.480   3.004   2.215
 3993SOL    HW212879   1.599   2.960   2.112
 3994SOL     OW12880   2.980   0.064   6.017
 3994SOL    HW112881   2.992   6.998   5.971
 3994SOL    HW212882   3.038   0.067   6.099
 3995SOL     OW12883   2.120   3.876   6.231
 3995SOL    HW112884   2.168   3.808   6.287
 3995SOL    HW212885   2.109   3.960   6.284
 3996SOL     OW12886   0.403   6.703   4.733
 3996SOL    HW112887   0.319   6.655   4.706
 3996SOL    HW212888   0.391   6.740   4.825
 3997SOL     OW12889   5.672   2.052   3.271
 3997SOL    HW112890   5.612   2.045   3.191
 3997SOL    HW212891   5.663   1.968   3.326
 3998SOL     OW12892   3.831   1.397   4.191
 3998SOL    HW112893   3.921   1.404   4.150
 3998SOL    HW212894   3.795   1.305   4.179
 3999SOL     OW12895   5.915   2.527   3.807
 3999SOL    HW112896   5.981   2.455   3.784
 3999SOL    HW212897   5.934   2.559   3.900
 4000SOL     OW12898   2.687   6.888   3.980
 4000SOL    HW112899   2.643   6.928   4.061
 4000SOL    HW212900   2.636   6.914   3.898
 4001SOL     OW12901   2.600   1.774   4.002
 4001SOL    HW112902   2.549   1.819   4.075
 4001SOL    HW212903   2.672   1.835   3.969
 4002SOL     OW12904   3.447   4.134   1.463
 4002SOL    HW112905   3.388   4.182   1.527
 4002SOL    HW212906   3.414   4.041   1.449
 4003SOL     OW12907   3.424   0.247   4.018
 4003SOL    HW112908   3.402   0.283   3.927
 4003SOL    HW212909   3.507   0.191   4.013
 4004SOL     OW12910   5.879   2.315   4.607
 4004SOL    HW112911   5.803   2.258   4.575
 4004SOL    HW212912   5.930   2.266   4.678
 4005SOL     OW12913   4.903   5.225   6.426
 4005SOL    HW112914   4.817   5.181   6.451
 4005SOL    HW212915   4.979   5.168   6.457
 4006SOL     OW12916   4.255   5.318   1.987
 4006SOL    HW112917   4.320   5.266   2.043
 4006SOL    HW212918   4.168   5.325   2.035
 4007SOL     OW12919   0.145   2.760   6.962
 4007SOL    HW112920   0.161   2.787   6.867
 4007SOL    HW212921   0.079   2.821   7.004
 4008SOL     OW12922   2.472   2.189   4.777
 4008SOL    HW112923   2.487   2.106   4.830
 4008SOL    HW212924   2.553   2.247   4.783
 4009SOL     OW12925   4.554   3.097   1.399
 4009SOL    HW112926   4.470   3.063   1.442
 4009SOL    HW212927   4.538   3.112   1.302
 4010SOL     OW12928   2.547   2.826   1.359
 4010SOL    HW112929   2.646   2.828   1.347
 4010SOL    HW212930   2.524   2.839   1.455
 4011SOL     OW12931   1.000   1.818   2.066
 4011SOL    HW112932   1.070   1.875   2.024
 4011SOL    HW212933   0.910   1.861   2.052
 4012SOL     OW12934   6.449   4.266   2.191
 4012SOL    HW112935   6.481   4.172   2.206
 4012SOL    HW212936   6.354   4.264   2.159
 4013SOL     OW12937   3.649   1.979   4.786
 4013SOL    HW112938   3.700   2.006   4.704
 4013SOL    HW212939   3.699   2.010   4.867
 4014SOL     OW12940   6.138   6.533   2.224
 4014SOL    HW112941   6.077   6.585   2.164
 4014SOL    HW212942   6.206   6.485   2.169
 4015SOL     OW12943   4.927   4.304   6.206
 4015SOL    HW112944   4.945   4.230   6.271
 4015SOL    HW212945   4.863   4.370   6.247
 4016SOL     OW12946   2.707   5.838   6.197
 4016SOL    HW112947   2.658   5.925   6.196
 4016SOL    HW212948   2.722   5.807   6.103
 4017SOL     OW12949   6.872   6.084   0.790
 4017SOL    HW112950   6.834   6.035   0.712
 4017SOL    HW212951   6.804   6.087   0.863
 4018SOL     OW12952   4.533   6.251   2.380
 4018SOL    HW112953   4.508   6.347   2.387
 4018SOL    HW212954   4.552   6.214   2.471
 4019SOL     OW12955   5.152   4.303   2.918
 4019SOL    HW112956   5.071   4.337   2.869
 4019SOL    HW212957   5.233   4.319   2.863
 4020SOL     OW12958   4.573   2.451   5.330
 4020SOL    HW112959   4.558   2.358   5.295
 4020SOL    HW212960   4.485   2.498   5.338
 4021SOL     OW12961   3.618   5.231   6.638
 4021SOL    HW112962   3.626   5.210   6.736
 4021SOL    HW212963   3.616   5.145   6.586
 4022SOL     OW12964   4.969   1.998   0.083
 4022SOL    HW112965   4.956   2.094   0.109
 4022SOL    HW212966   4.928   1.939   0.152
 4023SOL     OW12967   6.501   2.183   4.755
 4023SOL    HW112968   6.560   2.104   4.738
 4023SOL    HW212969   6.539   2.263   4.708
 4024SOL     OW12970   3.925   5.694   4.670
 4024SOL    HW112971   3.906   5.596   4.660
 4024SOL    HW212972   3.865   5.745   4.608
 4025SOL     OW12973   0.876   3.808   3.407
 4025SOL    HW112974   0.913   3.899   3.390
 4025SOL    HW212975   0.948   3.748   3.441
 4026SOL     OW12976   5.125   6.431   4.139
 4026SOL    HW112977   5.133   6.349   4.082
 4026SOL    HW212978   5.212   6.482   4.137
 4027SOL     OW12979   3.780   4.708   1.684
 4027SOL    HW112980   3.804   4.627   1.630
 4027SOL    HW212981   3.698   4.688   1.738
 4028SOL     OW12982   1.738   2.010   4.233
 4028SOL    HW112983   1.653   2.032   4.281
 4028SOL    HW212984   1.804   1.971   4.297
 4029SOL     OW12985   2.069   3.856   5.893
 4029SOL    HW112986   2.132   3.934   5.890
 4029SOL    HW212987   2.020   3.857   5.980
 4030SOL     OW12988   0.414   2.117   5.165
 4030SOL    HW112989   0.400   2.020   5.187
 4030SOL    HW212990   0.482   2.125   5.091
 4031SOL     OW12991   4.041   5.788   4.278
 4031SOL    HW112992   3.941   5.792   4.279
 4031SOL    HW212993   4.071   5.711   4.222
 4032SOL     OW12994   5.257   6.833   3.577
 4032SOL    HW112995   5.247   6.814   3.675
 4032SOL    HW212996   5.300   6.755   3.532
 4033SOL     OW12997   3.041   3.324   4.372
 4033SOL    HW112998   2.979   3.316   4.294
 4033SOL    HW212999   3.135   3.333   4.340
 4034SOL     OW13000   6.647   1.565   3.979
 4034SOL    HW113001   6.583   1.578   4.054
 4034SOL    HW213002   6.603   1.591   3.893
 4035SOL     OW13003   0.924   3.867   6.600
 4035SOL    HW113004   0.840   3.891   6.551
 4035SOL    HW213005   0.945   3.937   6.668
 4036SOL     OW13006   6.107   6.589   2.727
 4036SOL    HW113007   6.050   6.508   2.711
 4036SOL    HW213008   6.050   6.663   2.763
 4037SOL     OW13009   1.036   3.286   6.755
 4037SOL    HW113010   1.017   3.193   6.724
 4037SOL    HW213011   0.964   3.347   6.723
 4038SOL     OW13012   5.060   4.761   3.030
 4038SOL    HW113013   5.082   4.832   3.096
 4038SOL    HW213014   5.036   4.804   2.942
 4039SOL     OW13015   5.610   6.356   0.342
 4039SOL    HW113016   5.539   6.426   0.350
 4039SOL    HW213017   5.699   6.397   0.358
 4040SOL     OW13018   3.391   6.693   1.374
 4040SOL    HW113019   3.358   6.692   1.279
 4040SOL    HW213020   3.450   6.614   1.390
 4041SOL     OW13021   1.119   6.188   3.748
 4041SOL    HW113022   1.150   6.101   3.711
 4041SOL    HW213023   1.122   6.258   3.677
 4042SOL     OW13024   5.627   5.244   1.618
 4042SOL    HW113025   5.668   5.181   1.684
 4042SOL    HW213026   5.659   5.337   1.636
 4043SOL     OW13027   5.592   2.165   1.845
 4043SOL    HW113028   5.616   2.097   1.914
 4043SOL    HW213029   5.588   2.123   1.755
 4044SOL     OW13030   5.992   7.016   3.380
 4044SOL    HW113031   6.089   7.015   3.356
 4044SOL    HW213032   5.937   7.020   3.296
 4045SOL     OW13033   1.555   5.415   6.659
 4045SOL    HW113034   1.519   5.499   6.700
 4045SOL    HW213035   1.595   5.437   6.569
 4046SOL     OW13036   0.885   2.800   1.880
 4046SOL    HW113037   0.982   2.802   1.855
 4046SOL    HW213038   0.845   2.891   1.866
 4047SOL     OW13039   2.652   3.641   1.755
 4047SOL    HW113040   2.560   3.680   1.749
 4047SOL    HW213041   2.718   3.703   1.712
 4048SOL     OW13042   4.691   0.408   0.864
 4048SOL    HW113043   4.747   0.331   0.895
 4048SOL    HW213044   4.610   0.416   0.922
 4049SOL     OW13045   5.533   6.772   5.385
 4049SOL    HW113046   5.547   6.721   5.469
 4049SOL    HW213047   5.608   6.753   5.321
 4050SOL     OW13048   1.581   6.892   0.650
 4050SOL    HW113049   1.621   6.815   0.701
 4050SOL    HW213050   1.515   6.856   0.583
 4051SOL     OW13051   3.167   4.087   0.940
 4051SOL    HW113052   3.178   4.060   1.036
 4051SOL    HW213053   3.136   4.181   0.936
 4052SOL     OW13054   0.399   0.891   0.350
 4052SOL    HW113055   0.373   0.976   0.305
 4052SOL    HW213056   0.367   0.893   0.445
 4053SOL     OW13057   3.497   4.929   3.533
 4053SOL    HW113058   3.487   4.830   3.518
 4053SOL    HW213059   3.409   4.967   3.562
 4054SOL     OW13060   3.530   2.577   1.132
 4054SOL    HW113061   3.490   2.529   1.210
 4054SOL    HW213062   3.538   2.674   1.154
 4055SOL     OW13063   3.784   1.819   5.839
 4055SOL    HW113064   3.861   1.882   5.833
 4055SOL    HW213065   3.801   1.754   5.914
 4056SOL     OW13066   3.617   3.387   0.165
 4056SOL    HW113067   3.547   3.317   0.173
 4056SOL    HW213068   3.582   3.474   0.201
 4057SOL     OW13069   4.565   2.783   6.544
 4057SOL    HW113070   4.527   2.874   6.530
 4057SOL    HW213071   4.659   2.780   6.510
 4058SOL     OW13072   2.075   0.820   5.816
 4058SOL    HW113073   2.022   0.737   5.829
 4058SOL    HW213074   2.169   0.796   5.790
 4059SOL     OW13075   0.861   1.988   5.252
 4059SOL    HW113076   0.909   2.032   5.177
 4059SOL    HW213077   0.786   1.933   5.217
 4060SOL     OW13078   4.314   5.213   4.202
 4060SOL    HW113079   4.388   5.266   4.245
 4060SOL    HW213080   4.228   5.231   4.248
 4061SOL     OW13081   2.933   3.703   2.292
 4061SOL    HW113082   2.902   3.795   2.315
 4061SOL    HW213083   2.930   3.691   2.193
 4062SOL     OW13084   2.971   0.716   3.424
 4062SOL    HW113085   3.056   0.665   3.424
 4062SOL    HW213086   2.948   0.744   3.331
 4063SOL     OW13087   2.633   5.118   6.232
 4063SOL    HW113088   2.689   5.052   6.282
 4063SOL    HW213089   2.554   5.144   6.289
 4064SOL     OW13090   6.529   1.330   3.667
 4064SOL    HW113091   6.570   1.420   3.681
 4064SOL    HW213092   6.594   1.270   3.621
 4065SOL     OW13093   6.934   6.826   0.128
 4065SOL    HW113094   6.872   6.753   0.156
 4065SOL    HW213095   6.992   6.851   0.205
 4066SOL     OW13096   6.155   4.388   1.570
 4066SOL    HW113097   6.147   4.388   1.670
 4066SOL    HW213098   6.155   4.294   1.537
 4067SOL     OW13099   6.080   1.383   2.334
 4067SOL    HW113100   6.135   1.363   2.253
 4067SOL    HW213101   6.031   1.469   2.320
 4068SOL     OW13102   5.989   0.267   3.460
 4068SOL    HW113103   6.009   0.175   3.424
 4068SOL    HW213104   5.954   0.324   3.386
 4069SOL     OW13105   5.919   4.921   1.038
 4069SOL    HW113106   5.947   4.831   1.070
 4069SOL    HW213107   5.874   4.912   0.949
 4070SOL     OW13108   1.564   3.684   2.879
 4070SOL    HW113109   1.465   3.672   2.879
 4070SOL    HW213110   1.599   3.681   2.972
 4071SOL     OW13111   0.959   0.200   4.098
 4071SOL    HW113112   0.920   0.226   4.010
 4071SOL    HW213113   0.932   0.107   4.120
 4072SOL     OW13114   1.813   6.992   4.993
 4072SOL    HW113115   1.768   6.902   4.997
 4072SOL    HW213116   1.756   0.038   5.038
 4073SOL     OW13117   2.175   6.108   0.006
 4073SOL    HW113118   2.131   6.070   0.087
 4073SOL    HW213119   2.255   6.053   7.003
 4074SOL     OW13120   1.337   3.014   1.055
 4074SOL    HW113121   1.415   2.974   1.102
 4074SOL    HW213122   1.362   3.031   0.959
 4075SOL     OW13123   4.877   1.818   3.422
 4075SOL    HW113124   4.941   1.842   3.495
 4075SOL    HW213125   4.927   1.779   3.345
 4076SOL     OW13126   1.613   3.656   4.422
 4076SOL    HW113127   1.646   3.639   4.329
 4076SOL    HW213128   1.561   3.741   4.424
 4077SOL     OW13129   3.760   1.179   0.901
 4077SOL    HW113130   3.770   1.087   0.938
 4077SOL    HW213131   3.665   1.209   0.910
 4078SOL     OW13132   6.014   4.004   1.042
 4078SOL    HW113133   5.922   3.981   1.074
 4078SOL    HW213134   6.082   3.955   1.097
 4079SOL     OW13135   0.470   0.971   3.626
 4079SOL    HW113136   0.421   0.981   3.713
 4079SOL    HW213137   0.409   0.932   3.558
 4080SOL     OW13138   3.599   3.714   1.623
 4080SOL    HW113139   3.577   3.767   1.541
 4080SOL    HW213140   3.558   3.623   1.616
 4081SOL     OW13141   2.014   2.425   5.896
 4081SOL    HW113142   1.918   2.398   5.902
 4081SOL    HW213143   2.021   2.518   5.861
 4082SOL     OW13144   1.183   2.910   4.274
 4082SOL    HW113145   1.201   2.838   4.207
 4082SOL    HW213146   1.171   2.998   4.227
 4083SOL     OW13147   5.580   5.137   2.600
 4083SOL    HW113148   5.482   5.125   2.612
 4083SOL    HW213149   5.609   5.091   2.516
 4084SOL     OW13150   4.582   0.843   3.229
 4084SOL    HW113151   4.585   0.835   3.130
 4084SOL    HW213152   4.494   0.809   3.262
 4085SOL     OW13153   3.162   4.831   2.401
 4085SOL    HW113154   3.226   4.897   2.362
 4085SOL    HW213155   3.169   4.744   2.351
 4086SOL     OW13156   6.063   5.462   5.994
 4086SOL    HW113157   5.987   5.399   5.978
 4086SOL    HW213158   6.076   5.519   5.913
 4087SOL     OW13159   2.803   6.931   2.679
 4087SOL    HW113160   2.796   6.844   2.631
 4087SOL    HW213161   2.900   6.954   2.692
 4088SOL     OW13162   0.584   1.767   5.756
 4088SOL    HW113163   0.508   1.743   5.816
 4088SOL    HW213164   0.549   1.816   5.676
 4089SOL     OW13165   0.104   0.406   4.118
 4089SOL    HW113166   0.071   0.379   4.027
 4089SOL    HW213167   0.040   0.374   4.188
 4090SOL     OW13168   2.445   0.740   6.049
 4090SOL    HW113169   2.464   0.784   6.138
 4090SOL    HW213170   2.484   0.795   5.976
 4091SOL     OW13171   2.181   5.811   2.223
 4091SOL    HW113172   2.141   5.866   2.296
 4091SOL    HW213173   2.238   5.739   2.262
 4092SOL     OW13174   5.138   2.971   3.889
 4092SOL    HW113175   5.076   2.908   3.936
 4092SOL    HW213176   5.223   2.923   3.867
 4093SOL     OW13177   4.003   5.344   2.753
 4093SOL    HW113178   3.992   5.442   2.763
 4093SOL    HW213179   4.056   5.308   2.830
 4094SOL     OW13180   6.612   5.330   6.376
 4094SOL    HW113181   6.681   5.332   6.448
 4094SOL    HW213182   6.584   5.424   6.354
 4095SOL     OW13183   0.555   5.018   6.739
 4095SOL    HW113184   0.473   5.058   6.779
 4095SOL    HW213185   0.554   4.919   6.753
 4096SOL     OW13186   1.420   1.638   6.994
 4096SOL    HW113187   1.454   1.621   6.902
 4096SOL    HW213188   1.393   1.734   7.003
 4097SOL     OW13189   0.167   5.050   4.856
 4097SOL    HW113190   0.111   5.047   4.773
 4097SOL    HW213191   0.261   5.022   4.833
 4098SOL     OW13192   2.364   4.788   3.363
 4098SOL    HW113193   2.358   4.693   3.395
 4098SOL    HW213194   2.272   4.821   3.343
 4099SOL     OW13195   4.413   4.949   5.643
 4099SOL    HW113196   4.427   4.873   5.580
 4099SOL    HW213197   4.335   5.004   5.612
 4100SOL     OW13198   1.300   0.085   3.847
 4100SOL    HW113199   1.220   0.031   3.874
 4100SOL    HW213200   1.310   0.163   3.909
 4101SOL     OW13201   6.471   7.001   0.801
 4101SOL    HW113202   6.464   7.012   0.900
 4101SOL    HW213203   6.381   7.014   0.760
 4102SOL     OW13204   1.213   1.016   0.256
 4102SOL    HW113205   1.269   0.941   0.291
 4102SOL    HW213206   1.226   1.097   0.313
 4103SOL     OW13207   1.378   6.721   3.069
 4103SOL    HW113208   1.393   6.809   3.113
 4103SOL    HW213209   1.448   6.656   3.099
 4104SOL     OW13210   0.996   6.183   4.504
 4104SOL    HW113211   1.035   6.201   4.594
 4104SOL    HW213212   0.987   6.085   4.490
 4105SOL     OW13213   4.898   1.232   1.095
 4105SOL    HW113214   4.833   1.158   1.078
 4105SOL    HW213215   4.851   1.320   1.086
 4106SOL     OW13216   0.121   2.409   3.473
 4106SOL    HW113217   0.163   2.400   3.564
 4106SOL    HW213218   0.058   2.333   3.458
 4107SOL     OW13219   0.309   6.303   6.627
 4107SOL    HW113220   0.210   6.319   6.634
 4107SOL    HW213221   0.355   6.346   6.704
 4108SOL     OW13222   6.578   5.368   4.158
 4108SOL    HW113223   6.482   5.390   4.177
 4108SOL    HW213224   6.635   5.398   4.235
 4109SOL     OW13225   6.270   6.871   2.752
 4109SOL    HW113226   6.183   6.882   2.705
 4109SOL    HW213227   6.278   6.777   2.786
 4110SOL     OW13228   4.493   3.846   0.453
 4110SOL    HW113229   4.557   3.897   0.512
 4110SOL    HW213230   4.424   3.801   0.511
 4111SOL     OW13231   6.384   4.028   4.089
 4111SOL    HW113232   6.399   4.016   3.991
 4111SOL    HW213233   6.366   3.939   4.131
 4112SOL     OW13234   4.877   6.611   5.254
 4112SOL    HW113235   4.953   6.672   5.228
 4112SOL    HW213236   4.877   6.531   5.194
 4113SOL     OW13237   4.287   5.028   4.912
 4113SOL    HW113238   4.198   5.050   4.871
 4113SOL    HW213239   4.315   4.936   4.884
 4114SOL     OW13240   0.313   1.836   2.132
 4114SOL    HW113241   0.360   1.817   2.046
 4114SOL    HW213242   0.224   1.879   2.114
 4115SOL     OW13243   3.654   5.412   4.344
 4115SOL    HW113244   3.605   5.333   4.307
 4115SOL    HW213245   3.707   5.383   4.424
 4116SOL     OW13246   5.431   2.651   3.364
 4116SOL    HW113247   5.459   2.740   3.328
 4116SOL    HW213248   5.338   2.631   3.333
 4117SOL     OW13249   1.199   2.128   3.092
 4117SOL    HW113250   1.243   2.052   3.139
 4117SOL    HW213251   1.100   2.113   3.090
 4118SOL     OW13252   0.514   6.195   5.832
 4118SOL    HW113253   0.531   6.155   5.922
 4118SOL    HW213254   0.515   6.123   5.763
 4119SOL     OW13255   1.706   1.397   3.523
 4119SOL    HW113256   1.706   1.385   3.424
 4119SOL    HW213257   1.622   1.360   3.562
 4120SOL     OW13258   1.517   1.219   6.186
 4120SOL    HW113259   1.444   1.279   6.218
 4120SOL    HW213260   1.555   1.169   6.264
 4121SOL     OW13261   6.556   6.754   1.679
 4121SOL    HW113262   6.565   6.659   1.647
 4121SOL    HW213263   6.623   6.811   1.631
 4122SOL     OW13264   6.669   4.699   3.349
 4122SOL    HW113265   6.625   4.612   3.372
 4122SOL    HW213266   6.676   4.756   3.431
 4123SOL     OW13267   4.005   5.313   2.099
 4123SOL    HW113268   4.011   5.346   2.193
 4123SOL    HW213269   3.909   5.303   2.074
 4124SOL     OW13270   6.591   5.788   0.294
 4124SOL    HW113271   6.567   5.771   0.390
 4124SOL    HW213272   6.507   5.798   0.240
 4125SOL     OW13273   5.834   1.819   1.767
 4125SOL    HW113274   5.820   1.867   1.853
 4125SOL    HW213275   5.748   1.775   1.739
 4126SOL     OW13276   1.274   3.473   2.182
 4126SOL    HW113277   1.367   3.445   2.207
 4126SOL    HW213278   1.262   3.570   2.206
 4127SOL     OW13279   3.957   1.637   3.776
 4127SOL    HW113280   3.975   1.717   3.833
 4127SOL    HW213281   3.868   1.647   3.731
 4128SOL     OW13282   0.454   2.956   0.459
 4128SOL    HW113283   0.494   3.038   0.418
 4128SOL    HW213284   0.429   2.976   0.554
 4129SOL     OW13285   2.276   2.196   0.671
 4129SOL    HW113286   2.188   2.149   0.665
 4129SOL    HW213287   2.264   2.285   0.716
 4130SOL     OW13288   5.292   2.658   0.836
 4130SOL    HW113289   5.327   2.576   0.791
 4130SOL    HW213290   5.287   2.642   0.935
 4131SOL     OW13291   4.769   0.315   2.854
 4131SOL    HW113292   4.712   0.356   2.782
 4131SOL    HW213293   4.775   0.216   2.840
 4132SOL     OW13294   6.801   4.759   3.918
 4132SOL    HW113295   6.890   4.795   3.943
 4132SOL    HW213296   6.753   4.725   3.999
 4133SOL     OW13297   5.811   0.190   2.531
 4133SOL    HW113298   5.733   0.239   2.492
 4133SOL    HW213299   5.778   0.107   2.576
 4134SOL     OW13300   2.073   3.148   1.230
 4134SOL    HW113301   2.139   3.090   1.183
 4134SOL    HW213302   2.092   3.244   1.209
 4135SOL     OW13303   0.230   1.587   2.813
 4135SOL    HW113304   0.306   1.521   2.819
 4135SOL    HW213305   0.225   1.622   2.719
 4136SOL     OW13306   1.777   4.804   1.710
 4136SOL    HW113307   1.689   4.808   1.757
 4136SOL    HW213308   1.830   4.887   1.730
 4137SOL     OW13309   1.938   2.364   0.115
 4137SOL    HW113310   1.944   2.280   0.168
 4137SOL    HW213311   2.025   2.379   0.067
 4138SOL     OW13312   5.212   6.843   0.619
 4138SOL    HW113313   5.253   6.843   0.710
 4138SOL    HW213314   5.143   6.771   0.613
 4139SOL     OW13315   1.980   2.995   2.719
 4139SOL    HW113316   2.006   3.053   2.796
 4139SOL    HW213317   2.059   2.980   2.660
 4140SOL     OW13318   2.495   2.759   5.504
 4140SOL    HW113319   2.396   2.767   5.515
 4140SOL    HW213320   2.526   2.670   5.541
 4141SOL     OW13321   4.632   6.864   6.498
 4141SOL    HW113322   4.539   6.865   6.462
 4141SOL    HW213323   4.660   6.769   6.516
 4142SOL     OW13324   6.839   4.353   3.087
 4142SOL    HW113325   6.883   4.436   3.051
 4142SOL    HW213326   6.899   4.275   3.072
 4143SOL     OW13327   5.845   3.085   0.154
 4143SOL    HW113328   5.900   3.060   0.234
 4143SOL    HW213329   5.844   3.009   0.090
 4144SOL     OW13330   5.729   2.208   0.830
 4144SOL    HW113331   5.717   2.225   0.927
 4144SOL    HW213332   5.817   2.245   0.800
 4145SOL     OW13333   0.078   6.898   1.594
 4145SOL    HW113334   0.032   6.861   1.675
 4145SOL    HW213335   0.162   6.847   1.577
 4146SOL     OW13336   4.850   6.286   3.191
 4146SOL    HW113337   4.933   6.317   3.144
 4146SOL    HW213338   4.867   6.197   3.233
 4147SOL     OW13339   5.385   4.194   5.894
 4147SOL    HW113340   5.328   4.213   5.973
 4147SOL    HW213341   5.452   4.123   5.917
 4148SOL     OW13342   2.617   1.345   5.892
 4148SOL    HW113343   2.700   1.402   5.898
 4148SOL    HW213344   2.549   1.379   5.956
 4149SOL     OW13345   2.186   2.716   0.153
 4149SOL    HW113346   2.255   2.781   0.123
 4149SOL    HW213347   2.103   2.727   0.097
 4150SOL     OW13348   6.118   2.156   5.769
 4150SOL    HW113349   6.120   2.135   5.867
 4150SOL    HW213350   6.124   2.255   5.756
 4151SOL     OW13351   2.438   6.675   4.085
 4151SOL    HW113352   2.406   6.620   4.162
 4151SOL    HW213353   2.502   6.745   4.118
 4152SOL     OW13354   2.891   5.065   1.370
 4152SOL    HW113355   2.859   5.090   1.278
 4152SOL    HW213356   2.815   5.023   1.421
 4153SOL     OW13357   6.909   5.071   1.564
 4153SOL    HW113358   6.911   5.171   1.561
 4153SOL    HW213359   6.824   5.041   1.607
 4154SOL     OW13360   1.087   6.005   4.046
 4154SOL    HW113361   0.998   6.017   4.001
 4154SOL    HW213362   1.139   6.090   4.038
 4155SOL     OW13363   0.746   1.901   1.262
 4155SOL    HW113364   0.769   1.998   1.269
 4155SOL    HW213365   0.735   1.863   1.354
 4156SOL     OW13366   6.652   5.407   5.103
 4156SOL    HW113367   6.694   5.339   5.042
 4156SOL    HW213368   6.693   5.400   5.193
 4157SOL     OW13369   6.441   6.179   2.140
 4157SOL    HW113370   6.382   6.150   2.064
 4157SOL    HW213371   6.470   6.099   2.192
 4158SOL     OW13372   1.449   2.464   2.542
 4158SOL    HW113373   1.457   2.475   2.641
 4158SOL    HW213374   1.505   2.533   2.496
 4159SOL     OW13375   2.832   1.370   3.588
 4159SOL    HW113376   2.764   1.339   3.654
 4159SOL    HW213377   2.870   1.457   3.618
 4160SOL     OW13378   6.478   6.780   6.637
 4160SOL    HW113379   6.404   6.802   6.701
 4160SOL    HW213380   6.536   6.709   6.677
 4161SOL     OW13381   3.275   2.727   1.383
 4161SOL    HW113382   3.245   2.638   1.348
 4161SOL    HW213383   3.222   2.750   1.464
 4162SOL     OW13384   5.736   5.672   1.871
 4162SOL    HW113385   5.674   5.702   1.943
 4162SOL    HW213386   5.705   5.709   1.783
 4163SOL     OW13387   4.045   6.801   0.906
 4163SOL    HW113388   4.124   6.775   0.962
 4163SOL    HW213389   3.966   6.820   0.964
 4164SOL     OW13390   6.514   0.300   4.831
 4164SOL    HW113391   6.428   0.329   4.788
 4164SOL    HW213392   6.548   0.218   4.784
 4165SOL     OW13393   4.794   1.115   5.381
 4165SOL    HW113394   4.702   1.154   5.382
 4165SOL    HW213395   4.812   1.074   5.292
 4166SOL     OW13396   6.037   0.874   1.772
 4166SOL    HW113397   5.943   0.847   1.751
 4166SOL    HW213398   6.091   0.876   1.687
 4167SOL     OW13399   4.272   5.063   5.186
 4167SOL    HW113400   4.286   5.061   5.087
 4167SOL    HW213401   4.266   5.158   5.216
 4168SOL     OW13402   4.986   4.317   6.739
 4168SOL    HW113403   4.913   4.379   6.708
 4168SOL    HW213404   5.035   4.282   6.660
 4169SOL     OW13405   4.902   3.979   4.835
 4169SOL    HW113406   4.972   4.043   4.866
 4169SOL    HW213407   4.824   3.981   4.898
 4170SOL     OW13408   6.473   3.680   4.593
 4170SOL    HW113409   6.435   3.644   4.679
 4170SOL    HW213410   6.531   3.610   4.551
 4171SOL     OW13411   0.702   3.527   1.158
 4171SOL    HW113412   0.637   3.526   1.083
 4171SOL    HW213413   0.770   3.599   1.143
 4172SOL     OW13414   2.699   4.269   0.357
 4172SOL    HW113415   2.725   4.327   0.434
 4172SOL    HW213416   2.713   4.173   0.381
 4173SOL     OW13417   4.930   2.963   5.126
 4173SOL    HW113418   4.863   2.923   5.188
 4173SOL    HW213419   4.970   2.891   5.069
 4174SOL     OW13420   3.990   0.843   4.842
 4174SOL    HW113421   4.087   0.845   4.866
 4174SOL    HW213422   3.966   0.923   4.788
 4175SOL     OW13423   1.533   4.557   6.513
 4175SOL    HW113424   1.504   4.555   6.417
 4175SOL    HW213425   1.452   4.559   6.572
 4176SOL     OW13426   5.234   6.656   6.013
 4176SOL    HW113427   5.290   6.676   6.094
 4176SOL    HW213428   5.208   6.560   6.013
 4177SOL     OW13429   4.549   4.422   3.410
 4177SOL    HW113430   4.545   4.516   3.376
 4177SOL    HW213431   4.583   4.422   3.504
 4178SOL     OW13432   3.740   5.464   2.088
 4178SOL    HW113433   3.810   5.483   2.156
 4178SOL    HW213434   3.689   5.548   2.068
 4179SOL     OW13435   4.945   3.124   4.848
 4179SOL    HW113436   4.958   3.101   4.945
 4179SOL    HW213437   4.900   3.213   4.841
 4180SOL     OW13438   5.067   3.805   0.305
 4180SOL    HW113439   5.157   3.771   0.277
 4180SOL    HW213440   4.996   3.765   0.247
 4181SOL     OW13441   5.116   0.378   5.743
 4181SOL    HW113442   5.147   0.324   5.821
 4181SOL    HW213443   5.050   0.447   5.774
 4182SOL     OW13444   6.936   6.408   4.121
 4182SOL    HW113445   6.912   6.436   4.214
 4182SOL    HW213446   6.908   6.313   4.107
 4183SOL     OW13447   3.521   1.678   1.903
 4183SOL    HW113448   3.511   1.707   1.998
 4183SOL    HW213449   3.556   1.753   1.848
 4184SOL     OW13450   3.274   5.696   3.494
 4184SOL    HW113451   3.204   5.640   3.450
 4184SOL    HW213452   3.363   5.652   3.485
 4185SOL     OW13453   6.536   3.651   3.070
 4185SOL    HW113454   6.441   3.639   3.101
 4185SOL    HW213455   6.539   3.647   2.970
 4186SOL     OW13456   1.610   6.276   0.406
 4186SOL    HW113457   1.691   6.227   0.438
 4186SOL    HW213458   1.602   6.363   0.454
 4187SOL     OW13459   1.772   3.516   0.169
 4187SOL    HW113460   1.800   3.541   0.076
 4187SOL    HW213461   1.682   3.472   0.166
 4188SOL     OW13462   4.751   0.226   6.803
 4188SOL    HW113463   4.759   0.127   6.809
 4188SOL    HW213464   4.672   0.250   6.747
 4189SOL     OW13465   4.641   5.610   2.745
 4189SOL    HW113466   4.574   5.601   2.819
 4189SOL    HW213467   4.730   5.579   2.777
 4190SOL     OW13468   0.300   6.999   1.083
 4190SOL    HW113469   0.269   6.936   1.154
 4190SOL    HW213470   0.287   6.956   0.993
 4191SOL     OW13471   4.503   4.398   5.925
 4191SOL    HW113472   4.510   4.331   5.851
 4191SOL    HW213473   4.523   4.489   5.889
 4192SOL     OW13474   1.335   2.490   2.017
 4192SOL    HW113475   1.237   2.497   2.000
 4192SOL    HW213476   1.375   2.424   1.954
 4193SOL     OW13477   6.648   0.650   0.864
 4193SOL    HW113478   6.646   0.550   0.874
 4193SOL    HW213479   6.563   0.681   0.821
 4194SOL     OW13480   4.392   0.813   5.291
 4194SOL    HW113481   4.409   0.862   5.377
 4194SOL    HW213482   4.384   0.715   5.309
 4195SOL     OW13483   4.618   5.674   1.712
 4195SOL    HW113484   4.561   5.592   1.713
 4195SOL    HW213485   4.628   5.708   1.805
 4196SOL     OW13486   6.913   2.129   3.152
 4196SOL    HW113487   6.896   2.226   3.136
 4196SOL    HW213488   6.979   2.095   3.085
 4197SOL     OW13489   3.638   6.679   6.281
 4197SOL    HW113490   3.620   6.777   6.285
 4197SOL    HW213491   3.551   6.629   6.274
 4198SOL     OW13492   6.441   0.805   2.160
 4198SOL    HW113493   6.528   0.757   2.172
 4198SOL    HW213494   6.416   0.802   2.063
 4199SOL     OW13495   1.220   3.944   5.954
 4199SOL    HW113496   1.271   3.940   5.868
 4199SOL    HW213497   1.282   3.927   6.030
 4200SOL     OW13498   4.690   0.617   4.695
 4200SOL    HW113499   4.732   0.590   4.608
 4200SOL    HW213500   4.712   0.549   4.765
 4201SOL     OW13501   5.490   6.858   3.366
 4201SOL    HW113502   5.479   6.954   3.339
 4201SOL    HW213503   5.482   6.851   3.465
 4202SOL     OW13504   4.150   5.445   0.359
 4202SOL    HW113505   4.228   5.436   0.298
 4202SOL    HW213506   4.066   5.453   0.305
 4203SOL     OW13507   5.875   5.504   6.840
 4203SOL    HW113508   5.841   5.599   6.847
 4203SOL    HW213509   5.931   5.495   6.758
 4204SOL     OW13510   3.067   3.594   5.768
 4204SOL    HW113511   3.108   3.685   5.774
 4204SOL    HW213512   3.139   3.525   5.756
 4205SOL     OW13513   3.646   5.361   5.302
 4205SOL    HW113514   3.669   5.433   5.236
 4205SOL    HW213515   3.552   5.331   5.286
 4206SOL     OW13516   1.896   2.155   4.966
 4206SOL    HW113517   1.835   2.077   4.979
 4206SOL    HW213518   1.990   2.123   4.956
 4207SOL     OW13519   1.962   2.253   1.677
 4207SOL    HW113520   1.999   2.295   1.760
 4207SOL    HW213521   1.992   2.306   1.597
 4208SOL     OW13522   2.120   3.620   5.183
 4208SOL    HW113523   2.158   3.697   5.235
 4208SOL    HW213524   2.144   3.631   5.087
 4209SOL     OW13525   0.071   6.202   2.361
 4209SOL    HW113526   0.015   6.284   2.367
 4209SOL    HW213527   0.105   6.178   2.452
 4210SOL     OW13528   4.183   3.522   4.714
 4210SOL    HW113529   4.176   3.462   4.794
 4210SOL    HW213530   4.182   3.467   4.631
 4211SOL     OW13531   4.041   2.193   5.083
 4211SOL    HW113532   4.039   2.162   5.178
 4211SOL    HW213533   4.099   2.274   5.075
 4212SOL     OW13534   6.696   1.588   3.214
 4212SOL    HW113535   6.706   1.664   3.278
 4212SOL    HW213536   6.786   1.556   3.185
 4213SOL     OW13537   3.144   0.306   3.082
 4213SOL    HW113538   3.136   0.385   3.143
 4213SOL    HW213539   3.233   0.307   3.038
 4214SOL     OW13540   1.112   5.237   4.488
 4214SOL    HW113541   1.176   5.167   4.456
 4214SOL    HW213542   1.163   5.310   4.534
 4215SOL     OW13543   4.843   6.202   4.786
 4215SOL    HW113544   4.796   6.236   4.705
 4215SOL    HW213545   4.930   6.161   4.759
 4216SOL     OW13546   2.357   0.085   2.661
 4216SOL    HW113547   2.280   0.115   2.717
 4216SOL    HW213548   2.426   0.157   2.657
 4217SOL     OW13549   1.170   0.537   1.950
 4217SOL    HW113550   1.134   0.449   1.919
 4217SOL    HW213551   1.238   0.569   1.884
 4218SOL     OW13552   3.435   1.185   1.547
 4218SOL    HW113553   3.519   1.133   1.556
 4218SOL    HW213554   3.456   1.282   1.534
 4219SOL     OW13555   3.751   6.308   3.762
 4219SOL    HW113556   3.659   6.313   3.799
 4219SOL    HW213557   3.749   6.260   3.674
 4220SOL     OW13558   4.435   2.313   1.311
 4220SOL    HW113559   4.508   2.247   1.329
 4220SOL    HW213560   4.347   2.266   1.315
 4221SOL     OW13561   6.253   5.887   5.982
 4221SOL    HW113562   6.249   5.943   6.065
 4221SOL    HW213563   6.333   5.827   5.987
 4222SOL     OW13564   5.173   2.092   3.628
 4222SOL    HW113565   5.221   2.027   3.687
 4222SOL    HW213566   5.218   2.096   3.539
 4223SOL     OW13567   3.940   4.452   1.688
 4223SOL    HW113568   3.909   4.472   1.595
 4223SOL    HW213569   4.039   4.465   1.694
 4224SOL     OW13570   5.127   3.868   4.508
 4224SOL    HW113571   5.173   3.938   4.562
 4224SOL    HW213572   5.195   3.803   4.473
 4225SOL     OW13573   0.959   2.318   4.725
 4225SOL    HW113574   1.009   2.369   4.656
 4225SOL    HW213575   0.898   2.381   4.776
 4226SOL     OW13576   1.149   5.771   4.810
 4226SOL    HW113577   1.174   5.749   4.904
 4226SOL    HW213578   1.159   5.869   4.795
 4227SOL     OW13579   4.988   5.820   1.828
 4227SOL    HW113580   4.972   5.801   1.731
 4227SOL    HW213581   5.071   5.874   1.838
 4228SOL     OW13582   1.129   6.181   4.751
 4228SOL    HW113583   1.194   6.112   4.784
 4228SOL    HW213584   1.073   6.212   4.828
 4229SOL     OW13585   5.814   4.971   6.385
 4229SOL    HW113586   5.881   4.958   6.458
 4229SOL    HW213587   5.792   4.882   6.344
 4230SOL     OW13588   1.255   0.474   2.200
 4230SOL    HW113589   1.233   0.503   2.107
 4230SOL    HW213590   1.205   0.390   2.221
 4231SOL     OW13591   5.379   0.901   4.938
 4231SOL    HW113592   5.282   0.881   4.953
 4231SOL    HW213593   5.427   0.816   4.915
 4232SOL     OW13594   2.097   5.363   4.162
 4232SOL    HW113595   2.138   5.404   4.243
 4232SOL    HW213596   2.148   5.392   4.081
 4233SOL     OW13597   5.557   6.531   3.539
 4233SOL    HW113598   5.574   6.439   3.577
 4233SOL    HW213599   5.638   6.561   3.488
 4234SOL     OW13600   1.927   5.412   5.712
 4234SOL    HW113601   1.964   5.376   5.627
 4234SOL    HW213602   1.850   5.472   5.692
 4235SOL     OW13603   6.680   4.583   5.453
 4235SOL    HW113604   6.644   4.597   5.361
 4235SOL    HW213605   6.775   4.552   5.446
 4236SOL     OW13606   0.290   5.121   1.817
 4236SOL    HW113607   0.244   5.045   1.771
 4236SOL    HW213608   0.389   5.108   1.811
 4237SOL     OW13609   6.819   3.969   3.933
 4237SOL    HW113610   6.746   3.905   3.909
 4237SOL    HW213611   6.818   3.986   4.032
 4238SOL     OW13612   1.454   0.908   3.175
 4238SOL    HW113613   1.512   0.989   3.187
 4238SOL    HW213614   1.455   0.854   3.259
 4239SOL     OW13615   3.938   0.951   3.053
 4239SOL    HW113616   3.881   0.877   3.018
 4239SOL    HW213617   3.886   1.005   3.119
 4240SOL     OW13618   0.815   5.026   0.758
 4240SOL    HW113619   0.764   4.942   0.739
 4240SOL    HW213620   0.812   5.087   0.679
 4241SOL     OW13621   6.975   1.661   0.382
 4241SOL    HW113622   0.052   1.652   0.399
 4241SOL    HW213623   6.948   1.757   0.394
 4242SOL     OW13624   2.373   2.180   4.506
 4242SOL    HW113625   2.289   2.235   4.506
 4242SOL    HW213626   2.414   2.182   4.597
 4243SOL     OW13627   5.600   0.629   2.850
 4243SOL    HW113628   5.517   0.609   2.902
 4243SOL    HW213629   5.637   0.717   2.879
 4244SOL     OW13630   3.574   3.660   2.471
 4244SOL    HW113631   3.507   3.649   2.397
 4244SOL    HW213632   3.531   3.709   2.547
 4245SOL     OW13633   6.938   2.345   5.416
 4245SOL    HW113634   6.956   2.347   5.515
 4245SOL    HW213635   0.001   2.320   5.368
 4246SOL     OW13636   6.796   3.614   3.137
 4246SOL    HW113637   6.704   3.640   3.108
 4246SOL    HW213638   6.854   3.599   3.057
 4247SOL     OW13639   0.074   5.941   5.346
 4247SOL    HW113640   0.071   6.035   5.312
 4247SOL    HW213641   0.023   5.882   5.284
 4248SOL     OW13642   1.311   2.545   5.624
 4248SOL    HW113643   1.234   2.485   5.644
 4248SOL    HW213644   1.393   2.512   5.671
 4249SOL     OW13645   6.384   3.137   5.567
 4249SOL    HW113646   6.444   3.122   5.489
 4249SOL    HW213647   6.431   3.111   5.651
 4250SOL     OW13648   6.911   5.455   3.625
 4250SOL    HW113649   6.832   5.511   3.600
 4250SOL    HW213650   6.883   5.359   3.630
 4251SOL     OW13651   5.466   4.171   0.578
 4251SOL    HW113652   5.555   4.126   0.580
 4251SOL    HW213653   5.414   4.138   0.499
 4252SOL     OW13654   6.279   5.885   4.892
 4252SOL    HW113655   6.352   5.945   4.862
 4252SOL    HW213656   6.236   5.841   4.813
 4253SOL     OW13657   4.501   1.213   1.543
 4253SOL    HW113658   4.502   1.116   1.517
 4253SOL    HW213659   4.583   1.258   1.505
 4254SOL     OW13660   1.749   3.201   1.477
 4254SOL    HW113661   1.695   3.282   1.497
 4254SOL    HW213662   1.782   3.205   1.383
 4255SOL     OW13663   5.792   2.972   4.025
 4255SOL    HW113664   5.889   2.988   4.044
 4255SOL    HW213665   5.783   2.897   3.960
 4256SOL     OW13666   1.372   0.021   1.247
 4256SOL    HW113667   1.363   0.001   1.345
 4256SOL    HW213668   1.442   6.983   1.207
 4257SOL     OW13669   3.535   1.729   5.192
 4257SOL    HW113670   3.490   1.643   5.217
 4257SOL    HW213671   3.468   1.803   5.193
 4258SOL     OW13672   5.732   6.566   1.805
 4258SOL    HW113673   5.755   6.638   1.740
 4258SOL    HW213674   5.650   6.592   1.856
 4259SOL     OW13675   2.484   1.693   6.686
 4259SOL    HW113676   2.524   1.605   6.711
 4259SOL    HW213677   2.427   1.681   6.605
 4260SOL     OW13678   4.041   5.768   3.806
 4260SOL    HW113679   4.002   5.724   3.725
 4260SOL    HW213680   4.138   5.786   3.790
 4261SOL     OW13681   2.267   6.362   1.848
 4261SOL    HW113682   2.282   6.461   1.845
 4261SOL    HW213683   2.257   6.333   1.943
 4262SOL     OW13684   1.852   4.954   6.426
 4262SOL    HW113685   1.913   5.028   6.454
 4262SOL    HW213686   1.805   4.916   6.505
 4263SOL     OW13687   2.027   5.934   5.293
 4263SOL    HW113688   2.050   5.842   5.261
 4263SOL    HW213689   1.948   5.969   5.241
 4264SOL     OW13690   6.805   1.887   0.501
 4264SOL    HW113691   6.800   1.985   0.519
 4264SOL    HW213692   6.840   1.840   0.582
 4265SOL     OW13693   6.444   2.021   0.266
 4265SOL    HW113694   6.435   1.974   0.179
 4265SOL    HW213695   6.527   2.078   0.265
 4266SOL     OW13696   2.831   5.538   0.428
 4266SOL    HW113697   2.868   5.530   0.336
 4266SOL    HW213698   2.780   5.623   0.437
 4267SOL     OW13699   2.146   3.833   4.962
 4267SOL    HW113700   2.215   3.893   5.002
 4267SOL    HW213701   2.184   3.787   4.882
 4268SOL     OW13702   1.747   6.668   0.399
 4268SOL    HW113703   1.708   6.699   0.313
 4268SOL    HW213704   1.756   6.746   0.461
 4269SOL     OW13705   2.984   2.603   0.308
 4269SOL    HW113706   3.072   2.630   0.268
 4269SOL    HW213707   3.000   2.551   0.392
 4270SOL     OW13708   3.898   2.994   4.725
 4270SOL    HW113709   3.910   3.006   4.626
 4270SOL    HW213710   3.832   2.920   4.742
 4271SOL     OW13711   0.305   6.879   5.433
 4271SOL    HW113712   0.236   6.806   5.428
 4271SOL    HW213713   0.277   6.945   5.502
 4272SOL     OW13714   0.014   5.005   5.065
 4272SOL    HW113715   6.941   5.013   5.033
 4272SOL    HW213716   0.076   5.037   4.994
 4273SOL     OW13717   4.675   6.697   4.626
 4273SOL    HW113718   4.769   6.672   4.603
 4273SOL    HW213719   4.612   6.632   4.584
 4274SOL     OW13720   1.043   6.810   3.393
 4274SOL    HW113721   1.134   6.822   3.432
 4274SOL    HW213722   1.013   6.716   3.406
 4275SOL     OW13723   0.113   1.152   5.831
 4275SOL    HW113724   0.073   1.189   5.747
 4275SOL    HW213725   0.042   1.147   5.902
 4276SOL     OW13726   2.245   5.084   3.092
 4276SOL    HW113727   2.322   5.069   3.031
 4276SOL    HW213728   2.186   5.004   3.092
 4277SOL     OW13729   6.641   5.443   3.835
 4277SOL    HW113730   6.723   5.459   3.779
 4277SOL    HW213731   6.629   5.345   3.849
 4278SOL     OW13732   6.589   6.373   4.949
 4278SOL    HW113733   6.655   6.319   5.001
 4278SOL    HW213734   6.521   6.412   5.012
 4279SOL     OW13735   3.461   6.590   5.633
 4279SOL    HW113736   3.510   6.677   5.619
 4279SOL    HW213737   3.496   6.545   5.715
 4280SOL     OW13738   6.312   1.700   5.255
 4280SOL    HW113739   6.239   1.644   5.294
 4280SOL    HW213740   6.346   1.655   5.172
 4281SOL     OW13741   1.653   4.604   5.221
 4281SOL    HW113742   1.589   4.551   5.166
 4281SOL    HW213743   1.691   4.679   5.166
 4282SOL     OW13744   2.780   2.289   0.348
 4282SOL    HW113745   2.802   2.374   0.396
 4282SOL    HW213746   2.863   2.249   0.311
 4283SOL     OW13747   1.554   0.022   3.735
 4283SOL    HW113748   1.585   0.042   3.642
 4283SOL    HW213749   1.469   0.072   3.753
 4284SOL     OW13750   5.587   0.720   2.470
 4284SOL    HW113751   5.508   0.737   2.529
 4284SOL    HW213752   5.654   0.665   2.520
 4285SOL     OW13753   6.969   6.720   5.774
 4285SOL    HW113754   6.989   6.650   5.705
 4285SOL    HW213755   0.002   6.704   5.856
 4286SOL     OW13756   4.428   5.650   6.960
 4286SOL    HW113757   4.394   5.685   0.026
 4286SOL    HW213758   4.391   5.705   6.885
 4287SOL     OW13759   6.024   6.545   4.925
 4287SOL    HW113760   5.950   6.612   4.937
 4287SOL    HW213761   6.049   6.507   5.014
 4288SOL     OW13762   0.465   6.801   3.940
 4288SOL    HW113763   0.513   6.851   3.867
 4288SOL    HW213764   0.530   6.748   3.993
 4289SOL     OW13765   5.322   2.242   1.496
 4289SOL    HW113766   5.264   2.323   1.486
 4289SOL    HW213767   5.375   2.228   1.413
 4290SOL     OW13768   2.057   6.722   1.876
 4290SOL    HW113769   2.052   6.796   1.943
 4290SOL    HW213770   2.152   6.692   1.868
 4291SOL     OW13771   5.036   3.371   1.067
 4291SOL    HW113772   5.077   3.353   1.156
 4291SOL    HW213773   5.020   3.285   1.018
 4292SOL     OW13774   6.340   4.459   5.323
 4292SOL    HW113775   6.336   4.555   5.297
 4292SOL    HW213776   6.325   4.450   5.422
 4293SOL     OW13777   0.018   4.077   6.495
 4293SOL    HW113778   0.033   3.991   6.544
 4293SOL    HW213779   6.996   4.058   6.407
 4294SOL     OW13780   3.984   2.390   6.358
 4294SOL    HW113781   3.977   2.480   6.401
 4294SOL    HW213782   4.045   2.395   6.279
 4295SOL     OW13783   3.282   0.375   5.023
 4295SOL    HW113784   3.215   0.333   4.962
 4295SOL    HW213785   3.238   0.401   5.109
 4296SOL     OW13786   2.566   2.205   0.687
 4296SOL    HW113787   2.469   2.197   0.708
 4296SOL    HW213788   2.582   2.183   0.591
 4297SOL     OW13789   4.998   6.355   4.574
 4297SOL    HW113790   5.033   6.262   4.586
 4297SOL    HW213791   5.065   6.410   4.524
 4298SOL     OW13792   1.692   5.904   1.251
 4298SOL    HW113793   1.768   5.902   1.186
 4298SOL    HW213794   1.676   5.998   1.281
 4299SOL     OW13795   0.955   3.198   6.102
 4299SOL    HW113796   0.942   3.245   6.189
 4299SOL    HW213797   0.989   3.263   6.034
 4300SOL     OW13798   2.889   1.069   6.459
 4300SOL    HW113799   2.799   1.043   6.494
 4300SOL    HW213800   2.960   1.017   6.509
 4301SOL     OW13801   2.162   1.704   0.440
 4301SOL    HW113802   2.207   1.622   0.404
 4301SOL    HW213803   2.064   1.688   0.447
 4302SOL     OW13804   1.353   6.025   6.514
 4302SOL    HW113805   1.444   6.048   6.549
 4302SOL    HW213806   1.346   5.927   6.500
 4303SOL     OW13807   6.477   4.299   3.298
 4303SOL    HW113808   6.474   4.301   3.199
 4303SOL    HW213809   6.386   4.322   3.335
 4304SOL     OW13810   3.630   3.466   4.141
 4304SOL    HW113811   3.589   3.416   4.217
 4304SOL    HW213812   3.706   3.522   4.174
 4305SOL     OW13813   6.209   1.239   3.340
 4305SOL    HW113814   6.274   1.315   3.341
 4305SOL    HW213815   6.233   1.173   3.410
 4306SOL     OW13816   0.146   3.878   6.145
 4306SOL    HW113817   0.181   3.950   6.086
 4306SOL    HW213818   0.057   3.906   6.183
 4307SOL     OW13819   4.565   4.195   5.752
 4307SOL    HW113820   4.517   4.108   5.764
 4307SOL    HW213821   4.649   4.194   5.806
 4308SOL     OW13822   5.205   5.623   5.342
 4308SOL    HW113823   5.249   5.549   5.393
 4308SOL    HW213824   5.177   5.694   5.406
 4309SOL     OW13825   1.526   0.854   0.688
 4309SOL    HW113826   1.549   0.757   0.683
 4309SOL    HW213827   1.577   0.905   0.619
 4310SOL     OW13828   1.597   2.906   3.461
 4310SOL    HW113829   1.643   2.852   3.531
 4310SOL    HW213830   1.498   2.906   3.479
 4311SOL     OW13831   1.148   6.101   3.076
 4311SOL    HW113832   1.211   6.027   3.053
 4311SOL    HW213833   1.130   6.102   3.174
 4312SOL     OW13834   1.491   5.776   2.020
 4312SOL    HW113835   1.489   5.820   1.930
 4312SOL    HW213836   1.582   5.735   2.035
 4313SOL     OW13837   5.701   0.999   1.596
 4313SOL    HW113838   5.785   0.986   1.544
 4313SOL    HW213839   5.661   0.909   1.618
 4314SOL     OW13840   4.738   2.889   2.833
 4314SOL    HW113841   4.766   2.861   2.741
 4314SOL    HW213842   4.638   2.888   2.839
 4315SOL     OW13843   2.680   0.784   2.137
 4315SOL    HW113844   2.683   0.689   2.108
 4315SOL    HW213845   2.670   0.843   2.057
 4316SOL     OW13846   4.720   6.871   1.187
 4316SOL    HW113847   4.644   6.933   1.163
 4316SOL    HW213848   4.683   6.785   1.220
 4317SOL     OW13849   3.480   1.550   5.524
 4317SOL    HW113850   3.431   1.562   5.438
 4317SOL    HW213851   3.441   1.610   5.594
 4318SOL     OW13852   1.081   4.226   4.168
 4318SOL    HW113853   1.160   4.165   4.169
 4318SOL    HW213854   1.029   4.214   4.252
 4319SOL     OW13855   2.523   3.692   6.457
 4319SOL    HW113856   2.534   3.610   6.513
 4319SOL    HW213857   2.495   3.667   6.364
 4320SOL     OW13858   1.493   6.699   2.757
 4320SOL    HW113859   1.434   6.633   2.710
 4320SOL    HW213860   1.475   6.694   2.856
 4321SOL     OW13861   6.253   0.606   4.528
 4321SOL    HW113862   6.250   0.552   4.443
 4321SOL    HW213863   6.171   0.662   4.534
 4322SOL     OW13864   6.933   1.399   6.797
 4322SOL    HW113865   6.973   1.480   6.838
 4322SOL    HW213866   7.002   1.327   6.790
 4323SOL     OW13867   5.635   2.740   2.173
 4323SOL    HW113868   5.661   2.758   2.268
 4323SOL    HW213869   5.568   2.666   2.170
 4324SOL     OW13870   5.835   3.577   6.458
 4324SOL    HW113871   5.922   3.559   6.504
 4324SOL    HW213872   5.843   3.658   6.401
 4325SOL     OW13873   2.218   0.480   0.251
 4325SOL    HW113874   2.300   0.435   0.217
 4325SOL    HW213875   2.163   0.415   0.303
 4326SOL     OW13876   6.731   3.120   5.025
 4326SOL    HW113877   6.822   3.089   5.052
 4326SOL    HW213878   6.665   3.045   5.039
 4327SOL     OW13879   5.328   5.304   2.436
 4327SOL    HW113880   5.273   5.369   2.385
 4327SOL    HW213881   5.404   5.351   2.481
 4328SOL     OW13882   4.678   5.361   5.933
 4328SOL    HW113883   4.707   5.295   6.001
 4328SOL    HW213884   4.578   5.366   5.932
 4329SOL     OW13885   3.276   1.782   6.028
 4329SOL    HW113886   3.325   1.713   5.973
 4329SOL    HW213887   3.308   1.873   6.003
 4330SOL     OW13888   2.425   0.230   5.989
 4330SOL    HW113889   2.464   0.299   6.049
 4330SOL    HW213890   2.369   0.167   6.042
 4331SOL     OW13891   5.247   3.520   0.509
 4331SOL    HW113892   5.221   3.424   0.521
 4331SOL    HW213893   5.341   3.533   0.540
 4332SOL     OW13894   5.261   3.398   2.276
 4332SOL    HW113895   5.219   3.488   2.286
 4332SOL    HW213896   5.229   3.356   2.191
 4333SOL     OW13897   5.293   1.414   5.164
 4333SOL    HW113898   5.267   1.399   5.260
 4333SOL    HW213899   5.212   1.405   5.106
 4334SOL     OW13900   3.006   2.048   1.967
 4334SOL    HW113901   2.975   2.126   2.021
 4334SOL    HW213902   2.932   1.980   1.961
 4335SOL     OW13903   2.970   3.634   3.839
 4335SOL    HW113904   2.937   3.697   3.910
 4335SOL    HW213905   3.021   3.684   3.770
 4336SOL     OW13906   1.418   6.263   5.544
 4336SOL    HW113907   1.411   6.209   5.460
 4336SOL    HW213908   1.442   6.357   5.520
 4337SOL     OW13909   0.549   5.094   0.375
 4337SOL    HW113910   0.528   5.187   0.345
 4337SOL    HW213911   0.515   5.029   0.307
 4338SOL     OW13912   5.909   5.400   4.752
 4338SOL    HW113913   5.830   5.406   4.813
 4338SOL    HW213914   5.941   5.492   4.729
 4339SOL     OW13915   6.373   2.642   4.606
 4339SOL    HW113916   6.386   2.693   4.521
 4339SOL    HW213917   6.277   2.648   4.634
 4340SOL     OW13918   6.857   3.106   2.676
 4340SOL    HW113919   6.844   3.134   2.581
 4340SOL    HW213920   6.852   3.006   2.682
 4341SOL     OW13921   1.680   4.098   1.919
 4341SOL    HW113922   1.685   4.167   1.847
 4341SOL    HW213923   1.749   4.027   1.902
 4342SOL     OW13924   0.597   2.419   3.302
 4342SOL    HW113925   0.601   2.372   3.213
 4342SOL    HW213926   0.659   2.497   3.301
 4343SOL     OW13927   3.847   1.231   6.949
 4343SOL    HW113928   3.764   1.175   6.945
 4343SOL    HW213929   3.852   1.276   0.017
 4344SOL     OW13930   1.594   4.871   3.819
 4344SOL    HW113931   1.524   4.939   3.838
 4344SOL    HW213932   1.598   4.852   3.721
 4345SOL     OW13933   1.658   3.022   5.485
 4345SOL    HW113934   1.728   2.996   5.551
 4345SOL    HW213935   1.702   3.053   5.400
 4346SOL     OW13936   2.439   2.978   1.737
 4346SOL    HW113937   2.470   3.051   1.676
 4346SOL    HW213938   2.389   2.909   1.684
 4347SOL     OW13939   0.047   0.577   1.621
 4347SOL    HW113940   0.117   0.559   1.690
 4347SOL    HW213941   0.075   0.537   1.534
 4348SOL     OW13942   0.891   3.980   1.902
 4348SOL    HW113943   0.967   4.043   1.889
 4348SOL    HW213944   0.838   3.974   1.817
 4349SOL     OW13945   0.401   1.747   3.436
 4349SOL    HW113946   0.407   1.746   3.336
 4349SOL    HW213947   0.459   1.675   3.474
 4350SOL     OW13948   5.360   2.570   4.516
 4350SOL    HW113949   5.278   2.569   4.460
 4350SOL    HW213950   5.334   2.586   4.612
 4351SOL     OW13951   2.577   6.165   2.174
 4351SOL    HW113952   2.497   6.131   2.223
 4351SOL    HW213953   2.609   6.094   2.111
 4352SOL     OW13954   0.452   2.032   1.780
 4352SOL    HW113955   0.524   2.021   1.848
 4352SOL    HW213956   0.393   2.109   1.806
 4353SOL     OW13957   2.359   5.522   1.102
 4353SOL    HW113958   2.290   5.545   1.170
 4353SOL    HW213959   2.370   5.599   1.039
 4354SOL     OW13960   2.321   6.576   0.097
 4354SOL    HW113961   2.309   6.506   0.167
 4354SOL    HW213962   2.419   6.595   0.086
 4355SOL     OW13963   4.325   1.017   1.207
 4355SOL    HW113964   4.377   1.102   1.195
 4355SOL    HW213965   4.263   1.005   1.130
 4356SOL     OW13966   4.878   3.831   1.804
 4356SOL    HW113967   4.978   3.827   1.797
 4356SOL    HW213968   4.852   3.828   1.900
 4357SOL     OW13969   5.878   0.778   6.910
 4357SOL    HW113970   5.803   0.839   6.932
 4357SOL    HW213971   5.964   0.829   6.906
 4358SOL     OW13972   0.341   6.616   1.183
 4358SOL    HW113973   0.391   6.546   1.234
 4358SOL    HW213974   0.304   6.577   1.100
 4359SOL     OW13975   1.094   2.491   4.533
 4359SOL    HW113976   1.150   2.554   4.479
 4359SOL    HW213977   1.000   2.495   4.500
 4360SOL     OW13978   0.770   4.053   2.365
 4360SOL    HW113979   0.784   4.125   2.433
 4360SOL    HW213980   0.781   3.963   2.408
 4361SOL     OW13981   4.209   2.688   1.571
 4361SOL    HW113982   4.281   2.757   1.563
 4361SOL    HW213983   4.120   2.733   1.575
 4362SOL     OW13984   6.058   3.533   5.366
 4362SOL    HW113985   6.017   3.550   5.277
 4362SOL    HW213986   6.141   3.479   5.355
 4363SOL     OW13987   4.987   2.240   5.299
 4363SOL    HW113988   5.003   2.319   5.359
 4363SOL    HW213989   4.898   2.251   5.254
 4364SOL     OW13990   3.040   4.054   4.837
 4364SOL    HW113991   2.988   4.139   4.832
 4364SOL    HW213992   3.113   4.063   4.904
 4365SOL     OW13993   3.728   2.033   2.462
 4365SOL    HW113994   3.805   2.075   2.511
 4365SOL    HW213995   3.746   1.936   2.450
 4366SOL     OW13996   6.270   6.881   1.709
 4366SOL    HW113997   6.316   6.812   1.654
 4366SOL    HW213998   6.234   6.838   1.793
 4367SOL     OW13999   1.066   5.170   5.664
 4367SOL    HW114000   1.039   5.217   5.580
 4367SOL    HW214001   1.164   5.149   5.660
 4368SOL     OW14002   4.936   5.054   1.601
 4368SOL    HW114003   4.909   5.122   1.533
 4368SOL    HW214004   5.031   5.026   1.585
 4369SOL     OW14005   4.745   4.889   2.571
 4369SOL    HW114006   4.726   4.882   2.473
 4369SOL    HW214007   4.707   4.974   2.607
 4370SOL     OW14008   5.516   4.558   2.982
 4370SOL    HW114009   5.534   4.633   3.046
 4370SOL    HW214010   5.583   4.561   2.907
 4371SOL     OW14011   6.698   0.739   1.843
 4371SOL    HW114012   6.638   0.659   1.847
 4371SOL    HW214013   6.744   0.740   1.754
 4372SOL     OW14014   4.589   1.299   2.999
 4372SOL    HW114015   4.561   1.394   3.014
 4372SOL    HW214016   4.519   1.238   3.034
 4373SOL     OW14017   6.525   2.662   6.626
 4373SOL    HW114018   6.472   2.634   6.545
 4373SOL    HW214019   6.568   2.582   6.667
 4374SOL     OW14020   1.310   2.048   2.226
 4374SOL    HW114021   1.367   2.127   2.250
 4374SOL    HW214022   1.360   1.964   2.244
 4375SOL     OW14023   2.516   6.941   4.184
 4375SOL    HW114024   2.423   6.920   4.213
 4375SOL    HW214025   2.577   6.936   4.263
 4376SOL     OW14026   6.616   0.013   2.805
 4376SOL    HW114027   6.584   6.998   2.718
 4376SOL    HW214028   6.541   0.063   2.849
 4377SOL     OW14029   5.520   3.947   0.115
 4377SOL    HW114030   5.601   3.899   0.148
 4377SOL    HW214031   5.490   4.013   0.184
 4378SOL     OW14032   2.362   0.610   3.833
 4378SOL    HW114033   2.305   0.533   3.805
 4378SOL    HW214034   2.335   0.692   3.783
 4379SOL     OW14035   2.428   1.327   4.960
 4379SOL    HW114036   2.349   1.268   4.980
 4379SOL    HW214037   2.401   1.397   4.895
 4380SOL     OW14038   1.268   1.229   1.132
 4380SOL    HW114039   1.306   1.140   1.159
 4380SOL    HW214040   1.239   1.278   1.214
 4381SOL     OW14041   0.714   5.575   5.067
 4381SOL    HW114042   0.623   5.579   5.108
 4381SOL    HW214043   0.772   5.512   5.119
 4382SOL     OW14044   6.589   3.408   5.328
 4382SOL    HW114045   6.490   3.419   5.334
 4382SOL    HW214046   6.617   3.408   5.232
 4383SOL     OW14047   5.746   2.847   6.217
 4383SOL    HW114048   5.671   2.781   6.204
 4383SOL    HW214049   5.748   2.910   6.139
 4384SOL     OW14050   6.935   0.673   3.459
 4384SOL    HW114051   6.910   0.746   3.395
 4384SOL    HW214052   7.010   0.620   3.420
 4385SOL     OW14053   4.863   2.040   4.347
 4385SOL    HW114054   4.923   1.982   4.293
 4385SOL    HW214055   4.874   2.135   4.319
 4386SOL     OW14056   1.416   3.940   5.733
 4386SOL    HW114057   1.353   3.931   5.657
 4386SOL    HW214058   1.479   4.016   5.716
 4387SOL     OW14059   5.950   2.886   0.674
 4387SOL    HW114060   6.023   2.832   0.716
 4387SOL    HW214061   5.879   2.905   0.742
 4388SOL     OW14062   5.088   1.686   6.188
 4388SOL    HW114063   5.012   1.684   6.123
 4388SOL    HW214064   5.113   1.781   6.207
 4389SOL     OW14065   6.985   3.451   2.002
 4389SOL    HW114066   6.971   3.417   2.096
 4389SOL    HW214067   0.014   3.537   2.005
 4390SOL     OW14068   5.670   0.063   0.941
 4390SOL    HW114069   5.614   0.142   0.968
 4390SOL    HW214070   5.625   0.014   0.867
 4391SOL     OW14071   1.819   5.564   6.304
 4391SOL    HW114072   1.781   5.472   6.311
 4391SOL    HW214073   1.868   5.573   6.218
 4392SOL     OW14074   0.812   1.630   3.965
 4392SOL    HW114075   0.894   1.574   3.974
 4392SOL    HW214076   0.791   1.674   4.052
 4393SOL     OW14077   6.123   0.524   1.491
 4393SOL    HW114078   6.035   0.480   1.476
 4393SOL    HW214079   6.168   0.483   1.570
 4394SOL     OW14080   0.827   0.626   1.457
 4394SOL    HW114081   0.839   0.565   1.379
 4394SOL    HW214082   0.766   0.584   1.524
 4395SOL     OW14083   2.446   0.133   2.224
 4395SOL    HW114084   2.418   0.037   2.211
 4395SOL    HW214085   2.491   0.142   2.313
 4396SOL     OW14086   1.465   1.301   3.570
 4396SOL    HW114087   1.454   1.334   3.476
 4396SOL    HW214088   1.391   1.237   3.591
 4397SOL     OW14089   2.490   2.614   3.828
 4397SOL    HW114090   2.466   2.555   3.751
 4397SOL    HW214091   2.588   2.634   3.826
 4398SOL     OW14092   1.951   3.534   6.315
 4398SOL    HW114093   1.886   3.561   6.244
 4398SOL    HW214094   1.904   3.480   6.385
 4399SOL     OW14095   2.244   6.269   2.164
 4399SOL    HW114096   2.145   6.260   2.174
 4399SOL    HW214097   2.286   6.178   2.158
 4400SOL     OW14098   1.383   6.853   3.943
 4400SOL    HW114099   1.423   6.927   3.889
 4400SOL    HW214100   1.316   6.890   4.007
 4401SOL     OW14101   3.611   6.262   5.505
 4401SOL    HW114102   3.705   6.257   5.540
 4401SOL    HW214103   3.573   6.169   5.500
 4402SOL     OW14104   1.441   0.484   3.000
 4402SOL    HW114105   1.457   0.583   3.006
 4402SOL    HW214106   1.417   0.460   2.906
 4403SOL     OW14107   0.775   5.414   1.217
 4403SOL    HW114108   0.866   5.445   1.243
 4403SOL    HW214109   0.731   5.369   1.294
 4404SOL     OW14110   1.308   5.553   5.981
 4404SOL    HW114111   1.305   5.651   5.999
 4404SOL    HW214112   1.400   5.518   5.998
 4405SOL     OW14113   2.857   4.810   3.585
 4405SOL    HW114114   2.916   4.804   3.504
 4405SOL    HW214115   2.780   4.746   3.575
 4406SOL     OW14116   6.228   3.295   2.157
 4406SOL    HW114117   6.197   3.244   2.076
 4406SOL    HW214118   6.150   3.313   2.216
 4407SOL     OW14119   0.097   6.022   2.149
 4407SOL    HW114120   0.112   6.083   2.228
 4407SOL    HW214121   0.151   6.055   2.072
 4408SOL     OW14122   3.920   6.877   0.066
 4408SOL    HW114123   3.967   6.964   0.080
 4408SOL    HW214124   3.986   6.806   0.047
 4409SOL     OW14125   3.937   0.480   2.711
 4409SOL    HW114126   3.930   0.575   2.741
 4409SOL    HW214127   4.029   0.462   2.677
 4410SOL     OW14128   0.340   6.012   0.936
 4410SOL    HW114129   0.338   5.927   0.989
 4410SOL    HW214130   0.434   6.042   0.926
 4411SOL     OW14131   3.324   4.728   5.871
 4411SOL    HW114132   3.244   4.720   5.812
 4411SOL    HW214133   3.382   4.647   5.860
 4412SOL     OW14134   4.288   6.642   3.802
 4412SOL    HW114135   4.357   6.709   3.829
 4412SOL    HW214136   4.272   6.578   3.877
 4413SOL     OW14137   3.231   0.227   4.213
 4413SOL    HW114138   3.248   0.278   4.298
 4413SOL    HW214139   3.300   0.252   4.145
 4414SOL     OW14140   5.028   5.002   1.979
 4414SOL    HW114141   4.940   5.041   1.956
 4414SOL    HW214142   5.100   5.071   1.970
 4415SOL     OW14143   3.401   4.130   1.838
 4415SOL    HW114144   3.472   4.068   1.806
 4415SOL    HW214145   3.425   4.224   1.814
 4416SOL     OW14146   4.187   1.494   4.525
 4416SOL    HW114147   4.142   1.416   4.482
 4416SOL    HW214148   4.168   1.577   4.472
 4417SOL     OW14149   0.346   3.155   4.415
 4417SOL    HW114150   0.306   3.189   4.330
 4417SOL    HW214151   0.296   3.193   4.493
 4418SOL     OW14152   6.645   0.944   1.269
 4418SOL    HW114153   6.681   1.034   1.292
 4418SOL    HW214154   6.630   0.939   1.170
 4419SOL     OW14155   6.527   5.747   5.694
 4419SOL    HW114156   6.513   5.770   5.597
 4419SOL    HW214157   6.613   5.786   5.725
 4420SOL     OW14158   3.705   2.108   1.441
 4420SOL    HW114159   3.608   2.113   1.418
 4420SOL    HW214160   3.717   2.109   1.540
 4421SOL     OW14161   1.241   2.756   4.931
 4421SOL    HW114162   1.327   2.766   4.979
 4421SOL    HW214163   1.169   2.804   4.981
 4422SOL     OW14164   0.370   4.695   0.288
 4422SOL    HW114165   0.312   4.616   0.268
 4422SOL    HW214166   0.439   4.669   0.356
 4423SOL     OW14167   6.306   4.411   5.886
 4423SOL    HW114168   6.400   4.377   5.892
 4423SOL    HW214169   6.261   4.401   5.975
 4424SOL     OW14170   4.626   5.728   4.342
 4424SOL    HW114171   4.598   5.641   4.382
 4424SOL    HW214172   4.624   5.720   4.242
 4425SOL     OW14173   1.730   4.739   1.436
 4425SOL    HW114174   1.690   4.738   1.528
 4425SOL    HW214175   1.732   4.833   1.402
 4426SOL     OW14176   1.074   0.273   4.337
 4426SOL    HW114177   1.065   0.214   4.417
 4426SOL    HW214178   0.996   0.259   4.276
 4427SOL     OW14179   3.432   6.433   2.953
 4427SOL    HW114180   3.531   6.430   2.961
 4427SOL    HW214181   3.398   6.342   2.928
 4428SOL     OW14182   5.973   0.934   4.265
 4428SOL    HW114183   5.989   1.024   4.304
 4428SOL    HW214184   5.887   0.934   4.214
 4429SOL     OW14185   2.681   6.322   3.410
 4429SOL    HW114186   2.627   6.402   3.384
 4429SOL    HW214187   2.628   6.264   3.471
 4430SOL     OW14188   5.266   4.749   4.046
 4430SOL    HW114189   5.181   4.713   4.009
 4430SOL    HW214190   5.270   4.848   4.030
 4431SOL     OW14191   3.659   0.530   3.917
 4431SOL    HW114192   3.573   0.520   3.967
 4431SOL    HW214193   3.731   0.480   3.965
 4432SOL     OW14194   1.444   3.671   6.456
 4432SOL    HW114195   1.391   3.745   6.499
 4432SOL    HW214196   1.387   3.626   6.387
 4433SOL     OW14197   0.804   1.639   4.825
 4433SOL    HW114198   0.871   1.571   4.858
 4433SOL    HW214199   0.792   1.628   4.726
 4434SOL     OW14200   6.849   1.621   1.436
 4434SOL    HW114201   6.874   1.677   1.515
 4434SOL    HW214202   6.776   1.558   1.462
 4435SOL     OW14203   2.811   3.544   0.345
 4435SOL    HW114204   2.723   3.530   0.300
 4435SOL    HW214205   2.830   3.642   0.352
 4436SOL     OW14206   4.581   2.108   0.991
 4436SOL    HW114207   4.640   2.168   0.938
 4436SOL    HW214208   4.637   2.044   1.044
 4437SOL     OW14209   0.299   3.599   2.328
 4437SOL    HW114210   0.368   3.545   2.280
 4437SOL    HW214211   0.334   3.691   2.344
 4438SOL     OW14212   4.612   6.344   5.463
 4438SOL    HW114213   4.617   6.427   5.518
 4438SOL    HW214214   4.533   6.290   5.490
 4439SOL     OW14215   1.838   0.128   2.983
 4439SOL    HW114216   1.863   0.163   3.073
 4439SOL    HW214217   1.881   0.039   2.969
 4440SOL     OW14218   1.806   4.795   1.065
 4440SOL    HW114219   1.854   4.825   0.983
 4440SOL    HW214220   1.754   4.871   1.104
 4441SOL     OW14221   0.921   1.951   0.527
 4441SOL    HW114222   0.983   1.999   0.466
 4441SOL    HW214223   0.916   1.855   0.500
 4442SOL     OW14224   1.899   4.863   6.178
 4442SOL    HW114225   1.922   4.768   6.158
 4442SOL    HW214226   1.863   4.869   6.271
 4443SOL     OW14227   0.742   5.023   0.115
 4443SOL    HW114228   0.714   5.088   0.044
 4443SOL    HW214229   0.661   4.986   0.160
 4444SOL     OW14230   4.887   4.256   0.709
 4444SOL    HW114231   4.919   4.174   0.756
 4444SOL    HW214232   4.941   4.270   0.626
 4445SOL     OW14233   0.092   5.646   6.767
 4445SOL    HW114234   0.006   5.662   6.816
 4445SOL    HW214235   0.158   5.604   6.829
 4446SOL     OW14236   4.675   1.412   0.638
 4446SOL    HW114237   4.759   1.371   0.601
 4446SOL    HW214238   4.626   1.344   0.693
 4447SOL     OW14239   5.486   4.958   4.744
 4447SOL    HW114240   5.404   4.902   4.750
 4447SOL    HW214241   5.566   4.900   4.729
 4448SOL     OW14242   2.853   6.554   1.324
 4448SOL    HW114243   2.790   6.481   1.350
 4448SOL    HW214244   2.838   6.634   1.381
 4449SOL     OW14245   4.137   1.072   6.492
 4449SOL    HW114246   4.190   1.017   6.428
 4449SOL    HW214247   4.158   1.046   6.586
 4450SOL     OW14248   3.742   0.913   0.060
 4450SOL    HW114249   3.736   0.910   0.160
 4450SOL    HW214250   3.779   0.827   0.026
 4451SOL     OW14251   4.477   4.777   3.459
 4451SOL    HW114252   4.467   4.709   3.531
 4451SOL    HW214253   4.515   4.733   3.377
 4452SOL     OW14254   5.612   5.900   4.493
 4452SOL    HW114255   5.698   5.879   4.538
 4452SOL    HW214256   5.541   5.838   4.525
 4453SOL     OW14257   0.067   3.545   1.265
 4453SOL    HW114258   0.087   3.453   1.231
 4453SOL    HW214259   0.085   3.548   1.364
 4454SOL     OW14260   0.846   1.971   0.127
 4454SOL    HW114261   0.861   1.927   0.039
 4454SOL    HW214262   0.892   2.060   0.128
 4455SOL     OW14263   6.391   5.464   5.085
 4455SOL    HW114264   6.352   5.383   5.129
 4455SOL    HW214265   6.490   5.455   5.083
 4456SOL     OW14266   1.648   6.793   3.699
 4456SOL    HW114267   1.742   6.802   3.665
 4456SOL    HW214268   1.616   6.882   3.732
 4457SOL     OW14269   1.397   2.017   4.951
 4457SOL    HW114270   1.308   1.972   4.960
 4457SOL    HW214271   1.388   2.100   4.897
 4458SOL     OW14272   2.073   3.811   1.787
 4458SOL    HW114273   1.986   3.828   1.833
 4458SOL    HW214274   2.100   3.716   1.800
 4459SOL     OW14275   1.324   3.023   4.462
 4459SOL    HW114276   1.341   2.970   4.545
 4459SOL    HW214277   1.264   2.972   4.401
 4460SOL     OW14278   0.237   3.612   4.267
 4460SOL    HW114279   0.165   3.547   4.294
 4460SOL    HW214280   0.301   3.566   4.206
 4461SOL     OW14281   2.720   0.867   1.542
 4461SOL    HW114282   2.693   0.777   1.576
 4461SOL    HW214283   2.796   0.902   1.596
 4462SOL     OW14284   6.227   3.567   2.051
 4462SOL    HW114285   6.286   3.551   1.971
 4462SOL    HW214286   6.215   3.481   2.100
 4463SOL     OW14287   5.379   1.714   1.526
 4463SOL    HW114288   5.439   1.738   1.602
 4463SOL    HW214289   5.337   1.625   1.544
 4464SOL     OW14290   0.288   5.615   0.175
 4464SOL    HW114291   0.310   5.709   0.148
 4464SOL    HW214292   0.352   5.584   0.245
 4465SOL     OW14293   2.313   5.838   0.422
 4465SOL    HW114294   2.223   5.805   0.393
 4465SOL    HW214295   2.361   5.878   0.344
 4466SOL     OW14296   1.980   2.149   4.150
 4466SOL    HW114297   1.890   2.104   4.142
 4466SOL    HW214298   1.979   2.211   4.229
 4467SOL     OW14299   2.644   5.997   3.353
 4467SOL    HW114300   2.655   6.063   3.279
 4467SOL    HW214301   2.688   6.032   3.436
 4468SOL     OW14302   1.365   2.896   2.000
 4468SOL    HW114303   1.344   2.819   2.061
 4468SOL    HW214304   1.459   2.887   1.968
 4469SOL     OW14305   2.674   0.216   1.623
 4469SOL    HW114306   2.629   0.149   1.683
 4469SOL    HW214307   2.762   0.180   1.593
 4470SOL     OW14308   1.243   0.400   2.460
 4470SOL    HW114309   1.171   0.336   2.483
 4470SOL    HW214310   1.226   0.438   2.369
 4471SOL     OW14311   2.482   2.095   6.383
 4471SOL    HW114312   2.476   2.010   6.330
 4471SOL    HW214313   2.419   2.162   6.346
 4472SOL     OW14314   1.812   3.158   1.205
 4472SOL    HW114315   1.912   3.156   1.204
 4472SOL    HW214316   1.777   3.135   1.114
 4473SOL     OW14317   0.278   3.282   4.146
 4473SOL    HW114318   0.209   3.222   4.105
 4473SOL    HW214319   0.314   3.344   4.076
 4474SOL     OW14320   3.539   0.833   1.950
 4474SOL    HW114321   3.528   0.910   1.887
 4474SOL    HW214322   3.636   0.820   1.971
 4475SOL     OW14323   0.970   4.164   2.208
 4475SOL    HW114324   0.910   4.237   2.175
 4475SOL    HW214325   0.935   4.129   2.295
 4476SOL     OW14326   5.359   1.169   3.748
 4476SOL    HW114327   5.435   1.108   3.724
 4476SOL    HW214328   5.310   1.196   3.665
 4477SOL     OW14329   2.858   0.129   5.615
 4477SOL    HW114330   2.813   0.173   5.692
 4477SOL    HW214331   2.836   0.031   5.614
 4478SOL     OW14332   1.707   0.297   0.492
 4478SOL    HW114333   1.612   0.308   0.522
 4478SOL    HW214334   1.731   0.200   0.493
 4479SOL     OW14335   0.764   2.717   0.282
 4479SOL    HW114336   0.669   2.731   0.311
 4479SOL    HW214337   0.765   2.698   0.184
 4480SOL     OW14338   6.445   5.438   4.733
 4480SOL    HW114339   6.489   5.528   4.733
 4480SOL    HW214340   6.391   5.428   4.650
 4481SOL     OW14341   2.432   5.065   6.042
 4481SOL    HW114342   2.495   5.093   6.114
 4481SOL    HW214343   2.355   5.017   6.082
 4482SOL     OW14344   2.772   5.444   6.286
 4482SOL    HW114345   2.730   5.528   6.320
 4482SOL    HW214346   2.772   5.445   6.186
 4483SOL     OW14347   0.516   2.849   2.215
 4483SOL    HW114348   0.512   2.900   2.129
 4483SOL    HW214349   0.555   2.759   2.199
 4484SOL     OW14350   2.670   2.986   6.961
 4484SOL    HW114351   2.753   2.934   6.981
 4484SOL    HW214352   2.621   2.943   6.886
 4485SOL     OW14353   5.026   2.272   4.588
 4485SOL    HW114354   5.037   2.255   4.490
 4485SOL    HW214355   4.958   2.345   4.601
 4486SOL     OW14356   5.156   4.847   4.990
 4486SOL    HW114357   5.165   4.940   5.026
 4486SOL    HW214358   5.190   4.844   4.896
 4487SOL     OW14359   1.629   2.688   0.229
 4487SOL    HW114360   1.690   2.632   0.286
 4487SOL    HW214361   1.683   2.757   0.181
 4488SOL     OW14362   0.776   4.937   4.319
 4488SOL    HW114363   0.782   4.845   4.279
 4488SOL    HW214364   0.716   4.934   4.399
 4489SOL     OW14365   4.713   5.438   5.513
 4489SOL    HW114366   4.731   5.464   5.608
 4489SOL    HW214367   4.792   5.386   5.478
 4490SOL     OW14368   5.350   1.715   0.937
 4490SOL    HW114369   5.257   1.687   0.912
 4490SOL    HW214370   5.416   1.657   0.889
 4491SOL     OW14371   1.227   3.153   3.296
 4491SOL    HW114372   1.146   3.208   3.277
 4491SOL    HW214373   1.217   3.063   3.255
 4492SOL     OW14374   5.398   0.496   1.918
 4492SOL    HW114375   5.320   0.542   1.961
 4492SOL    HW214376   5.425   0.418   1.974
 4493SOL     OW14377   5.168   0.367   5.150
 4493SOL    HW114378   5.097   0.310   5.109
 4493SOL    HW214379   5.129   0.420   5.226
 4494SOL     OW14380   0.244   0.723   6.931
 4494SOL    HW114381   0.307   0.749   6.859
 4494SOL    HW214382   0.227   0.801   6.991
 4495SOL     OW14383   3.752   6.047   2.095
 4495SOL    HW114384   3.818   6.112   2.131
 4495SOL    HW214385   3.794   5.957   2.088
 4496SOL     OW14386   4.089   6.394   5.959
 4496SOL    HW114387   4.129   6.434   6.041
 4496SOL    HW214388   4.130   6.305   5.941
 4497SOL     OW14389   4.181   1.903   6.339
 4497SOL    HW114390   4.191   1.900   6.239
 4497SOL    HW214391   4.270   1.923   6.380
 4498SOL     OW14392   0.112   5.058   5.961
 4498SOL    HW114393   0.187   5.048   6.027
 4498SOL    HW214394   0.128   5.139   5.905
 4499SOL     OW14395   6.038   1.691   2.666
 4499SOL    HW114396   5.958   1.749   2.680
 4499SOL    HW214397   6.043   1.622   2.739
 4500SOL     OW14398   3.377   5.324   0.479
 4500SOL    HW114399   3.389   5.305   0.382
 4500SOL    HW214400   3.339   5.243   0.525
 4501SOL     OW14401   5.686   1.658   2.045
 4501SOL    HW114402   5.690   1.584   2.111
 4501SOL    HW214403   5.767   1.716   2.054
 4502SOL     OW14404   0.753   3.588   0.312
 4502SOL    HW114405   0.668   3.538   0.296
 4502SOL    HW214406   0.732   3.684   0.331
 4503SOL     OW14407   2.866   0.276   2.279
 4503SOL    HW114408   2.835   0.214   2.207
 4503SOL    HW214409   2.867   0.228   2.367
 4504SOL     OW14410   0.300   2.068   3.565
 4504SOL    HW114411   0.206   2.092   3.540
 4504SOL    HW214412   0.311   2.076   3.664
 4505SOL     OW14413   6.237   4.059   2.559
 4505SOL    HW114414   6.274   4.059   2.466
 4505SOL    HW214415   6.264   3.974   2.605
 4506SOL     OW14416   5.012   2.857   4.452
 4506SOL    HW114417   5.054   2.923   4.514
 4506SOL    HW214418   4.927   2.895   4.416
 4507SOL     OW14419   6.561   3.160   3.193
 4507SOL    HW114420   6.631   3.230   3.182
 4507SOL    HW214421   6.597   3.085   3.248
 4508SOL     OW14422   0.640   5.086   0.956
 4508SOL    HW114423   0.614   4.992   0.977
 4508SOL    HW214424   0.729   5.086   0.909
 4509SOL     OW14425   4.346   2.025   2.331
 4509SOL    HW114426   4.368   1.928   2.341
 4509SOL    HW214427   4.423   2.080   2.364
 4510SOL     OW14428   4.871   1.368   4.118
 4510SOL    HW114429   4.904   1.397   4.207
 4510SOL    HW214430   4.875   1.268   4.112
 4511SOL     OW14431   0.334   4.467   1.063
 4511SOL    HW114432   0.400   4.421   1.122
 4511SOL    HW214433   0.287   4.400   1.006
 4512SOL     OW14434   3.819   2.181   5.834
 4512SOL    HW114435   3.863   2.249   5.892
 4512SOL    HW214436   3.722   2.176   5.856
 4513SOL     OW14437   1.488   5.917   6.951
 4513SOL    HW114438   1.483   5.832   6.899
 4513SOL    HW214439   1.582   5.951   6.950
 4514SOL     OW14440   3.280   3.759   6.515
 4514SOL    HW114441   3.287   3.844   6.569
 4514SOL    HW214442   3.183   3.733   6.507
 4515SOL     OW14443   5.202   6.760   5.367
 4515SOL    HW114444   5.210   6.822   5.445
 4515SOL    HW214445   5.293   6.741   5.330
 4516SOL     OW14446   3.348   1.822   5.642
 4516SOL    HW114447   3.358   1.771   5.728
 4516SOL    HW214448   3.431   1.874   5.624
 4517SOL     OW14449   4.376   0.420   5.904
 4517SOL    HW114450   4.397   0.518   5.904
 4517SOL    HW214451   4.461   0.368   5.910
 4518SOL     OW14452   2.143   0.022   1.284
 4518SOL    HW114453   2.174   0.016   1.379
 4518SOL    HW214454   2.221   0.029   1.223
 4519SOL     OW14455   5.970   6.771   0.316
 4519SOL    HW114456   6.021   6.815   0.242
 4519SOL    HW214457   6.030   6.760   0.396
 4520SOL     OW14458   4.148   6.881   5.210
 4520SOL    HW114459   4.195   6.887   5.122
 4520SOL    HW214460   4.180   6.956   5.269
 4521SOL     OW14461   5.021   2.699   5.027
 4521SOL    HW114462   5.046   2.671   4.935
 4521SOL    HW214463   4.929   2.664   5.049
 4522SOL     OW14464   5.131   3.435   3.552
 4522SOL    HW114465   5.207   3.446   3.488
 4522SOL    HW214466   5.165   3.446   3.646
 4523SOL     OW14467   0.506   3.555   6.482
 4523SOL    HW114468   0.571   3.595   6.547
 4523SOL    HW214469   0.414   3.555   6.522
 4524SOL     OW14470   0.597   3.270   2.628
 4524SOL    HW114471   0.531   3.322   2.682
 4524SOL    HW214472   0.560   3.256   2.536
 4525SOL     OW14473   2.045   2.668   5.772
 4525SOL    HW114474   1.997   2.741   5.820
 4525SOL    HW214475   2.144   2.678   5.786
 4526SOL     OW14476   0.719   0.057   6.115
 4526SOL    HW114477   0.654   0.133   6.124
 4526SOL    HW214478   0.669   6.991   6.117
 4527SOL     OW14479   6.502   7.004   3.281
 4527SOL    HW114480   6.486   7.000   3.380
 4527SOL    HW214481   6.594   0.018   3.264
 4528SOL     OW14482   4.081   1.192   5.265
 4528SOL    HW114483   4.099   1.227   5.357
 4528SOL    HW214484   4.147   1.121   5.243
 4529SOL     OW14485   2.719   0.958   5.164
 4529SOL    HW114486   2.657   1.027   5.202
 4529SOL    HW214487   2.700   0.870   5.206
 4530SOL     OW14488   2.316   6.297   4.888
 4530SOL    HW114489   2.248   6.369   4.898
 4530SOL    HW214490   2.274   6.217   4.844
 4531SOL     OW14491   1.037   5.062   6.238
 4531SOL    HW114492   1.109   5.095   6.177
 4531SOL    HW214493   1.061   4.972   6.273
 4532SOL     OW14494   5.479   0.342   2.814
 4532SOL    HW114495   5.471   0.426   2.761
 4532SOL    HW214496   5.567   0.341   2.862
 4533SOL     OW14497   2.378   0.549   1.973
 4533SOL    HW114498   2.414   0.455   1.974
 4533SOL    HW214499   2.450   0.611   1.942
 4534SOL     OW14500   4.788   1.680   4.265
 4534SOL    HW114501   4.845   1.608   4.305
 4534SOL    HW214502   4.792   1.762   4.323
 4535SOL     OW14503   2.905   1.615   1.197
 4535SOL    HW114504   2.872   1.688   1.137
 4535SOL    HW214505   2.977   1.652   1.257
 4536SOL     OW14506   3.008   1.700   5.996
 4536SOL    HW114507   3.101   1.735   5.995
 4536SOL    HW214508   2.946   1.770   6.031
 4537SOL     OW14509   3.614   4.098   4.249
 4537SOL    HW114510   3.698   4.043   4.248
 4537SOL    HW214511   3.596   4.128   4.343
 4538SOL     OW14512   6.539   2.664   1.187
 4538SOL    HW114513   6.471   2.592   1.179
 4538SOL    HW214514   6.631   2.624   1.185
 4539SOL     OW14515   1.265   5.616   5.540
 4539SOL    HW114516   1.228   5.540   5.593
 4539SOL    HW214517   1.346   5.587   5.490
 4540SOL     OW14518   6.838   1.134   1.029
 4540SOL    HW114519   6.875   1.105   1.117
 4540SOL    HW214520   6.783   1.060   0.991
 4541SOL     OW14521   4.312   2.136   6.132
 4541SOL    HW114522   4.394   2.163   6.182
 4541SOL    HW214523   4.316   2.039   6.109
 4542SOL     OW14524   0.277   2.848   1.291
 4542SOL    HW114525   0.370   2.861   1.327
 4542SOL    HW214526   0.273   2.761   1.242
 4543SOL     OW14527   3.618   2.004   6.731
 4543SOL    HW114528   3.716   2.005   6.747
 4543SOL    HW214529   3.600   1.995   6.633
 4544SOL     OW14530   5.809   4.984   0.435
 4544SOL    HW114531   5.745   4.916   0.470
 4544SOL    HW214532   5.875   4.940   0.373
 4545SOL     OW14533   1.854   3.540   5.122
 4545SOL    HW114534   1.829   3.617   5.064
 4545SOL    HW214535   1.946   3.555   5.160
 4546SOL     OW14536   2.399   1.385   6.039
 4546SOL    HW114537   2.324   1.327   6.006
 4546SOL    HW214538   2.385   1.407   6.135
 4547SOL     OW14539   6.236   0.458   0.327
 4547SOL    HW114540   6.321   0.462   0.379
 4547SOL    HW214541   6.256   0.466   0.229
 4548SOL     OW14542   2.246   2.951   2.647
 4548SOL    HW114543   2.275   2.952   2.743
 4548SOL    HW214544   2.244   3.045   2.612
 4549SOL     OW14545   5.761   4.118   2.263
 4549SOL    HW114546   5.693   4.064   2.313
 4549SOL    HW214547   5.730   4.213   2.257
 4550SOL     OW14548   0.576   4.516   2.785
 4550SOL    HW114549   0.538   4.456   2.715
 4550SOL    HW214550   0.581   4.467   2.872
 4551SOL     OW14551   1.367   3.639   5.098
 4551SOL    HW114552   1.338   3.544   5.086
 4551SOL    HW214553   1.358   3.665   5.194
 4552SOL     OW14554   5.938   1.023   1.484
 4552SOL    HW114555   6.016   0.961   1.488
 4552SOL    HW214556   5.965   1.114   1.517
 4553SOL     OW14557   5.339   4.626   6.183
 4553SOL    HW114558   5.370   4.589   6.271
 4553SOL    HW214559   5.352   4.725   6.181
 4554SOL     OW14560   0.575   6.571   1.746
 4554SOL    HW114561   0.652   6.625   1.780
 4554SOL    HW214562   0.598   6.474   1.751
 4555SOL     OW14563   0.988   1.209   6.765
 4555SOL    HW114564   0.930   1.257   6.831
 4555SOL    HW214565   0.943   1.125   6.736
 4556SOL     OW14566   6.150   3.196   5.889
 4556SOL    HW114567   6.129   3.188   5.987
 4556SOL    HW214568   6.074   3.240   5.841
 4557SOL     OW14569   5.528   5.022   3.072
 4557SOL    HW114570   5.431   5.024   3.095
 4557SOL    HW214571   5.568   4.937   3.107
 4558SOL     OW14572   6.596   3.028   5.384
 4558SOL    HW114573   6.670   2.990   5.440
 4558SOL    HW214574   6.635   3.093   5.318
 4559SOL     OW14575   0.990   2.896   2.793
 4559SOL    HW114576   1.002   2.989   2.757
 4559SOL    HW214577   0.898   2.887   2.831
 4560SOL     OW14578   6.248   4.650   2.173
 4560SOL    HW114579   6.289   4.622   2.086
 4560SOL    HW214580   6.318   4.652   2.244
 4561SOL     OW14581   3.673   2.116   4.456
 4561SOL    HW114582   3.578   2.123   4.485
 4561SOL    HW214583   3.679   2.133   4.357
 4562SOL     OW14584   2.093   0.276   0.971
 4562SOL    HW114585   2.015   0.223   1.004
 4562SOL    HW214586   2.138   0.225   0.897
 4563SOL     OW14587   0.378   3.147   1.901
 4563SOL    HW114588   0.324   3.174   1.821
 4563SOL    HW214589   0.342   3.193   1.983
 4564SOL     OW14590   0.177   4.498   1.979
 4564SOL    HW114591   0.133   4.431   1.919
 4564SOL    HW214592   0.130   4.499   2.068
 4565SOL     OW14593   2.301   6.959   4.817
 4565SOL    HW114594   2.359   6.888   4.857
 4565SOL    HW214595   2.205   6.935   4.831
 4566SOL     OW14596   6.879   4.333   1.555
 4566SOL    HW114597   6.821   4.353   1.634
 4566SOL    HW214598   6.956   4.397   1.554
 4567SOL     OW14599   0.283   7.001   6.064
 4567SOL    HW114600   0.194   6.976   6.026
 4567SOL    HW214601   0.304   0.074   6.040
 4568SOL     OW14602   0.542   5.344   3.544
 4568SOL    HW114603   0.615   5.280   3.520
 4568SOL    HW214604   0.473   5.297   3.599
 4569SOL     OW14605   2.897   1.315   3.151
 4569SOL    HW114606   2.893   1.397   3.094
 4569SOL    HW214607   2.879   1.340   3.246
 4570SOL     OW14608   6.437   5.597   1.239
 4570SOL    HW114609   6.504   5.532   1.202
 4570SOL    HW214610   6.486   5.674   1.279
 4571SOL     OW14611   3.396   2.992   6.358
 4571SOL    HW114612   3.441   2.954   6.439
 4571SOL    HW214613   3.297   2.991   6.371
 4572SOL     OW14614   2.496   2.929   0.815
 4572SOL    HW114615   2.423   2.997   0.821
 4572SOL    HW214616   2.551   2.931   0.899
 4573SOL     OW14617   1.183   6.562   1.247
 4573SOL    HW114618   1.153   6.605   1.333
 4573SOL    HW214619   1.146   6.613   1.170
 4574SOL     OW14620   6.632   3.183   0.456
 4574SOL    HW114621   6.654   3.110   0.391
 4574SOL    HW214622   6.555   3.236   0.421
 4575SOL     OW14623   6.222   0.873   4.031
 4575SOL    HW114624   6.236   0.966   4.065
 4575SOL    HW214625   6.251   0.869   3.935
 4576SOL     OW14626   2.788   5.441   5.035
 4576SOL    HW114627   2.812   5.484   5.122
 4576SOL    HW214628   2.759   5.347   5.051
 4577SOL     OW14629   2.177   1.660   2.988
 4577SOL    HW114630   2.214   1.659   2.895
 4577SOL    HW214631   2.243   1.701   3.050
 4578SOL     OW14632   1.471   0.744   2.599
 4578SOL    HW114633   1.566   0.758   2.628
 4578SOL    HW214634   1.431   0.669   2.652
 4579SOL     OW14635   4.041   0.299   2.033
 4579SOL    HW114636   4.130   0.344   2.025
 4579SOL    HW214637   4.022   0.280   2.130
 4580SOL     OW14638   6.611   3.583   6.855
 4580SOL    HW114639   6.689   3.586   6.793
 4580SOL    HW214640   6.543   3.651   6.826
 4581SOL     OW14641   3.414   6.783   1.925
 4581SOL    HW114642   3.498   6.772   1.978
 4581SOL    HW214643   3.343   6.825   1.982
 4582SOL     OW14644   5.916   0.717   2.863
 4582SOL    HW114645   5.857   0.760   2.932
 4582SOL    HW214646   5.964   0.640   2.904
 4583SOL     OW14647   2.160   0.028   6.704
 4583SOL    HW114648   2.102   0.092   6.653
 4583SOL    HW214649   2.101   6.986   6.756
 4584SOL     OW14650   1.872   0.336   6.054
 4584SOL    HW114651   1.934   0.321   5.977
 4584SOL    HW214652   1.896   0.421   6.100
 4585SOL     OW14653   1.449   4.412   3.474
 4585SOL    HW114654   1.515   4.339   3.492
 4585SOL    HW214655   1.356   4.375   3.475
 4586SOL     OW14656   5.075   4.363   6.989
 4586SOL    HW114657   4.999   4.391   0.026
 4586SOL    HW214658   5.042   4.343   6.897
 4587SOL     OW14659   3.259   3.734   4.627
 4587SOL    HW114660   3.174   3.782   4.607
 4587SOL    HW214661   3.240   3.637   4.643
 4588SOL     OW14662   2.847   3.995   6.077
 4588SOL    HW114663   2.844   4.007   6.176
 4588SOL    HW214664   2.837   3.898   6.054
 4589SOL     OW14665   5.203   6.244   2.095
 4589SOL    HW114666   5.297   6.213   2.103
 4589SOL    HW214667   5.144   6.190   2.155
 4590SOL     OW14668   3.551   5.218   2.021
 4590SOL    HW114669   3.528   5.307   2.061
 4590SOL    HW214670   3.491   5.202   1.942
 4591SOL     OW14671   2.516   6.884   5.307
 4591SOL    HW114672   2.478   6.970   5.274
 4591SOL    HW214673   2.615   6.883   5.292
 4592SOL     OW14674   2.294   1.456   4.700
 4592SOL    HW114675   2.371   1.520   4.691
 4592SOL    HW214676   2.261   1.431   4.609
 4593SOL     OW14677   0.030   5.616   3.314
 4593SOL    HW114678   0.078   5.589   3.397
 4593SOL    HW214679   0.084   5.591   3.234
 4594SOL     OW14680   1.821   0.377   2.872
 4594SOL    HW114681   1.817   0.288   2.918
 4594SOL    HW214682   1.911   0.418   2.888
 4595SOL     OW14683   4.766   1.395   6.326
 4595SOL    HW114684   4.784   1.297   6.340
 4595SOL    HW214685   4.851   1.447   6.336
 4596SOL     OW14686   1.037   0.984   2.189
 4596SOL    HW114687   0.940   0.961   2.193
 4596SOL    HW214688   1.090   0.900   2.172
 4597SOL     OW14689   2.637   5.572   6.980
 4597SOL    HW114690   2.554   5.521   6.959
 4597SOL    HW214691   2.716   5.511   6.974
 4598SOL     OW14692   1.650   5.504   0.316
 4598SOL    HW114693   1.712   5.532   0.390
 4598SOL    HW214694   1.568   5.561   0.318
 4599SOL     OW14695   1.765   4.493   2.863
 4599SOL    HW114696   1.813   4.414   2.901
 4599SOL    HW214697   1.794   4.506   2.768
 4600SOL     OW14698   6.976   6.289   5.446
 4600SOL    HW114699   6.933   6.354   5.383
 4600SOL    HW214700   0.041   6.257   5.408
 4601SOL     OW14701   0.666   1.038   4.315
 4601SOL    HW114702   0.629   0.961   4.263
 4601SOL    HW214703   0.684   1.115   4.254
 4602SOL     OW14704   3.381   0.656   6.592
 4602SOL    HW114705   3.308   0.621   6.651
 4602SOL    HW214706   3.447   0.707   6.648
 4603SOL     OW14707   4.399   5.865   1.439
 4603SOL    HW114708   4.475   5.925   1.414
 4603SOL    HW214709   4.418   5.773   1.405
 4604SOL     OW14710   5.301   6.832   5.814
 4604SOL    HW114711   5.250   6.779   5.883
 4604SOL    HW214712   5.394   6.848   5.847
 4605SOL     OW14713   2.928   6.782   1.934
 4605SOL    HW114714   2.840   6.737   1.917
 4605SOL    HW214715   2.978   6.791   1.848
 4606SOL     OW14716   0.188   6.564   2.968
 4606SOL    HW114717   0.285   6.551   2.986
 4606SOL    HW214718   0.163   6.518   2.883
 4607SOL     OW14719   1.742   3.795   2.720
 4607SOL    HW114720   1.807   3.758   2.787
 4607SOL    HW214721   1.649   3.790   2.758
 4608SOL     OW14722   6.894   3.236   4.768
 4608SOL    HW114723   6.840   3.182   4.832
 4608SOL    HW214724   6.907   3.184   4.683
 4609SOL     OW14725   4.244   6.467   6.656
 4609SOL    HW114726   4.223   6.559   6.623
 4609SOL    HW214727   4.161   6.424   6.690
 4610SOL     OW14728   5.411   2.154   0.526
 4610SOL    HW114729   5.488   2.206   0.564
 4610SOL    HW214730   5.330   2.167   0.584
 4611SOL     OW14731   0.801   0.558   5.804
 4611SOL    HW114732   0.892   0.584   5.835
 4611SOL    HW214733   0.737   0.633   5.819
 4612SOL     OW14734   1.751   6.600   2.281
 4612SOL    HW114735   1.751   6.502   2.298
 4612SOL    HW214736   1.774   6.618   2.185
 4613SOL     OW14737   2.160   4.707   1.739
 4613SOL    HW114738   2.248   4.665   1.715
 4613SOL    HW214739   2.175   4.779   1.807
 4614SOL     OW14740   5.940   3.516   4.691
 4614SOL    HW114741   5.899   3.436   4.648
 4614SOL    HW214742   5.895   3.533   4.779
 4615SOL     OW14743   1.473   1.655   1.215
 4615SOL    HW114744   1.380   1.672   1.182
 4615SOL    HW214745   1.469   1.609   1.303
 4616SOL     OW14746   6.112   3.045   4.316
 4616SOL    HW114747   6.094   3.139   4.285
 4616SOL    HW214748   6.175   3.048   4.394
 4617SOL     OW14749   0.408   2.467   2.066
 4617SOL    HW114750   0.465   2.536   2.109
 4617SOL    HW214751   0.315   2.472   2.103
 4618SOL     OW14752   2.805   4.278   5.878
 4618SOL    HW114753   2.888   4.271   5.934
 4618SOL    HW214754   2.828   4.256   5.783
 4619SOL     OW14755   2.984   6.059   4.494
 4619SOL    HW114756   2.928   6.032   4.416
 4619SOL    HW214757   3.040   5.981   4.523
 4620SOL     OW14758   0.769   5.410   2.092
 4620SOL    HW114759   0.776   5.415   2.192
 4620SOL    HW214760   0.834   5.473   2.051
 4621SOL     OW14761   5.054   0.555   2.512
 4621SOL    HW114762   4.975   0.583   2.566
 4621SOL    HW214763   5.025   0.491   2.442
 4622SOL     OW14764   4.079   5.611   1.181
 4622SOL    HW114765   4.048   5.706   1.179
 4622SOL    HW214766   4.170   5.605   1.140
 4623SOL     OW14767   3.314   5.002   1.245
 4623SOL    HW114768   3.323   5.098   1.219
 4623SOL    HW214769   3.310   4.945   1.162
 4624SOL     OW14770   3.842   1.091   3.256
 4624SOL    HW114771   3.750   1.130   3.254
 4624SOL    HW214772   3.854   1.035   3.338
 4625SOL     OW14773   1.891   5.019   1.824
 4625SOL    HW114774   1.908   4.979   1.914
 4625SOL    HW214775   1.964   5.084   1.802
 4626SOL     OW14776   3.995   4.189   1.562
 4626SOL    HW114777   4.008   4.279   1.604
 4626SOL    HW214778   4.061   4.124   1.600
 4627SOL     OW14779   6.899   6.311   4.898
 4627SOL    HW114780   6.988   6.282   4.864
 4627SOL    HW214781   6.893   6.291   4.996
 4628SOL     OW14782   4.500   5.418   3.338
 4628SOL    HW114783   4.522   5.344   3.402
 4628SOL    HW214784   4.556   5.408   3.255
 4629SOL     OW14785   1.774   5.586   7.021
 4629SOL    HW114786   1.766   5.500   6.970
 4629SOL    HW214787   1.769   5.567   0.098
 4630SOL     OW14788   1.728   4.503   2.275
 4630SOL    HW114789   1.736   4.412   2.235
 4630SOL    HW214790   1.794   4.564   2.230
 4631SOL     OW14791   0.194   0.863   3.975
 4631SOL    HW114792   0.157   0.956   3.974
 4631SOL    HW214793   0.208   0.831   3.881
 4632SOL     OW14794   3.334   5.005   2.258
 4632SOL    HW114795   3.414   4.984   2.202
 4632SOL    HW214796   3.349   5.089   2.309
 4633SOL     OW14797   5.045   1.369   3.895
 4633SOL    HW114798   5.102   1.290   3.915
 4633SOL    HW214799   4.969   1.373   3.960
 4634SOL     OW14800   2.948   3.423   4.949
 4634SOL    HW114801   2.947   3.354   4.877
 4634SOL    HW214802   2.922   3.381   5.036
 4635SOL     OW14803   5.473   5.582   0.468
 4635SOL    HW114804   5.437   5.549   0.555
 4635SOL    HW214805   5.551   5.643   0.485
 4636SOL     OW14806   1.881   5.361   0.459
 4636SOL    HW114807   1.824   5.288   0.422
 4636SOL    HW214808   1.967   5.365   0.408
 4637SOL     OW14809   1.988   0.215   2.192
 4637SOL    HW114810   2.081   0.252   2.195
 4637SOL    HW214811   1.958   0.191   2.284
 4638SOL     OW14812   3.892   4.853   0.952
 4638SOL    HW114813   3.961   4.893   0.892
 4638SOL    HW214814   3.841   4.783   0.903
 4639SOL     OW14815   1.977   2.155   0.360
 4639SOL    HW114816   1.919   2.074   0.360
 4639SOL    HW214817   2.068   2.130   0.394
 4640SOL     OW14818   6.242   3.112   5.291
 4640SOL    HW114819   6.169   3.123   5.223
 4640SOL    HW214820   6.245   3.017   5.321
 4641SOL     OW14821   0.940   5.644   3.934
 4641SOL    HW114822   0.985   5.667   4.020
 4641SOL    HW214823   0.851   5.603   3.953
 4642SOL     OW14824   1.901   1.703   3.267
 4642SOL    HW114825   1.886   1.723   3.364
 4642SOL    HW214826   1.941   1.612   3.258
 4643SOL     OW14827   6.668   2.163   0.271
 4643SOL    HW114828   6.705   2.248   0.233
 4643SOL    HW214829   6.696   2.155   0.367
 4644SOL     OW14830   1.930   1.122   0.428
 4644SOL    HW114831   1.919   1.218   0.404
 4644SOL    HW214832   2.001   1.113   0.498
 4645SOL     OW14833   1.340   0.991   3.524
 4645SOL    HW114834   1.256   1.022   3.480
 4645SOL    HW214835   1.368   0.903   3.484
 4646SOL     OW14836   2.085   5.336   3.644
 4646SOL    HW114837   2.000   5.382   3.618
 4646SOL    HW214838   2.065   5.243   3.674
 4647SOL     OW14839   1.828   6.524   2.897
 4647SOL    HW114840   1.742   6.575   2.902
 4647SOL    HW214841   1.864   6.509   2.989
 4648SOL     OW14842   3.054   1.283   4.229
 4648SOL    HW114843   3.075   1.210   4.293
 4648SOL    HW214844   2.959   1.312   4.242
 4649SOL     OW14845   6.036   0.449   0.534
 4649SOL    HW114846   6.110   0.492   0.482
 4649SOL    HW214847   6.054   0.457   0.631
 4650SOL     OW14848   5.028   6.509   1.435
 4650SOL    HW114849   5.103   6.557   1.481
 4650SOL    HW214850   4.976   6.458   1.503
 4651SOL     OW14851   6.479   3.225   6.113
 4651SOL    HW114852   6.415   3.293   6.148
 4651SOL    HW214853   6.458   3.135   6.152
 4652SOL     OW14854   6.907   6.458   4.394
 4652SOL    HW114855   6.934   6.554   4.401
 4652SOL    HW214856   6.819   6.445   4.438
 4653SOL     OW14857   5.193   5.720   0.995
 4653SOL    HW114858   5.258   5.694   1.066
 4653SOL    HW214859   5.234   5.707   0.905
 4654SOL     OW14860   6.813   6.793   4.646
 4654SOL    HW114861   6.777   6.705   4.677
 4654SOL    HW214862   6.876   6.830   4.714
 4655SOL     OW14863   4.814   2.735   0.803
 4655SOL    HW114864   4.716   2.741   0.786
 4655SOL    HW214865   4.830   2.716   0.900
 4656SOL     OW14866   0.663   1.377   1.500
 4656SOL    HW114867   0.631   1.342   1.412
 4656SOL    HW214868   0.714   1.305   1.547
 4657SOL     OW14869   5.141   6.503   2.290
 4657SOL    HW114870   5.147   6.507   2.191
 4657SOL    HW214871   5.228   6.469   2.328
 4658SOL     OW14872   2.732   2.328   5.181
 4658SOL    HW114873   2.799   2.263   5.146
 4658SOL    HW214874   2.640   2.288   5.177
 4659SOL     OW14875   3.363   4.584   0.753
 4659SOL    HW114876   3.263   4.584   0.766
 4659SOL    HW214877   3.402   4.503   0.797
 4660SOL     OW14878   1.159   6.423   4.131
 4660SOL    HW114879   1.226   6.370   4.183
 4660SOL    HW214880   1.175   6.410   4.033
 4661SOL     OW14881   2.212   3.511   5.961
 4661SOL    HW114882   2.119   3.548   5.953
 4661SOL    HW214883   2.266   3.571   6.020
 4662SOL     OW14884   3.014   6.384   4.533
 4662SOL    HW114885   2.928   6.333   4.541
 4662SOL    HW214886   3.069   6.344   4.460
 4663SOL     OW14887   0.996   0.450   6.970
 4663SOL    HW114888   0.968   0.364   6.927
 4663SOL    HW214889   1.096   0.456   6.971
 4664SOL     OW14890   6.640   6.978   0.431
 4664SOL    HW114891   6.715   0.023   0.422
 4664SOL    HW214892   6.568   7.000   0.366
 4665SOL     OW14893   1.979   0.874   5.470
 4665SOL    HW114894   2.069   0.914   5.454
 4665SOL    HW214895   1.919   0.894   5.392
 4666SOL     OW14896   2.042   2.628   6.318
 4666SOL    HW114897   2.115   2.572   6.279
 4666SOL    HW214898   1.991   2.573   6.385
 4667SOL     OW14899   6.365   3.559   1.813
 4667SOL    HW114900   6.424   3.638   1.797
 4667SOL    HW214901   6.409   3.477   1.777
 4668SOL     OW14902   4.224   2.271   4.561
 4668SOL    HW114903   4.297   2.254   4.495
 4668SOL    HW214904   4.150   2.206   4.546
 4669SOL     OW14905   5.694   6.706   0.287
 4669SOL    HW114906   5.673   6.804   0.284
 4669SOL    HW214907   5.782   6.692   0.331
 4670SOL     OW14908   0.957   3.423   0.336
 4670SOL    HW114909   0.888   3.494   0.319
 4670SOL    HW214910   0.914   3.333   0.329
 4671SOL     OW14911   0.729   3.849   0.318
 4671SOL    HW114912   0.785   3.877   0.396
 4671SOL    HW214913   0.666   3.923   0.294
 4672SOL     OW14914   3.379   4.298   5.881
 4672SOL    HW114915   3.422   4.295   5.790
 4672SOL    HW214916   3.280   4.291   5.872
 4673SOL     OW14917   5.441   0.502   6.673
 4673SOL    HW114918   5.485   0.460   6.593
 4673SOL    HW214919   5.458   0.447   6.754
 4674SOL     OW14920   0.395   1.829   0.198
 4674SOL    HW114921   0.309   1.829   0.249
 4674SOL    HW214922   0.459   1.892   0.240
 4675SOL     OW14923   3.155   5.664   0.309
 4675SOL    HW114924   3.182   5.584   0.256
 4675SOL    HW214925   3.060   5.688   0.287
 4676SOL     OW14926   0.503   6.502   4.451
 4676SOL    HW114927   0.418   6.511   4.502
 4676SOL    HW214928   0.489   6.444   4.371
 4677SOL     OW14929   4.336   0.440   6.753
 4677SOL    HW114930   4.404   0.440   6.826
 4677SOL    HW214931   4.258   0.497   6.779
 4678SOL     OW14932   2.059   4.663   0.676
 4678SOL    HW114933   2.135   4.709   0.630
 4678SOL    HW214934   2.055   4.692   0.772
 4679SOL     OW14935   2.645   0.541   6.437
 4679SOL    HW114936   2.679   0.447   6.431
 4679SOL    HW214937   2.553   0.541   6.477
 4680SOL     OW14938   1.478   4.809   0.954
 4680SOL    HW114939   1.497   4.783   1.049
 4680SOL    HW214940   1.459   4.907   0.949
 4681SOL     OW14941   0.174   4.860   5.697
 4681SOL    HW114942   0.133   4.830   5.783
 4681SOL    HW214943   0.235   4.938   5.715
 4682SOL     OW14944   3.951   6.532   0.423
 4682SOL    HW114945   3.979   6.451   0.474
 4682SOL    HW214946   3.852   6.529   0.408
 4683SOL     OW14947   6.228   3.511   2.487
 4683SOL    HW114948   6.156   3.446   2.459
 4683SOL    HW214949   6.235   3.511   2.586
 4684SOL     OW14950   1.311   2.122   4.565
 4684SOL    HW114951   1.281   2.175   4.486
 4684SOL    HW214952   1.259   2.036   4.569
 4685SOL     OW14953   5.309   5.227   3.989
 4685SOL    HW114954   5.360   5.313   3.983
 4685SOL    HW214955   5.357   5.156   3.938
 4686SOL     OW14956   4.889   5.420   6.629
 4686SOL    HW114957   4.907   5.366   6.547
 4686SOL    HW214958   4.808   5.384   6.677
 4687SOL     OW14959   6.173   4.297   4.774
 4687SOL    HW114960   6.270   4.300   4.799
 4687SOL    HW214961   6.120   4.340   4.847
 4688SOL     OW14962   0.507   3.466   6.874
 4688SOL    HW114963   0.559   3.550   6.894
 4688SOL    HW214964   0.566   3.387   6.890
 4689SOL     OW14965   6.631   6.172   5.309
 4689SOL    HW114966   6.700   6.107   5.341
 4689SOL    HW214967   6.579   6.130   5.235
 4690SOL     OW14968   1.555   1.486   0.162
 4690SOL    HW114969   1.525   1.560   0.101
 4690SOL    HW214970   1.597   1.413   0.108
 4691SOL     OW14971   2.508   4.576   0.874
 4691SOL    HW114972   2.455   4.491   0.876
 4691SOL    HW214973   2.602   4.557   0.900
 4692SOL     OW14974   6.842   5.075   2.967
 4692SOL    HW114975   6.890   4.991   2.990
 4692SOL    HW214976   6.907   5.145   2.940
 4693SOL     OW14977   0.395   1.107   4.555
 4693SOL    HW114978   0.481   1.090   4.507
 4693SOL    HW214979   0.381   1.206   4.564
 4694SOL     OW14980   1.874   1.412   0.388
 4694SOL    HW114981   1.849   1.486   0.325
 4694SOL    HW214982   1.814   1.417   0.469
 4695SOL     OW14983   3.861   2.915   1.823
 4695SOL    HW114984   3.786   2.864   1.864
 4695SOL    HW214985   3.909   2.967   1.894
 4696SOL     OW14986   6.883   3.423   6.020
 4696SOL    HW114987   6.981   3.406   6.008
 4696SOL    HW214988   6.846   3.464   5.937
 4697SOL     OW14989   1.097   4.242   0.025
 4697SOL    HW114990   1.131   4.155   0.063
 4697SOL    HW214991   1.174   4.299   7.018
 4698SOL     OW14992   5.572   3.848   1.279
 4698SOL    HW114993   5.473   3.851   1.262
 4698SOL    HW214994   5.590   3.876   1.373
 4699SOL     OW14995   0.301   0.784   2.689
 4699SOL    HW114996   0.292   0.875   2.647
 4699SOL    HW214997   0.315   0.795   2.787
 4700SOL     OW14998   5.130   1.345   0.898
 4700SOL    HW114999   5.072   1.279   0.850
 4700SOL    HW215000   5.150   1.311   0.990
 4701SOL     OW15001   0.825   1.709   0.214
 4701SOL    HW115002   0.880   1.656   0.150
 4701SOL    HW215003   0.834   1.806   0.193
 4702SOL     OW15004   3.717   4.203   6.648
 4702SOL    HW115005   3.697   4.287   6.697
 4702SOL    HW215006   3.700   4.124   6.708
 4703SOL     OW15007   2.052   0.941   2.887
 4703SOL    HW115008   2.060   0.923   2.985
 4703SOL    HW215009   1.962   0.912   2.856
 4704SOL     OW15010   0.533   0.052   0.736
 4704SOL    HW115011   0.451   0.106   0.754
 4704SOL    HW215012   0.615   0.107   0.755
 4705SOL     OW15013   3.682   3.144   4.517
 4705SOL    HW115014   3.631   3.172   4.598
 4705SOL    HW215015   3.655   3.052   4.490
 4706SOL     OW15016   3.785   6.219   6.947
 4706SOL    HW115017   3.843   6.153   6.898
 4706SOL    HW215018   3.761   6.183   0.015
 4707SOL     OW15019   2.147   5.516   1.289
 4707SOL    HW115020   2.066   5.563   1.323
 4707SOL    HW215021   2.208   5.496   1.366
 4708SOL     OW15022   3.282   2.922   1.203
 4708SOL    HW115023   3.252   2.845   1.261
 4708SOL    HW215024   3.253   2.906   1.109
 4709SOL     OW15025   3.960   5.012   5.580
 4709SOL    HW115026   3.911   4.926   5.566
 4709SOL    HW215027   3.906   5.088   5.544
 4710SOL     OW15028   5.233   0.794   0.029
 4710SOL    HW115029   5.178   0.876   0.008
 4710SOL    HW215030   5.224   0.728   6.977
 4711SOL     OW15031   3.076   0.038   2.670
 4711SOL    HW115032   3.142   7.002   2.621
 4711SOL    HW215033   3.121   0.121   2.703
 4712SOL     OW15034   1.897   4.527   0.950
 4712SOL    HW115035   1.902   4.435   0.911
 4712SOL    HW215036   1.849   4.587   0.886
 4713SOL     OW15037   2.300   5.349   1.466
 4713SOL    HW115038   2.281   5.340   1.564
 4713SOL    HW215039   2.226   5.307   1.414
 4714SOL     OW15040   3.173   1.852   1.650
 4714SOL    HW115041   3.180   1.851   1.750
 4714SOL    HW215042   3.221   1.932   1.614
 4715SOL     OW15043   0.027   2.413   3.049
 4715SOL    HW115044   0.073   2.458   2.972
 4715SOL    HW215045   6.955   2.389   3.021
 4716SOL     OW15046   3.587   5.490   0.574
 4716SOL    HW115047   3.516   5.430   0.536
 4716SOL    HW215048   3.543   5.564   0.625
 4717SOL     OW15049   1.156   5.724   3.128
 4717SOL    HW115050   1.200   5.788   3.191
 4717SOL    HW215051   1.146   5.767   3.038
 4718SOL     OW15052   5.618   1.503   6.281
 4718SOL    HW115053   5.641   1.558   6.361
 4718SOL    HW215054   5.651   1.409   6.294
 4719SOL     OW15055   5.351   3.266   1.943
 4719SOL    HW115056   5.441   3.306   1.961
 4719SOL    HW215057   5.340   3.252   1.844
 4720SOL     OW15058   2.463   6.863   5.702
 4720SOL    HW115059   2.504   6.867   5.794
 4720SOL    HW215060   2.412   6.777   5.692
 4721SOL     OW15061   1.546   2.114   1.039
 4721SOL    HW115062   1.460   2.065   1.046
 4721SOL    HW215063   1.556   2.151   0.947
 4722SOL     OW15064   1.612   6.750   0.173
 4722SOL    HW115065   1.578   6.843   0.187
 4722SOL    HW215066   1.536   6.692   0.143
 4723SOL     OW15067   2.769   6.622   6.402
 4723SOL    HW115068   2.782   6.662   6.493
 4723SOL    HW215069   2.712   6.540   6.410
 4724SOL     OW15070   4.019   6.690   1.889
 4724SOL    HW115071   4.054   6.667   1.980
 4724SOL    HW215072   4.093   6.728   1.833
 4725SOL     OW15073   5.375   6.642   3.253
 4725SOL    HW115074   5.431   6.724   3.268
 4725SOL    HW215075   5.307   6.634   3.327
 4726SOL     OW15076   0.967   3.761   6.882
 4726SOL    HW115077   0.988   3.833   6.815
 4726SOL    HW215078   0.940   3.804   6.968
 4727SOL     OW15079   6.876   5.727   6.899
 4727SOL    HW115080   6.870   5.802   6.832
 4727SOL    HW215081   6.876   5.765   6.991
 4728SOL     OW15082   0.046   0.875   6.265
 4728SOL    HW115083   6.983   0.894   6.316
 4728SOL    HW215084   0.114   0.837   6.328
 4729SOL     OW15085   3.126   6.967   2.366
 4729SOL    HW115086   3.058   6.898   2.341
 4729SOL    HW215087   3.082   0.018   2.419
 4730SOL     OW15088   2.083   6.126   5.813
 4730SOL    HW115089   2.077   6.212   5.761
 4730SOL    HW215090   2.146   6.064   5.766
 4731SOL     OW15091   5.909   1.009   4.858
 4731SOL    HW115092   5.990   0.998   4.915
 4731SOL    HW215093   5.828   1.018   4.916
 4732SOL     OW15094   0.191   3.044   6.823
 4732SOL    HW115095   0.259   3.030   6.751
 4732SOL    HW215096   0.103   3.067   6.782
 4733SOL     OW15097   0.210   3.693   3.641
 4733SOL    HW115098   0.147   3.759   3.599
 4733SOL    HW215099   0.283   3.672   3.577
 4734SOL     OW15100   4.314   3.855   0.050
 4734SOL    HW115101   4.311   3.770   0.103
 4734SOL    HW215102   4.348   3.929   0.107
 4735SOL     OW15103   0.780   5.006   3.865
 4735SOL    HW115104   0.775   5.049   3.775
 4735SOL    HW215105   0.759   5.073   3.935
 4736SOL     OW15106   1.139   0.908   6.986
 4736SOL    HW115107   1.040   0.902   6.976
 4736SOL    HW215108   1.162   0.941   0.057
 4737SOL     OW15109   2.594   5.017   2.084
 4737SOL    HW115110   2.646   5.016   1.998
 4737SOL    HW215111   2.654   5.047   2.158
 4738SOL     OW15112   6.890   6.676   1.745
 4738SOL    HW115113   6.843   6.762   1.763
 4738SOL    HW215114   6.830   6.600   1.770
 4739SOL     OW15115   4.326   0.798   2.608
 4739SOL    HW115116   4.237   0.843   2.617
 4739SOL    HW215117   4.314   0.709   2.563
 4740SOL     OW15118   1.094   1.948   2.633
 4740SOL    HW115119   1.165   1.880   2.652
 4740SOL    HW215120   1.016   1.903   2.589
 4741SOL     OW15121   4.383   3.344   1.715
 4741SOL    HW115122   4.304   3.337   1.654
 4741SOL    HW215123   4.441   3.419   1.685
 4742SOL     OW15124   3.378   6.929   0.586
 4742SOL    HW115125   3.401   6.840   0.626
 4742SOL    HW215126   3.282   6.950   0.604
 4743SOL     OW15127   2.041   4.661   1.184
 4743SOL    HW115128   2.013   4.694   1.274
 4743SOL    HW215129   1.960   4.635   1.131
 4744SOL     OW15130   2.004   6.526   1.020
 4744SOL    HW115131   1.971   6.615   0.988
 4744SOL    HW215132   1.927   6.470   1.048
 4745SOL     OW15133   1.793   4.278   0.232
 4745SOL    HW115134   1.753   4.327   0.311
 4745SOL    HW215135   1.825   4.189   0.262
 4746SOL     OW15136   4.577   5.402   4.257
 4746SOL    HW115137   4.637   5.335   4.300
 4746SOL    HW215138   4.520   5.445   4.327
 4747SOL     OW15139   1.788   2.509   0.868
 4747SOL    HW115140   1.876   2.529   0.912
 4747SOL    HW215141   1.717   2.499   0.938
 4748SOL     OW15142   2.133   6.461   3.060
 4748SOL    HW115143   2.104   6.550   3.096
 4748SOL    HW215144   2.119   6.458   2.961
 4749SOL     OW15145   1.773   0.026   0.540
 4749SOL    HW115146   1.693   6.993   0.567
 4749SOL    HW215147   1.838   0.029   0.616
 4750SOL     OW15148   5.420   3.599   5.411
 4750SOL    HW115149   5.343   3.571   5.467
 4750SOL    HW215150   5.490   3.528   5.412
 4751SOL     OW15151   4.763   1.074   2.876
 4751SOL    HW115152   4.853   1.105   2.906
 4751SOL    HW215153   4.692   1.129   2.921
 4752SOL     OW15154   4.360   2.190   0.004
 4752SOL    HW115155   4.320   2.231   0.086
 4752SOL    HW215156   4.344   2.249   6.947
 4753SOL     OW15157   2.648   6.106   5.064
 4753SOL    HW115158   2.572   6.064   5.014
 4753SOL    HW215159   2.626   6.109   5.162
 4754SOL     OW15160   4.295   4.805   6.622
 4754SOL    HW115161   4.256   4.858   6.547
 4754SOL    HW215162   4.286   4.857   6.707
 4755SOL     OW15163   1.253   0.871   1.472
 4755SOL    HW115164   1.287   0.859   1.378
 4755SOL    HW215165   1.315   0.932   1.522
 4756SOL     OW15166   6.370   4.275   6.509
 4756SOL    HW115167   6.405   4.222   6.586
 4756SOL    HW215168   6.313   4.216   6.451
 4757SOL     OW15169   2.072   3.060   1.513
 4757SOL    HW115170   2.091   3.067   1.414
 4757SOL    HW215171   2.119   3.135   1.560
 4758SOL     OW15172   1.564   0.045   2.969
 4758SOL    HW115173   1.544   0.015   2.876
 4758SOL    HW215174   1.643   0.106   2.969
 4759SOL     OW15175   1.149   4.797   1.550
 4759SOL    HW115176   1.215   4.849   1.605
 4759SOL    HW215177   1.065   4.850   1.539
 4760SOL     OW15178   2.043   6.156   0.667
 4760SOL    HW115179   2.116   6.147   0.735
 4760SOL    HW215180   2.027   6.067   0.624
 4761SOL     OW15181   0.700   7.015   1.240
 4761SOL    HW115182   0.660   6.929   1.208
 4761SOL    HW215183   0.640   0.069   1.213
 4762SOL     OW15184   2.002   5.625   2.486
 4762SOL    HW115185   1.968   5.587   2.572
 4762SOL    HW215186   2.100   5.608   2.478
 4763SOL     OW15187   4.856   6.040   1.977
 4763SOL    HW115188   4.766   6.016   2.013
 4763SOL    HW215189   4.921   5.967   1.999
 4764SOL     OW15190   4.047   3.762   5.931
 4764SOL    HW115191   4.087   3.698   5.996
 4764SOL    HW215192   3.963   3.800   5.970
 4765SOL     OW15193   3.795   1.455   5.032
 4765SOL    HW115194   3.807   1.377   5.094
 4765SOL    HW215195   3.875   1.515   5.038
 4766SOL     OW15196   6.910   6.939   4.267
 4766SOL    HW115197   6.936   6.918   4.173
 4766SOL    HW215198   6.811   6.930   4.278
 4767SOL     OW15199   2.110   5.068   4.972
 4767SOL    HW115200   2.162   5.151   4.989
 4767SOL    HW215201   2.055   5.045   5.052
 4768SOL     OW15202   4.593   2.234   0.231
 4768SOL    HW115203   4.685   2.239   0.192
 4768SOL    HW215204   4.528   2.277   0.168
 4769SOL     OW15205   3.284   5.731   1.498
 4769SOL    HW115206   3.339   5.739   1.582
 4769SOL    HW215207   3.190   5.707   1.522
 4770SOL     OW15208   0.546   1.341   5.672
 4770SOL    HW115209   0.593   1.416   5.626
 4770SOL    HW215210   0.520   1.271   5.605
 4771SOL     OW15211   2.329   6.678   5.168
 4771SOL    HW115212   2.383   6.659   5.251
 4771SOL    HW215213   2.258   6.745   5.189
 4772SOL     OW15214   1.988   6.216   1.241
 4772SOL    HW115215   1.991   6.155   1.162
 4772SOL    HW215216   1.966   6.163   1.323
 4773SOL     OW15217   2.766   5.492   5.316
 4773SOL    HW115218   2.743   5.574   5.368
 4773SOL    HW215219   2.727   5.412   5.362
 4774SOL     OW15220   1.623   3.893   0.374
 4774SOL    HW115221   1.652   3.921   0.466
 4774SOL    HW215222   1.702   3.860   0.323
 4775SOL     OW15223   6.101   6.455   5.216
 4775SOL    HW115224   6.050   6.375   5.247
 4775SOL    HW215225   6.084   6.531   5.278
 4776SOL     OW15226   1.019   0.626   5.968
 4776SOL    HW115227   1.110   0.621   6.007
 4776SOL    HW215228   0.983   0.719   5.975
 4777SOL     OW15229   1.002   6.232   1.086
 4777SOL    HW115230   0.976   6.155   1.145
 4777SOL    HW215231   0.971   6.317   1.127
 4778SOL     OW15232   1.237   2.803   5.603
 4778SOL    HW115233   1.271   2.711   5.586
 4778SOL    HW215234   1.310   2.869   5.589
 4779SOL     OW15235   5.228   0.899   3.778
 4779SOL    HW115236   5.311   0.938   3.737
 4779SOL    HW215237   5.149   0.956   3.754
 4780SOL     OW15238   6.241   2.374   5.171
 4780SOL    HW115239   6.270   2.341   5.261
 4780SOL    HW215240   6.311   2.352   5.104
 4781SOL     OW15241   2.473   6.065   2.769
 4781SOL    HW115242   2.519   6.016   2.843
 4781SOL    HW215243   2.423   6.143   2.807
 4782SOL     OW15244   5.963   5.284   4.489
 4782SOL    HW115245   5.963   5.340   4.572
 4782SOL    HW215246   5.891   5.317   4.428
 4783SOL     OW15247   6.673   2.908   1.241
 4783SOL    HW115248   6.626   2.820   1.250
 4783SOL    HW215249   6.764   2.902   1.281
 4784SOL     OW15250   5.695   1.863   6.099
 4784SOL    HW115251   5.618   1.810   6.065
 4784SOL    HW215252   5.777   1.806   6.104
 4785SOL     OW15253   0.791   5.857   3.792
 4785SOL    HW115254   0.810   5.949   3.827
 4785SOL    HW215255   0.832   5.789   3.852
 4786SOL     OW15256   2.544   6.592   0.631
 4786SOL    HW115257   2.641   6.591   0.656
 4786SOL    HW215258   2.535   6.592   0.532
 4787SOL     OW15259   3.416   1.367   4.463
 4787SOL    HW115260   3.486   1.392   4.530
 4787SOL    HW215261   3.408   1.439   4.394
 4788SOL     OW15262   6.382   6.322   6.494
 4788SOL    HW115263   6.469   6.293   6.455
 4788SOL    HW215264   6.345   6.398   6.440
 4789SOL     OW15265   5.323   0.476   2.508
 4789SOL    HW115266   5.227   0.491   2.483
 4789SOL    HW215267   5.370   0.430   2.432
 4790SOL     OW15268   6.061   2.403   4.938
 4790SOL    HW115269   6.034   2.321   4.888
 4790SOL    HW215270   6.129   2.379   5.008
 4791SOL     OW15271   6.628   2.204   0.822
 4791SOL    HW115272   6.558   2.275   0.830
 4791SOL    HW215273   6.692   2.210   0.898
 4792SOL     OW15274   2.138   3.871   3.844
 4792SOL    HW115275   2.171   3.794   3.790
 4792SOL    HW215276   2.044   3.893   3.819
 4793SOL     OW15277   1.004   3.380   5.891
 4793SOL    HW115278   0.976   3.376   5.795
 4793SOL    HW215279   1.044   3.470   5.911
 4794SOL     OW15280   4.648   0.895   3.917
 4794SOL    HW115281   4.661   0.929   3.824
 4794SOL    HW215282   4.584   0.954   3.966
 4795SOL     OW15283   1.381   0.976   5.104
 4795SOL    HW115284   1.317   0.973   5.181
 4795SOL    HW215285   1.464   1.025   5.131
 4796SOL     OW15286   3.825   1.699   5.427
 4796SOL    HW115287   3.749   1.738   5.480
 4796SOL    HW215288   3.834   1.749   5.341
 4797SOL     OW15289   0.945   5.781   4.615
 4797SOL    HW115290   0.849   5.803   4.632
 4797SOL    HW215291   0.993   5.774   4.702
 4798SOL     OW15292   4.717   4.464   6.305
 4798SOL    HW115293   4.685   4.549   6.263
 4798SOL    HW215294   4.673   4.452   6.393
 4799SOL     OW15295   3.658   3.164   6.802
 4799SOL    HW115296   3.686   3.260   6.809
 4799SOL    HW215297   3.562   3.159   6.777
 4800SOL     OW15298   1.121   4.750   6.991
 4800SOL    HW115299   1.069   4.825   0.010
 4800SOL    HW215300   1.079   4.663   7.016
 4801SOL     OW15301   4.617   2.118   1.396
 4801SOL    HW115302   4.656   2.076   1.314
 4801SOL    HW215303   4.692   2.144   1.458
 4802SOL     OW15304   0.034   6.803   2.044
 4802SOL    HW115305   6.960   6.827   2.063
 4802SOL    HW215306   0.083   6.883   2.012
 4803SOL     OW15307   5.572   3.979   5.995
 4803SOL    HW115308   5.621   3.922   5.929
 4803SOL    HW215309   5.637   4.035   6.046
 4804SOL     OW15310   5.475   1.263   0.626
 4804SOL    HW115311   5.575   1.257   0.624
 4804SOL    HW215312   5.436   1.174   0.601
 4805SOL     OW15313   6.028   2.055   0.845
 4805SOL    HW115314   6.116   2.019   0.814
 4805SOL    HW215315   6.018   2.037   0.943
 4806SOL     OW15316   0.823   2.269   3.469
 4806SOL    HW115317   0.835   2.310   3.379
 4806SOL    HW215318   0.859   2.176   3.468
 4807SOL     OW15319   1.089   2.806   6.304
 4807SOL    HW115320   1.063   2.830   6.211
 4807SOL    HW215321   1.162   2.868   6.335
 4808SOL     OW15322   4.347   5.875   0.638
 4808SOL    HW115323   4.353   5.865   0.738
 4808SOL    HW215324   4.326   5.786   0.598
 4809SOL     OW15325   3.617   4.955   1.712
 4809SOL    HW115326   3.616   4.920   1.618
 4809SOL    HW215327   3.524   4.955   1.748
 4810SOL     OW15328   0.857   4.400   3.870
 4810SOL    HW115329   0.913   4.432   3.946
 4810SOL    HW215330   0.789   4.470   3.847
 4811SOL     OW15331   2.935   3.636   4.787
 4811SOL    HW115332   2.944   3.545   4.828
 4811SOL    HW215333   2.935   3.627   4.687
 4812SOL     OW15334   0.478   0.262   2.160
 4812SOL    HW115335   0.551   0.221   2.214
 4812SOL    HW215336   0.406   0.194   2.145
 4813SOL     OW15337   6.203   1.607   6.974
 4813SOL    HW115338   6.194   1.519   6.928
 4813SOL    HW215339   6.295   1.617   7.012
 4814SOL     OW15340   0.119   3.602   1.535
 4814SOL    HW115341   0.212   3.590   1.571
 4814SOL    HW215342   0.082   3.690   1.567
 4815SOL     OW15343   5.726   4.473   2.514
 4815SOL    HW115344   5.743   4.395   2.575
 4815SOL    HW215345   5.705   4.439   2.422
 4816SOL     OW15346   1.722   0.465   2.416
 4816SOL    HW115347   1.705   0.421   2.328
 4816SOL    HW215348   1.704   0.563   2.409
 4817SOL     OW15349   3.999   1.180   1.258
 4817SOL    HW115350   3.994   1.228   1.170
 4817SOL    HW215351   4.069   1.222   1.315
 4818SOL     OW15352   3.573   0.414   5.089
 4818SOL    HW115353   3.563   0.482   5.161
 4818SOL    HW215354   3.482   0.387   5.056
 4819SOL     OW15355   3.121   0.857   1.330
 4819SOL    HW115356   3.125   0.815   1.239
 4819SOL    HW215357   3.034   0.905   1.340
 4820SOL     OW15358   6.892   3.974   2.358
 4820SOL    HW115359   6.821   3.974   2.428
 4820SOL    HW215360   6.963   4.039   2.382
 4821SOL     OW15361   6.599   5.257   1.572
 4821SOL    HW115362   6.636   5.170   1.607
 4821SOL    HW215363   6.636   5.275   1.481
 4822SOL     OW15364   1.870   4.087   2.824
 4822SOL    HW115365   1.932   4.121   2.894
 4822SOL    HW215366   1.912   4.009   2.777
 4823SOL     OW15367   0.946   0.508   4.884
 4823SOL    HW115368   0.858   0.501   4.836
 4823SOL    HW215369   0.952   0.597   4.930
 4824SOL     OW15370   5.425   2.355   2.359
 4824SOL    HW115371   5.440   2.354   2.260
 4824SOL    HW215372   5.512   2.338   2.405
 4825SOL     OW15373   1.308   3.535   3.134
 4825SOL    HW115374   1.247   3.611   3.159
 4825SOL    HW215375   1.344   3.550   3.042
 4826SOL     OW15376   0.178   6.390   0.520
 4826SOL    HW115377   0.256   6.411   0.579
 4826SOL    HW215378   0.129   6.474   0.499
 4827SOL     OW15379   4.767   0.989   1.084
 4827SOL    HW115380   4.780   0.890   1.092
 4827SOL    HW215381   4.688   1.007   1.025
 4828SOL     OW15382   4.817   3.560   1.698
 4828SOL    HW115383   4.904   3.514   1.684
 4828SOL    HW215384   4.830   3.642   1.754
 4829SOL     OW15385   3.272   1.103   5.928
 4829SOL    HW115386   3.259   1.119   6.026
 4829SOL    HW215387   3.284   1.005   5.912
 4830SOL     OW15388   4.641   6.593   3.663
 4830SOL    HW115389   4.650   6.497   3.688
 4830SOL    HW215390   4.668   6.650   3.741
 4831SOL     OW15391   6.709   4.518   5.157
 4831SOL    HW115392   6.801   4.501   5.191
 4831SOL    HW215393   6.713   4.583   5.081
 4832SOL     OW15394   2.967   3.299   5.816
 4832SOL    HW115395   2.943   3.394   5.835
 4832SOL    HW215396   2.921   3.268   5.732
 4833SOL     OW15397   3.898   1.416   3.342
 4833SOL    HW115398   3.913   1.321   3.312
 4833SOL    HW215399   3.986   1.461   3.355
 4834SOL     OW15400   4.676   1.625   2.194
 4834SOL    HW115401   4.637   1.550   2.140
 4834SOL    HW215402   4.687   1.597   2.289
 4835SOL     OW15403   2.454   7.002   6.708
 4835SOL    HW115404   2.363   7.020   6.744
 4835SOL    HW215405   2.522   0.029   6.764
 4836SOL     OW15406   5.027   1.840   4.204
 4836SOL    HW115407   5.026   1.894   4.119
 4836SOL    HW215408   5.040   1.744   4.182
 4837SOL     OW15409   2.595   2.468   0.865
 4837SOL    HW115410   2.558   2.376   0.851
 4837SOL    HW215411   2.525   2.526   0.906
 4838SOL     OW15412   3.814   4.828   2.292
 4838SOL    HW115413   3.894   4.782   2.331
 4838SOL    HW215414   3.780   4.774   2.215
 4839SOL     OW15415   0.352   5.411   5.701
 4839SOL    HW115416   0.365   5.348   5.778
 4839SOL    HW215417   0.376   5.365   5.616
 4840SOL     OW15418   6.507   6.323   0.072
 4840SOL    HW115419   6.485   6.231   0.105
 4840SOL    HW215420   6.448   6.345   7.015
 4841SOL     OW15421   2.870   5.395   2.123
 4841SOL    HW115422   2.868   5.414   2.025
 4841SOL    HW215423   2.966   5.388   2.153
 4842SOL     OW15424   4.126   6.048   1.473
 4842SOL    HW115425   4.185   6.042   1.392
 4842SOL    HW215426   4.174   6.098   1.545
 4843SOL     OW15427   6.848   4.057   6.883
 4843SOL    HW115428   6.861   4.014   6.794
 4843SOL    HW215429   6.779   4.007   6.935
 4844SOL     OW15430   6.354   2.616   6.425
 4844SOL    HW115431   6.346   2.537   6.365
 4844SOL    HW215432   6.270   2.670   6.420
 4845SOL     OW15433   5.328   5.242   3.551
 4845SOL    HW115434   5.270   5.323   3.542
 4845SOL    HW215435   5.402   5.262   3.615
 4846SOL     OW15436   1.550   2.938   1.236
 4846SOL    HW115437   1.648   2.937   1.216
 4846SOL    HW215438   1.535   2.980   1.326
 4847SOL     OW15439   3.553   2.107   5.154
 4847SOL    HW115440   3.626   2.116   5.086
 4847SOL    HW215441   3.464   2.107   5.107
 4848SOL     OW15442   2.508   1.331   2.946
 4848SOL    HW115443   2.432   1.295   2.892
 4848SOL    HW215444   2.500   1.298   3.040
 4849SOL     OW15445   1.495   0.440   0.279
 4849SOL    HW115446   1.461   0.396   0.196
 4849SOL    HW215447   1.564   0.381   0.322
 4850SOL     OW15448   4.388   0.359   1.568
 4850SOL    HW115449   4.338   0.277   1.595
 4850SOL    HW215450   4.361   0.436   1.626
 4851SOL     OW15451   4.361   5.865   5.577
 4851SOL    HW115452   4.437   5.927   5.555
 4851SOL    HW215453   4.393   5.794   5.640
 4852SOL     OW15454   2.387   0.754   0.043
 4852SOL    HW115455   2.425   0.821   7.000
 4852SOL    HW215456   2.409   0.661   0.011
 4853SOL     OW15457   3.663   1.551   2.602
 4853SOL    HW115458   3.570   1.538   2.637
 4853SOL    HW215459   3.712   1.615   2.662
 4854SOL     OW15460   4.770   6.038   2.374
 4854SOL    HW115461   4.830   5.970   2.417
 4854SOL    HW215462   4.749   6.110   2.439
 4855SOL     OW15463   5.807   1.214   1.970
 4855SOL    HW115464   5.789   1.225   1.873
 4855SOL    HW215465   5.895   1.169   1.984
 4856SOL     OW15466   2.743   5.142   4.258
 4856SOL    HW115467   2.720   5.059   4.308
 4856SOL    HW215468   2.834   5.172   4.284
 4857SOL     OW15469   0.683   2.001   5.878
 4857SOL    HW115470   0.738   2.059   5.819
 4857SOL    HW215471   0.661   1.915   5.830
 4858SOL     OW15472   1.763   2.293   4.502
 4858SOL    HW115473   1.712   2.379   4.497
 4858SOL    HW215474   1.700   2.216   4.504
 4859SOL     OW15475   1.699   5.927   5.023
 4859SOL    HW115476   1.684   6.025   5.024
 4859SOL    HW215477   1.672   5.888   5.112
 4860SOL     OW15478   4.466   5.427   1.651
 4860SOL    HW115479   4.403   5.454   1.724
 4860SOL    HW215480   4.475   5.328   1.650
 4861SOL     OW15481   4.789   4.186   5.886
 4861SOL    HW115482   4.874   4.138   5.865
 4861SOL    HW215483   4.787   4.210   5.983
 4862SOL     OW15484   1.377   5.394   2.763
 4862SOL    HW115485   1.415   5.455   2.693
 4862SOL    HW215486   1.277   5.397   2.759
 4863SOL     OW15487   5.688   4.221   6.994
 4863SOL    HW115488   5.705   4.318   6.979
 4863SOL    HW215489   5.591   4.201   6.977
 4864SOL     OW15490   2.692   1.163   3.363
 4864SOL    HW115491   2.703   1.262   3.356
 4864SOL    HW215492   2.697   1.135   3.459
 4865SOL     OW15493   2.680   5.944   4.534
 4865SOL    HW115494   2.680   5.847   4.509
 4865SOL    HW215495   2.713   5.954   4.628
 4866SOL     OW15496   0.345   3.741   0.936
 4866SOL    HW115497   0.267   3.778   0.884
 4866SOL    HW215498   0.319   3.729   1.032
 4867SOL     OW15499   4.712   5.869   2.637
 4867SOL    HW115500   4.792   5.826   2.596
 4867SOL    HW215501   4.657   5.799   2.683
 4868SOL     OW15502   6.565   4.105   1.755
 4868SOL    HW115503   6.491   4.055   1.711
 4868SOL    HW215504   6.549   4.109   1.853
 4869SOL     OW15505   0.778   1.577   6.293
 4869SOL    HW115506   0.827   1.619   6.216
 4869SOL    HW215507   0.688   1.620   6.302
 4870SOL     OW15508   0.541   5.844   1.887
 4870SOL    HW115509   0.641   5.835   1.893
 4870SOL    HW215510   0.509   5.906   1.959
 4871SOL     OW15511   1.069   0.753   4.531
 4871SOL    HW115512   0.982   0.793   4.502
 4871SOL    HW215513   1.122   0.821   4.581
 4872SOL     OW15514   0.030   6.444   3.572
 4872SOL    HW115515   0.089   6.419   3.650
 4872SOL    HW215516   0.043   6.540   3.550
 4873SOL     OW15517   6.751   6.073   4.825
 4873SOL    HW115518   6.794   6.162   4.838
 4873SOL    HW215519   6.809   6.002   4.864
 4874SOL     OW15520   4.665   2.721   3.236
 4874SOL    HW115521   4.628   2.794   3.294
 4874SOL    HW215522   4.739   2.674   3.284
 4875SOL     OW15523   5.295   6.430   6.802
 4875SOL    HW115524   5.222   6.368   6.829
 4875SOL    HW215525   5.332   6.476   6.883
 4876SOL     OW15526   1.886   1.582   2.925
 4876SOL    HW115527   1.981   1.605   2.948
 4876SOL    HW215528   1.825   1.650   2.965
 4877SOL     OW15529   0.525   1.524   4.465
 4877SOL    HW115530   0.482   1.455   4.523
 4877SOL    HW215531   0.620   1.537   4.494
 4878SOL     OW15532   6.212   1.637   2.036
 4878SOL    HW115533   6.122   1.635   2.078
 4878SOL    HW215534   6.283   1.640   2.107
 4879SOL     OW15535   4.687   1.697   2.729
 4879SOL    HW115536   4.700   1.748   2.814
 4879SOL    HW215537   4.760   1.629   2.720
 4880SOL     OW15538   6.316   3.047   6.642
 4880SOL    HW115539   6.301   3.139   6.676
 4880SOL    HW215540   6.229   2.997   6.640
 4881SOL     OW15541   1.815   2.493   1.808
 4881SOL    HW115542   1.889   2.459   1.866
 4881SOL    HW215543   1.749   2.420   1.792
 4882SOL     OW15544   4.358   2.105   4.814
 4882SOL    HW115545   4.348   2.030   4.749
 4882SOL    HW215546   4.324   2.077   4.903
 4883SOL     OW15547   5.594   3.434   1.207
 4883SOL    HW115548   5.627   3.407   1.116
 4883SOL    HW215549   5.534   3.514   1.198
 4884SOL     OW15550   1.269   6.118   1.627
 4884SOL    HW115551   1.237   6.175   1.552
 4884SOL    HW215552   1.266   6.170   1.712
 4885SOL     OW15553   2.447   4.838   1.291
 4885SOL    HW115554   2.475   4.929   1.260
 4885SOL    HW215555   2.477   4.769   1.225
 4886SOL     OW15556   3.619   0.309   2.484
 4886SOL    HW115557   3.533   0.280   2.441
 4886SOL    HW215558   3.694   0.254   2.446
 4887SOL     OW15559   1.315   6.811   1.880
 4887SOL    HW115560   1.322   6.906   1.910
 4887SOL    HW215561   1.340   6.750   1.956
 4888SOL     OW15562   2.604   6.805   3.334
 4888SOL    HW115563   2.525   6.865   3.331
 4888SOL    HW215564   2.685   6.857   3.360
 4889SOL     OW15565   6.309   2.580   3.785
 4889SOL    HW115566   6.249   2.658   3.768
 4889SOL    HW215567   6.263   2.515   3.846
 4890SOL     OW15568   1.426   0.763   5.385
 4890SOL    HW115569   1.376   0.726   5.464
 4890SOL    HW215570   1.366   0.821   5.331
 4891SOL     OW15571   2.303   5.354   6.287
 4891SOL    HW115572   2.348   5.277   6.331
 4891SOL    HW215573   2.297   5.338   6.189
 4892SOL     OW15574   5.651   6.951   2.273
 4892SOL    HW115575   5.651   6.949   2.373
 4892SOL    HW215576   5.722   7.014   2.242
 4893SOL     OW15577   0.496   3.910   1.933
 4893SOL    HW115578   0.568   3.893   1.865
 4893SOL    HW215579   0.532   3.891   2.024
 4894SOL     OW15580   3.672   6.788   2.076
 4894SOL    HW115581   3.651   6.714   2.140
 4894SOL    HW215582   3.771   6.803   2.072
 4895SOL     OW15583   0.002   4.827   3.036
 4895SOL    HW115584   0.086   4.815   3.088
 4895SOL    HW215585   6.948   4.780   3.083
 4896SOL     OW15586   1.614   5.193   4.007
 4896SOL    HW115587   1.700   5.223   4.050
 4896SOL    HW215588   1.537   5.218   4.066
 4897SOL     OW15589   1.936   5.803   5.851
 4897SOL    HW115590   1.965   5.897   5.864
 4897SOL    HW215591   1.990   5.761   5.778
 4898SOL     OW15592   3.857   1.344   4.783
 4898SOL    HW115593   3.955   1.366   4.782
 4898SOL    HW215594   3.814   1.389   4.861
 4899SOL     OW15595   6.016   5.415   2.143
 4899SOL    HW115596   6.085   5.343   2.157
 4899SOL    HW215597   6.049   5.479   2.073
 4900SOL     OW15598   4.147   6.323   5.316
 4900SOL    HW115599   4.150   6.422   5.305
 4900SOL    HW215600   4.209   6.296   5.390
 4901SOL     OW15601   0.957   2.104   5.791
 4901SOL    HW115602   0.982   2.128   5.885
 4901SOL    HW215603   1.021   2.035   5.756
 4902SOL     OW15604   2.193   0.445   6.692
 4902SOL    HW115605   2.140   0.362   6.709
 4902SOL    HW215606   2.206   0.494   6.778
 4903SOL     OW15607   5.121   5.081   1.264
 4903SOL    HW115608   5.215   5.115   1.260
 4903SOL    HW215609   5.115   5.011   1.335
 4904SOL     OW15610   1.870   0.679   6.948
 4904SOL    HW115611   1.930   0.610   6.988
 4904SOL    HW215612   1.861   0.662   6.849
 4905SOL     OW15613   3.217   0.107   3.306
 4905SOL    HW115614   3.230   0.009   3.296
 4905SOL    HW215615   3.198   0.148   3.217
 4906SOL     OW15616   4.754   3.317   5.200
 4906SOL    HW115617   4.751   3.246   5.130
 4906SOL    HW215618   4.767   3.406   5.156
 4907SOL     OW15619   4.336   1.595   0.299
 4907SOL    HW115620   4.267   1.536   0.257
 4907SOL    HW215621   4.427   1.557   0.283
 4908SOL     OW15622   4.924   0.172   0.121
 4908SOL    HW115623   4.972   0.146   0.038
 4908SOL    HW215624   4.975   0.138   0.201
 4909SOL     OW15625   6.194   4.212   3.275
 4909SOL    HW115626   6.149   4.276   3.214
 4909SOL    HW215627   6.128   4.179   3.344
 4910SOL     OW15628   5.388   0.569   5.332
 4910SOL    HW115629   5.352   0.662   5.322
 4910SOL    HW215630   5.312   0.506   5.350
 4911SOL     OW15631   1.495   2.144   2.546
 4911SOL    HW115632   1.412   2.121   2.595
 4911SOL    HW215633   1.568   2.164   2.611
 4912SOL     OW15634   5.765   2.014   5.510
 4912SOL    HW115635   5.748   2.025   5.412
 4912SOL    HW215636   5.779   2.104   5.552
 4913SOL     OW15637   5.199   2.535   5.176
 4913SOL    HW115638   5.131   2.598   5.139
 4913SOL    HW215639   5.240   2.483   5.101
 4914SOL     OW15640   4.773   0.349   4.381
 4914SOL    HW115641   4.739   0.256   4.395
 4914SOL    HW215642   4.815   0.356   4.290
 4915SOL     OW15643   3.079   5.917   5.194
 4915SOL    HW115644   2.983   5.904   5.171
 4915SOL    HW215645   3.136   5.894   5.115
 4916SOL     OW15646   6.100   0.701   4.193
 4916SOL    HW115647   6.073   0.789   4.233
 4916SOL    HW215648   6.153   0.718   4.109
 4917SOL     OW15649   3.587   6.134   1.016
 4917SOL    HW115650   3.643   6.177   1.088
 4917SOL    HW215651   3.579   6.197   0.939
 4918SOL     OW15652   6.095   5.585   1.947
 4918SOL    HW115653   6.068   5.681   1.937
 4918SOL    HW215654   6.136   5.553   1.862
 4919SOL     OW15655   4.179   3.247   1.958
 4919SOL    HW115656   4.237   3.304   2.016
 4919SOL    HW215657   4.236   3.191   1.899
 4920SOL     OW15658   6.096   0.648   5.128
 4920SOL    HW115659   6.028   0.679   5.062
 4920SOL    HW215660   6.097   0.709   5.207
 4921SOL     OW15661   0.232   6.505   0.927
 4921SOL    HW115662   0.167   6.430   0.911
 4921SOL    HW215663   0.227   6.570   0.851
 4922SOL     OW15664   3.234   1.789   5.122
 4922SOL    HW115665   3.233   1.886   5.099
 4922SOL    HW215666   3.163   1.770   5.190
 4923SOL     OW15667   3.420   1.829   3.132
 4923SOL    HW115668   3.406   1.889   3.053
 4923SOL    HW215669   3.469   1.746   3.103
 4924SOL     OW15670   2.791   1.563   5.862
 4924SOL    HW115671   2.861   1.632   5.843
 4924SOL    HW215672   2.739   1.591   5.943
 4925SOL     OW15673   4.569   6.443   2.803
 4925SOL    HW115674   4.544   6.536   2.831
 4925SOL    HW215675   4.489   6.384   2.807
 4926SOL     OW15676   5.566   1.718   1.770
 4926SOL    HW115677   5.554   1.623   1.739
 4926SOL    HW215678   5.554   1.723   1.869
 4927SOL     OW15679   2.838   2.077   6.477
 4927SOL    HW115680   2.821   2.037   6.567
 4927SOL    HW215681   2.885   2.165   6.488
 4928SOL     OW15682   1.428   1.897   1.397
 4928SOL    HW115683   1.484   1.979   1.407
 4928SOL    HW215684   1.486   1.821   1.367
 4929SOL     OW15685   0.242   0.403   3.661
 4929SOL    HW115686   0.220   0.415   3.564
 4929SOL    HW215687   0.161   0.421   3.716
 4930SOL     OW15688   5.805   0.086   1.915
 4930SOL    HW115689   5.844   7.018   1.937
 4930SOL    HW215690   5.747   0.078   1.834
 4931SOL     OW15691   6.413   6.447   2.173
 4931SOL    HW115692   6.388   6.492   2.087
 4931SOL    HW215693   6.423   6.349   2.157
 4932SOL     OW15694   2.868   3.409   3.021
 4932SOL    HW115695   2.771   3.426   3.003
 4932SOL    HW215696   2.923   3.456   2.952
 4933SOL     OW15697   2.604   6.321   4.793
 4933SOL    HW115698   2.514   6.289   4.825
 4933SOL    HW215699   2.612   6.419   4.810
 4934SOL     OW15700   3.431   6.137   2.973
 4934SOL    HW115701   3.456   6.061   2.913
 4934SOL    HW215702   3.389   6.102   3.057
 4935SOL     OW15703   1.211   1.698   6.660
 4935SOL    HW115704   1.197   1.677   6.563
 4935SOL    HW215705   1.127   1.679   6.711
 4936SOL     OW15706   2.272   3.666   1.449
 4936SOL    HW115707   2.281   3.763   1.467
 4936SOL    HW215708   2.251   3.617   1.534
 4937SOL     OW15709   4.899   3.376   4.818
 4937SOL    HW115710   4.853   3.424   4.892
 4937SOL    HW215711   4.896   3.433   4.735
 4938SOL     OW15712   4.057   5.575   5.712
 4938SOL    HW115713   3.984   5.514   5.742
 4938SOL    HW215714   4.099   5.540   5.629
 4939SOL     OW15715   4.632   2.984   5.542
 4939SOL    HW115716   4.603   2.937   5.626
 4939SOL    HW215717   4.584   2.944   5.464
 4940SOL     OW15718   2.022   6.569   4.903
 4940SOL    HW115719   2.011   6.508   4.825
 4940SOL    HW215720   1.933   6.605   4.929
 4941SOL     OW15721   4.761   1.589   6.961
 4941SOL    HW115722   4.729   1.590   0.035
 4941SOL    HW215723   4.832   1.519   6.952
 4942SOL     OW15724   4.986   3.655   5.324
 4942SOL    HW115725   4.994   3.580   5.390
 4942SOL    HW215726   5.007   3.620   5.232
 4943SOL     OW15727   3.930   2.664   0.805
 4943SOL    HW115728   3.948   2.758   0.836
 4943SOL    HW215729   3.838   2.637   0.831
 4944SOL     OW15730   2.356   4.277   3.402
 4944SOL    HW115731   2.258   4.299   3.403
 4944SOL    HW215732   2.371   4.199   3.341
 4945SOL     OW15733   0.021   0.095   4.447
 4945SOL    HW115734   0.023   0.189   4.413
 4945SOL    HW215735   7.005   0.035   4.376
 4946SOL     OW15736   1.865   3.122   2.016
 4946SOL    HW115737   1.765   3.127   2.025
 4946SOL    HW215738   1.907   3.137   2.106
 4947SOL     OW15739   1.218   0.382   0.479
 4947SOL    HW115740   1.262   0.452   0.536
 4947SOL    HW215741   1.169   0.427   0.404
 4948SOL     OW15742   2.658   1.310   2.590
 4948SOL    HW115743   2.658   1.278   2.495
 4948SOL    HW215744   2.751   1.302   2.627
 4949SOL     OW15745   5.563   0.079   4.941
 4949SOL    HW115746   5.595   0.167   4.907
 4949SOL    HW215747   5.502   0.093   5.019
 4950SOL     OW15748   2.823   5.890   5.110
 4950SOL    HW115749   2.789   5.968   5.056
 4950SOL    HW215750   2.756   5.865   5.179
 4951SOL     OW15751   4.636   1.652   4.556
 4951SOL    HW115752   4.598   1.560   4.560
 4951SOL    HW215753   4.707   1.661   4.626
 4952SOL     OW15754   6.985   6.513   5.229
 4952SOL    HW115755   0.014   6.456   5.164
 4952SOL    HW215756   6.921   6.572   5.180
 4953SOL     OW15757   2.065   5.546   1.913
 4953SOL    HW115758   2.120   5.552   1.996
 4953SOL    HW215759   2.081   5.626   1.855
 4954SOL     OW15760   5.514   5.784   0.015
 4954SOL    HW115761   5.433   5.780   0.073
 4954SOL    HW215762   5.542   5.691   7.011
 4955SOL     OW15763   1.099   6.733   1.471
 4955SOL    HW115764   1.180   6.735   1.530
 4955SOL    HW215765   1.069   6.827   1.452
 4956SOL     OW15766   4.133   6.740   4.638
 4956SOL    HW115767   4.095   6.706   4.724
 4956SOL    HW215768   4.065   6.733   4.566
 4957SOL     OW15769   1.154   0.791   3.795
 4957SOL    HW115770   1.229   0.857   3.797
 4957SOL    HW215771   1.096   0.803   3.876
 4958SOL     OW15772   0.811   6.059   6.447
 4958SOL    HW115773   0.809   6.153   6.483
 4958SOL    HW215774   0.762   5.998   6.509
 4959SOL     OW15775   0.970   0.593   0.760
 4959SOL    HW115776   0.976   0.691   0.738
 4959SOL    HW215777   0.898   0.551   0.705
 4960SOL     OW15778   3.783   6.059   4.510
 4960SOL    HW115779   3.876   6.088   4.487
 4960SOL    HW215780   3.775   5.960   4.494
 4961SOL     OW15781   4.997   0.235   4.765
 4961SOL    HW115782   4.942   0.314   4.792
 4961SOL    HW215783   5.072   0.222   4.830
 4962SOL     OW15784   6.063   2.686   1.542
 4962SOL    HW115785   6.148   2.647   1.576
 4962SOL    HW215786   6.003   2.709   1.618
 4963SOL     OW15787   0.545   4.993   1.717
 4963SOL    HW115788   0.604   4.930   1.767
 4963SOL    HW215789   0.601   5.066   1.677
 4964SOL     OW15790   3.143   6.479   3.668
 4964SOL    HW115791   3.044   6.466   3.670
 4964SOL    HW215792   3.188   6.389   3.669
 4965SOL     OW15793   6.772   0.219   4.422
 4965SOL    HW115794   6.760   0.162   4.503
 4965SOL    HW215795   6.686   0.265   4.400
 4966SOL     OW15796   3.298   5.773   5.305
 4966SOL    HW115797   3.294   5.735   5.397
 4966SOL    HW215798   3.206   5.795   5.273
 4967SOL     OW15799   3.735   2.281   6.420
 4967SOL    HW115800   3.825   2.324   6.415
 4967SOL    HW215801   3.746   2.182   6.433
 4968SOL     OW15802   5.590   3.134   4.706
 4968SOL    HW115803   5.655   3.064   4.676
 4968SOL    HW215804   5.635   3.193   4.774
 4969SOL     OW15805   1.439   1.248   1.516
 4969SOL    HW115806   1.505   1.211   1.451
 4969SOL    HW215807   1.415   1.178   1.583
 4970SOL     OW15808   1.154   1.913   4.933
 4970SOL    HW115809   1.093   1.929   4.855
 4970SOL    HW215810   1.139   1.821   4.968
 4971SOL     OW15811   6.283   6.542   3.091
 4971SOL    HW115812   6.362   6.480   3.099
 4971SOL    HW215813   6.199   6.490   3.100
 4972SOL     OW15814   1.763   3.502   0.464
 4972SOL    HW115815   1.847   3.450   0.448
 4972SOL    HW215816   1.740   3.555   0.382
 4973SOL     OW15817   5.977   5.865   2.409
 4973SOL    HW115818   6.055   5.871   2.348
 4973SOL    HW215819   5.942   5.771   2.410
 4974SOL     OW15820   5.735   6.042   2.261
 4974SOL    HW115821   5.749   5.959   2.316
 4974SOL    HW215822   5.790   6.035   2.178
 4975SOL     OW15823   6.208   6.041   0.513
 4975SOL    HW115824   6.303   6.065   0.532
 4975SOL    HW215825   6.180   6.081   0.425
 4976SOL     OW15826   3.803   0.558   5.229
 4976SOL    HW115827   3.746   0.483   5.194
 4976SOL    HW215828   3.785   0.641   5.176
 4977SOL     OW15829   3.802   3.474   0.916
 4977SOL    HW115830   3.890   3.508   0.951
 4977SOL    HW215831   3.768   3.403   0.977
 4978SOL     OW15832   5.794   3.332   5.563
 4978SOL    HW115833   5.804   3.245   5.515
 4978SOL    HW215834   5.855   3.335   5.642
 4979SOL     OW15835   0.700   0.311   5.850
 4979SOL    HW115836   0.754   0.233   5.821
 4979SOL    HW215837   0.753   0.395   5.841
 4980SOL     OW15838   3.957   5.535   2.292
 4980SOL    HW115839   3.969   5.481   2.375
 4980SOL    HW215840   3.889   5.607   2.308
 4981SOL     OW15841   4.239   6.620   5.333
 4981SOL    HW115842   4.182   6.702   5.339
 4981SOL    HW215843   4.316   6.628   5.396
 4982SOL     OW15844   2.253   2.467   0.292
 4982SOL    HW115845   2.345   2.452   0.328
 4982SOL    HW215846   2.258   2.527   0.212
 4983SOL     OW15847   5.257   2.461   4.078
 4983SOL    HW115848   5.280   2.443   4.174
 4983SOL    HW215849   5.187   2.533   4.073
 4984SOL     OW15850   4.873   3.794   4.413
 4984SOL    HW115851   4.885   3.709   4.363
 4984SOL    HW215852   4.962   3.831   4.438
 4985SOL     OW15853   5.285   5.080   2.292
 4985SOL    HW115854   5.220   5.020   2.340
 4985SOL    HW215855   5.289   5.169   2.338
 4986SOL     OW15856   5.351   4.448   2.778
 4986SOL    HW115857   5.389   4.488   2.862
 4986SOL    HW215858   5.357   4.514   2.704
 4987SOL     OW15859   0.233   3.127   1.661
 4987SOL    HW115860   0.178   3.210   1.658
 4987SOL    HW215861   0.247   3.092   1.569
 4988SOL     OW15862   0.254   1.377   4.179
 4988SOL    HW115863   0.196   1.440   4.127
 4988SOL    HW215864   0.198   1.302   4.214
 4989SOL     OW15865   6.797   1.332   0.698
 4989SOL    HW115866   6.824   1.372   0.610
 4989SOL    HW215867   6.755   1.243   0.683
 4990SOL     OW15868   0.628   2.667   5.403
 4990SOL    HW115869   0.722   2.699   5.409
 4990SOL    HW215870   0.617   2.609   5.323
 4991SOL     OW15871   0.826   3.136   4.239
 4991SOL    HW115872   0.811   3.065   4.170
 4991SOL    HW215873   0.922   3.162   4.241
 4992SOL     OW15874   3.473   0.894   5.393
 4992SOL    HW115875   3.553   0.951   5.376
 4992SOL    HW215876   3.411   0.940   5.457
 4993SOL     OW15877   2.498   6.326   4.118
 4993SOL    HW115878   2.406   6.340   4.156
 4993SOL    HW215879   2.566   6.340   4.191
 4994SOL     OW15880   0.548   0.084   2.926
 4994SOL    HW115881   0.504   0.169   2.897
 4994SOL    HW215882   0.633   0.105   2.974
 4995SOL     OW15883   6.535   2.586   6.040
 4995SOL    HW115884   6.492   2.634   5.964
 4995SOL    HW215885   6.545   2.649   6.117
 4996SOL     OW15886   0.651   1.887   2.672
 4996SOL    HW115887   0.637   1.804   2.726
 4996SOL    HW215888   0.563   1.920   2.637
 4997SOL     OW15889   6.718   2.669   3.308
 4997SOL    HW115890   6.725   2.743   3.376
 4997SOL    HW215891   6.798   2.672   3.248
 4998SOL     OW15892   1.320   5.985   4.771
 4998SOL    HW115893   1.339   5.984   4.672
 4998SOL    HW215894   1.365   5.907   4.814
 4999SOL     OW15895   5.522   5.609   0.987
 4999SOL    HW115896   5.542   5.511   0.981
 4999SOL    HW215897   5.550   5.643   1.077
 5000SOL     OW15898   0.479   0.794   4.456
 5000SOL    HW115899   0.555   0.730   4.449
 5000SOL    HW215900   0.457   0.809   4.552
 5001SOL     OW15901   3.250   4.445   5.494
 5001SOL    HW115902   3.228   4.377   5.423
 5001SOL    HW215903   3.182   4.517   5.493
 5002SOL     OW15904   2.387   1.094   2.163
 5002SOL    HW115905   2.437   1.152   2.098
 5002SOL    HW215906   2.325   1.034   2.112
 5003SOL     OW15907   6.752   6.179   2.430
 5003SOL    HW115908   6.773   6.224   2.516
 5003SOL    HW215909   6.758   6.080   2.442
 5004SOL     OW15910   2.723   6.315   6.554
 5004SOL    HW115911   2.665   6.239   6.585
 5004SOL    HW215912   2.819   6.287   6.556
 5005SOL     OW15913   4.389   2.972   0.137
 5005SOL    HW115914   4.388   2.954   0.235
 5005SOL    HW215915   4.296   2.965   0.101
 5006SOL     OW15916   5.122   6.411   5.011
 5006SOL    HW115917   5.179   6.359   4.948
 5006SOL    HW215918   5.026   6.387   4.996
 5007SOL     OW15919   4.511   1.259   5.378
 5007SOL    HW115920   4.413   1.273   5.369
 5007SOL    HW215921   4.541   1.291   5.468
 5008SOL     OW15922   5.822   0.920   3.698
 5008SOL    HW115923   5.897   0.898   3.636
 5008SOL    HW215924   5.857   0.927   3.791
 5009SOL     OW15925   0.847   6.559   2.572
 5009SOL    HW115926   0.818   6.602   2.658
 5009SOL    HW215927   0.946   6.546   2.574
 5010SOL     OW15928   3.821   3.763   4.010
 5010SOL    HW115929   3.777   3.694   3.953
 5010SOL    HW215930   3.783   3.853   3.987
 5011SOL     OW15931   1.080   2.645   2.337
 5011SOL    HW115932   1.056   2.690   2.423
 5011SOL    HW215933   0.997   2.630   2.283
 5012SOL     OW15934   6.757   2.421   6.048
 5012SOL    HW115935   6.771   2.411   6.147
 5012SOL    HW215936   6.690   2.493   6.032
 5013SOL     OW15937   4.491   1.509   5.836
 5013SOL    HW115938   4.447   1.598   5.820
 5013SOL    HW215939   4.420   1.440   5.851
 5014SOL     OW15940   5.996   6.134   0.711
 5014SOL    HW115941   5.990   6.043   0.750
 5014SOL    HW215942   6.049   6.131   0.625
 5015SOL     OW15943   4.557   2.378   3.339
 5015SOL    HW115944   4.574   2.459   3.396
 5015SOL    HW215945   4.535   2.408   3.246
 5016SOL     OW15946   2.401   0.540   2.689
 5016SOL    HW115947   2.438   0.629   2.662
 5016SOL    HW215948   2.406   0.531   2.789
 5017SOL     OW15949   2.953   2.259   0.744
 5017SOL    HW115950   2.993   2.198   0.676
 5017SOL    HW215951   2.922   2.205   0.823
 5018SOL     OW15952   5.986   4.970   3.722
 5018SOL    HW115953   5.939   5.030   3.657
 5018SOL    HW215954   5.985   4.876   3.686
 5019SOL     OW15955   1.644   4.110   0.061
 5019SOL    HW115956   1.564   4.082   0.114
 5019SOL    HW215957   1.692   4.183   0.109
 5020SOL     OW15958   4.637   4.900   6.909
 5020SOL    HW115959   4.603   4.846   6.832
 5020SOL    HW215960   4.598   4.992   6.906
 5021SOL     OW15961   1.884   4.791   5.501
 5021SOL    HW115962   1.882   4.695   5.473
 5021SOL    HW215963   1.953   4.803   5.573
 5022SOL     OW15964   1.476   6.052   0.724
 5022SOL    HW115965   1.420   6.040   0.642
 5022SOL    HW215966   1.417   6.075   0.801
 5023SOL     OW15967   6.157   3.379   1.053
 5023SOL    HW115968   6.060   3.355   1.056
 5023SOL    HW215969   6.175   3.433   0.971
 5024SOL     OW15970   6.125   3.500   4.114
 5024SOL    HW115971   6.167   3.528   4.200
 5024SOL    HW215972   6.079   3.579   4.073
 5025SOL     OW15973   5.232   1.904   3.219
 5025SOL    HW115974   5.328   1.878   3.206
 5025SOL    HW215975   5.223   1.962   3.300
 5026SOL     OW15976   6.608   5.795   4.480
 5026SOL    HW115977   6.529   5.738   4.505
 5026SOL    HW215978   6.646   5.763   4.393
 5027SOL     OW15979   0.537   6.854   3.659
 5027SOL    HW115980   0.481   6.931   3.629
 5027SOL    HW215981   0.570   6.804   3.580
 5028SOL     OW15982   0.535   0.270   3.228
 5028SOL    HW115983   0.461   0.336   3.210
 5028SOL    HW215984   0.612   0.290   3.169
 5029SOL     OW15985   0.008   1.883   1.304
 5029SOL    HW115986   6.961   1.811   1.318
 5029SOL    HW215987   0.099   1.843   1.304
 5030SOL     OW15988   6.938   0.336   6.871
 5030SOL    HW115989   6.964   0.344   6.967
 5030SOL    HW215990   6.907   0.243   6.852
 5031SOL     OW15991   5.685   0.282   4.304
 5031SOL    HW115992   5.772   0.235   4.317
 5031SOL    HW215993   5.693   0.347   4.229
 5032SOL     OW15994   1.460   5.074   0.927
 5032SOL    HW115995   1.541   5.114   0.886
 5032SOL    HW215996   1.394   5.146   0.950
 5033SOL     OW15997   2.848   4.248   5.601
 5033SOL    HW115998   2.804   4.328   5.562
 5033SOL    HW215999   2.796   4.166   5.576
 5034SOL     OW16000   6.632   2.801   1.704
 5034SOL    HW116001   6.600   2.758   1.619
 5034SOL    HW216002   6.625   2.900   1.696
 5035SOL     OW16003   5.676   5.396   0.407
 5035SOL    HW116004   5.692   5.346   0.492
 5035SOL    HW216005   5.588   5.444   0.414
 5036SOL     OW16006   1.332   7.015   1.505
 5036SOL    HW116007   1.261   0.038   1.559
 5036SOL    HW216008   1.401   6.976   1.567
 5037SOL     OW16009   4.547   2.008   3.709
 5037SOL    HW116010   4.615   1.938   3.728
 5037SOL    HW216011   4.579   2.067   3.635
 5038SOL     OW16012   1.325   5.997   5.726
 5038SOL    HW116013   1.355   6.049   5.646
 5038SOL    HW216014   1.399   5.939   5.759
 5039SOL     OW16015   2.351   2.759   5.191
 5039SOL    HW116016   2.391   2.796   5.275
 5039SOL    HW216017   2.353   2.829   5.120
 5040SOL     OW16018   3.239   3.909   5.506
 5040SOL    HW116019   3.269   3.830   5.453
 5040SOL    HW216020   3.279   3.992   5.467
 5041SOL     OW16021   0.975   3.435   1.626
 5041SOL    HW116022   0.987   3.465   1.720
 5041SOL    HW216023   0.937   3.343   1.624
 5042SOL     OW16024   5.342   2.754   6.516
 5042SOL    HW116025   5.350   2.752   6.615
 5042SOL    HW216026   5.386   2.836   6.480
 5043SOL     OW16027   3.731   0.531   3.654
 5043SOL    HW116028   3.694   0.510   3.745
 5043SOL    HW216029   3.830   0.536   3.658
 5044SOL     OW16030   5.876   5.365   3.199
 5044SOL    HW116031   5.912   5.296   3.261
 5044SOL    HW216032   5.804   5.324   3.143
 5045SOL     OW16033   6.330   2.370   6.640
 5045SOL    HW116034   6.428   2.361   6.659
 5045SOL    HW216035   6.297   2.456   6.678
 5046SOL     OW16036   3.475   3.067   5.196
 5046SOL    HW116037   3.456   3.156   5.155
 5046SOL    HW216038   3.467   2.995   5.127
 5047SOL     OW16039   0.314   1.084   2.695
 5047SOL    HW116040   0.367   1.149   2.749
 5047SOL    HW216041   0.314   1.112   2.599
 5048SOL     OW16042   6.561   2.683   1.475
 5048SOL    HW116043   6.477   2.653   1.429
 5048SOL    HW216044   6.639   2.669   1.415
 5049SOL     OW16045   1.073   2.232   2.012
 5049SOL    HW116046   1.016   2.177   1.950
 5049SOL    HW216047   1.067   2.193   2.104
 5050SOL     OW16048   0.741   3.049   1.836
 5050SOL    HW116049   0.643   3.062   1.851
 5050SOL    HW216050   0.783   3.138   1.817
 5051SOL     OW16051   2.797   4.427   0.586
 5051SOL    HW116052   2.764   4.493   0.519
 5051SOL    HW216053   2.807   4.472   0.675
 5052SOL     OW16054   5.397   4.715   1.162
 5052SOL    HW116055   5.372   4.653   1.236
 5052SOL    HW216056   5.467   4.779   1.195
 5053SOL     OW16057   2.732   3.905   1.084
 5053SOL    HW116058   2.650   3.854   1.058
 5053SOL    HW216059   2.791   3.848   1.141
 5054SOL     OW16060   3.683   5.515   5.076
 5054SOL    HW116061   3.731   5.516   4.988
 5054SOL    HW216062   3.632   5.601   5.087
 5055SOL     OW16063   0.873   1.498   5.379
 5055SOL    HW116064   0.832   1.409   5.362
 5055SOL    HW216065   0.861   1.524   5.475
 5056SOL     OW16066   0.196   3.264   5.549
 5056SOL    HW116067   0.119   3.298   5.603
 5056SOL    HW216068   0.221   3.173   5.580
 5057SOL     OW16069   6.822   5.961   3.448
 5057SOL    HW116070   6.744   5.961   3.511
 5057SOL    HW216071   6.839   5.868   3.415
 5058SOL     OW16072   4.631   4.650   5.857
 5058SOL    HW116073   4.671   4.712   5.789
 5058SOL    HW216074   4.700   4.583   5.885
 5059SOL     OW16075   3.305   1.944   4.529
 5059SOL    HW116076   3.305   2.011   4.455
 5059SOL    HW216077   3.385   1.884   4.519
 5060SOL     OW16078   0.495   2.963   5.325
 5060SOL    HW116079   0.506   3.000   5.417
 5060SOL    HW216080   0.573   2.904   5.303
 5061SOL     OW16081   3.663   2.865   4.809
 5061SOL    HW116082   3.634   2.829   4.898
 5061SOL    HW216083   3.586   2.912   4.766
 5062SOL     OW16084   4.723   0.820   2.902
 5062SOL    HW116085   4.722   0.919   2.890
 5062SOL    HW216086   4.654   0.779   2.842
 5063SOL     OW16087   1.074   6.893   2.412
 5063SOL    HW116088   0.982   6.933   2.420
 5063SOL    HW216089   1.124   6.907   2.498
 5064SOL     OW16090   4.738   5.269   0.556
 5064SOL    HW116091   4.774   5.180   0.583
 5064SOL    HW216092   4.770   5.291   0.464
 5065SOL     OW16093   2.464   0.265   3.199
 5065SOL    HW116094   2.432   0.250   3.105
 5065SOL    HW216095   2.418   0.344   3.238
 5066SOL     OW16096   2.415   4.215   1.509
 5066SOL    HW116097   2.330   4.175   1.542
 5066SOL    HW216098   2.400   4.254   1.418
 5067SOL     OW16099   4.175   3.075   1.543
 5067SOL    HW116100   4.135   2.984   1.546
 5067SOL    HW216101   4.253   3.079   1.607
 5068SOL     OW16102   3.254   6.089   0.512
 5068SOL    HW116103   3.198   6.047   0.584
 5068SOL    HW216104   3.238   6.041   0.426
 5069SOL     OW16105   3.270   4.583   6.152
 5069SOL    HW116106   3.352   4.568   6.097
 5069SOL    HW216107   3.292   4.568   6.249
 5070SOL     OW16108   6.250   3.420   3.877
 5070SOL    HW116109   6.309   3.344   3.904
 5070SOL    HW216110   6.201   3.455   3.956
 5071SOL     OW16111   3.543   1.283   3.655
 5071SOL    HW116112   3.522   1.201   3.602
 5071SOL    HW216113   3.458   1.327   3.684
 5072SOL     OW16114   1.617   1.090   0.892
 5072SOL    HW116115   1.543   1.051   0.947
 5072SOL    HW216116   1.645   1.178   0.931
 5073SOL     OW16117   2.566   6.580   2.428
 5073SOL    HW116118   2.497   6.531   2.374
 5073SOL    HW216119   2.533   6.673   2.447
 5074SOL     OW16120   3.722   2.083   1.694
 5074SOL    HW116121   3.768   2.028   1.764
 5074SOL    HW216122   3.683   2.164   1.736
 5075SOL     OW16123   1.366   3.216   6.838
 5075SOL    HW116124   1.452   3.266   6.844
 5075SOL    HW216125   1.304   3.262   6.775
 5076SOL     OW16126   5.723   0.717   0.634
 5076SOL    HW116127   5.703   0.703   0.537
 5076SOL    HW216128   5.752   0.811   0.649
 5077SOL     OW16129   0.777   4.958   3.189
 5077SOL    HW116130   0.856   4.928   3.136
 5077SOL    HW216131   0.786   4.926   3.283
 5078SOL     OW16132   6.924   1.174   3.785
 5078SOL    HW116133   6.894   1.114   3.859
 5078SOL    HW216134   6.856   1.174   3.712
 5079SOL     OW16135   1.586   2.520   6.082
 5079SOL    HW116136   1.575   2.433   6.034
 5079SOL    HW216137   1.503   2.539   6.136
 5080SOL     OW16138   6.176   5.092   5.909
 5080SOL    HW116139   6.093   5.122   5.956
 5080SOL    HW216140   6.179   5.133   5.818
 5081SOL     OW16141   3.429   5.920   5.744
 5081SOL    HW116142   3.447   6.009   5.784
 5081SOL    HW216143   3.330   5.909   5.730
 5082SOL     OW16144   5.292   6.591   1.529
 5082SOL    HW116145   5.288   6.572   1.627
 5082SOL    HW216146   5.352   6.671   1.514
 5083SOL     OW16147   2.442   0.509   2.976
 5083SOL    HW116148   2.390   0.522   3.061
 5083SOL    HW216149   2.540   0.524   2.994
 5084SOL     OW16150   0.917   4.891   5.238
 5084SOL    HW116151   0.929   4.914   5.335
 5084SOL    HW216152   0.991   4.830   5.210
 5085SOL     OW16153   0.755   3.576   6.331
 5085SOL    HW116154   0.700   3.580   6.415
 5085SOL    HW216155   0.732   3.655   6.273
 5086SOL     OW16156   1.858   4.681   2.103
 5086SOL    HW116157   1.812   4.770   2.103
 5086SOL    HW216158   1.900   4.666   2.013
 5087SOL     OW16159   6.330   5.368   2.863
 5087SOL    HW116160   6.263   5.394   2.932
 5087SOL    HW216161   6.416   5.414   2.880
 5088SOL     OW16162   4.412   6.084   2.178
 5088SOL    HW116163   4.469   6.154   2.221
 5088SOL    HW216164   4.361   6.124   2.102
 5089SOL     OW16165   5.681   4.476   4.561
 5089SOL    HW116166   5.679   4.437   4.469
 5089SOL    HW216167   5.652   4.406   4.627
 5090SOL     OW16168   2.412   0.610   4.523
 5090SOL    HW116169   2.349   0.575   4.454
 5090SOL    HW216170   2.375   0.591   4.614
 5091SOL     OW16171   6.345   6.905   0.369
 5091SOL    HW116172   6.282   6.873   0.440
 5091SOL    HW216173   6.319   6.998   0.341
 5092SOL     OW16174   3.628   3.675   4.868
 5092SOL    HW116175   3.584   3.763   4.851
 5092SOL    HW216176   3.567   3.616   4.921
 5093SOL     OW16177   1.984   1.524   2.676
 5093SOL    HW116178   1.921   1.525   2.754
 5093SOL    HW216179   2.034   1.611   2.672
 5094SOL     OW16180   2.148   5.576   6.794
 5094SOL    HW116181   2.092   5.613   6.720
 5094SOL    HW216182   2.231   5.536   6.756
 5095SOL     OW16183   0.460   1.439   2.850
 5095SOL    HW116184   0.525   1.510   2.822
 5095SOL    HW216185   0.497   1.349   2.826
 5096SOL     OW16186   5.229   2.652   6.056
 5096SOL    HW116187   5.153   2.709   6.024
 5096SOL    HW216188   5.298   2.643   5.983
 5097SOL     OW16189   0.237   6.028   6.379
 5097SOL    HW116190   0.204   6.112   6.337
 5097SOL    HW216191   0.271   5.966   6.307
 5098SOL     OW16192   3.835   1.995   1.943
 5098SOL    HW116193   3.848   1.914   2.000
 5098SOL    HW216194   3.783   2.064   1.994
 5099SOL     OW16195   0.797   5.867   1.893
 5099SOL    HW116196   0.870   5.813   1.935
 5099SOL    HW216197   0.810   5.964   1.913
 5100SOL     OW16198   5.088   4.207   2.536
 5100SOL    HW116199   5.091   4.113   2.569
 5100SOL    HW216200   5.181   4.244   2.535
 5101SOL     OW16201   4.372   6.954   5.434
 5101SOL    HW116202   4.450   7.011   5.411
 5101SOL    HW216203   4.383   6.863   5.393
 5102SOL     OW16204   5.272   5.021   4.162
 5102SOL    HW116205   5.302   5.106   4.120
 5102SOL    HW216206   5.348   4.978   4.210
 5103SOL     OW16207   0.966   0.408   5.634
 5103SOL    HW116208   1.064   0.391   5.639
 5103SOL    HW216209   0.933   0.441   5.722
 5104SOL     OW16210   3.499   4.675   1.032
 5104SOL    HW116211   3.553   4.617   1.093
 5104SOL    HW216212   3.440   4.619   0.975
 5105SOL     OW16213   3.531   2.875   6.988
 5105SOL    HW116214   3.533   2.832   0.057
 5105SOL    HW216215   3.591   2.955   6.988
 5106SOL     OW16216   4.087   2.999   0.948
 5106SOL    HW116217   4.000   2.983   0.994
 5106SOL    HW216218   4.143   2.917   0.954
 5107SOL     OW16219   4.801   2.772   1.100
 5107SOL    HW116220   4.892   2.801   1.129
 5107SOL    HW216221   4.740   2.769   1.178
 5108SOL     OW16222   4.163   3.395   6.492
 5108SOL    HW116223   4.083   3.341   6.518
 5108SOL    HW216224   4.147   3.491   6.514
 5109SOL     OW16225   1.807   2.653   0.619
 5109SOL    HW116226   1.860   2.602   0.552
 5109SOL    HW216227   1.804   2.602   0.705
 5110SOL     OW16228   6.040   0.318   6.339
 5110SOL    HW116229   6.006   0.328   6.245
 5110SOL    HW216230   5.981   0.370   6.401
 5111SOL     OW16231   1.613   5.797   5.254
 5111SOL    HW116232   1.573   5.706   5.262
 5111SOL    HW216233   1.635   5.832   5.345
 5112SOL     OW16234   6.983   0.563   3.193
 5112SOL    HW116235   6.891   0.579   3.231
 5112SOL    HW216236   7.000   0.465   3.186
 5113SOL     OW16237   1.948   5.172   0.703
 5113SOL    HW116238   1.851   5.195   0.713
 5113SOL    HW216239   2.003   5.253   0.723
 5114SOL     OW16240   4.385   6.769   0.722
 5114SOL    HW116241   4.347   6.817   0.801
 5114SOL    HW216242   4.311   6.735   0.665
 5115SOL     OW16243   1.635   3.951   1.186
 5115SOL    HW116244   1.590   4.024   1.134
 5115SOL    HW216245   1.611   3.960   1.283
 5116SOL     OW16246   2.445   6.807   6.502
 5116SOL    HW116247   2.468   6.712   6.524
 5116SOL    HW216248   2.440   6.861   6.586
 5117SOL     OW16249   1.517   2.825   4.341
 5117SOL    HW116250   1.463   2.908   4.351
 5117SOL    HW216251   1.598   2.830   4.400
 5118SOL     OW16252   6.373   6.770   0.082
 5118SOL    HW116253   6.437   6.835   0.122
 5118SOL    HW216254   6.391   6.678   0.119
 5119SOL     OW16255   5.359   2.130   0.242
 5119SOL    HW116256   5.378   2.141   0.340
 5119SOL    HW216257   5.372   2.034   0.216
 5120SOL     OW16258   5.479   6.865   4.801
 5120SOL    HW116259   5.524   6.928   4.865
 5120SOL    HW216260   5.437   6.790   4.853
 5121SOL     OW16261   2.758   3.957   6.808
 5121SOL    HW116262   2.702   3.895   6.753
 5121SOL    HW216263   2.808   3.905   6.877
 5122SOL     OW16264   4.493   5.410   3.751
 5122SOL    HW116265   4.483   5.455   3.840
 5122SOL    HW216266   4.437   5.327   3.749
 5123SOL     OW16267   4.322   2.376   2.163
 5123SOL    HW116268   4.351   2.417   2.077
 5123SOL    HW216269   4.250   2.308   2.144
 5124SOL     OW16270   2.061   6.655   3.690
 5124SOL    HW116271   2.133   6.602   3.736
 5124SOL    HW216272   1.972   6.619   3.716
 5125SOL     OW16273   0.840   1.975   3.981
 5125SOL    HW116274   0.855   1.895   4.038
 5125SOL    HW216275   0.767   2.031   4.020
 5126SOL     OW16276   1.890   6.803   1.367
 5126SOL    HW116277   1.894   6.862   1.286
 5126SOL    HW216278   1.934   6.716   1.346
 5127SOL     OW16279   1.801   5.408   0.898
 5127SOL    HW116280   1.864   5.401   0.976
 5127SOL    HW216281   1.848   5.453   0.822
 5128SOL     OW16282   6.331   6.017   1.933
 5128SOL    HW116283   6.237   6.050   1.932
 5128SOL    HW216284   6.337   5.931   1.882
 5129SOL     OW16285   4.649   6.637   1.303
 5129SOL    HW116286   4.742   6.619   1.270
 5129SOL    HW216287   4.650   6.641   1.403
 5130SOL     OW16288   6.023   4.748   3.512
 5130SOL    HW116289   5.953   4.779   3.449
 5130SOL    HW216290   5.992   4.665   3.558
 5131SOL     OW16291   1.722   2.623   3.571
 5131SOL    HW116292   1.695   2.579   3.656
 5131SOL    HW216293   1.792   2.692   3.590
 5132SOL     OW16294   3.342   5.088   6.505
 5132SOL    HW116295   3.431   5.043   6.496
 5132SOL    HW216296   3.274   5.038   6.451
 5133SOL     OW16297   3.849   6.161   6.577
 5133SOL    HW116298   3.799   6.093   6.631
 5133SOL    HW216299   3.869   6.240   6.634
 5134SOL     OW16300   0.540   3.904   1.224
 5134SOL    HW116301   0.472   3.858   1.281
 5134SOL    HW216302   0.573   3.842   1.153
 5135SOL     OW16303   0.043   1.722   4.615
 5135SOL    HW116304   0.094   1.807   4.601
 5135SOL    HW216305   6.968   1.745   4.631
 5136SOL     OW16306   5.162   0.802   4.396
 5136SOL    HW116307   5.173   0.702   4.400
 5136SOL    HW216308   5.227   0.845   4.458
 5137SOL     OW16309   4.558   4.058   6.353
 5137SOL    HW116310   4.528   4.112   6.275
 5137SOL    HW216311   4.551   4.112   6.437
 5138SOL     OW16312   2.615   3.629   6.135
 5138SOL    HW116313   2.682   3.584   6.195
 5138SOL    HW216314   2.664   3.680   6.064
 5139SOL     OW16315   1.126   6.886   4.297
 5139SOL    HW116316   1.151   6.896   4.394
 5139SOL    HW216317   1.028   6.874   4.289
 5140SOL     OW16318   3.194   2.837   0.482
 5140SOL    HW116319   3.101   2.851   0.448
 5140SOL    HW216320   3.208   2.892   0.564
 5141SOL     OW16321   5.710   3.402   0.397
 5141SOL    HW116322   5.668   3.475   0.343
 5141SOL    HW216323   5.681   3.313   0.360
 5142SOL     OW16324   5.536   3.454   4.861
 5142SOL    HW116325   5.487   3.458   4.774
 5142SOL    HW216326   5.506   3.373   4.912
 5143SOL     OW16327   7.013   5.037   3.864
 5143SOL    HW116328   6.997   4.992   3.952
 5143SOL    HW216329   0.079   5.086   3.867
 5144SOL     OW16330   1.476   0.527   6.177
 5144SOL    HW116331   1.528   0.466   6.238
 5144SOL    HW216332   1.504   0.510   6.082
 5145SOL     OW16333   2.321   5.115   5.796
 5145SOL    HW116334   2.275   5.200   5.824
 5145SOL    HW216335   2.362   5.071   5.876
 5146SOL     OW16336   3.568   3.930   6.742
 5146SOL    HW116337   3.489   3.954   6.686
 5146SOL    HW216338   3.612   3.849   6.704
 5147SOL     OW16339   6.870   4.024   0.562
 5147SOL    HW116340   6.885   3.960   0.487
 5147SOL    HW216341   6.771   4.036   0.576
 5148SOL     OW16342   0.220   5.880   1.589
 5148SOL    HW116343   0.167   5.948   1.639
 5148SOL    HW216344   0.309   5.919   1.564
 5149SOL     OW16345   6.005   1.405   3.216
 5149SOL    HW116346   6.078   1.352   3.261
 5149SOL    HW216347   5.957   1.460   3.285
 5150SOL     OW16348   1.512   6.008   3.783
 5150SOL    HW116349   1.578   6.083   3.787
 5150SOL    HW216350   1.447   6.026   3.708
 5151SOL     OW16351   4.884   1.127   6.371
 5151SOL    HW116352   4.981   1.148   6.364
 5151SOL    HW216353   4.848   1.105   6.281
 5152SOL     OW16354   0.965   4.531   0.099
 5152SOL    HW116355   0.972   4.567   0.192
 5152SOL    HW216356   0.998   4.436   0.098
 5153SOL     OW16357   1.571   2.137   0.728
 5153SOL    HW116358   1.655   2.190   0.712
 5153SOL    HW216359   1.573   2.054   0.672
 5154SOL     OW16360   1.644   3.189   5.760
 5154SOL    HW116361   1.613   3.185   5.855
 5154SOL    HW216362   1.595   3.262   5.711
 5155SOL     OW16363   4.119   6.333   2.006
 5155SOL    HW116364   4.152   6.262   1.945
 5155SOL    HW216365   4.021   6.348   1.991
 5156SOL     OW16366   6.984   2.605   5.344
 5156SOL    HW116367   6.991   2.568   5.251
 5156SOL    HW216368   6.931   2.542   5.401
 5157SOL     OW16369   5.321   2.917   3.642
 5157SOL    HW116370   5.377   2.998   3.657
 5157SOL    HW216371   5.259   2.933   3.565
 5158SOL     OW16372   3.985   0.967   1.104
 5158SOL    HW116373   3.975   1.026   1.184
 5158SOL    HW216374   4.074   0.984   1.061
 5159SOL     OW16375   0.887   3.397   4.099
 5159SOL    HW116376   0.837   3.319   4.135
 5159SOL    HW216377   0.925   3.374   4.009
 5160SOL     OW16378   1.749   3.744   4.952
 5160SOL    HW116379   1.660   3.765   4.993
 5160SOL    HW216380   1.739   3.738   4.852
 5161SOL     OW16381   1.015   3.426   5.620
 5161SOL    HW116382   1.114   3.413   5.614
 5161SOL    HW216383   0.971   3.383   5.541
 5162SOL     OW16384   6.784   6.168   4.089
 5162SOL    HW116385   6.690   6.199   4.076
 5162SOL    HW216386   6.822   6.136   4.002
 5163SOL     OW16387   5.830   4.901   0.791
 5163SOL    HW116388   5.899   4.964   0.758
 5163SOL    HW216389   5.745   4.913   0.740
 5164SOL     OW16390   6.102   3.304   5.046
 5164SOL    HW116391   6.079   3.309   4.949
 5164SOL    HW216392   6.073   3.216   5.083
 5165SOL     OW16393   6.134   4.390   4.513
 5165SOL    HW116394   6.119   4.340   4.599
 5165SOL    HW216395   6.207   4.344   4.461
 5166SOL     OW16396   1.537   4.546   2.070
 5166SOL    HW116397   1.601   4.561   2.145
 5166SOL    HW216398   1.581   4.490   2.000
 5167SOL     OW16399   0.107   6.592   5.971
 5167SOL    HW116400   0.059   6.592   6.059
 5167SOL    HW216401   0.172   6.517   5.968
 5168SOL     OW16402   4.116   2.294   2.908
 5168SOL    HW116403   4.198   2.295   2.966
 5168SOL    HW216404   4.134   2.241   2.825
 5169SOL     OW16405   3.304   3.620   6.178
 5169SOL    HW116406   3.369   3.675   6.231
 5169SOL    HW216407   3.262   3.676   6.107
 5170SOL     OW16408   6.314   4.585   4.551
 5170SOL    HW116409   6.253   4.509   4.532
 5170SOL    HW216410   6.354   4.574   4.642
 5171SOL     OW16411   2.240   4.914   4.606
 5171SOL    HW116412   2.221   5.012   4.603
 5171SOL    HW216413   2.280   4.891   4.695
 5172SOL     OW16414   0.525   4.677   2.228
 5172SOL    HW116415   0.625   4.675   2.226
 5172SOL    HW216416   0.495   4.746   2.295
 5173SOL     OW16417   5.167   3.105   6.328
 5173SOL    HW116418   5.243   3.050   6.295
 5173SOL    HW216419   5.202   3.188   6.372
 5174SOL     OW16420   1.401   4.649   5.769
 5174SOL    HW116421   1.442   4.702   5.694
 5174SOL    HW216422   1.312   4.613   5.739
 5175SOL     OW16423   1.529   4.459   0.259
 5175SOL    HW116424   1.457   4.526   0.272
 5175SOL    HW216425   1.566   4.432   0.349
 5176SOL     OW16426   3.937   3.758   1.124
 5176SOL    HW116427   3.924   3.661   1.100
 5176SOL    HW216428   4.034   3.776   1.138
 5177SOL     OW16429   4.432   6.322   5.891
 5177SOL    HW116430   4.338   6.291   5.879
 5177SOL    HW216431   4.456   6.319   5.988
 5178SOL     OW16432   2.926   2.877   1.566
 5178SOL    HW116433   2.897   2.877   1.470
 5178SOL    HW216434   2.853   2.843   1.624
 5179SOL     OW16435   3.559   6.536   5.943
 5179SOL    HW116436   3.480   6.475   5.950
 5179SOL    HW216437   3.639   6.492   5.985
 5180SOL     OW16438   3.310   1.856   0.465
 5180SOL    HW116439   3.351   1.947   0.467
 5180SOL    HW216440   3.307   1.818   0.557
 5181SOL     OW16441   4.478   0.019   2.813
 5181SOL    HW116442   4.456   0.116   2.823
 5181SOL    HW216443   4.405   6.985   2.853
 5182SOL     OW16444   5.911   4.282   1.947
 5182SOL    HW116445   5.992   4.289   1.890
 5182SOL    HW216446   5.898   4.187   1.976
 5183SOL     OW16447   4.400   6.682   2.157
 5183SOL    HW116448   4.452   6.764   2.136
 5183SOL    HW216449   4.462   6.606   2.177
 5184SOL     OW16450   1.222   1.130   3.206
 5184SOL    HW116451   1.277   1.141   3.123
 5184SOL    HW216452   1.210   1.032   3.224
 5185SOL     OW16453   3.573   6.956   2.343
 5185SOL    HW116454   3.555   7.000   2.255
 5185SOL    HW216455   3.672   6.947   2.356
 5186SOL     OW16456   6.679   4.166   1.099
 5186SOL    HW116457   6.640   4.076   1.119
 5186SOL    HW216458   6.772   4.155   1.064
 5187SOL     OW16459   6.076   1.842   3.263
 5187SOL    HW116460   6.062   1.808   3.356
 5187SOL    HW216461   6.078   1.766   3.199
 5188SOL     OW16462   0.664   4.561   6.064
 5188SOL    HW116463   0.595   4.594   6.000
 5188SOL    HW216464   0.669   4.461   6.059
 5189SOL     OW16465   4.601   5.142   6.462
 5189SOL    HW116466   4.614   5.048   6.428
 5189SOL    HW216467   4.531   5.143   6.533
 5190SOL     OW16468   1.116   2.321   3.968
 5190SOL    HW116469   1.198   2.302   3.914
 5190SOL    HW216470   1.036   2.284   3.921
 5191SOL     OW16471   3.519   1.426   1.800
 5191SOL    HW116472   3.616   1.413   1.785
 5191SOL    HW216473   3.500   1.522   1.820
 5192SOL     OW16474   5.512   5.958   2.526
 5192SOL    HW116475   5.515   5.928   2.430
 5192SOL    HW216476   5.479   5.883   2.583
 5193SOL     OW16477   4.786   4.003   4.239
 5193SOL    HW116478   4.845   3.974   4.163
 5193SOL    HW216479   4.781   3.929   4.306
 5194SOL     OW16480   5.665   0.716   6.105
 5194SOL    HW116481   5.660   0.749   6.200
 5194SOL    HW216482   5.618   0.627   6.099
 5195SOL     OW16483   6.285   6.648   5.307
 5195SOL    HW116484   6.196   6.678   5.340
 5195SOL    HW216485   6.274   6.594   5.223
 5196SOL     OW16486   0.643   4.263   1.699
 5196SOL    HW116487   0.654   4.277   1.600
 5196SOL    HW216488   0.727   4.225   1.737
 5197SOL     OW16489   2.222   6.021   4.803
 5197SOL    HW116490   2.317   5.991   4.816
 5197SOL    HW216491   2.208   6.048   4.708
 5198SOL     OW16492   3.754   6.134   4.969
 5198SOL    HW116493   3.821   6.065   4.942
 5198SOL    HW216494   3.777   6.222   4.927
 5199SOL     OW16495   2.088   5.697   1.673
 5199SOL    HW116496   2.100   5.702   1.574
 5199SOL    HW216497   2.135   5.774   1.716
 5200SOL     OW16498   0.438   1.305   5.094
 5200SOL    HW116499   0.537   1.310   5.099
 5200SOL    HW216500   0.412   1.225   5.039
 5201SOL     OW16501   5.167   4.583   3.705
 5201SOL    HW116502   5.206   4.570   3.614
 5201SOL    HW216503   5.133   4.496   3.739
 5202SOL     OW16504   3.982   2.920   6.117
 5202SOL    HW116505   3.915   2.904   6.189
 5202SOL    HW216506   3.980   3.016   6.090
 5203SOL     OW16507   1.923   0.592   0.734
 5203SOL    HW116508   1.942   0.690   0.729
 5203SOL    HW216509   1.980   0.544   0.667
 5204SOL     OW16510   3.400   1.029   6.674
 5204SOL    HW116511   3.367   1.123   6.681
 5204SOL    HW216512   3.351   0.971   6.739
 5205SOL     OW16513   6.869   5.968   1.081
 5205SOL    HW116514   6.965   5.995   1.073
 5205SOL    HW216515   6.857   5.878   1.039
 5206SOL     OW16516   0.646   4.776   5.248
 5206SOL    HW116517   0.739   4.811   5.238
 5206SOL    HW216518   0.643   4.707   5.320
 5207SOL     OW16519   0.371   1.031   5.003
 5207SOL    HW116520   0.457   1.010   4.958
 5207SOL    HW216521   0.375   1.004   5.099
 5208SOL     OW16522   4.549   2.404   0.744
 5208SOL    HW116523   4.461   2.374   0.706
 5208SOL    HW216524   4.595   2.327   0.787
 5209SOL     OW16525   4.477   5.869   2.932
 5209SOL    HW116526   4.560   5.922   2.913
 5209SOL    HW216527   4.494   5.804   3.005
 5210SOL     OW16528   5.074   4.286   0.519
 5210SOL    HW116529   5.133   4.234   0.457
 5210SOL    HW216530   5.125   4.309   0.602
 5211SOL     OW16531   4.546   2.583   4.058
 5211SOL    HW116532   4.618   2.638   4.101
 5211SOL    HW216533   4.519   2.626   3.972
 5212SOL     OW16534   0.848   3.307   1.256
 5212SOL    HW116535   0.912   3.384   1.248
 5212SOL    HW216536   0.763   3.328   1.208
 5213SOL     OW16537   4.108   3.340   2.534
 5213SOL    HW116538   4.131   3.347   2.631
 5213SOL    HW216539   4.080   3.246   2.513
 5214SOL     OW16540   5.674   3.575   6.139
 5214SOL    HW116541   5.665   3.564   6.040
 5214SOL    HW216542   5.731   3.655   6.159
 5215SOL     OW16543   0.024   4.002   4.758
 5215SOL    HW116544   0.018   4.096   4.790
 5215SOL    HW216545   6.961   3.977   4.710
 5216SOL     OW16546   5.632   4.863   0.617
 5216SOL    HW116547   5.581   4.816   0.690
 5216SOL    HW216548   5.568   4.900   0.551
 5217SOL     OW16549   3.974   6.090   3.656
 5217SOL    HW116550   3.974   6.005   3.709
 5217SOL    HW216551   3.986   6.168   3.718
 5218SOL     OW16552   0.792   0.514   0.584
 5218SOL    HW116553   0.736   0.594   0.603
 5218SOL    HW216554   0.806   0.505   0.485
 5219SOL     OW16555   2.273   2.283   4.941
 5219SOL    HW116556   2.339   2.266   4.868
 5219SOL    HW216557   2.320   2.318   5.022
 5220SOL     OW16558   1.727   4.202   3.507
 5220SOL    HW116559   1.720   4.173   3.412
 5220SOL    HW216560   1.810   4.164   3.548
 5221SOL     OW16561   6.612   0.568   1.525
 5221SOL    HW116562   6.565   0.479   1.530
 5221SOL    HW216563   6.549   0.636   1.486
 5222SOL     OW16564   4.706   4.930   1.708
 5222SOL    HW116565   4.792   4.966   1.672
 5222SOL    HW216566   4.676   4.853   1.652
 5223SOL     OW16567   0.535   3.170   1.364
 5223SOL    HW116568   0.539   3.200   1.269
 5223SOL    HW216569   0.559   3.072   1.369
 5224SOL     OW16570   0.557   1.999   4.366
 5224SOL    HW116571   0.473   2.046   4.337
 5224SOL    HW216572   0.581   2.028   4.459
 5225SOL     OW16573   0.484   1.600   5.107
 5225SOL    HW116574   0.451   1.507   5.092
 5225SOL    HW216575   0.555   1.600   5.178
 5226SOL     OW16576   6.803   6.496   3.903
 5226SOL    HW116577   6.840   6.423   3.845
 5226SOL    HW216578   6.850   6.496   3.991
 5227SOL     OW16579   0.228   2.607   4.846
 5227SOL    HW116580   0.230   2.580   4.942
 5227SOL    HW216581   0.166   2.684   4.834
 5228SOL     OW16582   1.833   2.990   5.687
 5228SOL    HW116583   1.839   2.909   5.746
 5228SOL    HW216584   1.762   3.051   5.721
 5229SOL     OW16585   4.590   0.884   6.241
 5229SOL    HW116586   4.506   0.937   6.233
 5229SOL    HW216587   4.665   0.933   6.196
 5230SOL     OW16588   0.068   0.431   2.074
 5230SOL    HW116589   6.999   0.395   2.098
 5230SOL    HW216590   0.124   0.437   2.156
 5231SOL     OW16591   5.977   1.641   2.221
 5231SOL    HW116592   6.020   1.728   2.245
 5231SOL    HW216593   5.877   1.651   2.225
 5232SOL     OW16594   2.070   3.345   5.658
 5232SOL    HW116595   2.105   3.271   5.601
 5232SOL    HW216596   2.030   3.307   5.741
 5233SOL     OW16597   3.010   0.564   2.637
 5233SOL    HW116598   3.101   0.532   2.664
 5233SOL    HW216599   3.016   0.660   2.609
 5234SOL     OW16600   1.939   2.401   1.190
 5234SOL    HW116601   1.899   2.320   1.145
 5234SOL    HW216602   1.865   2.458   1.226
 5235SOL     OW16603   2.493   1.811   1.179
 5235SOL    HW116604   2.593   1.814   1.181
 5235SOL    HW216605   2.460   1.854   1.095
 5236SOL     OW16606   3.418   5.475   2.010
 5236SOL    HW116607   3.339   5.482   1.949
 5236SOL    HW216608   3.460   5.565   2.021
 5237SOL     OW16609   1.997   2.402   4.270
 5237SOL    HW116610   2.017   2.446   4.183
 5237SOL    HW216611   1.968   2.470   4.337
 5238SOL     OW16612   1.078   6.187   2.556
 5238SOL    HW116613   1.097   6.163   2.461
 5238SOL    HW216614   1.069   6.286   2.565
 5239SOL     OW16615   2.925   3.760   1.246
 5239SOL    HW116616   2.851   3.699   1.274
 5239SOL    HW216617   2.929   3.839   1.308
 5240SOL     OW16618   2.711   3.416   5.751
 5240SOL    HW116619   2.709   3.500   5.696
 5240SOL    HW216620   2.629   3.412   5.809
 5241SOL     OW16621   0.729   5.619   2.431
 5241SOL    HW116622   0.794   5.692   2.452
 5241SOL    HW216623   0.636   5.652   2.449
 5242SOL     OW16624   5.094   0.850   0.279
 5242SOL    HW116625   5.015   0.911   0.272
 5242SOL    HW216626   5.136   0.840   0.189
 5243SOL     OW16627   1.760   6.686   1.973
 5243SOL    HW116628   1.832   6.686   1.904
 5243SOL    HW216629   1.683   6.631   1.940
 5244SOL     OW16630   4.550   3.384   0.174
 5244SOL    HW116631   4.543   3.470   0.123
 5244SOL    HW216632   4.614   3.323   0.129
 5245SOL     OW16633   3.659   4.030   1.100
 5245SOL    HW116634   3.749   4.058   1.133
 5245SOL    HW216635   3.589   4.091   1.137
 5246SOL     OW16636   5.549   3.074   1.031
 5246SOL    HW116637   5.459   3.116   1.037
 5246SOL    HW216638   5.589   3.068   1.123
 5247SOL     OW16639   4.240   1.877   6.083
 5247SOL    HW116640   4.173   1.804   6.073
 5247SOL    HW216641   4.329   1.836   6.105
 5248SOL     OW16642   6.354   1.662   3.389
 5248SOL    HW116643   6.405   1.745   3.368
 5248SOL    HW216644   6.292   1.642   3.313
 5249SOL     OW16645   0.453   4.825   6.366
 5249SOL    HW116646   0.372   4.876   6.338
 5249SOL    HW216647   0.518   4.887   6.409
 5250SOL     OW16648   2.263   5.773   0.941
 5250SOL    HW116649   2.299   5.852   0.890
 5250SOL    HW216650   2.278   5.787   1.038
 5251SOL     OW16651   0.810   4.400   1.041
 5251SOL    HW116652   0.735   4.364   1.097
 5251SOL    HW216653   0.785   4.397   0.945
 5252SOL     OW16654   4.135   0.139   2.757
 5252SOL    HW116655   4.155   0.053   2.710
 5252SOL    HW216656   4.180   0.215   2.708
 5253SOL     OW16657   5.925   4.585   4.509
 5253SOL    HW116658   5.995   4.514   4.511
 5253SOL    HW216659   5.842   4.550   4.553
 5254SOL     OW16660   6.008   0.190   2.766
 5254SOL    HW116661   5.940   0.118   2.781
 5254SOL    HW216662   5.989   0.237   2.680
 5255SOL     OW16663   6.416   1.304   4.849
 5255SOL    HW116664   6.488   1.308   4.780
 5255SOL    HW216665   6.329   1.328   4.808
 5256SOL     OW16666   5.718   0.858   2.969
 5256SOL    HW116667   5.721   0.951   2.932
 5256SOL    HW216668   5.695   0.862   3.067
 5257SOL     OW16669   4.493   0.716   5.995
 5257SOL    HW116670   4.393   0.723   6.006
 5257SOL    HW216671   4.537   0.744   6.081
 5258SOL     OW16672   4.672   2.117   2.161
 5258SOL    HW116673   4.671   2.051   2.236
 5258SOL    HW216674   4.629   2.202   2.192
 5259SOL     OW16675   5.008   5.360   2.972
 5259SOL    HW116676   5.009   5.426   2.896
 5259SOL    HW216677   4.946   5.285   2.950
 5260SOL     OW16678   2.333   0.481   0.644
 5260SOL    HW116679   2.402   0.535   0.597
 5260SOL    HW216680   2.375   0.431   0.719
 5261SOL     OW16681   6.502   4.624   0.165
 5261SOL    HW116682   6.415   4.577   0.180
 5261SOL    HW216683   6.576   4.576   0.212
 5262SOL     OW16684   2.501   0.938   2.328
 5262SOL    HW116685   2.448   1.002   2.274
 5262SOL    HW216686   2.553   0.878   2.267
 5263SOL     OW16687   1.924   0.732   3.621
 5263SOL    HW116688   1.888   0.698   3.708
 5263SOL    HW216689   1.850   0.769   3.566
 5264SOL     OW16690   0.044   2.540   1.770
 5264SOL    HW116691   0.048   2.519   1.672
 5264SOL    HW216692   0.072   2.459   1.822
 5265SOL     OW16693   5.726   3.901   4.661
 5265SOL    HW116694   5.773   3.989   4.671
 5265SOL    HW216695   5.793   3.832   4.633
 5266SOL     OW16696   2.537   0.288   0.739
 5266SOL    HW116697   2.600   0.341   0.683
 5266SOL    HW216698   2.587   0.248   0.817
 5267SOL     OW16699   4.457   2.123   4.447
 5267SOL    HW116700   4.501   2.176   4.375
 5267SOL    HW216701   4.514   2.044   4.471
 5268SOL     OW16702   5.723   0.896   6.363
 5268SOL    HW116703   5.627   0.893   6.338
 5268SOL    HW216704   5.733   0.943   6.451
 5269SOL     OW16705   0.386   6.456   2.702
 5269SOL    HW116706   0.388   6.502   2.613
 5269SOL    HW216707   0.296   6.415   2.716
 5270SOL     OW16708   6.859   2.285   6.775
 5270SOL    HW116709   6.865   2.189   6.748
 5270SOL    HW216710   6.940   2.334   6.742
 5271SOL     OW16711   6.217   5.831   4.021
 5271SOL    HW116712   6.132   5.788   3.989
 5271SOL    HW216713   6.285   5.760   4.039
 5272SOL     OW16714   4.505   0.402   6.970
 5272SOL    HW116715   4.546   0.323   7.015
 5272SOL    HW216716   4.576   0.463   6.937
 5273SOL     OW16717   1.139   3.003   2.376
 5273SOL    HW116718   1.140   3.089   2.325
 5273SOL    HW216719   1.189   2.933   2.325
 5274SOL     OW16720   4.534   6.080   2.608
 5274SOL    HW116721   4.523   6.141   2.687
 5274SOL    HW216722   4.587   6.000   2.636
 5275SOL     OW16723   3.778   0.892   6.620
 5275SOL    HW116724   3.709   0.936   6.563
 5275SOL    HW216725   3.842   0.961   6.654
 5276SOL     OW16726   3.203   6.602   2.480
 5276SOL    HW116727   3.235   6.575   2.570
 5276SOL    HW216728   3.277   6.646   2.429
 5277SOL     OW16729   2.091   1.628   2.185
 5277SOL    HW116730   2.002   1.602   2.223
 5277SOL    HW216731   2.078   1.692   2.109
 5278SOL     OW16732   4.470   5.140   1.648
 5278SOL    HW116733   4.500   5.123   1.742
 5278SOL    HW216734   4.510   5.071   1.588
 5279SOL     OW16735   2.730   4.859   1.441
 5279SOL    HW116736   2.637   4.848   1.475
 5279SOL    HW216737   2.795   4.843   1.516
 5280SOL     OW16738   3.931   5.777   5.117
 5280SOL    HW116739   3.858   5.770   5.185
 5280SOL    HW216740   3.953   5.686   5.081
 5281SOL     OW16741   0.729   1.825   1.533
 5281SOL    HW116742   0.802   1.761   1.557
 5281SOL    HW216743   0.641   1.784   1.555
 5282SOL     OW16744   3.361   1.775   3.813
 5282SOL    HW116745   3.451   1.742   3.786
 5282SOL    HW216746   3.302   1.696   3.834
 5283SOL     OW16747   5.258   5.538   6.889
 5283SOL    HW116748   5.347   5.526   6.933
 5283SOL    HW216749   5.215   5.621   6.924
 5284SOL     OW16750   5.924   2.931   2.810
 5284SOL    HW116751   5.979   2.989   2.750
 5284SOL    HW216752   5.831   2.923   2.774
 5285SOL     OW16753   3.295   5.090   3.286
 5285SOL    HW116754   3.370   5.136   3.333
 5285SOL    HW216755   3.311   5.093   3.187
 5286SOL     OW16756   1.995   4.341   1.302
 5286SOL    HW116757   2.091   4.351   1.274
 5286SOL    HW216758   1.942   4.300   1.227
 5287SOL     OW16759   2.061   1.829   0.761
 5287SOL    HW116760   1.967   1.806   0.739
 5287SOL    HW216761   2.108   1.748   0.797
 5288SOL     OW16762   3.816   6.900   1.025
 5288SOL    HW116763   3.813   7.000   1.036
 5288SOL    HW216764   3.786   6.857   1.110
 5289SOL     OW16765   1.872   5.508   1.656
 5289SOL    HW116766   1.966   5.542   1.660
 5289SOL    HW216767   1.872   5.409   1.664
 5290SOL     OW16768   4.511   6.169   0.925
 5290SOL    HW116769   4.586   6.102   0.918
 5290SOL    HW216770   4.437   6.131   0.979
 5291SOL     OW16771   1.748   5.121   6.229
 5291SOL    HW116772   1.823   5.085   6.285
 5291SOL    HW216773   1.774   5.118   6.132
 5292SOL     OW16774   4.553   2.854   5.783
 5292SOL    HW116775   4.631   2.827   5.838
 5292SOL    HW216776   4.470   2.850   5.838
 5293SOL     OW16777   0.915   0.542   4.544
 5293SOL    HW116778   0.983   0.611   4.520
 5293SOL    HW216779   0.901   0.481   4.466
 5294SOL     OW16780   6.353   2.645   5.826
 5294SOL    HW116781   6.321   2.739   5.817
 5294SOL    HW216782   6.275   2.585   5.842
 5295SOL     OW16783   6.522   1.096   2.066
 5295SOL    HW116784   6.432   1.091   2.024
 5295SOL    HW216785   6.528   1.030   2.140
 5296SOL     OW16786   0.655   4.739   1.574
 5296SOL    HW116787   0.607   4.655   1.598
 5296SOL    HW216788   0.589   4.814   1.564
 5297SOL     OW16789   2.084   2.036   1.409
 5297SOL    HW116790   2.136   2.113   1.447
 5297SOL    HW216791   1.987   2.050   1.426
 5298SOL     OW16792   0.887   5.580   1.628
 5298SOL    HW116793   0.931   5.537   1.549
 5298SOL    HW216794   0.846   5.510   1.686
 5299SOL     OW16795   2.925   0.570   2.212
 5299SOL    HW116796   2.875   0.500   2.262
 5299SOL    HW216797   2.951   0.536   2.122
 5300SOL     OW16798   6.394   5.929   3.044
 5300SOL    HW116799   6.296   5.920   3.063
 5300SOL    HW216800   6.446   5.896   3.123
 5301SOL     OW16801   3.957   1.572   6.910
 5301SOL    HW116802   3.898   1.581   6.990
 5301SOL    HW216803   4.044   1.618   6.928
 5302SOL     OW16804   5.891   4.048   2.883
 5302SOL    HW116805   5.864   4.047   2.979
 5302SOL    HW216806   5.854   3.967   2.837
 5303SOL     OW16807   6.776   4.292   3.337
 5303SOL    HW116808   6.688   4.244   3.330
 5303SOL    HW216809   6.802   4.327   3.247
 5304SOL     OW16810   5.308   1.565   5.545
 5304SOL    HW116811   5.289   1.497   5.474
 5304SOL    HW216812   5.276   1.531   5.634
 5305SOL     OW16813   2.429   1.131   3.487
 5305SOL    HW116814   2.426   1.195   3.564
 5305SOL    HW216815   2.517   1.083   3.487
 5306SOL     OW16816   2.531   0.094   5.553
 5306SOL    HW116817   2.574   0.164   5.611
 5306SOL    HW216818   2.442   0.069   5.592
 5307SOL     OW16819   4.942   6.632   7.005
 5307SOL    HW116820   5.042   6.635   7.006
 5307SOL    HW216821   4.907   6.678   0.066
 5308SOL     OW16822   0.115   1.547   2.398
 5308SOL    HW116823   0.188   1.583   2.339
 5308SOL    HW216824   0.090   1.616   2.466
 5309SOL     OW16825   3.457   4.084   3.599
 5309SOL    HW116826   3.368   4.073   3.642
 5309SOL    HW216827   3.449   4.150   3.524
 5310SOL     OW16828   4.770   2.264   0.910
 5310SOL    HW116829   4.821   2.350   0.900
 5310SOL    HW216830   4.820   2.190   0.866
 5311SOL     OW16831   1.073   5.546   0.015
 5311SOL    HW116832   1.066   5.600   6.953
 5311SOL    HW216833   1.169   5.538   0.042
 5312SOL     OW16834   0.477   3.863   3.212
 5312SOL    HW116835   0.530   3.927   3.156
 5312SOL    HW216836   0.486   3.889   3.309
 5313SOL     OW16837   1.199   5.617   0.715
 5313SOL    HW116838   1.111   5.660   0.697
 5313SOL    HW216839   1.198   5.573   0.804
 5314SOL     OW16840   3.941   5.122   1.019
 5314SOL    HW116841   3.941   5.137   1.117
 5314SOL    HW216842   3.897   5.034   0.999
 5315SOL     OW16843   5.370   2.583   2.069
 5315SOL    HW116844   5.406   2.492   2.090
 5315SOL    HW216845   5.325   2.581   1.980
 5316SOL     OW16846   6.407   4.630   3.832
 5316SOL    HW116847   6.424   4.694   3.757
 5316SOL    HW216848   6.379   4.680   3.913
 5317SOL     OW16849   5.779   6.617   2.468
 5317SOL    HW116850   5.878   6.630   2.454
 5317SOL    HW216851   5.745   6.548   2.404
 5318SOL     OW16852   0.595   2.595   4.537
 5318SOL    HW116853   0.566   2.673   4.481
 5318SOL    HW216854   0.641   2.528   4.479
 5319SOL     OW16855   4.819   0.537   0.647
 5319SOL    HW116856   4.768   0.503   0.726
 5319SOL    HW216857   4.908   0.570   0.677
 5320SOL     OW16858   5.882   3.088   5.735
 5320SOL    HW116859   5.957   3.155   5.736
 5320SOL    HW216860   5.901   3.017   5.667
 5321SOL     OW16861   2.002   5.624   6.084
 5321SOL    HW116862   2.058   5.550   6.046
 5321SOL    HW216863   1.941   5.660   6.014
 5322SOL     OW16864   3.229   5.929   0.292
 5322SOL    HW116865   3.166   5.962   0.221
 5322SOL    HW216866   3.221   5.830   0.300
 5323SOL     OW16867   5.229   3.077   0.743
 5323SOL    HW116868   5.328   3.090   0.736
 5323SOL    HW216869   5.183   3.136   0.677
 5324SOL     OW16870   3.926   3.379   1.735
 5324SOL    HW116871   3.889   3.471   1.747
 5324SOL    HW216872   3.869   3.313   1.783
 5325SOL     OW16873   5.157   5.811   3.130
 5325SOL    HW116874   5.211   5.866   3.067
 5325SOL    HW216875   5.060   5.817   3.106
 5326SOL     OW16876   6.781   6.191   1.579
 5326SOL    HW116877   6.868   6.147   1.604
 5326SOL    HW216878   6.710   6.162   1.642
 5327SOL     OW16879   6.765   0.879   3.567
 5327SOL    HW116880   6.685   0.857   3.623
 5327SOL    HW216881   6.825   0.799   3.562
 5328SOL     OW16882   3.821   4.630   0.824
 5328SOL    HW116883   3.721   4.629   0.834
 5328SOL    HW216884   3.845   4.594   0.733
 5329SOL     OW16885   0.089   4.681   0.117
 5329SOL    HW116886   7.011   4.664   0.115
 5329SOL    HW216887   0.106   4.773   0.152
 5330SOL     OW16888   4.825   4.560   1.098
 5330SOL    HW116889   4.742   4.615   1.100
 5330SOL    HW216890   4.905   4.621   1.101
 5331SOL     OW16891   4.539   3.630   6.753
 5331SOL    HW116892   4.605   3.650   6.680
 5331SOL    HW216893   4.516   3.714   6.801
 5332SOL     OW16894   5.954   3.345   0.146
 5332SOL    HW116895   5.896   3.265   0.160
 5332SOL    HW216896   5.937   3.383   0.055
 5333SOL     OW16897   1.611   1.581   4.053
 5333SOL    HW116898   1.581   1.652   4.117
 5333SOL    HW216899   1.620   1.494   4.101
 5334SOL     OW16900   4.497   5.272   2.189
 5334SOL    HW116901   4.449   5.215   2.256
 5334SOL    HW216902   4.478   5.368   2.208
 5335SOL     OW16903   0.209   4.307   1.315
 5335SOL    HW116904   0.168   4.345   1.232
 5335SOL    HW216905   0.294   4.356   1.336
 5336SOL     OW16906   1.397   3.528   4.174
 5336SOL    HW116907   1.379   3.431   4.188
 5336SOL    HW216908   1.354   3.581   4.246
 5337SOL     OW16909   6.619   4.472   1.047
 5337SOL    HW116910   6.610   4.382   1.090
 5337SOL    HW216911   6.711   4.480   1.007
 5338SOL     OW16912   6.781   3.355   0.978
 5338SOL    HW116913   6.853   3.408   0.933
 5338SOL    HW216914   6.766   3.270   0.926
 5339SOL     OW16915   5.671   3.331   3.135
 5339SOL    HW116916   5.737   3.264   3.099
 5339SOL    HW216917   5.591   3.283   3.170
 5340SOL     OW16918   5.513   2.304   2.116
 5340SOL    HW116919   5.582   2.344   2.055
 5340SOL    HW216920   5.488   2.213   2.083
 5341SOL     OW16921   4.127   5.640   4.071
 5341SOL    HW116922   4.183   5.559   4.055
 5341SOL    HW216923   4.093   5.676   3.984
 5342SOL     OW16924   6.007   6.696   4.217
 5342SOL    HW116925   6.045   6.636   4.146
 5342SOL    HW216926   5.967   6.777   4.175
 5343SOL     OW16927   3.741   3.393   6.939
 5343SOL    HW116928   3.689   3.362   7.019
 5343SOL    HW216929   3.741   3.493   6.936
 5344SOL     OW16930   1.691   1.985   5.948
 5344SOL    HW116931   1.786   1.958   5.932
 5344SOL    HW216932   1.682   2.025   6.039
 5345SOL     OW16933   4.857   2.506   7.019
 5345SOL    HW116934   4.915   2.584   0.021
 5345SOL    HW216935   4.761   2.534   7.021
 5346SOL     OW16936   3.164   5.665   3.762
 5346SOL    HW116937   3.214   5.670   3.676
 5346SOL    HW216938   3.066   5.671   3.744
 5347SOL     OW16939   5.926   1.493   4.080
 5347SOL    HW116940   5.832   1.495   4.045
 5347SOL    HW216941   5.985   1.450   4.012
 5348SOL     OW16942   5.464   2.056   2.791
 5348SOL    HW116943   5.512   2.039   2.705
 5348SOL    HW216944   5.398   2.131   2.779
 5349SOL     OW16945   0.474   3.837   2.525
 5349SOL    HW116946   0.570   3.821   2.501
 5349SOL    HW216947   0.454   3.793   2.612
 5350SOL     OW16948   1.343   6.148   6.992
 5350SOL    HW116949   1.401   6.071   6.965
 5350SOL    HW216950   1.394   6.207   0.033
 5351SOL     OW16951   6.717   6.255   2.131
 5351SOL    HW116952   6.745   6.219   2.220
 5351SOL    HW216953   6.618   6.269   2.130
 5352SOL     OW16954   1.179   3.388   5.034
 5352SOL    HW116955   1.105   3.392   4.967
 5352SOL    HW216956   1.215   3.295   5.038
 5353SOL     OW16957   3.856   5.269   3.619
 5353SOL    HW116958   3.897   5.195   3.566
 5353SOL    HW216959   3.888   5.264   3.713
 5354SOL     OW16960   4.577   5.865   1.099
 5354SOL    HW116961   4.627   5.780   1.119
 5354SOL    HW216962   4.602   5.935   1.166
 5355SOL     OW16963   4.944   4.383   5.198
 5355SOL    HW116964   4.990   4.469   5.221
 5355SOL    HW216965   4.938   4.374   5.099
 5356SOL     OW16966   0.496   4.915   1.329
 5356SOL    HW116967   0.534   4.999   1.290
 5356SOL    HW216968   0.466   4.854   1.256
 5357SOL     OW16969   5.556   3.514   2.249
 5357SOL    HW116970   5.574   3.433   2.193
 5357SOL    HW216971   5.460   3.516   2.275
 5358SOL     OW16972   4.182   2.010   6.993
 5358SOL    HW116973   4.118   2.031   6.919
 5358SOL    HW216974   4.260   2.072   6.989
 5359SOL     OW16975   3.138   2.030   6.737
 5359SOL    HW116976   3.209   1.964   6.759
 5359SOL    HW216977   3.064   2.021   6.804
 5360SOL     OW16978   5.218   4.148   3.285
 5360SOL    HW116979   5.137   4.136   3.228
 5360SOL    HW216980   5.192   4.139   3.381
 5361SOL     OW16981   2.526   5.620   2.365
 5361SOL    HW116982   2.575   5.634   2.451
 5361SOL    HW216983   2.553   5.532   2.325
 5362SOL     OW16984   5.821   0.698   1.780
 5362SOL    HW116985   5.898   0.634   1.790
 5362SOL    HW216986   5.799   0.739   1.868
 5363SOL     OW16987   5.537   5.461   3.544
 5363SOL    HW116988   5.521   5.416   3.456
 5363SOL    HW216989   5.462   5.523   3.564
 5364SOL     OW16990   4.701   1.466   2.474
 5364SOL    HW116991   4.628   1.527   2.505
 5364SOL    HW216992   4.734   1.411   2.551
 5365SOL     OW16993   3.890   2.966   3.441
 5365SOL    HW116994   3.794   2.980   3.417
 5365SOL    HW216995   3.895   2.919   3.529
 5366SOL     OW16996   6.496   6.426   2.687
 5366SOL    HW116997   6.438   6.508   2.688
 5366SOL    HW216998   6.545   6.422   2.600
 5367SOL     OW16999   6.606   5.684   1.561
 5367SOL    HW117000   6.641   5.628   1.635
 5367SOL    HW217001   6.678   5.745   1.528
 5368SOL     OW17002   6.612   5.867   3.863
 5368SOL    HW117003   6.571   5.943   3.913
 5368SOL    HW217004   6.576   5.781   3.898
 5369SOL     OW17005   2.800   5.822   2.480
 5369SOL    HW117006   2.814   5.782   2.389
 5369SOL    HW217007   2.843   5.911   2.484
 5370SOL     OW17008   1.742   3.721   1.144
 5370SOL    HW117009   1.666   3.693   1.085
 5370SOL    HW217010   1.725   3.812   1.181
 5371SOL     OW17011   5.579   5.597   4.480
 5371SOL    HW117012   5.666   5.635   4.511
 5371SOL    HW217013   5.508   5.614   4.549
 5372SOL     OW17014   1.080   6.906   3.113
 5372SOL    HW117015   1.114   6.973   3.178
 5372SOL    HW217016   1.040   6.829   3.162
 5373SOL     OW17017   3.606   1.448   6.674
 5373SOL    HW117018   3.599   1.547   6.671
 5373SOL    HW217019   3.647   1.414   6.589
 5374SOL     OW17020   2.181   4.938   2.741
 5374SOL    HW117021   2.258   4.883   2.708
 5374SOL    HW217022   2.095   4.890   2.722
 5375SOL     OW17023   1.485   4.767   4.298
 5375SOL    HW117024   1.557   4.729   4.357
 5375SOL    HW217025   1.524   4.837   4.238
 5376SOL     OW17026   0.583   0.190   6.462
 5376SOL    HW117027   0.485   0.166   6.458
 5376SOL    HW217028   0.636   0.108   6.484
 5377SOL     OW17029   2.338   0.841   3.392
 5377SOL    HW117030   2.361   0.929   3.433
 5377SOL    HW217031   2.417   0.806   3.341
 5378SOL     OW17032   4.874   1.118   2.322
 5378SOL    HW117033   4.812   1.190   2.293
 5378SOL    HW217034   4.824   1.053   2.380
 5379SOL     OW17035   1.552   2.129   6.253
 5379SOL    HW117036   1.569   2.190   6.331
 5379SOL    HW217037   1.523   2.039   6.286
 5380SOL     OW17038   4.179   6.556   1.223
 5380SOL    HW117039   4.144   6.567   1.130
 5380SOL    HW217040   4.264   6.607   1.233
 5381SOL     OW17041   4.572   7.012   3.689
 5381SOL    HW117042   4.658   6.968   3.666
 5381SOL    HW217043   4.501   6.982   3.626
 5382SOL     OW17044   3.994   1.639   1.780
 5382SOL    HW117045   3.907   1.589   1.769
 5382SOL    HW217046   4.043   1.640   1.694
 5383SOL     OW17047   1.878   2.598   4.720
 5383SOL    HW117048   1.881   2.499   4.733
 5383SOL    HW217049   1.789   2.633   4.751
 5384SOL     OW17050   5.789   5.548   4.089
 5384SOL    HW117051   5.787   5.452   4.061
 5384SOL    HW217052   5.696   5.582   4.102
 5385SOL     OW17053   4.043   2.628   5.780
 5385SOL    HW117054   4.005   2.668   5.863
 5385SOL    HW217055   3.971   2.620   5.711
 5386SOL     OW17056   5.902   4.530   3.635
 5386SOL    HW117057   5.865   4.561   3.722
 5386SOL    HW217058   5.832   4.539   3.564
 5387SOL     OW17059   1.740   0.869   3.462
 5387SOL    HW117060   1.710   0.950   3.413
 5387SOL    HW217061   1.677   0.793   3.444
 5388SOL     OW17062   0.819   6.121   1.956
 5388SOL    HW117063   0.906   6.156   1.992
 5388SOL    HW217064   0.746   6.137   2.023
 5389SOL     OW17065   4.749   1.906   4.077
 5389SOL    HW117066   4.765   1.811   4.102
 5389SOL    HW217067   4.746   1.915   3.978
 5390SOL     OW17068   0.319   2.765   2.947
 5390SOL    HW117069   0.363   2.703   3.012
 5390SOL    HW217070   0.384   2.790   2.875
 5391SOL     OW17071   2.566   3.531   0.237
 5391SOL    HW117072   2.480   3.484   0.221
 5391SOL    HW217073   2.550   3.630   0.240
 5392SOL     OW17074   5.326   1.940   3.790
 5392SOL    HW117075   5.314   1.841   3.801
 5392SOL    HW217076   5.423   1.960   3.778
 5393SOL     OW17077   3.955   1.655   5.038
 5393SOL    HW117078   3.950   1.722   4.963
 5393SOL    HW217079   3.905   1.690   5.117
 5394SOL     OW17080   1.750   1.810   1.195
 5394SOL    HW117081   1.677   1.757   1.238
 5394SOL    HW217082   1.728   1.825   1.099
 5395SOL     OW17083   6.428   1.754   1.044
 5395SOL    HW117084   6.494   1.809   1.096
 5395SOL    HW217085   6.399   1.676   1.099
 5396SOL     OW17086   5.410   4.432   1.821
 5396SOL    HW117087   5.479   4.362   1.839
 5396SOL    HW217088   5.324   4.408   1.867
 5397SOL     OW17089   0.639   1.425   2.546
 5397SOL    HW117090   0.680   1.345   2.591
 5397SOL    HW217091   0.694   1.451   2.467
 5398SOL     OW17092   5.527   1.582   2.589
 5398SOL    HW117093   5.596   1.565   2.518
 5398SOL    HW217094   5.458   1.511   2.586
 5399SOL     OW17095   1.952   0.981   6.707
 5399SOL    HW117096   1.963   0.900   6.649
 5399SOL    HW217097   1.982   0.960   6.800
 5400SOL     OW17098   4.557   3.537   1.625
 5400SOL    HW117099   4.643   3.556   1.672
 5400SOL    HW217100   4.515   3.622   1.595
 5401SOL     OW17101   5.611   3.403   0.946
 5401SOL    HW117102   5.514   3.386   0.932
 5401SOL    HW217103   5.663   3.321   0.921
 5402SOL     OW17104   1.117   6.336   1.781
 5402SOL    HW117105   1.024   6.356   1.749
 5402SOL    HW217106   1.119   6.246   1.824
 5403SOL     OW17107   4.756   3.222   0.097
 5403SOL    HW117108   4.746   3.175   0.009
 5403SOL    HW217109   4.830   3.288   0.091
 5404SOL     OW17110   6.470   1.106   0.532
 5404SOL    HW117111   6.478   1.182   0.597
 5404SOL    HW217112   6.544   1.041   0.548
 5405SOL     OW17113   6.419   5.380   6.932
 5405SOL    HW117114   6.486   5.320   6.976
 5405SOL    HW217115   6.364   5.327   6.867
 5406SOL     OW17116   2.508   0.632   5.464
 5406SOL    HW117117   2.544   0.594   5.549
 5406SOL    HW217118   2.575   0.693   5.423
 5407SOL     OW17119   2.146   0.326   3.033
 5407SOL    HW117120   2.131   0.288   3.124
 5407SOL    HW217121   2.234   0.292   2.997
 5408SOL     OW17122   3.566   2.084   4.150
 5408SOL    HW117123   3.536   1.989   4.140
 5408SOL    HW217124   3.599   2.117   4.062
 5409SOL     OW17125   0.818   2.717   1.410
 5409SOL    HW117126   0.811   2.805   1.458
 5409SOL    HW217127   0.782   2.645   1.469
 5410SOL     OW17128   1.055   2.358   0.705
 5410SOL    HW117129   1.029   2.261   0.702
 5410SOL    HW217130   1.154   2.366   0.697
 5411SOL     OW17131   3.083   5.424   6.851
 5411SOL    HW117132   3.128   5.389   6.769
 5411SOL    HW217133   3.151   5.443   6.921
 5412SOL     OW17134   0.082   1.833   6.190
 5412SOL    HW117135   0.171   1.860   6.152
 5412SOL    HW217136   0.013   1.836   6.118
 5413SOL     OW17137   6.483   6.055   4.873
 5413SOL    HW117138   6.453   6.138   4.826
 5413SOL    HW217139   6.582   6.044   4.862
 5414SOL     OW17140   5.544   3.992   5.677
 5414SOL    HW117141   5.600   3.913   5.699
 5414SOL    HW217142   5.454   3.982   5.721
 5415SOL     OW17143   4.596   0.871   0.332
 5415SOL    HW117144   4.577   0.777   0.362
 5415SOL    HW217145   4.690   0.877   0.299
 5416SOL     OW17146   3.391   6.084   6.478
 5416SOL    HW117147   3.446   6.166   6.497
 5416SOL    HW217148   3.429   6.036   6.399
 5417SOL     OW17149   4.232   6.749   4.221
 5417SOL    HW117150   4.199   6.840   4.195
 5417SOL    HW217151   4.205   6.683   4.150
 5418SOL     OW17152   6.321   3.254   4.212
 5418SOL    HW117153   6.334   3.282   4.117
 5418SOL    HW217154   6.384   3.179   4.233
 5419SOL     OW17155   4.952   6.470   6.562
 5419SOL    HW117156   5.029   6.418   6.525
 5419SOL    HW217157   4.902   6.513   6.487
 5420SOL     OW17158   0.918   1.097   1.860
 5420SOL    HW117159   0.974   1.152   1.922
 5420SOL    HW217160   0.959   1.006   1.850
 5421SOL     OW17161   4.164   4.719   2.178
 5421SOL    HW117162   4.149   4.663   2.260
 5421SOL    HW217163   4.148   4.815   2.201
 5422SOL     OW17164   3.210   5.260   3.780
 5422SOL    HW117165   3.248   5.211   3.859
 5422SOL    HW217166   3.111   5.263   3.786
 5423SOL     OW17167   5.345   6.273   1.769
 5423SOL    HW117168   5.420   6.320   1.817
 5423SOL    HW217169   5.378   6.240   1.681
 5424SOL     OW17170   4.271   3.947   5.546
 5424SOL    HW117171   4.233   3.947   5.639
 5424SOL    HW217172   4.369   3.929   5.550
 5425SOL     OW17173   1.579   4.138   5.673
 5425SOL    HW117174   1.656   4.078   5.653
 5425SOL    HW217175   1.571   4.207   5.601
 5426SOL     OW17176   6.057   5.131   1.389
 5426SOL    HW117177   6.112   5.196   1.335
 5426SOL    HW217178   6.057   5.160   1.484
 5427SOL     OW17179   4.899   2.251   6.314
 5427SOL    HW117180   4.803   2.245   6.284
 5427SOL    HW217181   4.950   2.174   6.275
 5428SOL     OW17182   6.094   5.784   2.741
 5428SOL    HW117183   6.019   5.727   2.776
 5428SOL    HW217184   6.069   5.820   2.651
 5429SOL     OW17185   3.706   0.555   4.866
 5429SOL    HW117186   3.670   0.478   4.918
 5429SOL    HW217187   3.632   0.616   4.840
 5430SOL     OW17188   2.596   3.849   5.708
 5430SOL    HW117189   2.669   3.781   5.704
 5430SOL    HW217190   2.546   3.850   5.622
 5431SOL     OW17191   3.253   4.511   0.019
 5431SOL    HW117192   3.283   4.553   0.105
 5431SOL    HW217193   3.272   4.413   0.021
 5432SOL     OW17194   6.841   5.357   0.122
 5432SOL    HW117195   6.819   5.426   0.191
 5432SOL    HW217196   6.840   5.266   0.165
 5433SOL     OW17197   2.118   0.318   1.727
 5433SOL    HW117198   2.081   0.400   1.770
 5433SOL    HW217199   2.094   0.317   1.630
 5434SOL     OW17200   5.860   0.141   5.307
 5434SOL    HW117201   5.891   0.227   5.266
 5434SOL    HW217202   5.868   0.067   5.241
 5435SOL     OW17203   0.088   4.534   0.855
 5435SOL    HW117204   0.165   4.594   0.877
 5435SOL    HW217205   0.117   4.468   0.785
 5436SOL     OW17206   1.513   4.976   2.530
 5436SOL    HW117207   1.559   4.942   2.612
 5436SOL    HW217208   1.516   4.906   2.459
 5437SOL     OW17209   3.491   5.513   1.306
 5437SOL    HW117210   3.402   5.473   1.329
 5437SOL    HW217211   3.477   5.592   1.246
 5438SOL     OW17212   4.173   6.217   2.632
 5438SOL    HW117213   4.170   6.175   2.542
 5438SOL    HW217214   4.259   6.193   2.678
 5439SOL     OW17215   1.220   4.824   1.997
 5439SOL    HW117216   1.129   4.860   1.975
 5439SOL    HW217217   1.228   4.731   1.961
 5440SOL     OW17218   6.560   6.507   3.589
 5440SOL    HW117219   6.552   6.540   3.683
 5440SOL    HW217220   6.491   6.436   3.574
 5441SOL     OW17221   6.016   3.246   4.139
 5441SOL    HW117222   6.081   3.318   4.115
 5441SOL    HW217223   6.041   3.161   4.091
 5442SOL     OW17224   4.199   0.422   5.582
 5442SOL    HW117225   4.283   0.477   5.585
 5442SOL    HW217226   4.125   0.473   5.625
 5443SOL     OW17227   4.584   0.990   3.649
 5443SOL    HW117228   4.510   0.924   3.665
 5443SOL    HW217229   4.598   1.002   3.551
 5444SOL     OW17230   6.372   0.936   4.714
 5444SOL    HW117231   6.318   0.857   4.744
 5444SOL    HW217232   6.310   1.012   4.692
 5445SOL     OW17233   5.938   5.987   4.049
 5445SOL    HW117234   6.027   6.033   4.038
 5445SOL    HW217235   5.888   6.028   4.125
 5446SOL     OW17236   7.004   4.444   6.016
 5446SOL    HW117237   0.081   4.456   6.020
 5446SOL    HW217238   6.965   4.448   6.108
 5447SOL     OW17239   1.426   2.450   0.805
 5447SOL    HW117240   1.492   2.459   0.730
 5447SOL    HW217241   1.383   2.360   0.800
 5448SOL     OW17242   4.092   5.214   3.045
 5448SOL    HW117243   4.173   5.169   3.082
 5448SOL    HW217244   4.021   5.145   3.029
 5449SOL     OW17245   3.251   1.428   1.849
 5449SOL    HW117246   3.235   1.508   1.908
 5449SOL    HW217247   3.349   1.418   1.832
 5450SOL     OW17248   3.742   5.897   1.544
 5450SOL    HW117249   3.826   5.843   1.547
 5450SOL    HW217250   3.763   5.990   1.515
 5451SOL     OW17251   7.019   0.185   2.684
 5451SOL    HW117252   6.924   0.158   2.664
 5451SOL    HW217253   0.002   0.223   2.776
 5452SOL     OW17254   2.220   4.270   1.910
 5452SOL    HW117255   2.180   4.268   2.002
 5452SOL    HW217256   2.239   4.365   1.884
 5453SOL     OW17257   5.761   3.837   2.777
 5453SOL    HW117258   5.714   3.898   2.713
 5453SOL    HW217259   5.697   3.809   2.848
 5454SOL     OW17260   5.604   4.778   2.146
 5454SOL    HW117261   5.632   4.759   2.240
 5454SOL    HW217262   5.630   4.701   2.087
 5455SOL     OW17263   1.671   1.859   3.996
 5455SOL    HW117264   1.699   1.918   4.072
 5455SOL    HW217265   1.654   1.767   4.031
 5456SOL     OW17266   5.915   1.510   0.958
 5456SOL    HW117267   5.913   1.590   0.898
 5456SOL    HW217268   5.938   1.429   0.905
 5457SOL     OW17269   5.630   1.457   6.660
 5457SOL    HW117270   5.647   1.368   6.703
 5457SOL    HW217271   5.533   1.463   6.634
 5458SOL     OW17272   6.165   3.909   0.142
 5458SOL    HW117273   6.078   3.860   0.137
 5458SOL    HW217274   6.150   4.000   0.179
 5459SOL     OW17275   1.846   3.440   5.538
 5459SOL    HW117276   1.923   3.429   5.601
 5459SOL    HW217277   1.855   3.374   5.463
 5460SOL     OW17278   1.368   0.979   1.235
 5460SOL    HW117279   1.441   1.023   1.288
 5460SOL    HW217280   1.408   0.924   1.162
 5461SOL     OW17281   6.798   1.161   5.141
 5461SOL    HW117282   6.707   1.132   5.110
 5461SOL    HW217283   6.854   1.184   5.061
 5462SOL     OW17284   4.858   4.467   5.853
 5462SOL    HW117285   4.832   4.379   5.892
 5462SOL    HW217286   4.953   4.488   5.877
 5463SOL     OW17287   1.552   3.119   0.078
 5463SOL    HW117288   1.500   3.096   0.161
 5463SOL    HW217289   1.493   3.109   7.019
 5464SOL     OW17290   0.737   5.887   5.828
 5464SOL    HW117291   0.667   5.942   5.783
 5464SOL    HW217292   0.811   5.868   5.762
 5465SOL     OW17293   6.349   6.345   3.581
 5465SOL    HW117294   6.262   6.319   3.540
 5465SOL    HW217295   6.379   6.272   3.643
 5466SOL     OW17296   5.951   2.393   5.292
 5466SOL    HW117297   6.016   2.320   5.309
 5466SOL    HW217298   5.868   2.355   5.250
 5467SOL     OW17299   4.797   3.010   4.348
 5467SOL    HW117300   4.828   3.062   4.428
 5467SOL    HW217301   4.701   3.031   4.330
 5468SOL     OW17302   0.064   2.042   1.538
 5468SOL    HW117303   0.161   2.061   1.524
 5468SOL    HW217304   0.026   2.000   1.456
 5469SOL     OW17305   2.952   0.572   5.306
 5469SOL    HW117306   3.029   0.629   5.334
 5469SOL    HW217307   2.938   0.499   5.373
 5470SOL     OW17308   3.603   5.592   3.317
 5470SOL    HW117309   3.536   5.661   3.289
 5470SOL    HW217310   3.580   5.559   3.409
 5471SOL     OW17311   4.703   1.106   3.267
 5471SOL    HW117312   4.637   1.145   3.202
 5471SOL    HW217313   4.676   1.013   3.290
 5472SOL     OW17314   2.487   2.075   6.663
 5472SOL    HW117315   2.495   2.052   6.565
 5472SOL    HW217316   2.488   2.174   6.674
 5473SOL     OW17317   2.640   4.423   1.708
 5473SOL    HW117318   2.593   4.338   1.730
 5473SOL    HW217319   2.719   4.434   1.769
 5474SOL     OW17320   1.231   5.520   3.482
 5474SOL    HW117321   1.285   5.499   3.401
 5474SOL    HW217322   1.134   5.528   3.457
 5475SOL     OW17323   6.736   1.862   5.269
 5475SOL    HW117324   6.796   1.788   5.240
 5475SOL    HW217325   6.781   1.950   5.253
 5476SOL     OW17326   2.745   6.807   5.854
 5476SOL    HW117327   2.690   6.864   5.914
 5476SOL    HW217328   2.750   6.848   5.763
 5477SOL     OW17329   1.688   4.422   4.044
 5477SOL    HW117330   1.743   4.400   3.964
 5477SOL    HW217331   1.624   4.495   4.022
 5478SOL     OW17332   5.708   4.165   5.317
 5478SOL    HW117333   5.738   4.071   5.303
 5478SOL    HW217334   5.617   4.164   5.359
 5479SOL     OW17335   3.527   1.198   4.971
 5479SOL    HW117336   3.569   1.272   4.918
 5479SOL    HW217337   3.446   1.165   4.923
 5480SOL     OW17338   0.235   3.890   4.285
 5480SOL    HW117339   0.236   3.790   4.282
 5480SOL    HW217340   0.228   3.926   4.192
 5481SOL     OW17341   4.581   0.886   6.891
 5481SOL    HW117342   4.605   0.854   6.800
 5481SOL    HW217343   4.552   0.808   6.947
 5482SOL     OW17344   4.644   3.187   0.653
 5482SOL    HW117345   4.631   3.131   0.734
 5482SOL    HW217346   4.675   3.130   0.577
 5483SOL     OW17347   0.387   3.304   5.261
 5483SOL    HW117348   0.337   3.343   5.184
 5483SOL    HW217349   0.331   3.234   5.305
 5484SOL     OW17350   6.081   6.221   3.686
 5484SOL    HW117351   6.073   6.238   3.588
 5484SOL    HW217352   6.168   6.176   3.705
 5485SOL     OW17353   3.582   6.827   5.580
 5485SOL    HW117354   3.516   6.897   5.553
 5485SOL    HW217355   3.673   6.868   5.589
 5486SOL     OW17356   0.744   1.007   3.490
 5486SOL    HW117357   0.653   1.012   3.532
 5486SOL    HW217358   0.804   0.951   3.548
 5487SOL     OW17359   5.890   4.801   0.198
 5487SOL    HW117360   5.873   4.745   0.117
 5487SOL    HW217361   5.836   4.766   0.274
 5488SOL     OW17362   5.151   1.864   6.671
 5488SOL    HW117363   5.131   1.883   6.766
 5488SOL    HW217364   5.126   1.942   6.614
 5489SOL     OW17365   1.386   4.745   2.856
 5489SOL    HW117366   1.344   4.664   2.815
 5489SOL    HW217367   1.372   4.743   2.955
 5490SOL     OW17368   2.281   1.579   0.994
 5490SOL    HW117369   2.258   1.570   0.897
 5490SOL    HW217370   2.379   1.594   1.004
 5491SOL     OW17371   1.116   4.735   0.919
 5491SOL    HW117372   1.187   4.771   0.859
 5491SOL    HW217373   1.041   4.801   0.924
 5492SOL     OW17374   0.790   1.097   6.392
 5492SOL    HW117375   0.872   1.145   6.425
 5492SOL    HW217376   0.723   1.163   6.359
 5493SOL     OW17377   3.661   3.702   6.938
 5493SOL    HW117378   3.736   3.709   7.004
 5493SOL    HW217379   3.647   3.791   6.894
 5494SOL     OW17380   5.530   3.291   1.464
 5494SOL    HW117381   5.570   3.320   1.377
 5494SOL    HW217382   5.465   3.359   1.496
 5495SOL     OW17383   3.801   3.428   2.640
 5495SOL    HW117384   3.897   3.401   2.632
 5495SOL    HW217385   3.794   3.503   2.705
 5496SOL     OW17386   3.457   6.248   1.542
 5496SOL    HW117387   3.491   6.187   1.471
 5496SOL    HW217388   3.390   6.200   1.598
 5497SOL     OW17389   7.017   0.897   2.062
 5497SOL    HW117390   7.019   0.997   2.064
 5497SOL    HW217391   0.042   0.865   1.980
 5498SOL     OW17392   4.572   1.330   5.642
 5498SOL    HW117393   4.662   1.295   5.670
 5498SOL    HW217394   4.553   1.414   5.691
 5499SOL     OW17395   6.965   1.536   3.193
 5499SOL    HW117396   6.989   1.597   3.117
 5499SOL    HW217397   0.024   1.481   3.218
 5500SOL     OW17398   1.987   5.802   1.190
 5500SOL    HW117399   2.043   5.779   1.111
 5500SOL    HW217400   1.977   5.722   1.249
 5501SOL     OW17401   3.052   0.811   2.062
 5501SOL    HW117402   3.006   0.764   2.137
 5501SOL    HW217403   3.051   0.909   2.079
 5502SOL     OW17404   5.741   3.818   5.795
 5502SOL    HW117405   5.840   3.829   5.785
 5502SOL    HW217406   5.716   3.724   5.770
 5503SOL     OW17407   1.446   5.253   3.247
 5503SOL    HW117408   1.471   5.191   3.322
 5503SOL    HW217409   1.452   5.347   3.279
 5504SOL     OW17410   3.029   1.653   4.526
 5504SOL    HW117411   3.029   1.727   4.593
 5504SOL    HW217412   2.971   1.578   4.558
 5505SOL     OW17413   3.406   5.686   5.968
 5505SOL    HW117414   3.338   5.723   6.030
 5505SOL    HW217415   3.446   5.760   5.914
 5506SOL     OW17416   5.989   0.494   5.777
 5506SOL    HW117417   5.904   0.461   5.736
 5506SOL    HW217418   5.969   0.574   5.834
 5507SOL     OW17419   2.249   6.433   3.754
 5507SOL    HW117420   2.341   6.460   3.782
 5507SOL    HW217421   2.198   6.400   3.833
 5508SOL     OW17422   3.123   0.888   6.265
 5508SOL    HW117423   3.031   0.859   6.239
 5508SOL    HW217424   3.146   0.972   6.216
 5509SOL     OW17425   6.069   6.520   6.464
 5509SOL    HW117426   6.019   6.434   6.454
 5509SOL    HW217427   6.140   6.527   6.394
 5510SOL     OW17428   5.626   0.126   6.277
 5510SOL    HW117429   5.725   0.116   6.293
 5510SOL    HW217430   5.593   0.210   6.318
 5511SOL     OW17431   0.793   0.877   2.425
 5511SOL    HW117432   0.761   0.911   2.336
 5511SOL    HW217433   0.853   0.799   2.410
 5512SOL     OW17434   0.916   0.694   6.676
 5512SOL    HW117435   0.863   0.650   6.748
 5512SOL    HW217436   1.013   0.695   6.702
 5513SOL     OW17437   4.763   4.266   4.509
 5513SOL    HW117438   4.786   4.170   4.525
 5513SOL    HW217439   4.814   4.324   4.572
 5514SOL     OW17440   5.207   4.791   1.959
 5514SOL    HW117441   5.169   4.881   1.984
 5514SOL    HW217442   5.138   4.721   1.975
 5515SOL     OW17443   6.421   2.717   1.868
 5515SOL    HW117444   6.501   2.751   1.818
 5515SOL    HW217445   6.449   2.690   1.960
 5516SOL     OW17446   1.213   3.589   6.868
 5516SOL    HW117447   1.140   3.655   6.883
 5516SOL    HW217448   1.190   3.531   6.790
 5517SOL     OW17449   2.877   1.436   1.556
 5517SOL    HW117450   2.887   1.427   1.457
 5517SOL    HW217451   2.933   1.512   1.588
 5518SOL     OW17452   6.026   4.847   5.130
 5518SOL    HW117453   5.932   4.815   5.143
 5518SOL    HW217454   6.032   4.897   5.043
 5519SOL     OW17455   5.549   3.900   3.828
 5519SOL    HW117456   5.477   3.842   3.791
 5519SOL    HW217457   5.564   3.877   3.924
 5520SOL     OW17458   0.907   4.284   1.832
 5520SOL    HW117459   0.842   4.299   1.907
 5520SOL    HW217460   0.993   4.250   1.870
 5521SOL     OW17461   5.816   5.445   1.719
 5521SOL    HW117462   5.817   5.500   1.635
 5521SOL    HW217463   5.804   5.506   1.798
 5522SOL     OW17464   2.565   3.368   1.727
 5522SOL    HW117465   2.614   3.454   1.741
 5522SOL    HW217466   2.476   3.373   1.773
 5523SOL     OW17467   3.287   0.453   2.591
 5523SOL    HW117468   3.244   0.445   2.502
 5523SOL    HW217469   3.321   0.363   2.620
 5524SOL     OW17470   6.998   4.833   6.353
 5524SOL    HW117471   7.016   4.851   6.450
 5524SOL    HW217472   0.035   4.757   6.322
 5525SOL     OW17473   6.521   5.487   5.818
 5525SOL    HW117474   6.511   5.538   5.903
 5525SOL    HW217475   6.513   5.550   5.740
 5526SOL     OW17476   6.578   3.490   4.259
 5526SOL    HW117477   6.483   3.505   4.288
 5526SOL    HW217478   6.640   3.515   4.333
 5527SOL     OW17479   1.695   2.881   1.520
 5527SOL    HW117480   1.720   2.843   1.431
 5527SOL    HW217481   1.604   2.922   1.515
 5528SOL     OW17482   0.472   2.994   4.583
 5528SOL    HW117483   0.562   2.985   4.542
 5528SOL    HW217484   0.410   3.041   4.520
 5529SOL     OW17485   2.215   1.165   4.988
 5529SOL    HW117486   2.167   1.173   4.901
 5529SOL    HW217487   2.192   1.078   5.031
 5530SOL     OW17488   0.533   2.154   0.080
 5530SOL    HW117489   0.573   2.134   0.170
 5530SOL    HW217490   0.606   2.166   0.013
 5531SOL     OW17491   3.902   2.637   5.525
 5531SOL    HW117492   3.826   2.699   5.544
 5531SOL    HW217493   3.959   2.675   5.452
 5532SOL     OW17494   2.467   1.427   0.651
 5532SOL    HW117495   2.500   1.427   0.557
 5532SOL    HW217496   2.543   1.440   0.714
 5533SOL     OW17497   3.929   1.040   1.928
 5533SOL    HW117498   3.850   1.093   1.960
 5533SOL    HW217499   3.908   0.942   1.933
 5534SOL     OW17500   0.648   3.966   6.515
 5534SOL    HW117501   0.567   3.915   6.485
 5534SOL    HW217502   0.659   3.956   6.614
 5535SOL     OW17503   6.627   2.876   3.010
 5535SOL    HW117504   6.710   2.908   3.055
 5535SOL    HW217505   6.648   2.794   2.957
 5536SOL     OW17506   2.343   1.192   4.314
 5536SOL    HW117507   2.404   1.202   4.393
 5536SOL    HW217508   2.258   1.147   4.344
 5537SOL     OW17509   4.572   0.059   5.322
 5537SOL    HW117510   4.670   0.045   5.312
 5537SOL    HW217511   4.549   0.153   5.299
 5538SOL     OW17512   3.788   1.624   6.373
 5538SOL    HW117513   3.713   1.659   6.429
 5538SOL    HW217514   3.795   1.525   6.384
 5539SOL     OW17515   2.536   0.018   1.968
 5539SOL    HW117516   2.584   6.982   1.902
 5539SOL    HW217517   2.464   0.070   1.921
 5540SOL     OW17518   5.150   1.909   6.936
 5540SOL    HW117519   5.085   1.922   7.011
 5540SOL    HW217520   5.211   1.988   6.932
 5541SOL     OW17521   4.419   3.798   6.399
 5541SOL    HW117522   4.375   3.815   6.487
 5541SOL    HW217523   4.454   3.884   6.362
 5542SOL     OW17524   5.751   4.121   6.162
 5542SOL    HW117525   5.711   4.209   6.186
 5542SOL    HW217526   5.767   4.068   6.246
 5543SOL     OW17527   1.859   0.199   1.207
 5543SOL    HW117528   1.921   0.173   1.280
 5543SOL    HW217529   1.787   0.258   1.243
 5544SOL     OW17530   4.753   5.513   6.147
 5544SOL    HW117531   4.727   5.474   6.059
 5544SOL    HW217532   4.846   5.483   6.170
 5545SOL     OW17533   4.507   0.998   2.676
 5545SOL    HW117534   4.439   1.071   2.671
 5545SOL    HW217535   4.460   0.911   2.691
 5546SOL     OW17536   0.146   6.532   4.884
 5546SOL    HW117537   0.196   6.533   4.971
 5546SOL    HW217538   0.164   6.445   4.837
 5547SOL     OW17539   5.166   1.558   5.799
 5547SOL    HW117540   5.259   1.528   5.818
 5547SOL    HW217541   5.150   1.647   5.842
 5548SOL     OW17542   0.047   3.806   5.572
 5548SOL    HW117543   0.132   3.754   5.565
 5548SOL    HW217544   6.997   3.760   5.519
 5549SOL     OW17545   4.173   3.735   1.671
 5549SOL    HW117546   4.262   3.756   1.631
 5549SOL    HW217547   4.185   3.667   1.744
 5550SOL     OW17548   1.485   4.420   2.960
 5550SOL    HW117549   1.529   4.337   2.925
 5550SOL    HW217550   1.530   4.500   2.920
 5551SOL     OW17551   2.166   5.314   3.231
 5551SOL    HW117552   2.222   5.252   3.176
 5551SOL    HW217553   2.212   5.332   3.318
 5552SOL     OW17554   6.930   6.668   6.201
 5552SOL    HW117555   6.964   6.753   6.242
 5552SOL    HW217556   6.842   6.685   6.156
 5553SOL     OW17557   5.087   0.512   6.558
 5553SOL    HW117558   5.006   0.456   6.541
 5553SOL    HW217559   5.100   0.522   6.657
 5554SOL     OW17560   5.208   3.170   0.253
 5554SOL    HW117561   5.259   3.204   0.332
 5554SOL    HW217562   5.112   3.195   0.263
 5555SOL     OW17563   1.163   4.224   2.892
 5555SOL    HW117564   1.197   4.256   2.980
 5555SOL    HW217565   1.161   4.301   2.828
 5556SOL     OW17566   6.245   1.170   4.077
 5556SOL    HW117567   6.299   1.169   3.994
 5556SOL    HW217568   6.296   1.215   4.150
 5557SOL     OW17569   3.280   5.813   1.967
 5557SOL    HW117570   3.332   5.827   2.051
 5557SOL    HW217571   3.315   5.874   1.896
 5558SOL     OW17572   3.383   4.174   0.225
 5558SOL    HW117573   3.299   4.194   0.277
 5558SOL    HW217574   3.363   4.180   0.127
 5559SOL     OW17575   1.013   0.344   3.204
 5559SOL    HW117576   1.058   0.370   3.118
 5559SOL    HW217577   0.915   0.364   3.197
 5560SOL     OW17578   0.031   5.795   2.998
 5560SOL    HW117579   6.983   5.852   2.953
 5560SOL    HW217580   0.057   5.836   3.085
 5561SOL     OW17581   2.644   1.165   4.881
 5561SOL    HW117582   2.578   1.238   4.903
 5561SOL    HW217583   2.595   1.086   4.845
 5562SOL     OW17584   4.450   4.295   0.405
 5562SOL    HW117585   4.427   4.389   0.379
 5562SOL    HW217586   4.435   4.283   0.504
 5563SOL     OW17587   3.140   4.888   2.845
 5563SOL    HW117588   3.083   4.886   2.763
 5563SOL    HW217589   3.226   4.840   2.829
 5564SOL     OW17590   4.994   6.829   5.848
 5564SOL    HW117591   4.955   6.738   5.829
 5564SOL    HW217592   5.093   6.826   5.831
 5565SOL     OW17593   3.796   3.642   0.699
 5565SOL    HW117594   3.865   3.645   0.627
 5565SOL    HW217595   3.770   3.547   0.717
 5566SOL     OW17596   1.002   4.130   0.467
 5566SOL    HW117597   1.050   4.090   0.389
 5566SOL    HW217598   0.986   4.228   0.450
 5567SOL     OW17599   6.750   3.588   1.954
 5567SOL    HW117600   6.746   3.671   2.010
 5567SOL    HW217601   6.845   3.567   1.931
 5568SOL     OW17602   4.137   6.592   2.968
 5568SOL    HW117603   4.091   6.645   2.897
 5568SOL    HW217604   4.192   6.653   3.025
 5569SOL     OW17605   2.662   1.905   3.678
 5569SOL    HW117606   2.647   2.004   3.673
 5569SOL    HW217607   2.688   1.879   3.771
 5570SOL     OW17608   6.288   3.629   3.176
 5570SOL    HW117609   6.203   3.646   3.226
 5570SOL    HW217610   6.272   3.559   3.107
 5571SOL     OW17611   6.404   5.209   2.150
 5571SOL    HW117612   6.332   5.140   2.158
 5571SOL    HW217613   6.376   5.279   2.084
 5572SOL     OW17614   1.556   4.186   5.044
 5572SOL    HW117615   1.478   4.228   4.999
 5572SOL    HW217616   1.640   4.232   5.016
 5573SOL     OW17617   1.402   5.126   5.456
 5573SOL    HW117618   1.500   5.137   5.441
 5573SOL    HW217619   1.383   5.126   5.554
 5574SOL     OW17620   0.832   2.784   6.708
 5574SOL    HW117621   0.905   2.735   6.661
 5574SOL    HW217622   0.847   2.781   6.807
 5575SOL     OW17623   0.779   0.139   1.844
 5575SOL    HW117624   0.703   0.203   1.837
 5575SOL    HW217625   0.753   0.063   1.904
 5576SOL     OW17626   1.676   4.139   3.227
 5576SOL    HW117627   1.769   4.107   3.213
 5576SOL    HW217628   1.640   4.178   3.142
 5577SOL     OW17629   1.539   3.388   7.016
 5577SOL    HW117630   1.474   3.452   0.034
 5577SOL    HW217631   1.524   3.297   0.033
 5578SOL     OW17632   3.659   3.595   2.882
 5578SOL    HW117633   3.562   3.597   2.857
 5578SOL    HW217634   3.676   3.662   2.954
 5579SOL     OW17635   0.206   3.304   1.145
 5579SOL    HW117636   0.171   3.256   1.226
 5579SOL    HW217637   0.208   3.241   1.068
 5580SOL     OW17638   5.168   1.820   5.858
 5580SOL    HW117639   5.229   1.880   5.909
 5580SOL    HW217640   5.084   1.870   5.834
 5581SOL     OW17641   1.184   2.030   1.506
 5581SOL    HW117642   1.193   2.127   1.528
 5581SOL    HW217643   1.267   1.997   1.462
 5582SOL     OW17644   2.510   3.850   6.721
 5582SOL    HW117645   2.411   3.855   6.707
 5582SOL    HW217646   2.536   3.755   6.737
 5583SOL     OW17647   4.360   0.558   2.480
 5583SOL    HW117648   4.340   0.596   2.390
 5583SOL    HW217649   4.410   0.471   2.470
 5584SOL     OW17650   6.191   4.098   4.520
 5584SOL    HW117651   6.207   4.116   4.423
 5584SOL    HW217652   6.114   4.153   4.552
 5585SOL     OW17653   4.764   4.683   3.071
 5585SOL    HW117654   4.814   4.603   3.038
 5585SOL    HW217655   4.827   4.759   3.083
 5586SOL     OW17656   6.597   3.612   5.656
 5586SOL    HW117657   6.507   3.571   5.640
 5586SOL    HW217658   6.628   3.656   5.571
 5587SOL     OW17659   4.947   0.650   6.962
 5587SOL    HW117660   4.918   0.557   6.985
 5587SOL    HW217661   5.022   0.647   6.896
 5588SOL     OW17662   2.366   6.828   2.855
 5588SOL    HW117663   2.283   6.858   2.808
 5588SOL    HW217664   2.374   6.876   2.942
 5589SOL     OW17665   5.990   4.425   6.629
 5589SOL    HW117666   6.035   4.513   6.644
 5589SOL    HW217667   6.051   4.351   6.657
 5590SOL     OW17668   5.672   6.251   3.606
 5590SOL    HW117669   5.582   6.278   3.641
 5590SOL    HW217670   5.740   6.257   3.680
 5591SOL     OW17671   0.485   1.712   1.587
 5591SOL    HW117672   0.459   1.632   1.533
 5591SOL    HW217673   0.413   1.734   1.652
 5592SOL     OW17674   1.625   5.046   3.393
 5592SOL    HW117675   1.628   5.007   3.300
 5592SOL    HW217676   1.701   5.109   3.405
 5593SOL     OW17677   0.347   2.920   6.586
 5593SOL    HW117678   0.265   2.906   6.530
 5593SOL    HW217679   0.425   2.875   6.542
 5594SOL     OW17680   4.938   0.749   5.079
 5594SOL    HW117681   4.913   0.653   5.063
 5594SOL    HW217682   5.010   0.776   5.015
 5595SOL     OW17683   1.371   2.242   5.165
 5595SOL    HW117684   1.435   2.206   5.096
 5595SOL    HW217685   1.351   2.170   5.232
 5596SOL     OW17686   3.983   6.786   2.838
 5596SOL    HW117687   3.935   6.779   2.751
 5596SOL    HW217688   3.917   6.799   2.912
 5597SOL     OW17689   5.131   2.642   4.364
 5597SOL    HW117690   5.104   2.721   4.418
 5597SOL    HW217691   5.050   2.601   4.321
 5598SOL     OW17692   4.940   3.265   4.025
 5598SOL    HW117693   4.891   3.181   4.000
 5598SOL    HW217694   5.037   3.253   4.005
 5599SOL     OW17695   1.184   0.714   4.297
 5599SOL    HW117696   1.278   0.688   4.317
 5599SOL    HW217697   1.133   0.723   4.383
 5600SOL     OW17698   0.856   2.149   2.748
 5600SOL    HW117699   0.925   2.097   2.699
 5600SOL    HW217700   0.765   2.115   2.723
 5601SOL     OW17701   2.634   0.268   5.806
 5601SOL    HW117702   2.570   0.239   5.878
 5601SOL    HW217703   2.723   0.287   5.846
 5602SOL     OW17704   0.531   1.530   0.897
 5602SOL    HW117705   0.546   1.586   0.978
 5602SOL    HW217706   0.593   1.451   0.900
 5603SOL     OW17707   5.268   2.174   6.977
 5603SOL    HW117708   5.366   2.158   6.970
 5603SOL    HW217709   5.247   2.205   0.049
 5604SOL     OW17710   7.007   1.967   5.788
 5604SOL    HW117711   7.003   1.906   5.867
 5604SOL    HW217712   6.917   2.007   5.771
 5605SOL     OW17713   0.633   1.303   4.685
 5605SOL    HW117714   0.546   1.321   4.731
 5605SOL    HW217715   0.700   1.371   4.714
 5606SOL     OW17716   5.994   6.479   1.080
 5606SOL    HW117717   6.047   6.408   1.125
 5606SOL    HW217718   6.055   6.537   1.026
 5607SOL     OW17719   5.380   0.677   2.256
 5607SOL    HW117720   5.461   0.736   2.268
 5607SOL    HW217721   5.302   0.718   2.304
 5608SOL     OW17722   4.479   0.315   4.682
 5608SOL    HW117723   4.403   0.257   4.709
 5608SOL    HW217724   4.444   0.394   4.631
 5609SOL     OW17725   2.258   5.150   0.512
 5609SOL    HW117726   2.351   5.179   0.537
 5609SOL    HW217727   2.192   5.199   0.569
 5610SOL     OW17728   4.874   6.817   0.590
 5610SOL    HW117729   4.856   6.786   0.684
 5610SOL    HW217730   4.798   6.875   0.560
 5611SOL     OW17731   2.168   4.563   2.576
 5611SOL    HW117732   2.197   4.471   2.550
 5611SOL    HW217733   2.202   4.584   2.668
 5612SOL     OW17734   4.036   2.128   6.402
 5612SOL    HW117735   4.096   2.069   6.349
 5612SOL    HW217736   4.017   2.212   6.350
 5613SOL     OW17737   4.782   4.113   2.906
 5613SOL    HW117738   4.800   4.061   2.823
 5613SOL    HW217739   4.818   4.063   2.985
 5614SOL     OW17740   4.296   2.333   3.590
 5614SOL    HW117741   4.332   2.280   3.666
 5614SOL    HW217742   4.361   2.405   3.566
 5615SOL     OW17743   0.545   0.497   6.234
 5615SOL    HW117744   0.518   0.413   6.281
 5615SOL    HW217745   0.465   0.557   6.226
 5616SOL     OW17746   2.334   0.593   5.271
 5616SOL    HW117747   2.380   0.608   5.359
 5616SOL    HW217748   2.341   0.676   5.216
 5617SOL     OW17749   2.769   0.010   6.173
 5617SOL    HW117750   2.844   7.000   6.232
 5617SOL    HW217751   2.803   0.018   6.079
 5618SOL     OW17752   6.714   3.551   4.488
 5618SOL    HW117753   6.717   3.498   4.572
 5618SOL    HW217754   6.752   3.642   4.505
 5619SOL     OW17755   2.745   3.868   6.506
 5619SOL    HW117756   2.756   3.943   6.441
 5619SOL    HW217757   2.656   3.824   6.491
 5620SOL     OW17758   3.555   3.202   0.678
 5620SOL    HW117759   3.608   3.128   0.720
 5620SOL    HW217760   3.548   3.278   0.742
 5621SOL     OW17761   1.323   2.033   5.931
 5621SOL    HW117762   1.287   1.954   5.981
 5621SOL    HW217763   1.368   2.001   5.848
 5622SOL     OW17764   4.216   6.778   5.653
 5622SOL    HW117765   4.281   6.719   5.701
 5622SOL    HW217766   4.229   6.873   5.681
 5623SOL     OW17767   1.864   6.452   6.220
 5623SOL    HW117768   1.818   6.366   6.243
 5623SOL    HW217769   1.941   6.466   6.283
 5624SOL     OW17770   1.080   4.470   3.122
 5624SOL    HW117771   1.078   4.493   3.025
 5624SOL    HW217772   1.110   4.375   3.133
 5625SOL     OW17773   5.974   2.273   4.081
 5625SOL    HW117774   5.895   2.334   4.085
 5625SOL    HW217775   6.027   2.282   4.165
 5626SOL     OW17776   2.823   6.542   4.846
 5626SOL    HW117777   2.792   6.542   4.941
 5626SOL    HW217778   2.877   6.460   4.828
 5627SOL     OW17779   1.056   5.728   1.052
 5627SOL    HW117780   1.116   5.804   1.028
 5627SOL    HW217781   1.103   5.641   1.035
 5628SOL     OW17782   1.497   2.263   6.026
 5628SOL    HW117783   1.503   2.220   6.117
 5628SOL    HW217784   1.426   2.218   5.973
 5629SOL     OW17785   3.596   3.990   1.705
 5629SOL    HW117786   3.620   3.893   1.709
 5629SOL    HW217787   3.595   4.020   1.610
 5630SOL     OW17788   1.175   5.246   0.836
 5630SOL    HW117789   1.140   5.257   0.744
 5630SOL    HW217790   1.135   5.165   0.879
 5631SOL     OW17791   4.437   1.785   6.887
 5631SOL    HW117792   4.488   1.811   6.969
 5631SOL    HW217793   4.495   1.729   6.827
 5632SOL     OW17794   4.017   3.303   6.097
 5632SOL    HW117795   4.049   3.349   6.014
 5632SOL    HW217796   3.935   3.250   6.076
 5633SOL     OW17797   6.326   2.236   3.602
 5633SOL    HW117798   6.272   2.228   3.518
 5633SOL    HW217799   6.405   2.295   3.586
 5634SOL     OW17800   2.912   5.812   5.515
 5634SOL    HW117801   2.829   5.758   5.501
 5634SOL    HW217802   2.914   5.889   5.452
 5635SOL     OW17803   2.073   3.215   4.983
 5635SOL    HW117804   1.977   3.189   4.988
 5635SOL    HW217805   2.123   3.149   4.926
 5636SOL     OW17806   3.447   6.052   2.374
 5636SOL    HW117807   3.539   6.025   2.400
 5636SOL    HW217808   3.402   6.097   2.451
 5637SOL     OW17809   5.383   6.898   3.832
 5637SOL    HW117810   5.338   6.983   3.803
 5637SOL    HW217811   5.335   6.859   3.910
 5638SOL     OW17812   5.330   3.381   0.858
 5638SOL    HW117813   5.342   3.344   0.766
 5638SOL    HW217814   5.304   3.477   0.852
 5639SOL     OW17815   0.063   1.305   0.456
 5639SOL    HW117816   6.987   1.326   0.447
 5639SOL    HW217817   0.087   1.294   0.552
 5640SOL     OW17818   2.774   0.461   4.243
 5640SOL    HW117819   2.872   0.476   4.228
 5640SOL    HW217820   2.757   0.362   4.249
 5641SOL     OW17821   0.171   4.636   6.297
 5641SOL    HW117822   0.148   4.566   6.364
 5641SOL    HW217823   0.251   4.608   6.245
 5642SOL     OW17824   2.006   6.707   0.280
 5642SOL    HW117825   1.942   6.647   0.327
 5642SOL    HW217826   1.977   6.720   0.185
 5643SOL     OW17827   5.519   1.723   4.787
 5643SOL    HW117828   5.449   1.652   4.786
 5643SOL    HW217829   5.609   1.680   4.800
 5644SOL     OW17830   2.910   6.619   5.296
 5644SOL    HW117831   2.965   6.600   5.215
 5644SOL    HW217832   2.931   6.550   5.366
 5645SOL     OW17833   6.339   3.716   3.475
 5645SOL    HW117834   6.339   3.644   3.405
 5645SOL    HW217835   6.425   3.712   3.527
 5646SOL     OW17836   2.155   4.830   3.141
 5646SOL    HW117837   2.075   4.787   3.100
 5646SOL    HW217838   2.233   4.769   3.133
 5647SOL     OW17839   5.145   6.471   1.732
 5647SOL    HW117840   5.053   6.433   1.728
 5647SOL    HW217841   5.211   6.399   1.710
 5648SOL     OW17842   2.644   5.886   2.926
 5648SOL    HW117843   2.591   5.814   2.969
 5648SOL    HW217844   2.720   5.846   2.875
 5649SOL     OW17845   0.987   6.635   4.139
 5649SOL    HW117846   1.035   6.549   4.154
 5649SOL    HW217847   0.969   6.679   4.227
 5650SOL     OW17848   0.081   4.852   0.647
 5650SOL    HW117849   0.044   4.854   0.740
 5650SOL    HW217850   0.178   4.830   0.650
 5651SOL     OW17851   1.660   0.251   1.000
 5651SOL    HW117852   1.663   0.349   0.980
 5651SOL    HW217853   1.738   0.226   1.057
 5652SOL     OW17854   0.007   5.393   2.088
 5652SOL    HW117855   6.967   5.341   2.147
 5652SOL    HW217856   0.087   5.336   2.066
 5653SOL     OW17857   0.521   6.177   0.813
 5653SOL    HW117858   0.536   6.189   0.715
 5653SOL    HW217859   0.504   6.265   0.856
 5654SOL     OW17860   1.133   6.161   5.076
 5654SOL    HW117861   1.034   6.148   5.087
 5654SOL    HW217862   1.167   6.221   5.149
 5655SOL     OW17863   6.373   3.203   3.940
 5655SOL    HW117864   6.472   3.214   3.949
 5655SOL    HW217865   6.350   3.106   3.934
 5656SOL     OW17866   6.987   3.151   6.673
 5656SOL    HW117867   6.924   3.098   6.729
 5656SOL    HW217868   6.937   3.196   6.599
 5657SOL     OW17869   4.485   4.531   4.441
 5657SOL    HW117870   4.481   4.528   4.540
 5657SOL    HW217871   4.395   4.554   4.404
 5658SOL     OW17872   1.889   2.827   5.929
 5658SOL    HW117873   1.867   2.919   5.961
 5658SOL    HW217874   1.859   2.759   5.997
 5659SOL     OW17875   3.508   3.743   6.355
 5659SOL    HW117876   3.431   3.744   6.419
 5659SOL    HW217877   3.584   3.794   6.395
 5660SOL     OW17878   4.894   6.709   6.706
 5660SOL    HW117879   4.821   6.699   6.775
 5660SOL    HW217880   4.921   6.619   6.673
 5661SOL     OW17881   0.615   5.753   6.035
 5661SOL    HW117882   0.683   5.794   5.974
 5661SOL    HW217883   0.662   5.702   6.107
 5662SOL     OW17884   2.431   6.570   2.887
 5662SOL    HW117885   2.531   6.577   2.886
 5662SOL    HW217886   2.391   6.644   2.832
 5663SOL     OW17887   1.361   2.457   1.212
 5663SOL    HW117888   1.377   2.555   1.215
 5663SOL    HW217889   1.422   2.416   1.143
 5664SOL     OW17890   5.308   4.177   4.245
 5664SOL    HW117891   5.318   4.220   4.155
 5664SOL    HW217892   5.212   4.182   4.274
 5665SOL     OW17893   1.436   6.747   0.480
 5665SOL    HW117894   1.439   6.790   0.390
 5665SOL    HW217895   1.452   6.649   0.472
 5666SOL     OW17896   5.764   1.189   3.968
 5666SOL    HW117897   5.788   1.239   3.885
 5666SOL    HW217898   5.843   1.185   4.029
 5667SOL     OW17899   1.731   4.899   4.613
 5667SOL    HW117900   1.769   4.890   4.521
 5667SOL    HW217901   1.787   4.847   4.677
 5668SOL     OW17902   6.331   2.526   2.595
 5668SOL    HW117903   6.277   2.602   2.557
 5668SOL    HW217904   6.367   2.553   2.684
 5669SOL     OW17905   5.970   4.101   6.940
 5669SOL    HW117906   6.018   4.103   0.006
 5669SOL    HW217907   5.874   4.127   6.955
 5670SOL     OW17908   1.300   3.265   2.483
 5670SOL    HW117909   1.223   3.255   2.420
 5670SOL    HW217910   1.294   3.352   2.530
 5671SOL     OW17911   6.454   6.043   4.016
 5671SOL    HW117912   6.368   5.994   4.027
 5671SOL    HW217913   6.458   6.118   4.082
 5672SOL     OW17914   4.812   3.879   5.192
 5672SOL    HW117915   4.736   3.943   5.198
 5672SOL    HW217916   4.778   3.786   5.193
 5673SOL     OW17917   0.744   6.938   1.705
 5673SOL    HW117918   0.705   6.946   1.613
 5673SOL    HW217919   0.757   0.007   1.743
 5674SOL     OW17920   1.874   4.716   4.753
 5674SOL    HW117921   1.838   4.628   4.724
 5674SOL    HW217922   1.934   4.704   4.832
 5675SOL     OW17923   3.137   1.000   0.283
 5675SOL    HW117924   3.126   0.999   0.183
 5675SOL    HW217925   3.126   1.093   0.316
 5676SOL     OW17926   3.057   2.537   1.718
 5676SOL    HW117927   3.005   2.506   1.639
 5676SOL    HW217928   3.017   2.500   1.801
 5677SOL     OW17929   6.899   0.738   0.759
 5677SOL    HW117930   6.968   0.795   0.804
 5677SOL    HW217931   6.810   0.755   0.801
 5678SOL     OW17932   3.524   1.751   2.155
 5678SOL    HW117933   3.501   1.848   2.163
 5678SOL    HW217934   3.554   1.716   2.243
 5679SOL     OW17935   6.046   2.594   4.705
 5679SOL    HW117936   6.027   2.679   4.755
 5679SOL    HW217937   6.029   2.516   4.765
 5680SOL     OW17938   1.346   5.140   5.720
 5680SOL    HW117939   1.384   5.108   5.807
 5680SOL    HW217940   1.368   5.236   5.708
 5681SOL     OW17941   0.823   3.704   2.769
 5681SOL    HW117942   0.792   3.709   2.864
 5681SOL    HW217943   0.908   3.652   2.764
 5682SOL     OW17944   2.756   5.276   2.504
 5682SOL    HW117945   2.737   5.351   2.441
 5682SOL    HW217946   2.812   5.309   2.580
 5683SOL     OW17947   3.965   2.634   6.544
 5683SOL    HW117948   4.013   2.710   6.588
 5683SOL    HW217949   3.921   2.577   6.613
 5684SOL     OW17950   2.167   3.256   6.024
 5684SOL    HW117951   2.187   3.343   5.978
 5684SOL    HW217952   2.086   3.214   5.982
 5685SOL     OW17953   2.085   2.516   4.024
 5685SOL    HW117954   2.020   2.504   3.949
 5685SOL    HW217955   2.058   2.594   4.080
 5686SOL     OW17956   3.234   0.744   5.975
 5686SOL    HW117957   3.309   0.689   6.012
 5686SOL    HW217958   3.256   0.771   5.881
 5687SOL     OW17959   0.816   6.071   5.160
 5687SOL    HW117960   0.900   6.056   5.212
 5687SOL    HW217961   0.772   5.983   5.144
 5688SOL     OW17962   2.127   3.791   3.207
 5688SOL    HW117963   2.085   3.713   3.252
 5688SOL    HW217964   2.142   3.770   3.110
 5689SOL     OW17965   1.397   0.877   0.900
 5689SOL    HW117966   1.455   0.881   0.819
 5689SOL    HW217967   1.314   0.929   0.884
 5690SOL     OW17968   0.586   5.385   0.092
 5690SOL    HW117969   0.515   5.316   0.102
 5690SOL    HW217970   0.551   5.461   0.037
 5691SOL     OW17971   3.568   1.059   2.217
 5691SOL    HW117972   3.584   1.029   2.311
 5691SOL    HW217973   3.470   1.074   2.202
 5692SOL     OW17974   5.085   5.245   1.030
 5692SOL    HW117975   5.125   5.218   1.118
 5692SOL    HW217976   4.994   5.285   1.045
 5693SOL     OW17977   3.972   0.654   0.572
 5693SOL    HW117978   3.878   0.680   0.592
 5693SOL    HW217979   3.986   0.558   0.598
 5694SOL     OW17980   0.540   0.577   2.935
 5694SOL    HW117981   0.466   0.645   2.932
 5694SOL    HW217982   0.608   0.599   2.866
 5695SOL     OW17983   1.237   0.928   1.888
 5695SOL    HW117984   1.225   1.025   1.909
 5695SOL    HW217985   1.150   0.881   1.899
 5696SOL     OW17986   1.605   0.459   4.165
 5696SOL    HW117987   1.589   0.416   4.076
 5696SOL    HW217988   1.696   0.500   4.166
 5697SOL     OW17989   6.205   2.999   1.506
 5697SOL    HW117990   6.262   2.995   1.424
 5697SOL    HW217991   6.167   2.908   1.524
 5698SOL     OW17992   1.514   3.400   3.271
 5698SOL    HW117993   1.436   3.453   3.240
 5698SOL    HW217994   1.485   3.335   3.341
 5699SOL     OW17995   2.001   2.845   3.392
 5699SOL    HW117996   1.959   2.814   3.477
 5699SOL    HW217997   2.099   2.829   3.395
 5700SOL     OW17998   0.366   0.714   1.933
 5700SOL    HW117999   0.440   0.660   1.972
 5700SOL    HW218000   0.353   0.796   1.988
 5701SOL     OW18001   6.361   1.095   0.883
 5701SOL    HW118002   6.343   1.191   0.907
 5701SOL    HW218003   6.300   1.068   0.809
 5702SOL     OW18004   1.614   6.883   4.331
 5702SOL    HW118005   1.522   6.843   4.329
 5702SOL    HW218006   1.621   6.953   4.260
 5703SOL     OW18007   0.332   3.694   6.233
 5703SOL    HW118008   0.290   3.604   6.238
 5703SOL    HW218009   0.261   3.763   6.215
 5704SOL     OW18010   5.704   3.921   3.592
 5704SOL    HW118011   5.695   4.010   3.548
 5704SOL    HW218012   5.657   3.922   3.681
 5705SOL     OW18013   6.130   6.324   6.032
 5705SOL    HW118014   6.226   6.331   6.056
 5705SOL    HW218015   6.115   6.359   5.940
 5706SOL     OW18016   6.047   2.820   0.233
 5706SOL    HW118017   6.034   2.891   0.302
 5706SOL    HW218018   6.033   2.730   0.275
 5707SOL     OW18019   4.942   6.971   1.303
 5707SOL    HW118020   4.867   6.928   1.254
 5707SOL    HW218021   4.915   0.041   1.333
 5708SOL     OW18022   4.744   5.642   3.547
 5708SOL    HW118023   4.761   5.553   3.590
 5708SOL    HW218024   4.711   5.707   3.616
 5709SOL     OW18025   1.712   1.012   1.999
 5709SOL    HW118026   1.688   1.097   1.951
 5709SOL    HW218027   1.631   0.974   2.042
 5710SOL     OW18028   2.979   2.711   0.614
 5710SOL    HW118029   2.884   2.726   0.586
 5710SOL    HW218030   3.022   2.799   0.631
 5711SOL     OW18031   5.083   0.451   1.437
 5711SOL    HW118032   4.990   0.486   1.434
 5711SOL    HW218033   5.098   0.389   1.359
 5712SOL     OW18034   0.033   6.323   1.374
 5712SOL    HW118035   0.094   6.344   1.450
 5712SOL    HW218036   0.041   6.226   1.350
 5713SOL     OW18037   2.471   5.755   0.688
 5713SOL    HW118038   2.503   5.741   0.594
 5713SOL    HW218039   2.548   5.742   0.751
 5714SOL     OW18040   6.397   5.838   1.491
 5714SOL    HW118041   6.417   5.918   1.547
 5714SOL    HW218042   6.474   5.776   1.492
 5715SOL     OW18043   0.855   6.465   1.142
 5715SOL    HW118044   0.865   6.437   1.237
 5715SOL    HW218045   0.897   6.555   1.129
 5716SOL     OW18046   0.779   4.971   6.057
 5716SOL    HW118047   0.755   4.889   6.109
 5716SOL    HW218048   0.863   5.010   6.094
 5717SOL     OW18049   2.110   5.164   2.555
 5717SOL    HW118050   2.055   5.180   2.474
 5717SOL    HW218051   2.137   5.067   2.558
 5718SOL     OW18052   0.792   2.742   0.642
 5718SOL    HW118053   0.888   2.726   0.666
 5718SOL    HW218054   0.787   2.811   0.570
 5719SOL     OW18055   3.231   3.351   1.478
 5719SOL    HW118056   3.262   3.261   1.446
 5719SOL    HW218057   3.131   3.352   1.482
 5720SOL     OW18058   2.320   5.605   5.832
 5720SOL    HW118059   2.335   5.690   5.882
 5720SOL    HW218060   2.408   5.565   5.807
 5721SOL     OW18061   5.146   4.030   6.770
 5721SOL    HW118062   5.189   4.067   6.852
 5721SOL    HW218063   5.053   4.067   6.762
 5722SOL     OW18064   0.876   1.081   5.243
 5722SOL    HW118065   0.879   1.042   5.151
 5722SOL    HW218066   0.871   1.008   5.311
 5723SOL     OW18067   4.081   3.547   0.044
 5723SOL    HW118068   4.052   3.503   6.980
 5723SOL    HW218069   4.142   3.484   0.094
 5724SOL     OW18070   5.820   2.351   3.033
 5724SOL    HW118071   5.889   2.395   3.089
 5724SOL    HW218072   5.729   2.365   3.074
 5725SOL     OW18073   5.227   5.021   3.088
 5725SOL    HW118074   5.246   5.118   3.101
 5725SOL    HW218075   5.204   5.004   2.992
 5726SOL     OW18076   4.870   3.853   3.185
 5726SOL    HW118077   4.840   3.948   3.179
 5726SOL    HW218078   4.852   3.818   3.277
 5727SOL     OW18079   1.248   2.631   4.374
 5727SOL    HW118080   1.278   2.725   4.394
 5727SOL    HW218081   1.323   2.581   4.330
 5728SOL     OW18082   4.701   5.934   5.355
 5728SOL    HW118083   4.637   5.994   5.307
 5728SOL    HW218084   4.694   5.949   5.453
 5729SOL     OW18085   2.155   2.436   6.157
 5729SOL    HW118086   2.100   2.405   6.079
 5729SOL    HW218087   2.229   2.495   6.125
 5730SOL     OW18088   6.870   4.139   5.667
 5730SOL    HW118089   6.939   4.174   5.604
 5730SOL    HW218090   6.914   4.103   5.749
 5731SOL     OW18091   0.220   6.545   1.533
 5731SOL    HW118092   0.184   6.546   1.626
 5731SOL    HW218093   0.147   6.568   1.468
 5732SOL     OW18094   1.237   6.576   4.462
 5732SOL    HW118095   1.276   6.503   4.406
 5732SOL    HW218096   1.275   6.664   4.432
 5733SOL     OW18097   3.722   6.898   5.153
 5733SOL    HW118098   3.627   6.927   5.144
 5733SOL    HW218099   3.765   6.895   5.063
 5734SOL     OW18100   1.493   6.408   3.526
 5734SOL    HW118101   1.407   6.428   3.479
 5734SOL    HW218102   1.514   6.481   3.591
 5735SOL     OW18103   3.169   1.113   1.543
 5735SOL    HW118104   3.143   1.148   1.453
 5735SOL    HW218105   3.269   1.114   1.551
 5736SOL     OW18106   0.870   5.546   6.591
 5736SOL    HW118107   0.884   5.448   6.574
 5736SOL    HW218108   0.774   5.561   6.616
 5737SOL     OW18109   4.841   4.770   6.564
 5737SOL    HW118110   4.788   4.817   6.494
 5737SOL    HW218111   4.936   4.761   6.533
 5738SOL     OW18112   1.464   3.531   6.721
 5738SOL    HW118113   1.468   3.571   6.630
 5738SOL    HW218114   1.392   3.577   6.775
 5739SOL     OW18115   1.563   1.168   0.640
 5739SOL    HW118116   1.500   1.109   0.589
 5739SOL    HW218117   1.579   1.130   0.731
 5740SOL     OW18118   4.002   5.609   6.694
 5740SOL    HW118119   3.936   5.685   6.692
 5740SOL    HW218120   4.025   5.583   6.600
 5741SOL     OW18121   6.922   5.732   4.641
 5741SOL    HW118122   6.962   5.640   4.649
 5741SOL    HW218123   6.910   5.770   4.733
 5742SOL     OW18124   6.550   6.817   2.603
 5742SOL    HW118125   6.467   6.766   2.623
 5742SOL    HW218126   6.534   6.878   2.526
 5743SOL     OW18127   2.206   6.729   4.514
 5743SOL    HW118128   2.252   6.667   4.576
 5743SOL    HW218129   2.125   6.767   4.559
 5744SOL     OW18130   5.574   0.428   0.100
 5744SOL    HW118131   5.663   0.454   0.061
 5744SOL    HW218132   5.575   0.330   0.121
 5745SOL     OW18133   1.897   2.333   4.736
 5745SOL    HW118134   1.874   2.289   4.649
 5745SOL    HW218135   1.893   2.266   4.810
 5746SOL     OW18136   4.654   2.181   6.945
 5746SOL    HW118137   4.668   2.084   6.965
 5746SOL    HW218138   4.562   2.209   6.973
 5747SOL     OW18139   0.457   5.611   3.265
 5747SOL    HW118140   0.511   5.694   3.253
 5747SOL    HW218141   0.436   5.599   3.362
 5748SOL     OW18142   1.977   6.194   2.173
 5748SOL    HW118143   1.908   6.226   2.237
 5748SOL    HW218144   1.933   6.162   2.089
 5749SOL     OW18145   2.338   2.563   3.361
 5749SOL    HW118146   2.274   2.501   3.407
 5749SOL    HW218147   2.302   2.585   3.270
 5750SOL     OW18148   5.768   5.546   3.437
 5750SOL    HW118149   5.745   5.486   3.361
 5750SOL    HW218150   5.702   5.533   3.511
 5751SOL     OW18151   2.478   3.505   5.519
 5751SOL    HW118152   2.482   3.482   5.616
 5751SOL    HW218153   2.456   3.424   5.465
 5752SOL     OW18154   0.002   6.883   6.332
 5752SOL    HW118155   0.073   6.952   6.317
 5752SOL    HW218156   6.938   6.929   6.358
 5753SOL     OW18157   3.557   2.464   0.172
 5753SOL    HW118158   3.534   2.424   0.083
 5753SOL    HW218159   3.506   2.549   0.185
 5754SOL     OW18160   6.255   5.000   1.637
 5754SOL    HW118161   6.220   4.967   1.550
 5754SOL    HW218162   6.274   4.922   1.697
 5755SOL     OW18163   2.818   4.251   6.865
 5755SOL    HW118164   2.782   4.165   6.827
 5755SOL    HW218165   2.742   4.315   6.880
 5756SOL     OW18166   6.820   5.148   3.674
 5756SOL    HW118167   6.879   5.138   3.754
 5756SOL    HW218168   6.751   5.075   3.675
 5757SOL     OW18169   6.732   5.225   0.686
 5757SOL    HW118170   6.639   5.260   0.675
 5757SOL    HW218171   6.789   5.257   0.611
 5758SOL     OW18172   1.789   2.732   5.414
 5758SOL    HW118173   1.852   2.796   5.370
 5758SOL    HW218174   1.769   2.656   5.351
 5759SOL     OW18175   5.339   1.697   6.548
 5759SOL    HW118176   5.298   1.771   6.601
 5759SOL    HW218177   5.359   1.728   6.456
 5760SOL     OW18178   1.606   5.513   2.304
 5760SOL    HW118179   1.552   5.479   2.227
 5760SOL    HW218180   1.701   5.483   2.295
 5761SOL     OW18181   4.612   6.907   4.438
 5761SOL    HW118182   4.704   6.879   4.466
 5761SOL    HW218183   4.545   6.844   4.475
 5762SOL     OW18184   5.581   6.382   1.661
 5762SOL    HW118185   5.636   6.450   1.709
 5762SOL    HW218186   5.554   6.418   1.572
 5763SOL     OW18187   1.568   0.731   1.064
 5763SOL    HW118188   1.497   0.670   1.101
 5763SOL    HW218189   1.530   0.785   0.989
 5764SOL     OW18190   5.001   4.022   5.717
 5764SOL    HW118191   4.960   3.971   5.792
 5764SOL    HW218192   4.943   4.015   5.636
 5765SOL     OW18193   5.425   4.197   6.639
 5765SOL    HW118194   5.387   4.119   6.589
 5765SOL    HW218195   5.450   4.169   6.732
 5766SOL     OW18196   2.903   2.210   2.580
 5766SOL    HW118197   2.949   2.210   2.491
 5766SOL    HW218198   2.817   2.159   2.573
 5767SOL     OW18199   0.061   0.043   1.379
 5767SOL    HW118200   0.114   6.996   1.330
 5767SOL    HW218201   0.042   0.011   1.472
 5768SOL     OW18202   6.722   1.743   2.499
 5768SOL    HW118203   6.674   1.704   2.577
 5768SOL    HW218204   6.692   1.837   2.485
 5769SOL     OW18205   2.429   5.927   4.166
 5769SOL    HW118206   2.353   5.991   4.153
 5769SOL    HW218207   2.490   5.962   4.237
 5770SOL     OW18208   6.486   0.341   1.627
 5770SOL    HW118209   6.509   0.245   1.641
 5770SOL    HW218210   6.388   0.355   1.645
 5771SOL     OW18211   1.663   1.379   0.943
 5771SOL    HW118212   1.618   1.467   0.928
 5771SOL    HW218213   1.740   1.391   1.005
 5772SOL     OW18214   5.285   3.624   0.252
 5772SOL    HW118215   5.253   3.563   0.180
 5772SOL    HW218216   5.260   3.587   0.341
 5773SOL     OW18217   5.433   5.786   4.680
 5773SOL    HW118218   5.406   5.721   4.752
 5773SOL    HW218219   5.375   5.773   4.600
 5774SOL     OW18220   1.868   5.644   3.808
 5774SOL    HW118221   1.826   5.703   3.739
 5774SOL    HW218222   1.968   5.651   3.802
 5775SOL     OW18223   0.514   6.613   5.784
 5775SOL    HW118224   0.578   6.600   5.860
 5775SOL    HW218225   0.525   6.705   5.747
 5776SOL     OW18226   4.729   6.785   6.059
 5776SOL    HW118227   4.782   6.870   6.061
 5776SOL    HW218228   4.782   6.713   6.015
 5777SOL     OW18229   6.814   0.824   4.322
 5777SOL    HW118230   6.779   0.916   4.337
 5777SOL    HW218231   6.914   0.827   4.312
 5778SOL     OW18232   1.265   6.851   3.611
 5778SOL    HW118233   1.227   6.762   3.635
 5778SOL    HW218234   1.331   6.880   3.681
 5779SOL     OW18235   3.696   1.155   2.008
 5779SOL    HW118236   3.723   1.245   2.043
 5779SOL    HW218237   3.644   1.106   2.078
 5780SOL     OW18238   6.425   3.820   2.015
 5780SOL    HW118239   6.481   3.804   1.934
 5780SOL    HW218240   6.345   3.760   2.013
 5781SOL     OW18241   1.694   5.108   5.022
 5781SOL    HW118242   1.660   5.188   4.974
 5781SOL    HW218243   1.617   5.054   5.056
 5782SOL     OW18244   2.955   1.517   2.504
 5782SOL    HW118245   3.027   1.569   2.551
 5782SOL    HW218246   2.957   1.422   2.535
 5783SOL     OW18247   1.180   0.626   1.313
 5783SOL    HW118248   1.223   0.640   1.402
 5783SOL    HW218249   1.250   0.611   1.243
 5784SOL     OW18250   1.145   6.524   0.582
 5784SOL    HW118251   1.215   6.514   0.653
 5784SOL    HW218252   1.179   6.585   0.511
 5785SOL     OW18253   1.718   2.180   0.022
 5785SOL    HW118254   1.811   2.144   0.022
 5785SOL    HW218255   1.709   2.252   6.975
 5786SOL     OW18256   1.292   3.297   1.715
 5786SOL    HW118257   1.251   3.367   1.775
 5786SOL    HW218258   1.360   3.340   1.657
 5787SOL     OW18259   6.282   2.892   5.007
 5787SOL    HW118260   6.285   2.959   4.933
 5787SOL    HW218261   6.252   2.803   4.971
 5788SOL     OW18262   2.843   1.578   2.270
 5788SOL    HW118263   2.758   1.525   2.275
 5788SOL    HW218264   2.894   1.567   2.355
 5789SOL     OW18265   4.204   4.122   6.410
 5789SOL    HW118266   4.116   4.158   6.440
 5789SOL    HW218267   4.192   4.069   6.326
 5790SOL     OW18268   5.776   5.386   4.336
 5790SOL    HW118269   5.692   5.440   4.338
 5790SOL    HW218270   5.827   5.407   4.253
 5791SOL     OW18271   4.088   1.478   2.823
 5791SOL    HW118272   4.180   1.472   2.786
 5791SOL    HW218273   4.092   1.497   2.921
 5792SOL     OW18274   4.834   3.133   2.769
 5792SOL    HW118275   4.781   3.050   2.783
 5792SOL    HW218276   4.835   3.156   2.672
 5793SOL     OW18277   5.091   2.095   5.517
 5793SOL    HW118278   5.059   2.001   5.505
 5793SOL    HW218279   5.058   2.151   5.442
 5794SOL     OW18280   4.513   0.679   0.015
 5794SOL    HW118281   4.502   0.582   7.014
 5794SOL    HW218282   4.440   0.708   0.076
 5795SOL     OW18283   1.811   5.841   1.915
 5795SOL    HW118284   1.790   5.788   1.998
 5795SOL    HW218285   1.792   5.785   1.834
 5796SOL     OW18286   4.396   2.553   6.566
 5796SOL    HW118287   4.449   2.494   6.626
 5796SOL    HW218288   4.446   2.638   6.551
 5797SOL     OW18289   4.894   2.510   0.659
 5797SOL    HW118290   4.824   2.446   0.628
 5797SOL    HW218291   4.851   2.596   0.688
 5798SOL     OW18292   1.604   3.779   5.891
 5798SOL    HW118293   1.692   3.796   5.847
 5798SOL    HW218294   1.530   3.815   5.834
 5799SOL     OW18295   2.134   6.987   3.345
 5799SOL    HW118296   2.035   7.000   3.346
 5799SOL    HW218297   2.159   6.913   3.408
 5800SOL     OW18298   1.020   6.932   0.760
 5800SOL    HW118299   1.007   0.007   0.737
 5800SOL    HW218300   0.941   6.900   0.811
 5801SOL     OW18301   2.051   1.811   2.700
 5801SOL    HW118302   2.088   1.897   2.736
 5801SOL    HW218303   1.984   1.830   2.629
 5802SOL     OW18304   0.223   1.549   1.947
 5802SOL    HW118305   0.125   1.565   1.937
 5802SOL    HW218306   0.271   1.637   1.952
 5803SOL     OW18307   0.299   5.393   4.119
 5803SOL    HW118308   0.266   5.469   4.063
 5803SOL    HW218309   0.378   5.422   4.172
 5804SOL     OW18310   6.186   1.563   3.745
 5804SOL    HW118311   6.097   1.595   3.777
 5804SOL    HW218312   6.236   1.639   3.703
 5805SOL     OW18313   2.435   2.700   1.922
 5805SOL    HW118314   2.377   2.770   1.963
 5805SOL    HW218315   2.454   2.629   1.990
 5806SOL     OW18316   0.418   4.206   2.303
 5806SOL    HW118317   0.455   4.178   2.392
 5806SOL    HW218318   0.468   4.285   2.269
 5807SOL     OW18319   1.051   0.169   0.700
 5807SOL    HW118320   1.123   0.234   0.675
 5807SOL    HW218321   1.024   0.185   0.795
 5808SOL     OW18322   6.708   0.094   5.407
 5808SOL    HW118323   6.790   0.078   5.461
 5808SOL    HW218324   6.710   0.187   5.369
 5809SOL     OW18325   0.556   2.419   5.565
 5809SOL    HW118326   0.548   2.353   5.490
 5809SOL    HW218327   0.589   2.506   5.528
 5810SOL     OW18328   4.005   6.678   5.547
 5810SOL    HW118329   4.090   6.726   5.571
 5810SOL    HW218330   3.973   6.711   5.458
 5811SOL     OW18331   3.240   3.890   6.064
 5811SOL    HW118332   3.160   3.916   6.009
 5811SOL    HW218333   3.295   3.971   6.084
 5812SOL     OW18334   5.456   2.719   0.494
 5812SOL    HW118335   5.475   2.682   0.402
 5812SOL    HW218336   5.358   2.737   0.502
 5813SOL     OW18337   5.158   6.515   0.747
 5813SOL    HW118338   5.197   6.448   0.684
 5813SOL    HW218339   5.174   6.486   0.841
 5814SOL     OW18340   4.768   1.820   1.537
 5814SOL    HW118341   4.797   1.753   1.605
 5814SOL    HW218342   4.681   1.861   1.565
 5815SOL     OW18343   6.114   1.448   4.437
 5815SOL    HW118344   6.070   1.529   4.398
 5815SOL    HW218345   6.059   1.367   4.418
 5816SOL     OW18346   0.746   3.790   2.510
 5816SOL    HW118347   0.764   3.774   2.607
 5816SOL    HW218348   0.784   3.716   2.455
 5817SOL     OW18349   6.024   3.646   3.286
 5817SOL    HW118350   5.960   3.700   3.341
 5817SOL    HW218351   5.974   3.585   3.225
 5818SOL     OW18352   2.307   6.809   5.445
 5818SOL    HW118353   2.310   6.859   5.532
 5818SOL    HW218354   2.383   6.837   5.387
 5819SOL     OW18355   4.597   5.265   0.187
 5819SOL    HW118356   4.585   5.187   0.248
 5819SOL    HW218357   4.573   5.237   0.094
 5820SOL     OW18358   5.904   5.605   2.388
 5820SOL    HW118359   5.851   5.589   2.305
 5820SOL    HW218360   5.908   5.521   2.442
 5821SOL     OW18361   6.944   0.489   0.905
 5821SOL    HW118362   6.914   0.578   0.871
 5821SOL    HW218363   6.898   0.469   0.991
 5822SOL     OW18364   1.799   3.100   2.502
 5822SOL    HW118365   1.720   3.041   2.516
 5822SOL    HW218366   1.866   3.084   2.574
 5823SOL     OW18367   2.036   5.675   4.172
 5823SOL    HW118368   2.016   5.742   4.101
 5823SOL    HW218369   1.963   5.607   4.176
 5824SOL     OW18370   0.950   0.302   1.964
 5824SOL    HW118371   0.996   0.266   2.044
 5824SOL    HW218372   0.879   0.237   1.934
 5825SOL     OW18373   5.918   0.160   4.409
 5825SOL    HW118374   5.868   0.074   4.400
 5825SOL    HW218375   6.011   0.149   4.374
 5826SOL     OW18376   0.519   0.301   4.644
 5826SOL    HW118377   0.436   0.322   4.697
 5826SOL    HW218378   0.594   0.359   4.677
 5827SOL     OW18379   2.398   4.549   4.897
 5827SOL    HW118380   2.386   4.564   4.799
 5827SOL    HW218381   2.328   4.485   4.929
 5828SOL     OW18382   3.930   6.775   4.394
 5828SOL    HW118383   3.852   6.718   4.370
 5828SOL    HW218384   3.956   6.831   4.315
 5829SOL     OW18385   2.025   1.192   3.976
 5829SOL    HW118386   2.042   1.104   3.932
 5829SOL    HW218387   2.110   1.245   3.978
 5830SOL     OW18388   3.308   5.592   4.681
 5830SOL    HW118389   3.236   5.595   4.751
 5830SOL    HW218390   3.290   5.514   4.620
 5831SOL     OW18391   1.572   2.351   5.388
 5831SOL    HW118392   1.637   2.323   5.317
 5831SOL    HW218393   1.502   2.410   5.347
 5832SOL     OW18394   3.011   4.851   1.183
 5832SOL    HW118395   2.963   4.916   1.242
 5832SOL    HW218396   2.945   4.792   1.137
 5833SOL     OW18397   3.616   4.245   6.384
 5833SOL    HW118398   3.653   4.249   6.477
 5833SOL    HW218399   3.516   4.234   6.388
 5834SOL     OW18400   5.427   3.056   6.248
 5834SOL    HW118401   5.492   3.106   6.191
 5834SOL    HW218402   5.474   3.015   6.326
 5835SOL     OW18403   5.277   0.996   2.254
 5835SOL    HW118404   5.267   0.918   2.316
 5835SOL    HW218405   5.373   1.020   2.245
 5836SOL     OW18406   4.834   6.988   3.113
 5836SOL    HW118407   4.855   0.060   3.144
 5836SOL    HW218408   4.805   6.933   3.190
 5837SOL     OW18409   3.198   4.889   0.189
 5837SOL    HW118410   3.211   4.861   0.093
 5837SOL    HW218411   3.129   4.830   0.231
 5838SOL     OW18412   2.933   1.893   0.747
 5838SOL    HW118413   2.847   1.942   0.761
 5838SOL    HW218414   2.926   1.801   0.787
 5839SOL     OW18415   2.188   1.842   1.069
 5839SOL    HW118416   2.124   1.833   1.146
 5839SOL    HW218417   2.223   1.751   1.045
 5840SOL     OW18418   1.076   3.361   3.207
 5840SOL    HW118419   0.987   3.403   3.227
 5840SOL    HW218420   1.146   3.433   3.200
 5841SOL     OW18421   5.133   2.593   0.530
 5841SOL    HW118422   5.163   2.668   0.589
 5841SOL    HW218423   5.063   2.539   0.577
 5842SOL     OW18424   2.421   1.952   0.933
 5842SOL    HW118425   2.442   2.046   0.959
 5842SOL    HW218426   2.325   1.933   0.953
 5843SOL     OW18427   1.957   3.404   1.545
 5843SOL    HW118428   1.917   3.456   1.470
 5843SOL    HW218429   1.925   3.310   1.542
 5844SOL     OW18430   0.534   6.846   5.297
 5844SOL    HW118431   0.444   6.868   5.334
 5844SOL    HW218432   0.581   6.782   5.358
 5845SOL     OW18433   1.064   6.679   1.896
 5845SOL    HW118434   1.139   6.744   1.886
 5845SOL    HW218435   1.101   6.587   1.909
 5846SOL     OW18436   6.656   3.748   5.443
 5846SOL    HW118437   6.742   3.698   5.431
 5846SOL    HW218438   6.673   3.846   5.434
 5847SOL     OW18439   2.532   3.719   0.679
 5847SOL    HW118440   2.604   3.786   0.695
 5847SOL    HW218441   2.443   3.760   0.700
 5848SOL     OW18442   2.378   5.043   2.343
 5848SOL    HW118443   2.390   4.978   2.267
 5848SOL    HW218444   2.408   5.000   2.428
 5849SOL     OW18445   3.284   5.644   5.538
 5849SOL    HW118446   3.228   5.687   5.609
 5849SOL    HW218447   3.339   5.572   5.578
 5850SOL     OW18448   1.196   1.433   2.116
 5850SOL    HW118449   1.107   1.467   2.085
 5850SOL    HW218450   1.232   1.493   2.188
 5851SOL     OW18451   5.825   4.172   4.662
 5851SOL    HW118452   5.729   4.199   4.673
 5851SOL    HW218453   5.856   4.199   4.570
 5852SOL     OW18454   4.629   4.386   2.427
 5852SOL    HW118455   4.619   4.417   2.333
 5852SOL    HW218456   4.554   4.423   2.482
 5853SOL     OW18457   3.512   5.056   5.472
 5853SOL    HW118458   3.499   4.963   5.506
 5853SOL    HW218459   3.591   5.059   5.411
 5854SOL     OW18460   2.844   4.728   5.554
 5854SOL    HW118461   2.786   4.804   5.523
 5854SOL    HW218462   2.844   4.725   5.654
 5855SOL     OW18463   2.040   3.541   3.294
 5855SOL    HW118464   2.082   3.451   3.293
 5855SOL    HW218465   1.940   3.532   3.290
 5856SOL     OW18466   1.462   6.746   3.458
 5856SOL    HW118467   1.524   6.764   3.534
 5856SOL    HW218468   1.384   6.807   3.463
 5857SOL     OW18469   6.876   4.456   6.245
 5857SOL    HW118470   6.800   4.405   6.205
 5857SOL    HW218471   6.917   4.403   6.319
 5858SOL     OW18472   1.919   0.675   3.952
 5858SOL    HW118473   1.845   0.731   3.915
 5858SOL    HW218474   1.894   0.643   4.043
 5859SOL     OW18475   6.005   0.494   1.805
 5859SOL    HW118476   6.090   0.541   1.828
 5859SOL    HW218477   5.983   0.428   1.877
 5860SOL     OW18478   0.146   4.110   3.357
 5860SOL    HW118479   0.204   4.138   3.433
 5860SOL    HW218480   0.119   4.014   3.369
 5861SOL     OW18481   5.559   0.961   5.712
 5861SOL    HW118482   5.476   1.015   5.697
 5861SOL    HW218483   5.579   0.906   5.631
 5862SOL     OW18484   0.227   5.390   2.428
 5862SOL    HW118485   0.164   5.318   2.397
 5862SOL    HW218486   0.196   5.478   2.394
 5863SOL     OW18487   4.062   0.637   5.375
 5863SOL    HW118488   4.004   0.565   5.336
 5863SOL    HW218489   4.024   0.726   5.352
 5864SOL     OW18490   3.095   3.954   2.390
 5864SOL    HW118491   3.141   3.886   2.333
 5864SOL    HW218492   3.091   4.041   2.341
 5865SOL     OW18493   5.981   0.888   5.661
 5865SOL    HW118494   6.030   0.803   5.645
 5865SOL    HW218495   6.017   0.932   5.743
 5866SOL     OW18496   3.594   2.927   3.351
 5866SOL    HW118497   3.561   2.937   3.446
 5866SOL    HW218498   3.529   2.971   3.289
 5867SOL     OW18499   3.558   2.046   2.232
 5867SOL    HW118500   3.591   2.112   2.164
 5867SOL    HW218501   3.596   2.069   2.321
 5868SOL     OW18502   1.402   1.463   5.978
 5868SOL    HW118503   1.450   1.549   5.994
 5868SOL    HW218504   1.469   1.389   5.967
 5869SOL     OW18505   0.533   6.016   3.915
 5869SOL    HW118506   0.514   5.923   3.883
 5869SOL    HW218507   0.553   6.075   3.837
 5870SOL     OW18508   4.074   4.801   4.404
 5870SOL    HW118509   4.150   4.751   4.362
 5870SOL    HW218510   4.009   4.829   4.334
 5871SOL     OW18511   3.159   3.584   4.154
 5871SOL    HW118512   3.063   3.598   4.132
 5871SOL    HW218513   3.201   3.671   4.181
 5872SOL     OW18514   4.310   5.849   1.955
 5872SOL    HW118515   4.391   5.901   1.983
 5872SOL    HW218516   4.305   5.846   1.855
 5873SOL     OW18517   3.841   5.195   1.901
 5873SOL    HW118518   3.880   5.199   1.809
 5873SOL    HW218519   3.753   5.242   1.902
 5874SOL     OW18520   3.210   4.832   5.564
 5874SOL    HW118521   3.160   4.812   5.480
 5874SOL    HW218522   3.146   4.856   5.637
 5875SOL     OW18523   2.893   1.268   0.514
 5875SOL    HW118524   2.844   1.241   0.597
 5875SOL    HW218525   2.967   1.204   0.496
 5876SOL     OW18526   3.285   3.486   1.777
 5876SOL    HW118527   3.276   3.387   1.788
 5876SOL    HW218528   3.353   3.506   1.706
 5877SOL     OW18529   5.759   4.737   6.886
 5877SOL    HW118530   5.669   4.705   6.912
 5877SOL    HW218531   5.829   4.685   6.935
 5878SOL     OW18532   2.410   4.357   2.340
 5878SOL    HW118533   2.350   4.417   2.286
 5878SOL    HW218534   2.418   4.268   2.293
 5879SOL     OW18535   6.958   4.051   5.910
 5879SOL    HW118536   0.021   4.064   5.961
 5879SOL    HW218537   6.880   4.053   5.973
 5880SOL     OW18538   1.805   5.965   0.990
 5880SOL    HW118539   1.900   5.996   0.991
 5880SOL    HW218540   1.798   5.885   0.929
 5881SOL     OW18541   0.133   5.633   4.052
 5881SOL    HW118542   0.117   5.731   4.040
 5881SOL    HW218543   0.113   5.607   4.147
 5882SOL     OW18544   4.938   0.892   1.331
 5882SOL    HW118545   4.924   0.980   1.286
 5882SOL    HW218546   4.903   0.818   1.273
 5883SOL     OW18547   0.012   3.335   5.713
 5883SOL    HW118548   7.012   3.427   5.745
 5883SOL    HW218549   6.949   3.286   5.693
 5884SOL     OW18550   0.863   1.473   3.010
 5884SOL    HW118551   0.885   1.538   2.937
 5884SOL    HW218552   0.937   1.406   3.019
 5885SOL     OW18553   6.330   6.315   1.352
 5885SOL    HW118554   6.367   6.407   1.366
 5885SOL    HW218555   6.398   6.248   1.382
 5886SOL     OW18556   1.262   1.825   6.108
 5886SOL    HW118557   1.230   1.861   6.196
 5886SOL    HW218558   1.240   1.728   6.103
 5887SOL     OW18559   3.777   0.216   4.854
 5887SOL    HW118560   3.796   0.313   4.837
 5887SOL    HW218561   3.863   0.167   4.871
 5888SOL     OW18562   2.267   0.302   3.550
 5888SOL    HW118563   2.333   0.227   3.542
 5888SOL    HW218564   2.239   0.312   3.646
 5889SOL     OW18565   2.769   0.977   0.955
 5889SOL    HW118566   2.776   1.000   1.052
 5889SOL    HW218567   2.675   0.950   0.933
 5890SOL     OW18568   2.746   5.161   5.990
 5890SOL    HW118569   2.770   5.068   5.961
 5890SOL    HW218570   2.694   5.156   6.075
 5891SOL     OW18571   3.307   3.500   0.142
 5891SOL    HW118572   3.302   3.570   0.071
 5891SOL    HW218573   3.380   3.523   0.206
 5892SOL     OW18574   0.571   6.871   1.478
 5892SOL    HW118575   0.581   6.908   1.385
 5892SOL    HW218576   0.524   6.783   1.473
 5893SOL     OW18577   1.089   1.530   3.922
 5893SOL    HW118578   1.129   1.523   3.830
 5893SOL    HW218579   1.110   1.620   3.960
 5894SOL     OW18580   0.828   3.466   3.204
 5894SOL    HW118581   0.789   3.395   3.146
 5894SOL    HW218582   0.755   3.524   3.240
 5895SOL     OW18583   5.732   3.664   3.740
 5895SOL    HW118584   5.702   3.684   3.647
 5895SOL    HW218585   5.655   3.630   3.794
 5896SOL     OW18586   3.494   2.423   6.930
 5896SOL    HW118587   3.428   2.480   6.881
 5896SOL    HW218588   3.579   2.419   6.877
 5897SOL     OW18589   3.927   0.091   1.325
 5897SOL    HW118590   3.891   0.120   1.236
 5897SOL    HW218591   3.951   0.172   1.378
 5898SOL     OW18592   2.028   0.430   2.467
 5898SOL    HW118593   1.931   0.453   2.470
 5898SOL    HW218594   2.043   0.339   2.505
 5899SOL     OW18595   5.825   0.100   4.660
 5899SOL    HW118596   5.812   0.001   4.663
 5899SOL    HW218597   5.837   0.130   4.565
 5900SOL     OW18598   4.973   4.765   2.678
 5900SOL    HW118599   4.940   4.674   2.702
 5900SOL    HW218600   4.897   4.819   2.641
 5901SOL     OW18601   2.760   6.588   5.987
 5901SOL    HW118602   2.838   6.595   6.050
 5901SOL    HW218603   2.763   6.666   5.923
 5902SOL     OW18604   6.321   2.120   6.925
 5902SOL    HW118605   6.365   2.050   6.982
 5902SOL    HW218606   6.367   2.208   6.938
 5903SOL     OW18607   6.346   3.282   6.764
 5903SOL    HW118608   6.433   3.286   6.713
 5903SOL    HW218609   6.323   3.373   6.798
 5904SOL     OW18610   6.905   3.347   2.246
 5904SOL    HW118611   6.874   3.266   2.295
 5904SOL    HW218612   6.848   3.425   2.272
 5905SOL     OW18613   6.867   5.882   2.235
 5905SOL    HW118614   6.965   5.902   2.231
 5905SOL    HW218615   6.835   5.892   2.329
 5906SOL     OW18616   5.530   0.960   3.672
 5906SOL    HW118617   5.627   0.938   3.662
 5906SOL    HW218618   5.485   0.956   3.582
 5907SOL     OW18619   1.247   5.884   2.093
 5907SOL    HW118620   1.197   5.839   2.167
 5907SOL    HW218621   1.327   5.829   2.069
 5908SOL     OW18622   6.898   2.899   5.099
 5908SOL    HW118623   6.833   2.824   5.084
 5908SOL    HW218624   6.923   2.901   5.196
 5909SOL     OW18625   0.210   5.994   0.676
 5909SOL    HW118626   0.230   6.040   0.763
 5909SOL    HW218627   0.251   6.046   0.601
 5910SOL     OW18628   1.913   2.774   3.079
 5910SOL    HW118629   1.956   2.794   3.167
 5910SOL    HW218630   1.983   2.757   3.011
 5911SOL     OW18631   6.891   5.917   6.217
 5911SOL    HW118632   6.824   5.843   6.212
 5911SOL    HW218633   6.982   5.883   6.192
 5912SOL     OW18634   6.855   1.404   4.093
 5912SOL    HW118635   6.758   1.392   4.073
 5912SOL    HW218636   6.902   1.436   4.010
 5913SOL     OW18637   5.358   2.425   6.858
 5913SOL    HW118638   5.307   2.341   6.877
 5913SOL    HW218639   5.310   2.477   6.787
 5914SOL     OW18640   0.767   6.481   6.939
 5914SOL    HW118641   0.677   6.437   6.943
 5914SOL    HW218642   0.815   6.467   0.004
 5915SOL     OW18643   4.385   1.027   6.204
 5915SOL    HW118644   4.286   1.033   6.192
 5915SOL    HW218645   4.427   1.112   6.173
 5916SOL     OW18646   1.330   6.488   2.759
 5916SOL    HW118647   1.252   6.536   2.799
 5916SOL    HW218648   1.370   6.426   2.827
 5917SOL     OW18649   3.193   4.477   6.758
 5917SOL    HW118650   3.133   4.556   6.745
 5917SOL    HW218651   3.230   4.480   6.851
 5918SOL     OW18652   2.932   6.653   6.200
 5918SOL    HW118653   3.001   6.715   6.238
 5918SOL    HW218654   2.855   6.647   6.264
 5919SOL     OW18655   3.514   2.992   3.612
 5919SOL    HW118656   3.528   3.082   3.652
 5919SOL    HW218657   3.419   2.963   3.627
 5920SOL     OW18658   6.926   0.280   5.874
 5920SOL    HW118659   6.920   0.375   5.905
 5920SOL    HW218660   6.834   0.241   5.868
 5921SOL     OW18661   3.290   4.806   6.623
 5921SOL    HW118662   3.290   4.847   6.714
 5921SOL    HW218663   3.234   4.862   6.561
 5922SOL     OW18664   5.360   3.643   3.225
 5922SOL    HW118665   5.362   3.740   3.249
 5922SOL    HW218666   5.283   3.625   3.165
 5923SOL     OW18667   0.129   1.045   1.555
 5923SOL    HW118668   0.173   1.074   1.470
 5923SOL    HW218669   0.185   0.974   1.599
 5924SOL     OW18670   6.424   0.310   3.051
 5924SOL    HW118671   6.404   0.296   3.148
 5924SOL    HW218672   6.406   0.225   3.001
 5925SOL     OW18673   4.649   6.006   1.332
 5925SOL    HW118674   4.740   6.007   1.374
 5925SOL    HW218675   4.637   6.088   1.276
 5926SOL     OW18676   3.918   4.800   3.007
 5926SOL    HW118677   3.893   4.896   3.019
 5926SOL    HW218678   3.852   4.742   3.055
 5927SOL     OW18679   1.018   4.642   1.849
 5927SOL    HW118680   0.980   4.560   1.806
 5927SOL    HW218681   1.018   4.717   1.783
 5928SOL     OW18682   3.820   0.260   0.498
 5928SOL    HW118683   3.803   0.164   0.520
 5928SOL    HW218684   3.741   0.299   0.452
 5929SOL     OW18685   0.685   1.083   5.977
 5929SOL    HW118686   0.586   1.067   5.976
 5929SOL    HW218687   0.729   1.018   6.038
 5930SOL     OW18688   1.575   3.589   2.135
 5930SOL    HW118689   1.487   3.634   2.150
 5930SOL    HW218690   1.572   3.497   2.175
 5931SOL     OW18691   5.640   5.807   3.159
 5931SOL    HW118692   5.653   5.905   3.176
 5931SOL    HW218693   5.724   5.758   3.181
 5932SOL     OW18694   2.586   1.181   6.755
 5932SOL    HW118695   2.683   1.184   6.731
 5932SOL    HW218696   2.531   1.166   6.672
 5933SOL     OW18697   6.237   6.016   3.814
 5933SOL    HW118698   6.328   6.049   3.792
 5933SOL    HW218699   6.243   5.945   3.885
 5934SOL     OW18700   2.821   3.664   5.645
 5934SOL    HW118701   2.911   3.639   5.681
 5934SOL    HW218702   2.830   3.700   5.553
 5935SOL     OW18703   6.786   6.635   5.106
 5935SOL    HW118704   6.753   6.652   5.013
 5935SOL    HW218705   6.707   6.625   5.167
 5936SOL     OW18706   2.833   3.403   2.197
 5936SOL    HW118707   2.875   3.321   2.158
 5936SOL    HW218708   2.736   3.385   2.214
 5937SOL     OW18709   6.929   3.113   1.579
 5937SOL    HW118710   6.963   3.041   1.639
 5937SOL    HW218711   6.910   3.195   1.632
 5938SOL     OW18712   6.773   5.021   5.012
 5938SOL    HW118713   6.732   5.055   5.097
 5938SOL    HW218714   6.779   5.096   4.946
 5939SOL     OW18715   3.308   0.637   4.476
 5939SOL    HW118716   3.402   0.602   4.477
 5939SOL    HW218717   3.304   0.721   4.531
 5940SOL     OW18718   4.973   5.840   2.472
 5940SOL    HW118719   5.054   5.897   2.465
 5940SOL    HW218720   4.988   5.754   2.424
 5941SOL     OW18721   6.878   2.240   1.589
 5941SOL    HW118722   6.820   2.227   1.669
 5941SOL    HW218723   6.952   2.172   1.590
 5942SOL     OW18724   5.720   3.576   5.641
 5942SOL    HW118725   5.751   3.484   5.616
 5942SOL    HW218726   5.701   3.628   5.557
 5943SOL     OW18727   3.631   4.045   0.822
 5943SOL    HW118728   3.716   4.085   0.787
 5943SOL    HW218729   3.643   4.021   0.919
 5944SOL     OW18730   0.815   3.363   6.604
 5944SOL    HW118731   0.787   3.448   6.647
 5944SOL    HW218732   0.734   3.304   6.592
 5945SOL     OW18733   0.099   5.510   5.313
 5945SOL    HW118734   0.164   5.478   5.244
 5945SOL    HW218735   0.099   5.446   5.390
 5946SOL     OW18736   3.780   4.486   0.589
 5946SOL    HW118737   3.747   4.396   0.617
 5946SOL    HW218738   3.811   4.482   0.494
 5947SOL     OW18739   3.086   3.032   4.852
 5947SOL    HW118740   3.020   2.964   4.885
 5947SOL    HW218741   3.114   3.091   4.927
 5948SOL     OW18742   4.828   4.026   2.277
 5948SOL    HW118743   4.824   4.080   2.362
 5948SOL    HW218744   4.804   4.085   2.200
 5949SOL     OW18745   6.923   5.009   1.890
 5949SOL    HW118746   6.981   5.007   1.972
 5949SOL    HW218747   6.944   4.929   1.833
 5950SOL     OW18748   4.918   1.671   5.970
 5950SOL    HW118749   4.866   1.716   5.897
 5950SOL    HW218750   4.875   1.584   5.992
 5951SOL     OW18751   1.064   4.689   5.990
 5951SOL    HW118752   1.063   4.669   6.088
 5951SOL    HW218753   1.010   4.620   5.941
 5952SOL     OW18754   3.903   5.104   1.418
 5952SOL    HW118755   3.853   5.031   1.372
 5952SOL    HW218756   3.999   5.102   1.389
 5953SOL     OW18757   6.361   2.357   5.476
 5953SOL    HW118758   6.408   2.298   5.542
 5953SOL    HW218759   6.272   2.318   5.454
 5954SOL     OW18760   0.484   6.154   4.613
 5954SOL    HW118761   0.540   6.187   4.537
 5954SOL    HW218762   0.463   6.230   4.674
 5955SOL     OW18763   5.955   4.063   0.594
 5955SOL    HW118764   6.016   4.101   0.664
 5955SOL    HW218765   6.010   4.013   0.527
 5956SOL     OW18766   4.615   2.328   4.314
 5956SOL    HW118767   4.706   2.288   4.304
 5956SOL    HW218768   4.610   2.413   4.263
 5957SOL     OW18769   1.330   0.981   2.557
 5957SOL    HW118770   1.366   0.889   2.570
 5957SOL    HW218771   1.403   1.041   2.524
 5958SOL     OW18772   3.374   6.760   2.839
 5958SOL    HW118773   3.447   6.800   2.895
 5958SOL    HW218774   3.289   6.758   2.891
 5959SOL     OW18775   4.677   2.109   4.930
 5959SOL    HW118776   4.729   2.025   4.949
 5959SOL    HW218777   4.601   2.087   4.869
 5960SOL     OW18778   4.095   6.751   6.135
 5960SOL    HW118779   4.130   6.838   6.170
 5960SOL    HW218780   4.027   6.768   6.063
 5961SOL     OW18781   2.994   1.508   2.966
 5961SOL    HW118782   3.016   1.581   3.031
 5961SOL    HW218783   3.024   1.535   2.875
 5962SOL     OW18784   5.740   5.955   0.492
 5962SOL    HW118785   5.649   5.976   0.457
 5962SOL    HW218786   5.789   6.040   0.511
 5963SOL     OW18787   3.700   4.813   0.258
 5963SOL    HW118788   3.609   4.845   0.284
 5963SOL    HW218789   3.759   4.812   0.339
 5964SOL     OW18790   1.927   6.721   2.483
 5964SOL    HW118791   2.023   6.731   2.458
 5964SOL    HW218792   1.885   6.648   2.429
 5965SOL     OW18793   1.879   6.446   0.026
 5965SOL    HW118794   1.966   6.422   7.006
 5965SOL    HW218795   1.839   6.366   0.071
 5966SOL     OW18796   2.342   0.701   5.707
 5966SOL    HW118797   2.358   0.650   5.623
 5966SOL    HW218798   2.425   0.749   5.733
 5967SOL     OW18799   2.244   1.795   4.745
 5967SOL    HW118800   2.228   1.701   4.774
 5967SOL    HW218801   2.324   1.832   4.792
 5968SOL     OW18802   5.603   2.333   0.613
 5968SOL    HW118803   5.622   2.430   0.622
 5968SOL    HW218804   5.636   2.284   0.694
 5969SOL     OW18805   5.464   0.773   6.756
 5969SOL    HW118806   5.455   0.677   6.729
 5969SOL    HW218807   5.449   0.832   6.677
 5970SOL     OW18808   0.270   3.140   0.950
 5970SOL    HW118809   0.325   3.159   0.869
 5970SOL    HW218810   0.232   3.047   0.944
 5971SOL     OW18811   6.627   0.254   3.583
 5971SOL    HW118812   6.720   0.260   3.621
 5971SOL    HW218813   6.603   0.342   3.542
 5972SOL     OW18814   5.278   5.234   0.856
 5972SOL    HW118815   5.243   5.151   0.811
 5972SOL    HW218816   5.207   5.271   0.917
 5973SOL     OW18817   1.859   3.094   2.996
 5973SOL    HW118818   1.772   3.046   3.007
 5973SOL    HW218819   1.889   3.130   3.085
 5974SOL     OW18820   4.732   1.131   6.120
 5974SOL    HW118821   4.753   1.099   6.027
 5974SOL    HW218822   4.650   1.189   6.117
 5975SOL     OW18823   5.909   4.579   0.027
 5975SOL    HW118824   5.873   4.533   0.108
 5975SOL    HW218825   6.007   4.558   0.018
 5976SOL     OW18826   3.272   3.821   5.743
 5976SOL    HW118827   3.227   3.879   5.811
 5976SOL    HW218828   3.253   3.855   5.651
 5977SOL     OW18829   6.791   4.978   0.233
 5977SOL    HW118830   6.863   5.045   0.250
 5977SOL    HW218831   6.801   4.944   0.139
 5978SOL     OW18832   3.197   5.162   0.105
 5978SOL    HW118833   3.206   5.066   0.134
 5978SOL    HW218834   3.101   5.181   0.084
 5979SOL     OW18835   6.492   0.788   1.434
 5979SOL    HW118836   6.544   0.847   1.372
 5979SOL    HW218837   6.429   0.843   1.487
 5980SOL     OW18838   3.776   3.180   1.823
 5980SOL    HW118839   3.817   3.089   1.818
 5980SOL    HW218840   3.704   3.187   1.753
 5981SOL     OW18841   3.662   1.840   0.113
 5981SOL    HW118842   3.699   1.929   0.138
 5981SOL    HW218843   3.573   1.852   0.069
 5982SOL     OW18844   5.929   2.275   1.627
 5982SOL    HW118845   5.924   2.180   1.599
 5982SOL    HW218846   6.013   2.289   1.681
 5983SOL     OW18847   0.081   0.760   4.257
 5983SOL    HW118848   0.133   0.677   4.274
 5983SOL    HW218849   0.106   0.797   4.167
 5984SOL     OW18850   6.356   6.627   2.831
 5984SOL    HW118851   6.380   6.614   2.927
 5984SOL    HW218852   6.281   6.565   2.807
 5985SOL     OW18853   6.204   2.146   2.793
 5985SOL    HW118854   6.158   2.179   2.875
 5985SOL    HW218855   6.153   2.070   2.754
 5986SOL     OW18856   4.221   3.659   5.493
 5986SOL    HW118857   4.271   3.651   5.407
 5986SOL    HW218858   4.218   3.755   5.522
 5987SOL     OW18859   6.432   0.888   5.299
 5987SOL    HW118860   6.371   0.967   5.302
 5987SOL    HW218861   6.429   0.840   5.386
 5988SOL     OW18862   2.298   2.207   0.173
 5988SOL    HW118863   2.266   2.297   0.201
 5988SOL    HW218864   2.398   2.204   0.180
 5989SOL     OW18865   0.445   5.825   6.877
 5989SOL    HW118866   0.396   5.876   6.806
 5989SOL    HW218867   0.401   5.841   6.966
 5990SOL     OW18868   3.999   4.802   1.488
 5990SOL    HW118869   3.920   4.795   1.549
 5990SOL    HW218870   3.967   4.806   1.393
 5991SOL     OW18871   5.752   6.351   1.103
 5991SOL    HW118872   5.839   6.399   1.094
 5991SOL    HW218873   5.689   6.381   1.031
 5992SOL     OW18874   3.558   0.012   2.074
 5992SOL    HW118875   3.593   6.940   2.074
 5992SOL    HW218876   3.587   0.059   1.990
 5993SOL     OW18877   6.120   2.239   0.135
 5993SOL    HW118878   6.123   2.321   0.078
 5993SOL    HW218879   6.071   2.167   0.086
 5994SOL     OW18880   6.903   2.822   0.345
 5994SOL    HW118881   6.911   2.907   0.294
 5994SOL    HW218882   6.863   2.841   0.434
 5995SOL     OW18883   5.061   3.516   1.656
 5995SOL    HW118884   5.084   3.606   1.619
 5995SOL    HW218885   5.129   3.489   1.723
 5996SOL     OW18886   3.010   5.722   1.574
 5996SOL    HW118887   2.930   5.782   1.573
 5996SOL    HW218888   3.040   5.709   1.669
 5997SOL     OW18889   6.977   6.786   3.272
 5997SOL    HW118890   7.006   6.784   3.176
 5997SOL    HW218891   6.877   6.797   3.276
 5998SOL     OW18892   6.820   0.735   1.574
 5998SOL    HW118893   6.912   0.696   1.584
 5998SOL    HW218894   6.758   0.665   1.538
 5999SOL     OW18895   3.992   3.395   1.344
 5999SOL    HW118896   4.055   3.366   1.416
 5999SOL    HW218897   3.929   3.320   1.324
 6000SOL     OW18898   6.846   4.973   6.941
 6000SOL    HW118899   6.774   5.043   6.943
 6000SOL    HW218900   6.829   4.911   6.864
 6001SOL     OW18901   5.297   6.092   5.166
 6001SOL    HW118902   5.343   6.180   5.178
 6001SOL    HW218903   5.260   6.086   5.073
 6002SOL     OW18904   6.434   6.393   4.672
 6002SOL    HW118905   6.338   6.418   4.669
 6002SOL    HW218906   6.465   6.389   4.767
 6003SOL     OW18907   6.833   2.866   4.209
 6003SOL    HW118908   6.750   2.840   4.259
 6003SOL    HW218909   6.871   2.786   4.163
 6004SOL     OW18910   5.319   2.712   3.807
 6004SOL    HW118911   5.367   2.629   3.778
 6004SOL    HW218912   5.343   2.787   3.746
 6005SOL     OW18913   4.122   4.774   5.975
 6005SOL    HW118914   4.191   4.815   6.034
 6005SOL    HW218915   4.166   4.728   5.898
 6006SOL     OW18916   3.503   6.197   5.784
 6006SOL    HW118917   3.507   6.224   5.688
 6006SOL    HW218918   3.450   6.266   5.835
 6007SOL     OW18919   0.988   4.903   5.514
 6007SOL    HW118920   0.973   4.817   5.562
 6007SOL    HW218921   0.998   4.977   5.579
 6008SOL     OW18922   2.321   5.210   5.523
 6008SOL    HW118923   2.307   5.199   5.621
 6008SOL    HW218924   2.291   5.127   5.475
 6009SOL     OW18925   4.153   5.492   3.529
 6009SOL    HW118926   4.243   5.534   3.536
 6009SOL    HW218927   4.136   5.464   3.434
 6010SOL     OW18928   0.057   4.664   4.764
 6010SOL    HW118929   0.125   4.721   4.718
 6010SOL    HW218930   0.095   4.573   4.779
 6011SOL     OW18931   6.073   1.251   2.576
 6011SOL    HW118932   6.067   1.304   2.492
 6011SOL    HW218933   6.144   1.181   2.568
 6012SOL     OW18934   6.901   0.482   6.076
 6012SOL    HW118935   6.995   0.501   6.102
 6012SOL    HW218936   6.843   0.561   6.098
 6013SOL     OW18937   5.783   1.164   2.926
 6013SOL    HW118938   5.854   1.141   2.859
 6013SOL    HW218939   5.825   1.201   3.008
 6014SOL     OW18940   3.910   3.093   3.938
 6014SOL    HW118941   3.962   3.087   3.853
 6014SOL    HW218942   3.812   3.093   3.916
 6015SOL     OW18943   6.321   1.884   4.681
 6015SOL    HW118944   6.261   1.964   4.676
 6015SOL    HW218945   6.392   1.892   4.611
 6016SOL     OW18946   5.310   1.501   4.749
 6016SOL    HW118947   5.315   1.405   4.776
 6016SOL    HW218948   5.238   1.547   4.801
 6017SOL     OW18949   0.270   3.181   4.928
 6017SOL    HW118950   0.251   3.161   5.024
 6017SOL    HW218951   0.236   3.273   4.906
 6018SOL     OW18952   3.620   1.494   5.802
 6018SOL    HW118953   3.670   1.512   5.717
 6018SOL    HW218954   3.659   1.549   5.875
 6019SOL     OW18955   0.429   3.821   6.485
 6019SOL    HW118956   0.345   3.852   6.530
 6019SOL    HW218957   0.406   3.772   6.401
 6020SOL     OW18958   0.549   4.588   0.498
 6020SOL    HW118959   0.562   4.490   0.514
 6020SOL    HW218960   0.460   4.616   0.535
 6021SOL     OW18961   3.920   0.626   3.155
 6021SOL    HW118962   3.959   0.575   3.079
 6021SOL    HW218963   3.894   0.562   3.228
 6022SOL     OW18964   6.664   1.625   2.265
 6022SOL    HW118965   6.704   1.678   2.340
 6022SOL    HW218966   6.565   1.629   2.271
 6023SOL     OW18967   4.831   0.710   1.134
 6023SOL    HW118968   4.794   0.618   1.144
 6023SOL    HW218969   4.928   0.705   1.112
 6024SOL     OW18970   0.180   5.310   0.444
 6024SOL    HW118971   0.128   5.395   0.453
 6024SOL    HW218972   0.271   5.322   0.482
 6025SOL     OW18973   2.294   1.272   4.045
 6025SOL    HW118974   2.342   1.227   4.120
 6025SOL    HW218975   2.259   1.360   4.075
 6026SOL     OW18976   5.923   4.212   4.406
 6026SOL    HW118977   5.912   4.129   4.350
 6026SOL    HW218978   5.973   4.281   4.353
 6027SOL     OW18979   6.013   3.374   5.735
 6027SOL    HW118980   6.081   3.326   5.679
 6027SOL    HW218981   6.016   3.472   5.713
 6028SOL     OW18982   5.127   4.762   6.439
 6028SOL    HW118983   5.218   4.734   6.469
 6028SOL    HW218984   5.116   4.742   6.341
 6029SOL     OW18985   2.562   0.744   3.279
 6029SOL    HW118986   2.628   0.817   3.258
 6029SOL    HW218987   2.591   0.660   3.233
 6030SOL     OW18988   5.016   3.745   4.760
 6030SOL    HW118989   5.058   3.800   4.688
 6030SOL    HW218990   4.964   3.804   4.821
 6031SOL     OW18991   0.501   5.857   4.979
 6031SOL    HW118992   0.531   5.891   4.890
 6031SOL    HW218993   0.579   5.854   5.042
 6032SOL     OW18994   2.846   6.681   3.962
 6032SOL    HW118995   2.943   6.704   3.977
 6032SOL    HW218996   2.791   6.764   3.968
 6033SOL     OW18997   2.437   1.830   2.720
 6033SOL    HW118998   2.379   1.877   2.786
 6033SOL    HW218999   2.439   1.732   2.741
 6034SOL     OW19000   1.865   0.342   6.842
 6034SOL    HW119001   1.775   0.380   6.817
 6034SOL    HW219002   1.881   0.356   6.939
 6035SOL     OW19003   1.163   1.084   2.758
 6035SOL    HW119004   1.221   1.067   2.678
 6035SOL    HW219005   1.178   1.012   2.826
 6036SOL     OW19006   5.883   3.437   0.587
 6036SOL    HW119007   5.841   3.482   0.666
 6036SOL    HW219008   5.816   3.432   0.513
 6037SOL     OW19009   4.097   1.878   0.579
 6037SOL    HW119010   4.114   1.896   0.676
 6037SOL    HW219011   3.998   1.870   0.564
 6038SOL     OW19012   0.475   2.209   6.245
 6038SOL    HW119013   0.509   2.221   6.338
 6038SOL    HW219014   0.413   2.284   6.222
 6039SOL     OW19015   3.307   3.971   3.932
 6039SOL    HW119016   3.353   4.059   3.944
 6039SOL    HW219017   3.375   3.898   3.934
 6040SOL     OW19018   1.405   1.507   6.756
 6040SOL    HW119019   1.344   1.572   6.712
 6040SOL    HW219020   1.352   1.439   6.806
 6041SOL     OW19021   2.966   2.584   6.012
 6041SOL    HW119022   3.034   2.515   6.037
 6041SOL    HW219023   3.011   2.671   5.993
 6042SOL     OW19024   2.897   6.253   3.952
 6042SOL    HW119025   2.860   6.346   3.948
 6042SOL    HW219026   2.867   6.202   3.872
 6043SOL     OW19027   1.817   0.958   4.149
 6043SOL    HW119028   1.776   0.881   4.100
 6043SOL    HW219029   1.887   1.000   4.092
 6044SOL     OW19030   1.644   2.223   1.697
 6044SOL    HW119031   1.731   2.179   1.674
 6044SOL    HW219032   1.649   2.321   1.676
 6045SOL     OW19033   5.153   2.684   3.016
 6045SOL    HW119034   5.122   2.777   2.995
 6045SOL    HW219035   5.095   2.618   2.969
 6046SOL     OW19036   3.483   3.194   2.112
 6046SOL    HW119037   3.405   3.252   2.134
 6046SOL    HW219038   3.452   3.101   2.095
 6047SOL     OW19039   5.915   1.749   0.779
 6047SOL    HW119040   5.979   1.789   0.845
 6047SOL    HW219041   5.834   1.806   0.771
 6048SOL     OW19042   5.891   5.835   4.877
 6048SOL    HW119043   5.930   5.746   4.853
 6048SOL    HW219044   5.815   5.822   4.941
 6049SOL     OW19045   5.020   4.658   5.192
 6049SOL    HW119046   4.948   4.716   5.232
 6049SOL    HW219047   5.077   4.714   5.131
 6050SOL     OW19048   3.164   5.492   1.356
 6050SOL    HW119049   3.141   5.492   1.259
 6050SOL    HW219050   3.153   5.585   1.393
 6051SOL     OW19051   0.731   1.662   3.178
 6051SOL    HW119052   0.640   1.666   3.138
 6051SOL    HW219053   0.790   1.603   3.123
 6052SOL     OW19054   5.829   6.465   0.414
 6052SOL    HW119055   5.766   6.433   0.485
 6052SOL    HW219056   5.919   6.480   0.454
 6053SOL     OW19057   4.541   2.180   6.288
 6053SOL    HW119058   4.598   2.172   6.207
 6053SOL    HW219059   4.578   2.123   6.361
 6054SOL     OW19060   4.403   4.707   1.266
 6054SOL    HW119061   4.480   4.751   1.220
 6054SOL    HW219062   4.362   4.639   1.205
 6055SOL     OW19063   3.443   4.873   0.307
 6055SOL    HW119064   3.350   4.884   0.271
 6055SOL    HW219065   3.449   4.915   0.397
 6056SOL     OW19066   6.125   4.105   5.156
 6056SOL    HW119067   6.164   4.196   5.143
 6056SOL    HW219068   6.051   4.091   5.091
 6057SOL     OW19069   5.215   0.403   2.848
 6057SOL    HW119070   5.293   0.371   2.795
 6057SOL    HW219071   5.156   0.460   2.791
 6058SOL     OW19072   5.805   2.359   6.642
 6058SOL    HW119073   5.773   2.266   6.662
 6058SOL    HW219074   5.899   2.369   6.672
 6059SOL     OW19075   5.116   4.502   5.929
 6059SOL    HW119076   5.161   4.508   5.839
 6059SOL    HW219077   5.169   4.442   5.989
 6060SOL     OW19078   2.983   3.274   6.720
 6060SOL    HW119079   2.901   3.225   6.751
 6060SOL    HW219080   2.980   3.368   6.753
 6061SOL     OW19081   4.527   5.003   0.667
 6061SOL    HW119082   4.608   4.998   0.609
 6061SOL    HW219083   4.526   5.091   0.714
 6062SOL     OW19084   2.760   2.462   0.643
 6062SOL    HW119085   2.695   2.484   0.716
 6062SOL    HW219086   2.823   2.392   0.676
 6063SOL     OW19087   3.619   5.007   5.997
 6063SOL    HW119088   3.605   4.973   6.090
 6063SOL    HW219089   3.531   5.008   5.948
 6064SOL     OW19090   0.101   0.252   0.939
 6064SOL    HW119091   0.125   0.224   1.032
 6064SOL    HW219092   0.034   0.326   0.943
 6065SOL     OW19093   1.060   5.117   2.153
 6065SOL    HW119094   1.043   5.197   2.096
 6065SOL    HW219095   1.155   5.118   2.185
 6066SOL     OW19096   4.935   0.335   3.517
 6066SOL    HW119097   4.854   0.370   3.471
 6066SOL    HW219098   4.958   0.245   3.480
 6067SOL     OW19099   6.132   0.321   6.009
 6067SOL    HW119100   6.117   0.231   5.969
 6067SOL    HW219101   6.226   0.351   5.989
 6068SOL     OW19102   4.938   1.351   5.427
 6068SOL    HW119103   4.936   1.397   5.516
 6068SOL    HW219104   4.869   1.279   5.424
 6069SOL     OW19105   0.029   2.744   5.753
 6069SOL    HW119106   0.031   2.689   5.836
 6069SOL    HW219107   7.004   2.830   5.771
 6070SOL     OW19108   3.632   1.874   1.155
 6070SOL    HW119109   3.571   1.894   1.078
 6070SOL    HW219110   3.689   1.953   1.174
 6071SOL     OW19111   5.907   6.241   5.013
 6071SOL    HW119112   5.961   6.158   5.026
 6071SOL    HW219113   5.904   6.292   5.099
 6072SOL     OW19114   0.233   2.562   1.188
 6072SOL    HW119115   0.261   2.556   1.092
 6072SOL    HW219116   0.267   2.482   1.237
 6073SOL     OW19117   4.742   2.408   0.467
 6073SOL    HW119118   4.670   2.352   0.426
 6073SOL    HW219119   4.734   2.502   0.434
 6074SOL     OW19120   1.306   6.348   2.296
 6074SOL    HW119121   1.344   6.377   2.383
 6074SOL    HW219122   1.240   6.274   2.312
 6075SOL     OW19123   4.547   6.571   6.370
 6075SOL    HW119124   4.522   6.582   6.466
 6075SOL    HW219125   4.520   6.653   6.319
 6076SOL     OW19126   2.790   4.830   4.110
 6076SOL    HW119127   2.725   4.892   4.067
 6076SOL    HW219128   2.756   4.802   4.200
 6077SOL     OW19129   6.292   6.609   1.540
 6077SOL    HW119130   6.292   6.517   1.580
 6077SOL    HW219131   6.369   6.617   1.476
 6078SOL     OW19132   4.810   4.165   0.213
 6078SOL    HW119133   4.766   4.135   0.297
 6078SOL    HW219134   4.795   4.097   0.141
 6079SOL     OW19135   4.136   4.157   5.971
 6079SOL    HW119136   4.190   4.237   5.947
 6079SOL    HW219137   4.067   4.182   6.039
 6080SOL     OW19138   1.306   4.811   0.739
 6080SOL    HW119139   1.337   4.897   0.701
 6080SOL    HW219140   1.374   4.776   0.804
 6081SOL     OW19141   0.263   3.678   5.025
 6081SOL    HW119142   0.234   3.743   5.095
 6081SOL    HW219143   0.331   3.722   4.966
 6082SOL     OW19144   4.512   0.955   0.953
 6082SOL    HW119145   4.538   0.924   0.862
 6082SOL    HW219146   4.442   1.026   0.946
 6083SOL     OW19147   5.055   6.027   6.625
 6083SOL    HW119148   5.146   6.031   6.668
 6083SOL    HW219149   5.054   5.956   6.555
 6084SOL     OW19150   0.513   6.745   2.357
 6084SOL    HW119151   0.612   6.739   2.368
 6084SOL    HW219152   0.479   6.827   2.405
 6085SOL     OW19153   6.833   6.277   0.372
 6085SOL    HW119154   6.836   6.373   0.400
 6085SOL    HW219155   6.926   6.246   0.351
 6086SOL     OW19156   3.964   3.440   6.820
 6086SOL    HW119157   3.887   3.391   6.860
 6086SOL    HW219158   3.999   3.388   6.742
 6087SOL     OW19159   5.219   6.954   0.370
 6087SOL    HW119160   5.215   6.939   0.469
 6087SOL    HW219161   5.148   6.899   0.326
 6088SOL     OW19162   5.176   6.494   4.413
 6088SOL    HW119163   5.164   6.470   4.316
 6088SOL    HW219164   5.203   6.590   4.420
 6089SOL     OW19165   6.277   2.242   2.540
 6089SOL    HW119166   6.300   2.338   2.555
 6089SOL    HW219167   6.235   2.205   2.623
 6090SOL     OW19168   3.879   5.579   4.177
 6090SOL    HW119169   3.971   5.578   4.137
 6090SOL    HW219170   3.879   5.528   4.263
 6091SOL     OW19171   2.623   1.347   1.338
 6091SOL    HW119172   2.610   1.413   1.411
 6091SOL    HW219173   2.713   1.359   1.297
 6092SOL     OW19174   4.181   6.400   1.592
 6092SOL    HW119175   4.197   6.467   1.665
 6092SOL    HW219176   4.237   6.319   1.608
 6093SOL     OW19177   2.515   1.636   2.291
 6093SOL    HW119178   2.535   1.590   2.378
 6093SOL    HW219179   2.453   1.579   2.237
 6094SOL     OW19180   0.577   6.744   4.345
 6094SOL    HW119181   0.516   6.802   4.400
 6094SOL    HW219182   0.566   6.649   4.374
 6095SOL     OW19183   4.401   6.072   0.199
 6095SOL    HW119184   4.394   5.973   0.216
 6095SOL    HW219185   4.497   6.096   0.184
 6096SOL     OW19186   5.888   6.800   2.041
 6096SOL    HW119187   5.891   6.855   2.124
 6096SOL    HW219188   5.800   6.753   2.035
 6097SOL     OW19189   1.832   5.985   2.549
 6097SOL    HW119190   1.799   5.947   2.635
 6097SOL    HW219191   1.760   5.979   2.480
 6098SOL     OW19192   6.900   0.888   5.173
 6098SOL    HW119193   6.823   0.943   5.207
 6098SOL    HW219194   6.959   0.946   5.117
 6099SOL     OW19195   5.120   5.721   5.981
 6099SOL    HW119196   5.195   5.690   6.039
 6099SOL    HW219197   5.156   5.786   5.914
 6100SOL     OW19198   6.659   5.729   4.201
 6100SOL    HW119199   6.759   5.719   4.195
 6100SOL    HW219200   6.635   5.824   4.184
 6101SOL     OW19201   5.928   2.420   1.150
 6101SOL    HW119202   5.902   2.492   1.214
 6101SOL    HW219203   5.857   2.350   1.146
 6102SOL     OW19204   4.271   6.348   2.262
 6102SOL    HW119205   4.327   6.274   2.300
 6102SOL    HW219206   4.254   6.329   2.165
 6103SOL     OW19207   6.330   1.329   1.872
 6103SOL    HW119208   6.277   1.374   1.800
 6103SOL    HW219209   6.273   1.320   1.955
 6104SOL     OW19210   6.078   0.995   4.630
 6104SOL    HW119211   6.057   0.914   4.575
 6104SOL    HW219212   6.024   0.992   4.714
 6105SOL     OW19213   2.835   6.190   5.984
 6105SOL    HW119214   2.829   6.234   5.895
 6105SOL    HW219215   2.885   6.249   6.047
 6106SOL     OW19216   0.658   3.701   6.888
 6106SOL    HW119217   0.748   3.734   6.918
 6106SOL    HW219218   0.611   3.776   6.841
 6107SOL     OW19219   4.736   4.608   4.557
 6107SOL    HW119220   4.695   4.533   4.506
 6107SOL    HW219221   4.677   4.689   4.551
 6108SOL     OW19222   1.384   1.034   1.675
 6108SOL    HW119223   1.322   0.979   1.731
 6108SOL    HW219224   1.479   1.010   1.695
 6109SOL     OW19225   5.247   6.828   3.046
 6109SOL    HW119226   5.272   6.832   3.142
 6109SOL    HW219227   5.315   6.879   2.992
 6110SOL     OW19228   0.627   2.219   5.361
 6110SOL    HW119229   0.703   2.247   5.302
 6110SOL    HW219230   0.554   2.179   5.305
 6111SOL     OW19231   1.346   3.765   1.601
 6111SOL    HW119232   1.436   3.781   1.643
 6111SOL    HW219233   1.321   3.669   1.612
 6112SOL     OW19234   4.046   0.261   2.289
 6112SOL    HW119235   3.966   0.234   2.343
 6112SOL    HW219236   4.127   0.214   2.324
 6113SOL     OW19237   2.229   5.269   0.071
 6113SOL    HW119238   2.150   5.315   0.030
 6113SOL    HW219239   2.213   5.256   0.169
 6114SOL     OW19240   4.656   1.608   1.209
 6114SOL    HW119241   4.665   1.707   1.218
 6114SOL    HW219242   4.721   1.563   1.270
 6115SOL     OW19243   1.106   1.652   5.020
 6115SOL    HW119244   1.090   1.683   5.114
 6115SOL    HW219245   1.048   1.573   5.001
 6116SOL     OW19246   4.039   2.240   4.824
 6116SOL    HW119247   3.959   2.212   4.773
 6116SOL    HW219248   4.023   2.228   4.922
 6117SOL     OW19249   1.587   1.980   3.093
 6117SOL    HW119250   1.686   1.970   3.089
 6117SOL    HW219251   1.548   1.963   3.003
 6118SOL     OW19252   5.960   1.171   0.512
 6118SOL    HW119253   5.928   1.209   0.425
 6118SOL    HW219254   6.057   1.194   0.524
 6119SOL     OW19255   0.415   2.169   0.880
 6119SOL    HW119256   0.433   2.260   0.844
 6119SOL    HW219257   0.320   2.144   0.862
 6120SOL     OW19258   2.365   6.598   5.705
 6120SOL    HW119259   2.454   6.557   5.726
 6120SOL    HW219260   2.298   6.566   5.771
 6121SOL     OW19261   0.808   3.621   5.180
 6121SOL    HW119262   0.795   3.639   5.277
 6121SOL    HW219263   0.895   3.573   5.166
 6122SOL     OW19264   5.422   6.161   5.470
 6122SOL    HW119265   5.369   6.105   5.406
 6122SOL    HW219266   5.385   6.254   5.470
 6123SOL     OW19267   5.950   1.303   5.227
 6123SOL    HW119268   5.928   1.209   5.249
 6123SOL    HW219269   5.894   1.334   5.150
 6124SOL     OW19270   2.324   0.215   4.872
 6124SOL    HW119271   2.240   0.252   4.833
 6124SOL    HW219272   2.320   0.115   4.872
 6125SOL     OW19273   2.085   3.526   6.999
 6125SOL    HW119274   2.142   3.586   6.943
 6125SOL    HW219275   1.990   3.531   6.967
 6126SOL     OW19276   0.197   2.493   4.588
 6126SOL    HW119277   0.221   2.530   4.678
 6126SOL    HW219278   0.202   2.566   4.520
 6127SOL     OW19279   4.479   1.442   2.109
 6127SOL    HW119280   4.423   1.463   2.189
 6127SOL    HW219281   4.443   1.361   2.063
 6128SOL     OW19282   5.806   5.671   1.153
 6128SOL    HW119283   5.847   5.714   1.073
 6128SOL    HW219284   5.851   5.583   1.170
 6129SOL     OW19285   1.934   4.754   3.319
 6129SOL    HW119286   1.919   4.719   3.226
 6129SOL    HW219287   1.873   4.706   3.382
 6130SOL     OW19288   4.889   2.847   1.421
 6130SOL    HW119289   4.971   2.887   1.383
 6130SOL    HW219290   4.852   2.907   1.492
 6131SOL     OW19291   0.332   1.921   2.397
 6131SOL    HW119292   0.323   1.882   2.305
 6131SOL    HW219293   0.352   2.019   2.390
 6132SOL     OW19294   3.324   1.282   6.659
 6132SOL    HW119295   3.411   1.322   6.631
 6132SOL    HW219296   3.256   1.296   6.587
 6133SOL     OW19297   1.740   2.743   3.895
 6133SOL    HW119298   1.686   2.824   3.876
 6133SOL    HW219299   1.763   2.739   3.992
 6134SOL     OW19300   5.404   5.898   6.541
 6134SOL    HW119301   5.332   5.883   6.474
 6134SOL    HW219302   5.457   5.814   6.551
 6135SOL     OW19303   5.506   0.189   0.284
 6135SOL    HW119304   5.501   0.224   0.377
 6135SOL    HW219305   5.419   0.205   0.237
 6136SOL     OW19306   1.105   2.832   1.686
 6136SOL    HW119307   1.185   2.775   1.702
 6136SOL    HW219308   1.038   2.782   1.632
 6137SOL     OW19309   0.462   4.819   3.360
 6137SOL    HW119310   0.549   4.779   3.388
 6137SOL    HW219311   0.462   4.836   3.262
 6138SOL     OW19312   3.556   0.362   2.153
 6138SOL    HW119313   3.546   0.265   2.174
 6138SOL    HW219314   3.596   0.372   2.062
 6139SOL     OW19315   0.955   6.998   5.510
 6139SOL    HW119316   0.873   7.014   5.455
 6139SOL    HW219317   0.967   0.052   5.575
 6140SOL     OW19318   1.864   0.255   3.224
 6140SOL    HW119319   1.929   0.298   3.287
 6140SOL    HW219320   1.792   0.320   3.202
 6141SOL     OW19321   0.422   0.627   5.525
 6141SOL    HW119322   0.431   0.546   5.467
 6141SOL    HW219323   0.325   0.650   5.535
 6142SOL     OW19324   0.642   0.935   0.746
 6142SOL    HW119325   0.592   1.018   0.725
 6142SOL    HW219326   0.624   0.907   0.841
 6143SOL     OW19327   6.371   3.917   6.164
 6143SOL    HW119328   6.377   4.002   6.112
 6143SOL    HW219329   6.406   3.842   6.110
 6144SOL     OW19330   4.487   4.476   2.867
 6144SOL    HW119331   4.431   4.513   2.792
 6144SOL    HW219332   4.516   4.552   2.926
 6145SOL     OW19333   4.947   3.580   3.999
 6145SOL    HW119334   4.934   3.613   3.905
 6145SOL    HW219335   4.945   3.480   4.001
 6146SOL     OW19336   3.641   0.326   4.552
 6146SOL    HW119337   3.666   0.421   4.538
 6146SOL    HW219338   3.665   0.272   4.471
 6147SOL     OW19339   2.120   3.109   4.277
 6147SOL    HW119340   2.033   3.110   4.228
 6147SOL    HW219341   2.171   3.192   4.256
 6148SOL     OW19342   4.126   5.056   0.348
 6148SOL    HW119343   4.169   5.094   0.266
 6148SOL    HW219344   4.173   4.971   0.373
 6149SOL     OW19345   2.940   0.794   2.399
 6149SOL    HW119346   2.873   0.848   2.348
 6149SOL    HW219347   2.930   0.697   2.376
 6150SOL     OW19348   6.234   3.911   6.401
 6150SOL    HW119349   6.278   3.918   6.312
 6150SOL    HW219350   6.175   3.991   6.416
 6151SOL     OW19351   4.938   4.528   4.289
 6151SOL    HW119352   4.956   4.432   4.305
 6151SOL    HW219353   4.843   4.549   4.311
 6152SOL     OW19354   1.059   5.398   4.264
 6152SOL    HW119355   1.028   5.491   4.284
 6152SOL    HW219356   1.077   5.349   4.349
 6153SOL     OW19357   4.711   5.219   0.851
 6153SOL    HW119358   4.713   5.306   0.900
 6153SOL    HW219359   4.796   5.209   0.799
 6154SOL     OW19360   5.194   3.069   2.072
 6154SOL    HW119361   5.191   2.970   2.065
 6154SOL    HW219362   5.279   3.103   2.030
 6155SOL     OW19363   2.416   1.470   3.573
 6155SOL    HW119364   2.442   1.473   3.477
 6155SOL    HW219365   2.461   1.544   3.623
 6156SOL     OW19366   5.712   4.374   1.137
 6156SOL    HW119367   5.751   4.389   1.046
 6156SOL    HW219368   5.700   4.461   1.184
 6157SOL     OW19369   0.639   2.309   3.043
 6157SOL    HW119370   0.735   2.327   3.022
 6157SOL    HW219371   0.600   2.249   2.973
 6158SOL     OW19372   2.944   2.650   5.589
 6158SOL    HW119373   2.946   2.597   5.504
 6158SOL    HW219374   2.906   2.594   5.662
 6159SOL     OW19375   5.549   2.544   0.009
 6159SOL    HW119376   5.479   2.497   6.977
 6159SOL    HW219377   5.579   2.626   6.981
 6160SOL     OW19378   0.410   6.945   6.709
 6160SOL    HW119379   0.380   6.852   6.729
 6160SOL    HW219380   0.384   7.006   6.784
 6161SOL     OW19381   4.847   2.804   6.614
 6161SOL    HW119382   4.828   2.722   6.669
 6161SOL    HW219383   4.866   2.777   6.519
 6162SOL     OW19384   6.199   6.038   2.441
 6162SOL    HW119385   6.286   6.006   2.405
 6162SOL    HW219386   6.208   6.052   2.540
 6163SOL     OW19387   5.676   6.006   2.868
 6163SOL    HW119388   5.676   6.044   2.960
 6163SOL    HW219389   5.658   6.079   2.802
 6164SOL     OW19390   3.879   3.960   4.199
 6164SOL    HW119391   3.869   3.988   4.104
 6164SOL    HW219392   3.936   3.878   4.204
 6165SOL     OW19393   3.996   2.668   0.112
 6165SOL    HW119394   3.914   2.615   0.090
 6165SOL    HW219395   3.992   2.696   0.208
 6166SOL     OW19396   0.252   2.094   7.003
 6166SOL    HW119397   0.343   2.083   0.022
 6166SOL    HW219398   0.250   2.177   6.947
 6167SOL     OW19399   1.776   4.584   3.474
 6167SOL    HW119400   1.846   4.580   3.546
 6167SOL    HW219401   1.705   4.517   3.494
 6168SOL     OW19402   0.033   2.867   3.954
 6168SOL    HW119403   0.114   2.810   3.938
 6168SOL    HW219404   6.986   2.814   4.003
 6169SOL     OW19405   1.264   0.414   6.890
 6169SOL    HW119406   1.338   0.417   6.958
 6169SOL    HW219407   1.290   0.353   6.815
 6170SOL     OW19408   3.793   4.503   0.289
 6170SOL    HW119409   3.708   4.457   0.263
 6170SOL    HW219410   3.783   4.601   0.271
 6171SOL     OW19411   0.791   4.670   2.170
 6171SOL    HW119412   0.880   4.628   2.153
 6171SOL    HW219413   0.798   4.769   2.159
 6172SOL     OW19414   0.773   0.459   3.157
 6172SOL    HW119415   0.691   0.515   3.165
 6172SOL    HW219416   0.849   0.515   3.127
 6173SOL     OW19417   0.969   4.971   2.927
 6173SOL    HW119418   1.064   5.000   2.936
 6173SOL    HW219419   0.960   4.876   2.959
 6174SOL     OW19420   5.751   4.752   2.384
 6174SOL    HW119421   5.825   4.819   2.375
 6174SOL    HW219422   5.790   4.662   2.405
 6175SOL     OW19423   5.716   6.277   2.089
 6175SOL    HW119424   5.767   6.308   2.009
 6175SOL    HW219425   5.774   6.221   2.147
 6176SOL     OW19426   5.975   3.291   6.339
 6176SOL    HW119427   5.882   3.326   6.330
 6176SOL    HW219428   6.031   3.357   6.389
 6177SOL     OW19429   5.020   1.312   1.700
 6177SOL    HW119430   5.079   1.277   1.772
 6177SOL    HW219431   5.044   1.270   1.613
 6178SOL     OW19432   4.999   4.957   1.026
 6178SOL    HW119433   5.018   5.033   1.089
 6178SOL    HW219434   5.015   4.871   1.074
 6179SOL     OW19435   0.165   3.346   4.546
 6179SOL    HW119436   0.090   3.397   4.504
 6179SOL    HW219437   0.227   3.410   4.591
 6180SOL     OW19438   3.535   6.529   0.999
 6180SOL    HW119439   3.582   6.530   0.911
 6180SOL    HW219440   3.578   6.461   1.059
 6181SOL     OW19441   5.286   6.139   0.060
 6181SOL    HW119442   5.378   6.133   0.022
 6181SOL    HW219443   5.219   6.134   7.008
 6182SOL     OW19444   5.320   5.126   4.956
 6182SOL    HW119445   5.368   5.057   4.902
 6182SOL    HW219446   5.381   5.161   5.027
 6183SOL     OW19447   2.145   0.655   2.585
 6183SOL    HW119448   2.101   0.588   2.525
 6183SOL    HW219449   2.207   0.609   2.648
 6184SOL     OW19450   1.422   6.659   6.895
 6184SOL    HW119451   1.391   6.741   6.846
 6184SOL    HW219452   1.496   6.615   6.844
 6185SOL     OW19453   0.481   3.940   0.021
 6185SOL    HW119454   0.392   3.973   0.050
 6185SOL    HW219455   0.551   3.971   0.086
 6186SOL     OW19456   5.855   6.991   3.860
 6186SOL    HW119457   5.925   0.041   3.851
 6186SOL    HW219458   5.888   6.907   3.816
 6187SOL     OW19459   4.892   4.894   3.682
 6187SOL    HW119460   4.892   4.980   3.630
 6187SOL    HW219461   4.895   4.817   3.618
 6188SOL     OW19462   2.353   6.272   1.438
 6188SOL    HW119463   2.272   6.298   1.490
 6188SOL    HW219464   2.368   6.174   1.445
 6189SOL     OW19465   4.925   4.792   2.355
 6189SOL    HW119466   5.013   4.839   2.364
 6189SOL    HW219467   4.916   4.725   2.429
 6190SOL     OW19468   5.021   3.091   5.903
 6190SOL    HW119469   5.038   3.054   5.812
 6190SOL    HW219470   4.965   3.173   5.896
 6191SOL     OW19471   5.342   2.389   0.758
 6191SOL    HW119472   5.280   2.330   0.707
 6191SOL    HW219473   5.433   2.385   0.718
 6192SOL     OW19474   2.884   3.813   0.444
 6192SOL    HW119475   2.891   3.803   0.543
 6192SOL    HW219476   2.840   3.901   0.422
 6193SOL     OW19477   5.152   6.887   2.014
 6193SOL    HW119478   5.084   6.959   2.001
 6193SOL    HW219479   5.150   6.825   1.936
 6194SOL     OW19480   2.497   0.531   1.129
 6194SOL    HW119481   2.400   0.535   1.106
 6194SOL    HW219482   2.509   0.547   1.227
 6195SOL     OW19483   3.886   5.503   6.216
 6195SOL    HW119484   3.872   5.454   6.303
 6195SOL    HW219485   3.982   5.528   6.207
 6196SOL     OW19486   0.705   2.587   6.221
 6196SOL    HW119487   0.721   2.671   6.169
 6196SOL    HW219488   0.683   2.512   6.158
 6197SOL     OW19489   2.506   4.099   1.047
 6197SOL    HW119490   2.461   4.055   1.125
 6197SOL    HW219491   2.599   4.123   1.072
 6198SOL     OW19492   3.374   5.754   3.196
 6198SOL    HW119493   3.363   5.733   3.099
 6198SOL    HW219494   3.286   5.751   3.241
 6199SOL     OW19495   0.961   0.233   0.964
 6199SOL    HW119496   0.991   0.328   0.973
 6199SOL    HW219497   0.964   0.188   1.053
 6200SOL     OW19498   2.291   1.054   6.384
 6200SOL    HW119499   2.254   1.129   6.328
 6200SOL    HW219500   2.320   1.090   6.472
 6201SOL     OW19501   1.913   4.264   6.160
 6201SOL    HW119502   1.982   4.335   6.152
 6201SOL    HW219503   1.892   4.227   6.069
 6202SOL     OW19504   4.079   1.687   1.521
 6202SOL    HW119505   4.158   1.655   1.470
 6202SOL    HW219506   4.011   1.723   1.458
 6203SOL     OW19507   4.972   0.759   3.677
 6203SOL    HW119508   4.923   0.757   3.590
 6203SOL    HW219509   4.997   0.666   3.704
 6204SOL     OW19510   0.898   5.366   5.171
 6204SOL    HW119511   0.877   5.319   5.256
 6204SOL    HW219512   0.993   5.398   5.173
 6205SOL     OW19513   5.527   5.525   6.942
 6205SOL    HW119514   5.575   5.491   6.860
 6205SOL    HW219515   5.532   5.456   7.014
 6206SOL     OW19516   0.192   0.627   2.429
 6206SOL    HW119517   0.226   0.568   2.356
 6206SOL    HW219518   0.259   0.629   2.504
 6207SOL     OW19519   1.094   3.905   5.313
 6207SOL    HW119520   1.004   3.890   5.271
 6207SOL    HW219521   1.142   3.978   5.264
 6208SOL     OW19522   6.144   0.286   5.663
 6208SOL    HW119523   6.211   0.231   5.713
 6208SOL    HW219524   6.148   0.381   5.695
 6209SOL     OW19525   4.616   5.918   0.408
 6209SOL    HW119526   4.644   5.850   0.475
 6209SOL    HW219527   4.601   6.006   0.454
 6210SOL     OW19528   5.386   3.600   2.804
 6210SOL    HW119529   5.367   3.564   2.713
 6210SOL    HW219530   5.402   3.525   2.867
 6211SOL     OW19531   2.527   7.008   6.347
 6211SOL    HW119532   2.602   6.989   6.285
 6211SOL    HW219533   2.506   6.927   6.402
 6212SOL     OW19534   6.821   6.072   3.833
 6212SOL    HW119535   6.805   6.154   3.779
 6212SOL    HW219536   6.858   6.000   3.774
 6213SOL     OW19537   5.988   0.624   6.728
 6213SOL    HW119538   6.054   0.683   6.681
 6213SOL    HW219539   5.937   0.678   6.795
 6214SOL     OW19540   6.143   5.157   2.954
 6214SOL    HW119541   6.056   5.109   2.965
 6214SOL    HW219542   6.127   5.256   2.955
 6215SOL     OW19543   3.021   1.617   6.810
 6215SOL    HW119544   3.014   1.698   6.868
 6215SOL    HW219545   3.085   1.552   6.852
 6216SOL     OW19546   6.349   2.321   1.454
 6216SOL    HW119547   6.301   2.350   1.371
 6216SOL    HW219548   6.284   2.278   1.517
 6217SOL     OW19549   4.715   2.963   1.614
 6217SOL    HW119550   4.666   2.998   1.694
 6217SOL    HW219551   4.679   3.005   1.531
 6218SOL     OW19552   2.934   5.090   4.623
 6218SOL    HW119553   2.871   5.046   4.687
 6218SOL    HW219554   3.027   5.062   4.645
 6219SOL     OW19555   1.606   2.324   4.959
 6219SOL    HW119556   1.512   2.309   4.930
 6219SOL    HW219557   1.669   2.295   4.886
 6220SOL     OW19558   1.611   4.859   5.596
 6220SOL    HW119559   1.697   4.863   5.547
 6220SOL    HW219560   1.558   4.780   5.564
 6221SOL     OW19561   4.753   4.958   4.897
 6221SOL    HW119562   4.680   5.023   4.917
 6221SOL    HW219563   4.808   4.993   4.821
 6222SOL     OW19564   0.478   0.443   1.141
 6222SOL    HW119565   0.484   0.354   1.186
 6222SOL    HW219566   0.570   0.481   1.129
 6223SOL     OW19567   5.667   3.711   4.062
 6223SOL    HW119568   5.737   3.768   4.018
 6223SOL    HW219569   5.684   3.708   4.160
 6224SOL     OW19570   1.829   1.358   6.077
 6224SOL    HW119571   1.898   1.286   6.079
 6224SOL    HW219572   1.740   1.319   6.103
 6225SOL     OW19573   3.733   3.543   1.410
 6225SOL    HW119574   3.786   3.460   1.430
 6225SOL    HW219575   3.770   3.588   1.329
 6226SOL     OW19576   5.843   1.347   3.699
 6226SOL    HW119577   5.797   1.266   3.663
 6226SOL    HW219578   5.869   1.407   3.623
 6227SOL     OW19579   3.044   4.587   5.974
 6227SOL    HW119580   3.042   4.487   5.972
 6227SOL    HW219581   3.122   4.617   6.029
 6228SOL     OW19582   6.710   1.926   3.064
 6228SOL    HW119583   6.742   1.933   3.159
 6228SOL    HW219584   6.671   1.836   3.049
 6229SOL     OW19585   2.529   1.596   3.055
 6229SOL    HW119586   2.521   1.509   3.006
 6229SOL    HW219587   2.495   1.585   3.148
 6230SOL     OW19588   2.166   1.397   4.462
 6230SOL    HW119589   2.082   1.345   4.441
 6230SOL    HW219590   2.241   1.362   4.406
 6231SOL     OW19591   6.861   4.600   0.955
 6231SOL    HW119592   6.956   4.592   0.923
 6231SOL    HW219593   6.813   4.668   0.900
 6232SOL     OW19594   6.799   1.326   0.422
 6232SOL    HW119595   6.767   1.420   0.421
 6232SOL    HW219596   6.725   1.265   0.392
 6233SOL     OW19597   5.497   1.799   6.836
 6233SOL    HW119598   5.577   1.805   6.896
 6233SOL    HW219599   5.515   1.851   6.753
 6234SOL     OW19600   1.309   1.396   4.631
 6234SOL    HW119601   1.315   1.312   4.577
 6234SOL    HW219602   1.339   1.378   4.725
 6235SOL     OW19603   2.081   6.745   3.152
 6235SOL    HW119604   2.049   6.827   3.104
 6235SOL    HW219605   2.153   6.770   3.216
 6236SOL     OW19606   0.082   4.780   1.302
 6236SOL    HW119607   0.059   4.857   1.361
 6236SOL    HW219608   0.001   4.724   1.286
 6237SOL     OW19609   4.612   5.774   0.659
 6237SOL    HW119610   4.519   5.808   0.673
 6237SOL    HW219611   4.633   5.706   0.730
 6238SOL     OW19612   4.620   5.916   2.076
 6238SOL    HW119613   4.664   5.833   2.042
 6238SOL    HW219614   4.602   5.907   2.173
 6239SOL     OW19615   2.703   6.352   2.342
 6239SOL    HW119616   2.638   6.291   2.297
 6239SOL    HW219617   2.655   6.429   2.383
 6240SOL     OW19618   2.693   2.515   1.308
 6240SOL    HW119619   2.711   2.430   1.259
 6240SOL    HW219620   2.636   2.497   1.387
 6241SOL     OW19621   3.154   0.973   2.416
 6241SOL    HW119622   3.177   0.992   2.512
 6241SOL    HW219623   3.069   0.919   2.413
 6242SOL     OW19624   5.374   0.942   3.420
 6242SOL    HW119625   5.297   0.879   3.426
 6242SOL    HW219626   5.356   1.010   3.349
 6243SOL     OW19627   5.753   6.626   3.335
 6243SOL    HW119628   5.804   6.635   3.250
 6243SOL    HW219629   5.752   6.713   3.383
 6244SOL     OW19630   2.480   2.493   2.099
 6244SOL    HW119631   2.402   2.437   2.071
 6244SOL    HW219632   2.520   2.455   2.182
 6245SOL     OW19633   2.823   4.186   1.460
 6245SOL    HW119634   2.867   4.201   1.548
 6245SOL    HW219635   2.729   4.220   1.463
 6246SOL     OW19636   2.876   2.807   6.905
 6246SOL    HW119637   2.894   2.827   6.809
 6246SOL    HW219638   2.957   2.830   6.959
 6247SOL     OW19639   0.223   0.088   3.735
 6247SOL    HW119640   0.257   0.182   3.738
 6247SOL    HW219641   0.275   0.036   3.667
 6248SOL     OW19642   0.779   4.017   0.908
 6248SOL    HW119643   0.685   3.994   0.882
 6248SOL    HW219644   0.826   4.059   0.830
 6249SOL     OW19645   6.923   4.791   0.442
 6249SOL    HW119646   6.973   4.841   0.512
 6249SOL    HW219647   6.925   4.842   0.356
 6250SOL     OW19648   6.961   6.590   0.751
 6250SOL    HW119649   6.950   6.658   0.679
 6250SOL    HW219650   6.975   6.636   0.839
 6251SOL     OW19651   4.182   0.267   1.243
 6251SOL    HW119652   4.229   0.353   1.226
 6251SOL    HW219653   4.091   0.286   1.281
 6252SOL     OW19654   2.583   5.882   5.262
 6252SOL    HW119655   2.511   5.876   5.193
 6252SOL    HW219656   2.569   5.964   5.318
 6253SOL     OW19657   2.315   3.994   1.870
 6253SOL    HW119658   2.250   3.950   1.809
 6253SOL    HW219659   2.275   4.079   1.906
 6254SOL     OW19660   5.856   0.133   6.763
 6254SOL    HW119661   5.854   0.052   6.704
 6254SOL    HW219662   5.807   0.114   6.848
 6255SOL     OW19663   1.404   1.384   1.927
 6255SOL    HW119664   1.349   1.398   1.845
 6255SOL    HW219665   1.349   1.409   2.008
 6256SOL     OW19666   4.001   5.345   2.492
 6256SOL    HW119667   3.993   5.337   2.592
 6256SOL    HW219668   3.923   5.300   2.449
 6257SOL     OW19669   5.346   2.388   1.041
 6257SOL    HW119670   5.343   2.394   0.941
 6257SOL    HW219671   5.295   2.463   1.080
 6258SOL     OW19672   4.416   1.162   3.165
 6258SOL    HW119673   4.349   1.106   3.117
 6258SOL    HW219674   4.412   1.142   3.263
 6259SOL     OW19675   3.219   1.911   1.316
 6259SOL    HW119676   3.210   1.967   1.234
 6259SOL    HW219677   3.176   1.957   1.394
 6260SOL     OW19678   3.618   4.030   0.299
 6260SOL    HW119679   3.685   4.041   0.226
 6260SOL    HW219680   3.533   4.076   0.274
 6261SOL     OW19681   4.131   0.279   6.693
 6261SOL    HW119682   4.220   0.319   6.717
 6261SOL    HW219683   4.090   0.331   6.618
 6262SOL     OW19684   1.672   4.415   0.483
 6262SOL    HW119685   1.648   4.367   0.568
 6262SOL    HW219686   1.717   4.501   0.505
 6263SOL     OW19687   0.361   5.994   6.640
 6263SOL    HW119688   0.345   6.067   6.707
 6263SOL    HW219689   0.294   6.002   6.566
 6264SOL     OW19690   2.318   1.140   0.980
 6264SOL    HW119691   2.384   1.073   0.947
 6264SOL    HW219692   2.363   1.206   1.040
 6265SOL     OW19693   3.316   4.550   1.330
 6265SOL    HW119694   3.253   4.487   1.376
 6265SOL    HW219695   3.358   4.610   1.398
 6266SOL     OW19696   3.821   0.835   4.245
 6266SOL    HW119697   3.822   0.804   4.150
 6266SOL    HW219698   3.727   0.837   4.278
 6267SOL     OW19699   3.265   0.296   0.371
 6267SOL    HW119700   3.282   0.342   0.285
 6267SOL    HW219701   3.212   0.356   0.432
 6268SOL     OW19702   2.828   5.332   3.036
 6268SOL    HW119703   2.864   5.259   3.094
 6268SOL    HW219704   2.731   5.315   3.019
 6269SOL     OW19705   5.890   5.960   2.035
 6269SOL    HW119706   5.974   5.931   2.082
 6269SOL    HW219707   5.897   5.936   1.938
 6270SOL     OW19708   1.831   0.603   6.130
 6270SOL    HW119709   1.909   0.638   6.078
 6270SOL    HW219710   1.817   0.659   6.211
 6271SOL     OW19711   0.115   2.768   5.497
 6271SOL    HW119712   0.070   2.700   5.439
 6271SOL    HW219713   0.089   2.753   5.592
 6272SOL     OW19714   0.924   3.641   4.203
 6272SOL    HW119715   0.887   3.699   4.131
 6272SOL    HW219716   0.913   3.545   4.179
 6273SOL     OW19717   1.473   0.825   1.988
 6273SOL    HW119718   1.458   0.858   2.082
 6273SOL    HW219719   1.393   0.847   1.932
 6274SOL     OW19720   2.826   5.893   6.810
 6274SOL    HW119721   2.896   5.946   6.760
 6274SOL    HW219722   2.787   5.824   6.749
 6275SOL     OW19723   3.057   6.854   5.578
 6275SOL    HW119724   3.100   6.765   5.588
 6275SOL    HW219725   2.958   6.844   5.584
 6276SOL     OW19726   1.120   5.063   3.484
 6276SOL    HW119727   1.195   5.060   3.550
 6276SOL    HW219728   1.153   5.099   3.397
 6277SOL     OW19729   4.819   2.793   2.597
 6277SOL    HW119730   4.758   2.827   2.527
 6277SOL    HW219731   4.903   2.759   2.554
 6278SOL     OW19732   4.997   0.034   3.658
 6278SOL    HW119733   4.948   6.970   3.643
 6278SOL    HW219734   4.939   0.096   3.710
 6279SOL     OW19735   3.943   1.658   0.885
 6279SOL    HW119736   3.855   1.633   0.924
 6279SOL    HW219737   3.996   1.575   0.864
 6280SOL     OW19738   6.918   2.975   5.792
 6280SOL    HW119739   6.911   3.046   5.721
 6280SOL    HW219740   6.945   3.017   5.878
 6281SOL     OW19741   2.698   0.209   5.296
 6281SOL    HW119742   2.638   0.166   5.364
 6281SOL    HW219743   2.694   0.158   5.210
 6282SOL     OW19744   1.131   6.869   5.316
 6282SOL    HW119745   1.101   6.917   5.233
 6282SOL    HW219746   1.060   6.876   5.386
 6283SOL     OW19747   6.436   2.382   4.983
 6283SOL    HW119748   6.480   2.453   4.927
 6283SOL    HW219749   6.487   2.296   4.975
 6284SOL     OW19750   1.700   5.477   5.221
 6284SOL    HW119751   1.748   5.502   5.136
 6284SOL    HW219752   1.709   5.379   5.236
 6285SOL     OW19753   1.121   3.185   4.238
 6285SOL    HW119754   1.162   3.213   4.151
 6285SOL    HW219755   1.150   3.248   4.310
 6286SOL     OW19756   5.789   1.237   3.387
 6286SOL    HW119757   5.816   1.152   3.343
 6286SOL    HW219758   5.868   1.297   3.397
 6287SOL     OW19759   4.566   4.520   1.858
 6287SOL    HW119760   4.531   4.580   1.930
 6287SOL    HW219761   4.551   4.425   1.884
 6288SOL     OW19762   5.484   4.211   1.146
 6288SOL    HW119763   5.494   4.130   1.087
 6288SOL    HW219764   5.573   4.255   1.156
 6289SOL     OW19765   1.930   2.759   3.654
 6289SOL    HW119766   1.894   2.813   3.730
 6289SOL    HW219767   1.980   2.680   3.690
 6290SOL     OW19768   5.157   3.960   4.097
 6290SOL    HW119769   5.202   4.026   4.157
 6290SOL    HW219770   5.170   3.986   4.002
 6291SOL     OW19771   3.770   3.351   3.636
 6291SOL    HW119772   3.829   3.272   3.656
 6291SOL    HW219773   3.799   3.393   3.550
 6292SOL     OW19774   0.757   2.637   3.204
 6292SOL    HW119775   0.736   2.632   3.106
 6292SOL    HW219776   0.830   2.571   3.225
 6293SOL     OW19777   5.237   6.653   6.999
 6293SOL    HW119778   5.291   6.737   6.987
 6293SOL    HW219779   5.293   6.585   0.026
 6294SOL     OW19780   3.289   5.525   2.460
 6294SOL    HW119781   3.209   5.564   2.506
 6294SOL    HW219782   3.372   5.569   2.496
 6295SOL     OW19783   5.570   5.436   5.148
 6295SOL    HW119784   5.559   5.339   5.167
 6295SOL    HW219785   5.481   5.482   5.157
 6296SOL     OW19786   6.363   0.685   3.572
 6296SOL    HW119787   6.320   0.695   3.483
 6296SOL    HW219788   6.361   0.589   3.600
 6297SOL     OW19789   5.228   6.378   6.013
 6297SOL    HW119790   5.316   6.341   6.044
 6297SOL    HW219791   5.176   6.305   5.966
 6298SOL     OW19792   1.140   3.613   5.962
 6298SOL    HW119793   1.237   3.596   5.978
 6298SOL    HW219794   1.122   3.711   5.972
 6299SOL     OW19795   6.060   2.236   6.371
 6299SOL    HW119796   6.019   2.146   6.353
 6299SOL    HW219797   6.138   2.225   6.432
 6300SOL     OW19798   5.194   0.539   4.351
 6300SOL    HW119799   5.290   0.558   4.331
 6300SOL    HW219800   5.187   0.489   4.438
 6301SOL     OW19801   2.989   6.834   0.785
 6301SOL    HW119802   3.045   6.816   0.866
 6301SOL    HW219803   3.013   6.769   0.713
 6302SOL     OW19804   1.629   1.081   3.692
 6302SOL    HW119805   1.613   1.175   3.721
 6302SOL    HW219806   1.544   1.042   3.657
 6303SOL     OW19807   2.413   0.092   5.193
 6303SOL    HW119808   2.473   0.125   5.120
 6303SOL    HW219809   2.373   0.169   5.241
 6304SOL     OW19810   3.579   0.093   0.942
 6304SOL    HW119811   3.613   0.182   0.973
 6304SOL    HW219812   3.545   0.041   1.021
 6305SOL     OW19813   6.478   6.829   1.286
 6305SOL    HW119814   6.381   6.847   1.306
 6305SOL    HW219815   6.534   6.897   1.332
 6306SOL     OW19816   6.977   3.257   3.866
 6306SOL    HW119817   0.017   3.219   3.935
 6306SOL    HW219818   6.928   3.336   3.905
 6307SOL     OW19819   3.014   5.059   5.347
 6307SOL    HW119820   2.930   5.017   5.313
 6307SOL    HW219821   3.093   5.022   5.297
 6308SOL     OW19822   1.762   1.593   5.175
 6308SOL    HW119823   1.820   1.661   5.220
 6308SOL    HW219824   1.677   1.635   5.145
 6309SOL     OW19825   4.911   2.532   3.917
 6309SOL    HW119826   4.981   2.603   3.923
 6309SOL    HW219827   4.939   2.463   3.850
 6310SOL     OW19828   2.052   4.765   4.496
 6310SOL    HW119829   1.979   4.825   4.462
 6310SOL    HW219830   2.129   4.821   4.528
 6311SOL     OW19831   6.803   0.500   4.927
 6311SOL    HW119832   6.852   0.438   4.865
 6311SOL    HW219833   6.868   0.567   4.965
 6312SOL     OW19834   4.412   5.115   6.673
 6312SOL    HW119835   4.350   5.192   6.655
 6312SOL    HW219836   4.478   5.142   6.743
 6313SOL     OW19837   1.935   5.892   3.504
 6313SOL    HW119838   1.849   5.867   3.459
 6313SOL    HW219839   2.011   5.847   3.458
 6314SOL     OW19840   3.122   6.074   2.277
 6314SOL    HW119841   3.151   6.058   2.182
 6314SOL    HW219842   3.076   6.162   2.283
 6315SOL     OW19843   4.297   2.947   6.771
 6315SOL    HW119844   4.292   3.018   6.841
 6315SOL    HW219845   4.382   2.895   6.782
 6316SOL     OW19846   5.277   2.299   6.022
 6316SOL    HW119847   5.212   2.364   5.982
 6316SOL    HW219848   5.259   2.291   6.120
 6317SOL     OW19849   5.147   6.732   2.598
 6317SOL    HW119850   5.114   6.825   2.615
 6317SOL    HW219851   5.128   6.674   2.678
 6318SOL     OW19852   2.260   2.071   5.959
 6318SOL    HW119853   2.284   2.023   5.875
 6318SOL    HW219854   2.215   2.158   5.936
 6319SOL     OW19855   0.745   3.152   3.438
 6319SOL    HW119856   0.646   3.152   3.424
 6319SOL    HW219857   0.778   3.058   3.439
 6320SOL     OW19858   5.830   4.017   3.154
 6320SOL    HW119859   5.749   4.033   3.211
 6320SOL    HW219860   5.878   3.936   3.187
 6321SOL     OW19861   2.799   5.321   0.575
 6321SOL    HW119862   2.890   5.298   0.610
 6321SOL    HW219863   2.805   5.403   0.518
 6322SOL     OW19864   1.423   1.398   6.478
 6322SOL    HW119865   1.519   1.382   6.455
 6322SOL    HW219866   1.416   1.426   6.574
 6323SOL     OW19867   3.413   2.317   1.684
 6323SOL    HW119868   3.482   2.276   1.744
 6323SOL    HW219869   3.378   2.400   1.727
 6324SOL     OW19870   4.641   0.381   5.678
 6324SOL    HW119871   4.654   0.326   5.760
 6324SOL    HW219872   4.683   0.335   5.600
 6325SOL     OW19873   0.862   3.037   2.162
 6325SOL    HW119874   0.929   3.056   2.090
 6325SOL    HW219875   0.847   2.938   2.168
 6326SOL     OW19876   5.426   6.026   0.976
 6326SOL    HW119877   5.424   6.039   1.075
 6326SOL    HW219878   5.337   6.051   0.937
 6327SOL     OW19879   6.435   6.109   5.136
 6327SOL    HW119880   6.434   6.071   5.043
 6327SOL    HW219881   6.341   6.111   5.171
 6328SOL     OW19882   1.300   4.413   6.939
 6328SOL    HW119883   1.303   4.477   7.016
 6328SOL    HW219884   1.386   4.418   6.888
 6329SOL     OW19885   1.474   1.441   3.325
 6329SOL    HW119886   1.445   1.395   3.241
 6329SOL    HW219887   1.564   1.484   3.311
 6330SOL     OW19888   4.780   0.932   0.584
 6330SOL    HW119889   4.681   0.936   0.569
 6330SOL    HW219890   4.826   0.984   0.512
 6331SOL     OW19891   6.303   2.259   0.964
 6331SOL    HW119892   6.383   2.309   0.930
 6331SOL    HW219893   6.297   2.170   0.919
 6332SOL     OW19894   6.146   5.473   1.703
 6332SOL    HW119895   6.051   5.481   1.675
 6332SOL    HW219896   6.205   5.507   1.630
 6333SOL     OW19897   3.516   5.432   3.969
 6333SOL    HW119898   3.520   5.486   3.885
 6333SOL    HW219899   3.476   5.343   3.950
 6334SOL     OW19900   2.566   0.011   2.869
 6334SOL    HW119901   2.520   6.945   2.852
 6334SOL    HW219902   2.623   0.003   2.951
 6335SOL     OW19903   5.916   1.269   0.023
 6335SOL    HW119904   5.879   1.255   6.953
 6335SOL    HW219905   5.878   1.353   0.062
 6336SOL     OW19906   6.789   2.432   4.391
 6336SOL    HW119907   6.732   2.355   4.362
 6336SOL    HW219908   6.822   2.482   4.311
 6337SOL     OW19909   5.397   2.915   5.719
 6337SOL    HW119910   5.336   2.952   5.789
 6337SOL    HW219911   5.461   2.985   5.689
 6338SOL     OW19912   2.622   1.757   2.053
 6338SOL    HW119913   2.537   1.805   2.030
 6338SOL    HW219914   2.624   1.739   2.151
 6339SOL     OW19915   0.729   2.450   3.691
 6339SOL    HW119916   0.631   2.467   3.701
 6339SOL    HW219917   0.747   2.416   3.598
 6340SOL     OW19918   2.720   5.386   3.800
 6340SOL    HW119919   2.639   5.335   3.770
 6340SOL    HW219920   2.802   5.334   3.777
 6341SOL     OW19921   6.959   4.922   3.319
 6341SOL    HW119922   6.954   4.826   3.293
 6341SOL    HW219923   7.009   4.930   3.405
 6342SOL     OW19924   2.205   2.205   2.303
 6342SOL    HW119925   2.194   2.170   2.396
 6342SOL    HW219926   2.296   2.183   2.269
 6343SOL     OW19927   4.206   2.974   6.484
 6343SOL    HW119928   4.244   2.968   6.576
 6343SOL    HW219929   4.279   2.983   6.417
 6344SOL     OW19930   6.695   3.379   5.091
 6344SOL    HW119931   6.675   3.301   5.032
 6344SOL    HW219932   6.755   3.443   5.043
 6345SOL     OW19933   4.049   1.549   2.555
 6345SOL    HW119934   4.040   1.527   2.652
 6345SOL    HW219935   3.987   1.490   2.502
 6346SOL     OW19936   6.866   2.947   3.170
 6346SOL    HW119937   6.893   2.981   3.260
 6346SOL    HW219938   6.879   2.848   3.167
 6347SOL     OW19939   2.962   0.200   1.567
 6347SOL    HW119940   2.972   0.298   1.582
 6347SOL    HW219941   3.006   0.150   1.642
 6348SOL     OW19942   0.763   3.823   4.982
 6348SOL    HW119943   0.763   3.759   5.059
 6348SOL    HW219944   0.788   3.776   4.899
 6349SOL     OW19945   3.223   0.584   1.643
 6349SOL    HW119946   3.243   0.653   1.713
 6349SOL    HW219947   3.304   0.570   1.586
 6350SOL     OW19948   1.437   5.520   3.282
 6350SOL    HW119949   1.528   5.535   3.318
 6350SOL    HW219950   1.435   5.545   3.185
 6351SOL     OW19951   6.615   2.330   2.510
 6351SOL    HW119952   6.542   2.278   2.465
 6351SOL    HW219953   6.575   2.405   2.562
 6352SOL     OW19954   1.368   5.418   3.715
 6352SOL    HW119955   1.315   5.453   3.638
 6352SOL    HW219956   1.399   5.325   3.694
 6353SOL     OW19957   0.304   0.327   6.674
 6353SOL    HW119958   0.311   0.368   6.765
 6353SOL    HW219959   0.280   0.398   6.608
 6354SOL     OW19960   0.826   0.017   2.485
 6354SOL    HW119961   0.844   0.009   2.583
 6354SOL    HW219962   0.763   6.967   2.457
 6355SOL     OW19963   1.531   3.927   4.373
 6355SOL    HW119964   1.514   3.941   4.276
 6355SOL    HW219965   1.620   3.966   4.397
 6356SOL     OW19966   5.048   4.711   1.169
 6356SOL    HW119967   5.108   4.669   1.102
 6356SOL    HW219968   5.099   4.732   1.252
 6357SOL     OW19969   4.112   3.011   0.407
 6357SOL    HW119970   4.077   3.069   0.334
 6357SOL    HW219971   4.208   2.989   0.389
 6358SOL     OW19972   6.880   2.301   4.063
 6358SOL    HW119973   6.848   2.234   4.130
 6358SOL    HW219974   6.960   2.349   4.100
 6359SOL     OW19975   6.837   0.730   5.740
 6359SOL    HW119976   6.835   0.765   5.646
 6359SOL    HW219977   6.932   0.730   5.773
 6360SOL     OW19978   2.657   4.668   4.307
 6360SOL    HW119979   2.565   4.642   4.335
 6360SOL    HW219980   2.724   4.620   4.364
 6361SOL     OW19981   4.729   5.619   6.455
 6361SOL    HW119982   4.805   5.648   6.396
 6361SOL    HW219983   4.765   5.579   6.539
 6362SOL     OW19984   6.149   4.214   6.728
 6362SOL    HW119985   6.099   4.180   6.808
 6362SOL    HW219986   6.245   4.229   6.751
 6363SOL     OW19987   2.186   6.075   4.142
 6363SOL    HW119988   2.124   6.041   4.212
 6363SOL    HW219989   2.193   6.175   4.150
 6364SOL     OW19990   2.942   2.267   5.664
 6364SOL    HW119991   3.033   2.301   5.639
 6364SOL    HW219992   2.910   2.204   5.593
 6365SOL     OW19993   4.867   0.209   3.243
 6365SOL    HW119994   4.861   0.295   3.193
 6365SOL    HW219995   4.808   0.213   3.324
 6366SOL     OW19996   0.816   5.092   5.079
 6366SOL    HW119997   0.847   5.178   5.120
 6366SOL    HW219998   0.846   5.015   5.135
 6367SOL     OW19999   5.031   0.637   3.197
 6367SOL    HW120000   5.067   0.587   3.276
 6367SOL    HW220001   4.969   0.577   3.146
 6368SOL     OW20002   2.954   0.140   4.199
 6368SOL    HW120003   3.050   0.168   4.196
 6368SOL    HW220004   2.917   0.157   4.291
 6369SOL     OW20005   3.002   5.246   4.393
 6369SOL    HW120006   2.970   5.341   4.381
 6369SOL    HW220007   2.959   5.207   4.475
 6370SOL     OW20008   0.016   2.282   1.915
 6370SOL    HW120009   6.953   2.235   1.892
 6370SOL    HW220010   0.003   2.338   1.997
 6371SOL     OW20011   4.816   2.693   3.001
 6371SOL    HW120012   4.761   2.710   3.083
 6371SOL    HW220013   4.790   2.759   2.930
 6372SOL     OW20014   3.205   6.154   2.014
 6372SOL    HW120015   3.295   6.130   2.052
 6372SOL    HW220016   3.212   6.163   1.915
 6373SOL     OW20017   5.509   4.430   5.256
 6373SOL    HW120018   5.428   4.387   5.295
 6373SOL    HW220019   5.574   4.452   5.329
 6374SOL     OW20020   3.117   3.277   3.683
 6374SOL    HW120021   3.161   3.226   3.757
 6374SOL    HW220022   3.165   3.365   3.671
 6375SOL     OW20023   0.941   1.156   3.074
 6375SOL    HW120024   1.029   1.154   3.121
 6375SOL    HW220025   0.868   1.179   3.139
 6376SOL     OW20026   0.346   1.381   4.630
 6376SOL    HW120027   0.273   1.412   4.569
 6376SOL    HW220028   0.348   1.439   4.711
 6377SOL     OW20029   6.805   0.832   5.471
 6377SOL    HW120030   6.848   0.918   5.445
 6377SOL    HW220031   6.790   0.777   5.388
 6378SOL     OW20032   4.927   4.046   3.514
 6378SOL    HW120033   4.920   4.139   3.552
 6378SOL    HW220034   4.892   4.047   3.420
 6379SOL     OW20035   2.328   4.850   4.079
 6379SOL    HW120036   2.345   4.811   4.169
 6379SOL    HW220037   2.397   4.919   4.058
 6380SOL     OW20038   0.861   0.957   5.532
 6380SOL    HW120039   0.851   1.008   5.617
 6380SOL    HW220040   0.913   0.873   5.549
 6381SOL     OW20041   3.361   3.402   2.485
 6381SOL    HW120042   3.298   3.479   2.476
 6381SOL    HW220043   3.325   3.323   2.437
 6382SOL     OW20044   1.384   2.656   6.247
 6382SOL    HW120045   1.401   2.573   6.299
 6382SOL    HW220046   1.312   2.640   6.179
 6383SOL     OW20047   2.264   2.300   4.129
 6383SOL    HW120048   2.204   2.367   4.084
 6383SOL    HW220049   2.215   2.256   4.204
 6384SOL     OW20050   6.046   4.701   2.360
 6384SOL    HW120051   5.993   4.773   2.315
 6384SOL    HW220052   6.110   4.660   2.295
 6385SOL     OW20053   6.284   5.014   3.731
 6385SOL    HW120054   6.185   5.008   3.741
 6385SOL    HW220055   6.314   4.949   3.661
 6386SOL     OW20056   2.779   4.803   1.003
 6386SOL    HW120057   2.707   4.762   1.058
 6386SOL    HW220058   2.782   4.902   1.021
 6387SOL     OW20059   0.289   2.012   6.094
 6387SOL    HW120060   0.208   2.027   6.037
 6387SOL    HW220061   0.310   2.095   6.146
 6388SOL     OW20062   3.794   4.928   1.230
 6388SOL    HW120063   3.765   4.914   1.136
 6388SOL    HW220064   3.722   4.898   1.292
 6389SOL     OW20065   0.769   5.851   2.761
 6389SOL    HW120066   0.686   5.869   2.813
 6389SOL    HW220067   0.839   5.919   2.784
 6390SOL     OW20068   0.211   2.469   3.225
 6390SOL    HW120069   0.189   2.435   3.316
 6390SOL    HW220070   0.141   2.438   3.160
 6391SOL     OW20071   3.332   1.397   0.119
 6391SOL    HW120072   3.270   1.348   0.180
 6391SOL    HW220073   3.335   1.494   0.146
 6392SOL     OW20074   2.109   6.773   4.115
 6392SOL    HW120075   2.057   6.799   4.033
 6392SOL    HW220076   2.045   6.755   4.190
 6393SOL     OW20077   5.521   6.478   1.415
 6393SOL    HW120078   5.589   6.525   1.359
 6393SOL    HW220079   5.431   6.520   1.401
 6394SOL     OW20080   2.236   4.792   0.541
 6394SOL    HW120081   2.202   4.866   0.483
 6394SOL    HW220082   2.330   4.769   0.514
 6395SOL     OW20083   6.321   1.536   1.187
 6395SOL    HW120084   6.338   1.438   1.193
 6395SOL    HW220085   6.223   1.553   1.178
 6396SOL     OW20086   4.873   2.517   6.079
 6396SOL    HW120087   4.859   2.595   6.018
 6396SOL    HW220088   4.787   2.495   6.125
 6397SOL     OW20089   0.085   2.394   6.896
 6397SOL    HW120090   0.102   2.373   6.992
 6397SOL    HW220091   0.026   2.474   6.889
 6398SOL     OW20092   3.343   0.725   1.412
 6398SOL    HW120093   3.411   0.765   1.474
 6398SOL    HW220094   3.256   0.772   1.425
 6399SOL     OW20095   1.491   5.658   6.861
 6399SOL    HW120096   1.586   5.663   6.889
 6399SOL    HW220097   1.449   5.575   6.897
 6400SOL     OW20098   2.332   5.255   3.479
 6400SOL    HW120099   2.385   5.339   3.489
 6400SOL    HW220100   2.279   5.239   3.562
 6401SOL     OW20101   0.344   4.653   3.554
 6401SOL    HW120102   0.373   4.708   3.475
 6401SOL    HW220103   0.254   4.613   3.534
 6402SOL     OW20104   2.889   0.766   3.160
 6402SOL    HW120105   2.873   0.865   3.166
 6402SOL    HW220106   2.965   0.749   3.097
 6403SOL     OW20107   0.752   4.631   0.299
 6403SOL    HW120108   0.701   4.593   0.377
 6403SOL    HW220109   0.729   4.581   0.216
 6404SOL     OW20110   4.285   1.807   3.313
 6404SOL    HW120111   4.303   1.887   3.371
 6404SOL    HW220112   4.269   1.837   3.219
 6405SOL     OW20113   1.744   2.152   2.693
 6405SOL    HW120114   1.743   2.056   2.664
 6405SOL    HW220115   1.824   2.198   2.655
 6406SOL     OW20116   1.879   1.050   3.673
 6406SOL    HW120117   1.879   0.983   3.599
 6406SOL    HW220118   1.786   1.066   3.704
 6407SOL     OW20119   3.211   0.007   4.680
 6407SOL    HW120120   3.275   0.083   4.685
 6407SOL    HW220121   3.201   7.000   4.584
 6408SOL     OW20122   5.725   1.829   0.014
 6408SOL    HW120123   5.735   1.851   0.111
 6408SOL    HW220124   5.736   1.730   0.001
 6409SOL     OW20125   6.416   3.433   2.732
 6409SOL    HW120126   6.322   3.433   2.768
 6409SOL    HW220127   6.454   3.341   2.737
 6410SOL     OW20128   1.859   1.778   0.400
 6410SOL    HW120129   1.900   1.850   0.345
 6410SOL    HW220130   1.822   1.707   0.341
 6411SOL     OW20131   0.972   1.796   3.250
 6411SOL    HW120132   1.003   1.763   3.340
 6411SOL    HW220133   0.876   1.770   3.237
 6412SOL     OW20134   6.783   2.863   5.513
 6412SOL    HW120135   6.872   2.895   5.480
 6412SOL    HW220136   6.789   2.768   5.542
 6413SOL     OW20137   6.018   4.948   1.836
 6413SOL    HW120138   6.105   4.899   1.828
 6413SOL    HW220139   6.037   5.043   1.861
 6414SOL     OW20140   5.658   0.715   1.570
 6414SOL    HW120141   5.583   0.656   1.597
 6414SOL    HW220142   5.724   0.721   1.645
 6415SOL     OW20143   2.403   2.112   2.139
 6415SOL    HW120144   2.388   2.018   2.108
 6415SOL    HW220145   2.497   2.139   2.118
 6416SOL     OW20146   0.760   6.781   6.868
 6416SOL    HW120147   0.737   6.846   6.940
 6416SOL    HW220148   0.762   6.689   6.906
 6417SOL     OW20149   0.334   6.805   3.323
 6417SOL    HW120150   0.292   6.846   3.242
 6417SOL    HW220151   0.419   6.759   3.297
 6418SOL     OW20152   6.063   5.161   2.357
 6418SOL    HW120153   5.971   5.142   2.392
 6418SOL    HW220154   6.110   5.224   2.419
 6419SOL     OW20155   3.105   5.355   1.888
 6419SOL    HW120156   3.018   5.306   1.886
 6419SOL    HW220157   3.173   5.304   1.835
 6420SOL     OW20158   2.873   3.314   6.475
 6420SOL    HW120159   2.813   3.246   6.517
 6420SOL    HW220160   2.928   3.358   6.546
 6421SOL     OW20161   5.789   1.048   1.174
 6421SOL    HW120162   5.862   1.051   1.243
 6421SOL    HW220163   5.824   1.085   1.088
 6422SOL     OW20164   6.569   0.773   3.144
 6422SOL    HW120165   6.642   0.832   3.111
 6422SOL    HW220166   6.500   0.761   3.073
 6423SOL     OW20167   4.610   3.737   1.050
 6423SOL    HW120168   4.600   3.637   1.049
 6423SOL    HW220169   4.527   3.779   1.012
 6424SOL     OW20170   6.683   4.328   6.141
 6424SOL    HW120171   6.687   4.246   6.084
 6424SOL    HW220172   6.653   4.405   6.085
 6425SOL     OW20173   6.755   4.881   2.744
 6425SOL    HW120174   6.830   4.926   2.794
 6425SOL    HW220175   6.751   4.918   2.651
 6426SOL     OW20176   1.231   3.192   3.975
 6426SOL    HW120177   1.231   3.271   3.915
 6426SOL    HW220178   1.206   3.110   3.923
 6427SOL     OW20179   1.136   3.602   6.608
 6427SOL    HW120180   1.176   3.693   6.623
 6427SOL    HW220181   1.048   3.612   6.562
 6428SOL     OW20182   6.774   3.629   2.298
 6428SOL    HW120183   6.698   3.693   2.294
 6428SOL    HW220184   6.860   3.679   2.291
 6429SOL     OW20185   1.896   1.051   4.646
 6429SOL    HW120186   1.983   1.005   4.626
 6429SOL    HW220187   1.852   1.007   4.724
 6430SOL     OW20188   4.838   0.972   1.988
 6430SOL    HW120189   4.855   0.965   1.890
 6430SOL    HW220190   4.740   0.983   2.005
 6431SOL     OW20191   5.199   0.167   2.952
 6431SOL    HW120192   5.183   0.142   3.048
 6431SOL    HW220193   5.242   0.257   2.949
 6432SOL     OW20194   4.260   4.011   0.709
 6432SOL    HW120195   4.228   4.073   0.781
 6432SOL    HW220196   4.204   4.023   0.627
 6433SOL     OW20197   3.165   4.539   1.078
 6433SOL    HW120198   3.079   4.561   1.123
 6433SOL    HW220199   3.239   4.540   1.145
 6434SOL     OW20200   0.843   3.875   1.114
 6434SOL    HW120201   0.811   3.937   1.042
 6434SOL    HW220202   0.922   3.824   1.080
 6435SOL     OW20203   3.712   5.309   0.304
 6435SOL    HW120204   3.782   5.239   0.321
 6435SOL    HW220205   3.625   5.264   0.283
 6436SOL     OW20206   1.769   3.489   3.351
 6436SOL    HW120207   1.752   3.581   3.386
 6436SOL    HW220208   1.688   3.456   3.303
 6437SOL     OW20209   1.434   0.305   0.060
 6437SOL    HW120210   1.355   0.248   0.035
 6437SOL    HW220211   1.518   0.259   0.034
 6438SOL     OW20212   0.861   4.157   4.941
 6438SOL    HW120213   0.823   4.196   4.857
 6438SOL    HW220214   0.800   4.177   5.018
 6439SOL     OW20215   1.431   0.222   0.689
 6439SOL    HW120216   1.397   0.155   0.754
 6439SOL    HW220217   1.367   0.230   0.613
 6440SOL     OW20218   2.032   1.759   1.909
 6440SOL    HW120219   1.945   1.710   1.906
 6440SOL    HW220220   2.024   1.845   1.858
 6441SOL     OW20221   1.746   0.853   2.666
 6441SOL    HW120222   1.677   0.884   2.732
 6441SOL    HW220223   1.793   0.933   2.628
 6442SOL     OW20224   2.516   1.638   4.659
 6442SOL    HW120225   2.561   1.673   4.741
 6442SOL    HW220226   2.586   1.613   4.592
 6443SOL     OW20227   2.972   2.938   0.358
 6443SOL    HW120228   2.924   3.026   0.362
 6443SOL    HW220229   2.908   2.865   0.338
 6444SOL     OW20230   0.385   2.031   2.652
 6444SOL    HW120231   0.308   2.049   2.713
 6444SOL    HW220232   0.354   1.977   2.574
 6445SOL     OW20233   4.343   2.586   5.358
 6445SOL    HW120234   4.259   2.558   5.311
 6445SOL    HW220235   4.322   2.611   5.452
 6446SOL     OW20236   0.170   1.427   6.457
 6446SOL    HW120237   0.245   1.397   6.399
 6446SOL    HW220238   0.185   1.395   6.551
 6447SOL     OW20239   1.555   6.172   2.555
 6447SOL    HW120240   1.586   6.196   2.646
 6447SOL    HW220241   1.465   6.128   2.561
 6448SOL     OW20242   6.398   3.144   2.569
 6448SOL    HW120243   6.462   3.096   2.629
 6448SOL    HW220244   6.448   3.202   2.506
 6449SOL     OW20245   3.842   4.110   1.863
 6449SOL    HW120246   3.771   4.082   1.798
 6449SOL    HW220247   3.864   4.207   1.850
 6450SOL     OW20248   6.201   3.244   1.628
 6450SOL    HW120249   6.240   3.310   1.563
 6450SOL    HW220250   6.194   3.154   1.583
 6451SOL     OW20251   3.298   6.256   5.430
 6451SOL    HW120252   3.356   6.310   5.369
 6451SOL    HW220253   3.343   6.169   5.451
 6452SOL     OW20254   3.362   6.853   4.936
 6452SOL    HW120255   3.267   6.884   4.931
 6452SOL    HW220256   3.423   6.929   4.913
 6453SOL     OW20257   1.359   6.134   0.478
 6453SOL    HW120258   1.312   6.075   0.413
 6453SOL    HW220259   1.443   6.170   0.437
 6454SOL     OW20260   2.565   1.545   4.189
 6454SOL    HW120261   2.586   1.594   4.104
 6454SOL    HW220262   2.485   1.486   4.175
 6455SOL     OW20263   0.513   2.760   4.756
 6455SOL    HW120264   0.536   2.719   4.667
 6455SOL    HW220265   0.520   2.859   4.750
 6456SOL     OW20266   1.287   0.110   3.503
 6456SOL    HW120267   1.304   0.022   3.547
 6456SOL    HW220268   1.317   0.184   3.563
 6457SOL     OW20269   5.934   2.008   1.591
 6457SOL    HW120270   5.907   2.007   1.495
 6457SOL    HW220271   5.873   1.947   1.643
 6458SOL     OW20272   1.587   5.759   3.136
 6458SOL    HW120273   1.555   5.690   3.072
 6458SOL    HW220274   1.687   5.767   3.130
 6459SOL     OW20275   5.886   5.233   0.375
 6459SOL    HW120276   5.857   5.144   0.411
 6459SOL    HW220277   5.811   5.299   0.384
 6460SOL     OW20278   4.436   4.573   0.360
 6460SOL    HW120279   4.339   4.555   0.345
 6460SOL    HW220280   4.459   4.663   0.324
 6461SOL     OW20281   2.910   5.622   5.713
 6461SOL    HW120282   2.920   5.692   5.642
 6461SOL    HW220283   2.964   5.541   5.687
 6462SOL     OW20284   2.184   3.039   5.250
 6462SOL    HW120285   2.283   3.046   5.252
 6462SOL    HW220286   2.144   3.130   5.238
 6463SOL     OW20287   2.203   4.832   6.417
 6463SOL    HW120288   2.173   4.810   6.510
 6463SOL    HW220289   2.274   4.767   6.389
 6464SOL     OW20290   0.331   5.023   3.502
 6464SOL    HW120291   0.307   5.095   3.437
 6464SOL    HW220292   0.368   4.945   3.452
 6465SOL     OW20293   5.983   1.757   3.855
 6465SOL    HW120294   5.923   1.835   3.871
 6465SOL    HW220295   6.078   1.788   3.850
 6466SOL     OW20296   6.910   2.600   4.773
 6466SOL    HW120297   6.974   2.677   4.780
 6466SOL    HW220298   6.962   2.514   4.769
 6467SOL     OW20299   2.361   1.076   6.637
 6467SOL    HW120300   2.322   1.105   6.725
 6467SOL    HW220301   2.365   0.977   6.634
 6468SOL     OW20302   4.341   6.167   1.654
 6468SOL    HW120303   4.376   6.193   1.564
 6468SOL    HW220304   4.411   6.183   1.723
 6469SOL     OW20305   6.330   1.148   5.127
 6469SOL    HW120306   6.382   1.198   5.057
 6469SOL    HW220307   6.325   1.203   5.210
 6470SOL     OW20308   0.030   6.292   6.011
 6470SOL    HW120309   6.972   6.352   6.007
 6470SOL    HW220310   0.024   6.224   5.938
 6471SOL     OW20311   6.611   5.148   6.196
 6471SOL    HW120312   6.602   5.213   6.271
 6471SOL    HW220313   6.520   5.119   6.166
 6472SOL     OW20314   1.296   5.959   1.333
 6472SOL    HW120315   1.269   6.055   1.335
 6472SOL    HW220316   1.386   5.948   1.375
 6473SOL     OW20317   2.175   1.189   5.974
 6473SOL    HW120318   2.087   1.150   5.999
 6473SOL    HW220319   2.211   1.142   5.893
 6474SOL     OW20320   1.301   3.587   6.224
 6474SOL    HW120321   1.325   3.521   6.153
 6474SOL    HW220322   1.221   3.555   6.274
 6475SOL     OW20323   5.265   6.093   3.793
 6475SOL    HW120324   5.332   6.079   3.866
 6475SOL    HW220325   5.291   6.038   3.714
 6476SOL     OW20326   4.378   4.801   3.052
 6476SOL    HW120327   4.326   4.738   2.995
 6476SOL    HW220328   4.414   4.875   2.996
 6477SOL     OW20329   6.312   5.459   6.121
 6477SOL    HW120330   6.216   5.482   6.108
 6477SOL    HW220331   6.359   5.536   6.165
 6478SOL     OW20332   3.854   5.782   2.019
 6478SOL    HW120333   3.920   5.707   2.013
 6478SOL    HW220334   3.823   5.807   1.927
 6479SOL     OW20335   4.155   4.993   2.196
 6479SOL    HW120336   4.163   5.007   2.295
 6479SOL    HW220337   4.076   5.043   2.161
 6480SOL     OW20338   3.681   2.872   6.025
 6480SOL    HW120339   3.652   2.937   5.954
 6480SOL    HW220340   3.621   2.881   6.104
 6481SOL     OW20341   3.403   2.158   1.343
 6481SOL    HW120342   3.382   2.097   1.267
 6481SOL    HW220343   3.339   2.141   1.418
 6482SOL     OW20344   6.656   0.425   6.999
 6482SOL    HW120345   6.658   0.365   6.919
 6482SOL    HW220346   6.653   0.520   6.969
 6483SOL     OW20347   2.230   6.524   2.599
 6483SOL    HW120348   2.184   6.530   2.688
 6483SOL    HW220349   2.234   6.429   2.570
 6484SOL     OW20350   4.390   0.272   2.522
 6484SOL    HW120351   4.351   0.186   2.490
 6484SOL    HW220352   4.486   0.257   2.548
 6485SOL     OW20353   1.404   3.231   3.482
 6485SOL    HW120354   1.442   3.163   3.544
 6485SOL    HW220355   1.347   3.185   3.413
 6486SOL     OW20356   0.897   4.508   4.356
 6486SOL    HW120357   0.945   4.556   4.429
 6486SOL    HW220358   0.899   4.409   4.374
 6487SOL     OW20359   6.821   5.995   4.288
 6487SOL    HW120360   6.803   6.042   4.202
 6487SOL    HW220361   6.765   6.034   4.361
 6488SOL     OW20362   2.892   6.117   5.639
 6488SOL    HW120363   2.797   6.087   5.636
 6488SOL    HW220364   2.932   6.109   5.548
 6489SOL     OW20365   1.919   2.556   6.604
 6489SOL    HW120366   1.842   2.618   6.590
 6489SOL    HW220367   1.906   2.506   6.690
 6490SOL     OW20368   3.982   2.753   0.412
 6490SOL    HW120369   4.033   2.833   0.443
 6490SOL    HW220370   3.934   2.712   0.490
 6491SOL     OW20371   4.905   0.947   6.625
 6491SOL    HW120372   4.900   1.030   6.569
 6491SOL    HW220373   4.966   0.881   6.582
 6492SOL     OW20374   6.110   6.862   0.073
 6492SOL    HW120375   6.202   6.829   0.094
 6492SOL    HW220376   6.111   6.961   0.064
 6493SOL     OW20377   1.800   6.399   5.910
 6493SOL    HW120378   1.869   6.464   5.877
 6493SOL    HW220379   1.794   6.404   6.009
 6494SOL     OW20380   0.775   0.115   3.731
 6494SOL    HW120381   0.747   0.127   3.635
 6494SOL    HW220382   0.830   0.032   3.740
 6495SOL     OW20383   4.867   5.802   3.073
 6495SOL    HW120384   4.811   5.875   3.035
 6495SOL    HW220385   4.817   5.756   3.147
 6496SOL     OW20386   0.001   6.106   1.686
 6496SOL    HW120387   6.989   6.116   1.780
 6496SOL    HW220388   0.074   6.172   1.669
 6497SOL     OW20389   2.127   3.602   1.218
 6497SOL    HW120390   2.173   3.625   1.303
 6497SOL    HW220391   2.145   3.506   1.195
 6498SOL     OW20392   2.371   4.755   4.337
 6498SOL    HW120393   2.320   4.687   4.390
 6498SOL    HW220394   2.352   4.846   4.372
 6499SOL     OW20395   5.128   0.489   5.406
 6499SOL    HW120396   5.132   0.471   5.505
 6499SOL    HW220397   5.047   0.544   5.386
 6500SOL     OW20398   6.288   4.147   3.591
 6500SOL    HW120399   6.256   4.242   3.596
 6500SOL    HW220400   6.384   4.143   3.619
 6501SOL     OW20401   6.512   3.830   1.357
 6501SOL    HW120402   6.491   3.870   1.446
 6501SOL    HW220403   6.517   3.731   1.365
 6502SOL     OW20404   0.361   4.427   3.752
 6502SOL    HW120405   0.368   4.420   3.852
 6502SOL    HW220406   0.388   4.520   3.724
 6503SOL     OW20407   5.425   6.264   3.162
 6503SOL    HW120408   5.392   6.258   3.068
 6503SOL    HW220409   5.418   6.359   3.194
 6504SOL     OW20410   4.912   0.402   6.942
 6504SOL    HW120411   4.998   0.376   6.898
 6504SOL    HW220412   4.838   0.343   6.907
 6505SOL     OW20413   6.188   4.687   0.784
 6505SOL    HW120414   6.269   4.660   0.835
 6505SOL    HW220415   6.192   4.647   0.692
 6506SOL     OW20416   1.044   2.637   1.299
 6506SOL    HW120417   0.964   2.696   1.308
 6506SOL    HW220418   1.039   2.563   1.367
 6507SOL     OW20419   1.535   5.861   1.470
 6507SOL    HW120420   1.576   5.852   1.379
 6507SOL    HW220421   1.534   5.772   1.515
 6508SOL     OW20422   1.935   2.476   3.800
 6508SOL    HW120423   1.840   2.506   3.801
 6508SOL    HW220424   1.942   2.388   3.753
 6509SOL     OW20425   1.370   2.279   4.828
 6509SOL    HW120426   1.387   2.238   4.738
 6509SOL    HW220427   1.302   2.351   4.819
 6510SOL     OW20428   6.779   5.357   6.603
 6510SOL    HW120429   6.878   5.346   6.591
 6510SOL    HW220430   6.761   5.409   6.687
 6511SOL     OW20431   6.566   0.372   5.361
 6511SOL    HW120432   6.491   0.422   5.404
 6511SOL    HW220433   6.555   0.373   5.262
 6512SOL     OW20434   4.435   6.652   2.900
 6512SOL    HW120435   4.372   6.729   2.916
 6512SOL    HW220436   4.416   6.580   2.966
 6513SOL     OW20437   3.731   0.033   4.210
 6513SOL    HW120438   3.644   7.005   4.208
 6513SOL    HW220439   3.753   0.056   4.305
 6514SOL     OW20440   4.910   6.977   4.149
 6514SOL    HW120441   4.868   7.000   4.061
 6514SOL    HW220442   4.947   0.039   4.191
 6515SOL     OW20443   6.771   5.436   4.389
 6515SOL    HW120444   6.745   5.373   4.462
 6515SOL    HW220445   6.835   5.391   4.327
 6516SOL     OW20446   0.391   1.675   6.725
 6516SOL    HW120447   0.422   1.584   6.753
 6516SOL    HW220448   0.380   1.733   6.805
 6517SOL     OW20449   0.209   1.865   0.387
 6517SOL    HW120450   0.231   1.938   0.451
 6517SOL    HW220451   0.206   1.778   0.436
 6518SOL     OW20452   1.002   6.147   0.833
 6518SOL    HW120453   1.013   6.178   0.927
 6518SOL    HW220454   1.032   6.219   0.770
 6519SOL     OW20455   2.369   1.635   4.424
 6519SOL    HW120456   2.438   1.668   4.360
 6519SOL    HW220457   2.410   1.628   4.516
 6520SOL     OW20458   6.225   5.549   2.313
 6520SOL    HW120459   6.129   5.550   2.287
 6520SOL    HW220460   6.234   5.536   2.412
 6521SOL     OW20461   1.027   1.518   4.430
 6521SOL    HW120462   0.995   1.495   4.338
 6521SOL    HW220463   1.121   1.553   4.425
 6522SOL     OW20464   2.255   5.610   0.041
 6522SOL    HW120465   2.312   5.531   0.063
 6522SOL    HW220466   2.197   5.588   6.984
 6523SOL     OW20467   2.641   0.998   6.534
 6523SOL    HW120468   2.605   0.905   6.520
 6523SOL    HW220469   2.574   1.064   6.500
 6524SOL     OW20470   3.640   3.599   3.830
 6524SOL    HW120471   3.551   3.581   3.787
 6524SOL    HW220472   3.713   3.563   3.771
 6525SOL     OW20473   1.118   2.585   2.950
 6525SOL    HW120474   1.139   2.683   2.941
 6525SOL    HW220475   1.055   2.558   2.878
 6526SOL     OW20476   0.837   6.432   4.823
 6526SOL    HW120477   0.880   6.467   4.740
 6526SOL    HW220478   0.862   6.336   4.835
 6527SOL     OW20479   1.494   0.367   5.311
 6527SOL    HW120480   1.444   0.434   5.256
 6527SOL    HW220481   1.587   0.399   5.327
 6528SOL     OW20482   0.137   1.088   4.200
 6528SOL    HW120483   0.220   1.040   4.229
 6528SOL    HW220484   0.138   1.100   4.101
 6529SOL     OW20485   5.748   1.545   2.415
 6529SOL    HW120486   5.784   1.492   2.492
 6529SOL    HW220487   5.740   1.486   2.335
 6530SOL     OW20488   6.439   2.916   0.249
 6530SOL    HW120489   6.479   2.993   0.200
 6530SOL    HW220490   6.510   2.866   0.298
 6531SOL     OW20491   5.655   2.230   3.990
 6531SOL    HW120492   5.678   2.317   4.034
 6531SOL    HW220493   5.589   2.180   4.046
 6532SOL     OW20494   6.561   1.537   6.464
 6532SOL    HW120495   6.645   1.490   6.492
 6532SOL    HW220496   6.571   1.569   6.369
 6533SOL     OW20497   5.227   6.393   1.277
 6533SOL    HW120498   5.154   6.442   1.327
 6533SOL    HW220499   5.210   6.295   1.282
 6534SOL     OW20500   2.287   3.367   1.394
 6534SOL    HW120501   2.365   3.405   1.443
 6534SOL    HW220502   2.292   3.392   1.298
 6535SOL     OW20503   0.181   3.424   5.137
 6535SOL    HW120504   0.169   3.409   5.039
 6535SOL    HW220505   0.132   3.508   5.164
 6536SOL     OW20506   5.938   2.041   0.047
 6536SOL    HW120507   5.888   1.960   0.017
 6536SOL    HW220508   5.874   2.109   0.081
 6537SOL     OW20509   6.610   6.674   6.887
 6537SOL    HW120510   6.684   6.739   6.900
 6537SOL    HW220511   6.564   6.657   6.975
 6538SOL     OW20512   3.372   3.842   0.190
 6538SOL    HW120513   3.350   3.873   0.282
 6538SOL    HW220514   3.288   3.836   0.135
 6539SOL     OW20515   2.302   1.676   6.489
 6539SOL    HW120516   2.261   1.629   6.567
 6539SOL    HW220517   2.253   1.762   6.472
 6540SOL     OW20518   3.766   1.622   4.344
 6540SOL    HW120519   3.784   1.527   4.321
 6540SOL    HW220520   3.814   1.682   4.279
 6541SOL     OW20521   3.095   2.515   5.345
 6541SOL    HW120522   2.995   2.513   5.347
 6541SOL    HW220523   3.128   2.472   5.261
 6542SOL     OW20524   5.893   4.890   3.298
 6542SOL    HW120525   5.938   4.834   3.229
 6542SOL    HW220526   5.793   4.882   3.289
 6543SOL     OW20527   6.283   5.767   0.258
 6543SOL    HW120528   6.296   5.673   0.228
 6543SOL    HW220529   6.255   5.768   0.354
 6544SOL     OW20530   6.549   6.432   4.356
 6544SOL    HW120531   6.590   6.517   4.322
 6544SOL    HW220532   6.587   6.410   4.446
 6545SOL     OW20533   5.413   1.300   5.993
 6545SOL    HW120534   5.354   1.347   6.059
 6545SOL    HW220535   5.497   1.271   6.039
 6546SOL     OW20536   4.003   4.725   6.441
 6546SOL    HW120537   4.078   4.678   6.395
 6546SOL    HW220538   3.991   4.816   6.402
 6547SOL     OW20539   4.933   2.469   6.492
 6547SOL    HW120540   4.895   2.467   6.585
 6547SOL    HW220541   4.916   2.382   6.447
 6548SOL     OW20542   6.596   4.495   5.954
 6548SOL    HW120543   6.615   4.461   5.862
 6548SOL    HW220544   6.640   4.584   5.967
 6549SOL     OW20545   3.946   2.389   1.108
 6549SOL    HW120546   3.886   2.339   1.170
 6549SOL    HW220547   3.995   2.325   1.049
 6550SOL     OW20548   0.250   5.841   3.453
 6550SOL    HW120549   0.318   5.853   3.526
 6550SOL    HW220550   0.238   5.743   3.435
 6551SOL     OW20551   2.414   4.588   1.651
 6551SOL    HW120552   2.491   4.529   1.674
 6551SOL    HW220553   2.383   4.567   1.558
 6552SOL     OW20554   2.578   5.288   5.744
 6552SOL    HW120555   2.576   5.264   5.841
 6552SOL    HW220556   2.595   5.206   5.689
 6553SOL     OW20557   0.624   3.411   1.917
 6553SOL    HW120558   0.702   3.351   1.898
 6553SOL    HW220559   0.632   3.495   1.863
 6554SOL     OW20560   6.386   1.756   5.869
 6554SOL    HW120561   6.364   1.740   5.773
 6554SOL    HW220562   6.365   1.850   5.893
 6555SOL     OW20563   1.935   0.883   1.955
 6555SOL    HW120564   1.844   0.923   1.944
 6555SOL    HW220565   1.929   0.799   2.009
 6556SOL     OW20566   4.708   4.721   5.058
 6556SOL    HW120567   4.766   4.641   5.039
 6556SOL    HW220568   4.744   4.800   5.010
 6557SOL     OW20569   6.094   5.601   0.654
 6557SOL    HW120570   6.071   5.687   0.607
 6557SOL    HW220571   6.013   5.543   0.658
 6558SOL     OW20572   6.639   6.262   0.697
 6558SOL    HW120573   6.733   6.234   0.677
 6558SOL    HW220574   6.629   6.360   0.683
 6559SOL     OW20575   4.888   3.817   0.987
 6559SOL    HW120576   4.917   3.751   0.917
 6559SOL    HW220577   4.802   3.787   1.028
 6560SOL     OW20578   4.324   3.373   1.327
 6560SOL    HW120579   4.307   3.300   1.261
 6560SOL    HW220580   4.273   3.355   1.411
 6561SOL     OW20581   3.939   3.956   2.448
 6561SOL    HW120582   4.006   4.021   2.413
 6561SOL    HW220583   3.849   4.000   2.451
 6562SOL     OW20584   6.444   4.862   5.940
 6562SOL    HW120585   6.488   4.808   6.011
 6562SOL    HW220586   6.386   4.803   5.883
 6563SOL     OW20587   0.302   5.897   0.105
 6563SOL    HW120588   0.209   5.886   0.139
 6563SOL    HW220589   0.367   5.894   0.181
 6564SOL     OW20590   1.302   3.975   1.916
 6564SOL    HW120591   1.286   3.877   1.923
 6564SOL    HW220592   1.382   4.000   1.970
 6565SOL     OW20593   5.819   2.550   4.930
 6565SOL    HW120594   5.902   2.514   4.974
 6565SOL    HW220595   5.761   2.474   4.901
 6566SOL     OW20596   3.376   0.060   1.710
 6566SOL    HW120597   3.357   0.150   1.749
 6566SOL    HW220598   3.450   0.068   1.643
 6567SOL     OW20599   4.820   3.047   0.459
 6567SOL    HW120600   4.871   2.972   0.502
 6567SOL    HW220601   4.770   3.012   0.380
 6568SOL     OW20602   4.421   4.740   2.028
 6568SOL    HW120603   4.380   4.829   2.004
 6568SOL    HW220604   4.360   4.691   2.090
 6569SOL     OW20605   2.180   5.323   0.712
 6569SOL    HW120606   2.199   5.402   0.654
 6569SOL    HW220607   2.250   5.316   0.783
 6570SOL     OW20608   5.006   0.813   2.117
 6570SOL    HW120609   5.086   0.869   2.142
 6570SOL    HW220610   4.944   0.867   2.060
 6571SOL     OW20611   2.145   5.682   3.820
 6571SOL    HW120612   2.231   5.633   3.833
 6571SOL    HW220613   2.164   5.778   3.797
 6572SOL     OW20614   6.346   3.596   5.209
 6572SOL    HW120615   6.404   3.560   5.136
 6572SOL    HW220616   6.327   3.524   5.276
 6573SOL     OW20617   3.745   1.075   2.497
 6573SOL    HW120618   3.784   1.159   2.459
 6573SOL    HW220619   3.806   1.039   2.568
 6574SOL     OW20620   2.480   5.751   2.126
 6574SOL    HW120621   2.553   5.818   2.116
 6574SOL    HW220622   2.480   5.715   2.219
 6575SOL     OW20623   0.848   1.190   1.601
 6575SOL    HW120624   0.911   1.116   1.575
 6575SOL    HW220625   0.837   1.190   1.700
 6576SOL     OW20626   1.430   5.434   6.998
 6576SOL    HW120627   1.479   5.355   0.013
 6576SOL    HW220628   1.398   5.492   0.051
 6577SOL     OW20629   0.731   1.785   3.462
 6577SOL    HW120630   0.794   1.754   3.533
 6577SOL    HW220631   0.758   1.745   3.374
 6578SOL     OW20632   5.807   5.111   3.581
 6578SOL    HW120633   5.840   5.119   3.487
 6578SOL    HW220634   5.791   5.202   3.619
 6579SOL     OW20635   0.292   3.932   3.707
 6579SOL    HW120636   0.253   3.841   3.693
 6579SOL    HW220637   0.218   4.000   3.711
 6580SOL     OW20638   5.679   0.502   0.819
 6580SOL    HW120639   5.630   0.534   0.900
 6580SOL    HW220640   5.700   0.580   0.760
 6581SOL     OW20641   4.119   1.415   6.215
 6581SOL    HW120642   4.143   1.428   6.311
 6581SOL    HW220643   4.127   1.318   6.192
 6582SOL     OW20644   0.665   6.914   2.753
 6582SOL    HW120645   0.593   6.916   2.683
 6582SOL    HW220646   0.642   6.978   2.826
 6583SOL     OW20647   5.394   1.285   6.359
 6583SOL    HW120648   5.443   1.369   6.382
 6583SOL    HW220649   5.423   1.211   6.420
 6584SOL     OW20650   5.699   1.572   6.037
 6584SOL    HW120651   5.631   1.613   5.975
 6584SOL    HW220652   5.663   1.574   6.130
 6585SOL     OW20653   0.313   1.815   6.954
 6585SOL    HW120654   0.339   1.789   0.025
 6585SOL    HW220655   0.323   1.914   6.942
 6586SOL     OW20656   6.317   1.707   6.216
 6586SOL    HW120657   6.265   1.773   6.270
 6586SOL    HW220658   6.405   1.746   6.191
 6587SOL     OW20659   2.309   5.680   4.169
 6587SOL    HW120660   2.211   5.670   4.151
 6587SOL    HW220661   2.334   5.777   4.166
 6588SOL     OW20662   1.443   3.259   0.604
 6588SOL    HW120663   1.489   3.342   0.635
 6588SOL    HW220664   1.505   3.208   0.544
 6589SOL     OW20665   4.846   0.520   6.082
 6589SOL    HW120666   4.778   0.533   6.011
 6589SOL    HW220667   4.914   0.453   6.052
 6590SOL     OW20668   0.145   1.489   4.487
 6590SOL    HW120669   0.103   1.562   4.541
 6590SOL    HW220670   0.076   1.449   4.427
 6591SOL     OW20671   5.676   6.871   2.525
 6591SOL    HW120672   5.708   6.782   2.495
 6591SOL    HW220673   5.599   6.860   2.589
 6592SOL     OW20674   4.087   0.336   4.850
 6592SOL    HW120675   4.156   0.269   4.821
 6592SOL    HW220676   4.042   0.303   4.933
 6593SOL     OW20677   3.011   2.118   3.944
 6593SOL    HW120678   2.923   2.121   3.897
 6593SOL    HW220679   3.032   2.208   3.982
 6594SOL     OW20680   5.202   0.345   6.838
 6594SOL    HW120681   5.291   0.304   6.856
 6594SOL    HW220682   5.147   0.282   6.783
 6595SOL     OW20683   1.600   3.461   0.690
 6595SOL    HW120684   1.655   3.469   0.773
 6595SOL    HW220685   1.656   3.486   0.611
 6596SOL     OW20686   4.833   0.216   5.944
 6596SOL    HW120687   4.866   0.144   5.884
 6596SOL    HW220688   4.911   0.261   5.988
 6597SOL     OW20689   0.200   6.820   4.315
 6597SOL    HW120690   0.113   6.806   4.362
 6597SOL    HW220691   0.275   6.817   4.381
 6598SOL     OW20692   1.453   5.833   4.933
 6598SOL    HW120693   1.440   5.734   4.929
 6598SOL    HW220694   1.549   5.853   4.953
 6599SOL     OW20695   4.339   5.128   5.949
 6599SOL    HW120696   4.240   5.130   5.934
 6599SOL    HW220697   4.375   5.040   5.921
 6600SOL     OW20698   4.850   5.111   4.681
 6600SOL    HW120699   4.918   5.162   4.733
 6600SOL    HW220700   4.896   5.045   4.621
 6601SOL     OW20701   0.408   1.273   0.557
 6601SOL    HW120702   0.383   1.261   0.461
 6601SOL    HW220703   0.325   1.282   0.612
 6602SOL     OW20704   0.055   2.466   1.478
 6602SOL    HW120705   0.120   2.409   1.427
 6602SOL    HW220706   6.984   2.452   1.442
 6603SOL     OW20707   1.595   3.684   3.199
 6603SOL    HW120708   1.546   3.611   3.246
 6603SOL    HW220709   1.660   3.727   3.262
 6604SOL     OW20710   2.378   5.669   1.812
 6604SOL    HW120711   2.347   5.727   1.887
 6604SOL    HW220712   2.335   5.579   1.820
 6605SOL     OW20713   5.274   5.552   0.284
 6605SOL    HW120714   5.346   5.563   0.352
 6605SOL    HW220715   5.268   5.635   0.228
 6606SOL     OW20716   4.784   0.650   2.482
 6606SOL    HW120717   4.796   0.741   2.520
 6606SOL    HW220718   4.769   0.657   2.383
 6607SOL     OW20719   1.981   1.194   2.343
 6607SOL    HW120720   1.978   1.215   2.246
 6607SOL    HW220721   2.075   1.186   2.374
 6608SOL     OW20722   5.139   3.216   3.070
 6608SOL    HW120723   5.093   3.190   2.985
 6608SOL    HW220724   5.188   3.138   3.107
 6609SOL     OW20725   5.525   0.888   0.042
 6609SOL    HW120726   5.514   0.814   0.109
 6609SOL    HW220727   5.471   0.867   6.982
 6610SOL     OW20728   2.044   0.382   0.577
 6610SOL    HW120729   2.132   0.405   0.618
 6610SOL    HW220730   1.990   0.327   0.640
 6611SOL     OW20731   6.482   2.157   2.820
 6611SOL    HW120732   6.386   2.131   2.811
 6611SOL    HW220733   6.531   2.131   2.736
 6612SOL     OW20734   1.134   5.703   6.796
 6612SOL    HW120735   1.124   5.802   6.792
 6612SOL    HW220736   1.168   5.669   6.709
 6613SOL     OW20737   5.102   4.964   2.832
 6613SOL    HW120738   5.121   5.038   2.768
 6613SOL    HW220739   5.067   4.885   2.781
 6614SOL     OW20740   4.998   5.394   6.232
 6614SOL    HW120741   4.963   5.325   6.296
 6614SOL    HW220742   5.096   5.380   6.219
 6615SOL     OW20743   0.618   3.195   5.174
 6615SOL    HW120744   0.529   3.236   5.194
 6615SOL    HW220745   0.629   3.111   5.228
 6616SOL     OW20746   4.664   1.538   5.363
 6616SOL    HW120747   4.739   1.515   5.426
 6616SOL    HW220748   4.608   1.610   5.403
 6617SOL     OW20749   3.301   6.497   3.892
 6617SOL    HW120750   3.299   6.402   3.925
 6617SOL    HW220751   3.255   6.501   3.803
 6618SOL     OW20752   0.826   4.353   2.079
 6618SOL    HW120753   0.885   4.426   2.111
 6618SOL    HW220754   0.730   4.383   2.082
 6619SOL     OW20755   4.335   6.942   3.529
 6619SOL    HW120756   4.271   6.867   3.544
 6619SOL    HW220757   4.389   6.923   3.447
 6620SOL     OW20758   1.405   3.031   6.309
 6620SOL    HW120759   1.440   3.020   6.215
 6620SOL    HW220760   1.428   2.949   6.362
 6621SOL     OW20761   2.615   3.994   0.440
 6621SOL    HW120762   2.516   4.002   0.454
 6621SOL    HW220763   2.662   4.004   0.528
 6622SOL     OW20764   6.572   6.517   0.622
 6622SOL    HW120765   6.503   6.476   0.564
 6622SOL    HW220766   6.544   6.610   0.647
 6623SOL     OW20767   3.419   2.902   2.382
 6623SOL    HW120768   3.391   2.903   2.286
 6623SOL    HW220769   3.505   2.952   2.392
 6624SOL     OW20770   3.199   5.822   4.976
 6624SOL    HW120771   3.121   5.760   4.970
 6624SOL    HW220772   3.284   5.770   4.961
 6625SOL     OW20773   6.144   1.026   6.504
 6625SOL    HW120774   6.113   1.115   6.537
 6625SOL    HW220775   6.218   1.039   6.438
 6626SOL     OW20776   3.116   5.603   3.245
 6626SOL    HW120777   3.025   5.626   3.281
 6626SOL    HW220778   3.109   5.520   3.189
 6627SOL     OW20779   1.803   0.912   6.393
 6627SOL    HW120780   1.733   0.845   6.367
 6627SOL    HW220781   1.851   0.881   6.474
 6628SOL     OW20782   4.453   4.867   2.715
 6628SOL    HW120783   4.527   4.819   2.762
 6628SOL    HW220784   4.491   4.941   2.660
 6629SOL     OW20785   2.981   5.978   1.906
 6629SOL    HW120786   3.055   6.033   1.946
 6629SOL    HW220787   2.935   6.031   1.836
 6630SOL     OW20788   3.789   1.200   0.399
 6630SOL    HW120789   3.855   1.190   0.473
 6630SOL    HW220790   3.823   1.266   0.332
 6631SOL     OW20791   4.850   0.236   2.176
 6631SOL    HW120792   4.796   0.246   2.092
 6631SOL    HW220793   4.899   0.322   2.194
 6632SOL     OW20794   6.752   1.578   0.528
 6632SOL    HW120795   6.755   1.634   0.611
 6632SOL    HW220796   6.826   1.606   0.467
 6633SOL     OW20797   1.092   6.069   0.092
 6633SOL    HW120798   1.032   6.030   0.022
 6633SOL    HW220799   1.180   6.093   0.051
 6634SOL     OW20800   6.339   3.408   5.860
 6634SOL    HW120801   6.354   3.458   5.945
 6634SOL    HW220802   6.263   3.344   5.871
 6635SOL     OW20803   4.347   5.032   3.543
 6635SOL    HW120804   4.349   5.126   3.577
 6635SOL    HW220805   4.425   4.982   3.581
 6636SOL     OW20806   1.241   3.057   5.223
 6636SOL    HW120807   1.187   2.999   5.162
 6636SOL    HW220808   1.336   3.025   5.225
 6637SOL     OW20809   1.647   0.562   0.639
 6637SOL    HW120810   1.727   0.553   0.581
 6637SOL    HW220811   1.665   0.520   0.728
 6638SOL     OW20812   1.795   5.513   4.974
 6638SOL    HW120813   1.849   5.440   4.933
 6638SOL    HW220814   1.833   5.602   4.947
 6639SOL     OW20815   5.485   4.724   6.432
 6639SOL    HW120816   5.428   4.797   6.395
 6639SOL    HW220817   5.551   4.763   6.496
 6640SOL     OW20818   6.717   2.434   3.878
 6640SOL    HW120819   6.758   2.385   3.955
 6640SOL    HW220820   6.750   2.395   3.792
 6641SOL     OW20821   3.325   4.004   6.653
 6641SOL    HW120822   3.244   3.971   6.701
 6641SOL    HW220823   3.330   4.104   6.660
 6642SOL     OW20824   1.540   4.731   0.071
 6642SOL    HW120825   1.605   4.656   0.056
 6642SOL    HW220826   1.515   4.770   7.004
 6643SOL     OW20827   6.384   4.132   6.012
 6643SOL    HW120828   6.348   4.206   6.068
 6643SOL    HW220829   6.313   4.099   5.950
 6644SOL     OW20830   2.731   4.839   1.905
 6644SOL    HW120831   2.767   4.749   1.931
 6644SOL    HW220832   2.806   4.896   1.869
 6645SOL     OW20833   0.028   5.369   6.508
 6645SOL    HW120834   0.003   5.451   6.457
 6645SOL    HW220835   0.082   5.394   6.588
 6646SOL     OW20836   4.103   5.264   4.353
 6646SOL    HW120837   4.096   5.353   4.398
 6646SOL    HW220838   4.020   5.247   4.300
 6647SOL     OW20839   3.384   0.219   2.361
 6647SOL    HW120840   3.332   0.136   2.383
 6647SOL    HW220841   3.320   0.294   2.344
 6648SOL     OW20842   4.040   5.678   2.952
 6648SOL    HW120843   3.993   5.670   2.863
 6648SOL    HW220844   4.083   5.767   2.959
 6649SOL     OW20845   5.029   1.488   6.370
 6649SOL    HW120846   5.054   1.571   6.320
 6649SOL    HW220847   5.040   1.409   6.310
 6650SOL     OW20848   4.309   1.120   3.422
 6650SOL    HW120849   4.296   1.197   3.484
 6650SOL    HW220850   4.254   1.043   3.453
 6651SOL     OW20851   1.141   2.129   0.398
 6651SOL    HW120852   1.121   2.142   0.301
 6651SOL    HW220853   1.216   2.190   0.425
 6652SOL     OW20854   6.887   5.136   1.156
 6652SOL    HW120855   6.876   5.037   1.149
 6652SOL    HW220856   6.838   5.181   1.082
 6653SOL     OW20857   3.203   3.685   3.014
 6653SOL    HW120858   3.155   3.705   3.100
 6653SOL    HW220859   3.182   3.756   2.947
 6654SOL     OW20860   1.804   2.856   0.910
 6654SOL    HW120861   1.805   2.945   0.956
 6654SOL    HW220862   1.725   2.804   0.940
 6655SOL     OW20863   2.772   6.420   2.080
 6655SOL    HW120864   2.742   6.427   2.175
 6655SOL    HW220865   2.693   6.408   2.020
 6656SOL     OW20866   0.051   1.171   2.085
 6656SOL    HW120867   6.995   1.210   2.034
 6656SOL    HW220868   0.101   1.244   2.131
 6657SOL     OW20869   4.158   7.014   6.227
 6657SOL    HW120870   4.059   0.002   6.235
 6657SOL    HW220871   4.196   0.078   6.189
 6658SOL     OW20872   5.727   0.616   4.972
 6658SOL    HW120873   5.798   0.664   4.921
 6658SOL    HW220874   5.639   0.628   4.926
 6659SOL     OW20875   3.059   2.994   0.013
 6659SOL    HW120876   3.140   3.037   6.994
 6659SOL    HW220877   3.087   2.928   0.082
 6660SOL     OW20878   6.765   6.577   2.154
 6660SOL    HW120879   6.699   6.647   2.183
 6660SOL    HW220880   6.720   6.488   2.149
 6661SOL     OW20881   6.277   5.254   3.611
 6661SOL    HW120882   6.237   5.331   3.660
 6661SOL    HW220883   6.266   5.171   3.666
 6662SOL     OW20884   2.424   0.774   0.339
 6662SOL    HW120885   2.334   0.757   0.378
 6662SOL    HW220886   2.421   0.762   0.239
 6663SOL     OW20887   6.915   5.681   2.503
 6663SOL    HW120888   6.983   5.663   2.433
 6663SOL    HW220889   6.960   5.687   2.592
 6664SOL     OW20890   1.224   7.009   2.220
 6664SOL    HW120891   1.299   0.025   2.275
 6664SOL    HW220892   1.159   6.962   2.280
 6665SOL     OW20893   1.281   6.513   3.373
 6665SOL    HW120894   1.212   6.517   3.301
 6665SOL    HW220895   1.312   6.605   3.395
 6666SOL     OW20896   6.395   1.496   5.058
 6666SOL    HW120897   6.435   1.421   5.006
 6666SOL    HW220898   6.298   1.479   5.072
 6667SOL     OW20899   6.227   5.225   4.412
 6667SOL    HW120900   6.242   5.133   4.375
 6667SOL    HW220901   6.133   5.232   4.447
 6668SOL     OW20902   0.160   5.022   2.250
 6668SOL    HW120903   0.178   4.927   2.224
 6668SOL    HW220904   0.147   5.028   2.349
 6669SOL     OW20905   2.447   5.001   3.746
 6669SOL    HW120906   2.417   4.915   3.705
 6669SOL    HW220907   2.413   5.077   3.692
 6670SOL     OW20908   3.631   5.170   6.925
 6670SOL    HW120909   3.674   5.081   6.944
 6670SOL    HW220910   3.533   5.163   6.941
 6671SOL     OW20911   6.518   4.485   6.547
 6671SOL    HW120912   6.474   4.395   6.550
 6671SOL    HW220913   6.475   4.541   6.477
 6672SOL     OW20914   1.529   0.685   5.807
 6672SOL    HW120915   1.611   0.742   5.802
 6672SOL    HW220916   1.552   0.596   5.845
 6673SOL     OW20917   4.545   4.892   2.343
 6673SOL    HW120918   4.613   4.936   2.285
 6673SOL    HW220919   4.480   4.960   2.375
 6674SOL     OW20920   0.964   5.351   5.494
 6674SOL    HW120921   0.890   5.314   5.439
 6674SOL    HW220922   0.926   5.413   5.563
 6675SOL     OW20923   5.354   4.402   0.273
 6675SOL    HW120924   5.259   4.421   0.249
 6675SOL    HW220925   5.370   4.432   0.367
 6676SOL     OW20926   0.580   3.288   5.445
 6676SOL    HW120927   0.503   3.269   5.383
 6676SOL    HW220928   0.657   3.322   5.392
 6677SOL     OW20929   0.463   3.421   0.389
 6677SOL    HW120930   0.521   3.376   0.322
 6677SOL    HW220931   0.381   3.456   0.344
 6678SOL     OW20932   1.260   2.541   6.565
 6678SOL    HW120933   1.294   2.633   6.546
 6678SOL    HW220934   1.256   2.488   6.480
 6679SOL     OW20935   1.326   2.444   5.331
 6679SOL    HW120936   1.333   2.371   5.262
 6679SOL    HW220937   1.275   2.410   5.410
 6680SOL     OW20938   4.006   6.143   6.318
 6680SOL    HW120939   4.105   6.137   6.307
 6680SOL    HW220940   3.985   6.168   6.412
 6681SOL     OW20941   5.567   5.372   0.144
 6681SOL    HW120942   5.512   5.293   0.173
 6681SOL    HW220943   5.651   5.374   0.199
 6682SOL     OW20944   0.185   5.458   2.711
 6682SOL    HW120945   0.275   5.437   2.750
 6682SOL    HW220946   0.186   5.436   2.613
 6683SOL     OW20947   5.011   1.463   5.123
 6683SOL    HW120948   4.941   1.533   5.132
 6683SOL    HW220949   5.015   1.408   5.206
 6684SOL     OW20950   1.792   6.940   2.537
 6684SOL    HW120951   1.847   6.858   2.524
 6684SOL    HW220952   1.744   6.962   2.452
 6685SOL     OW20953   5.460   2.115   6.429
 6685SOL    HW120954   5.543   2.160   6.398
 6685SOL    HW220955   5.381   2.171   6.405
 6686SOL     OW20956   5.911   4.014   4.220
 6686SOL    HW120957   5.827   3.961   4.208
 6686SOL    HW220958   5.982   3.955   4.257
 6687SOL     OW20959   1.299   1.902   0.786
 6687SOL    HW120960   1.209   1.863   0.767
 6687SOL    HW220961   1.304   1.930   0.882
 6688SOL     OW20962   0.130   4.837   2.787
 6688SOL    HW120963   0.219   4.883   2.796
 6688SOL    HW220964   0.081   4.842   2.873
 6689SOL     OW20965   4.977   3.789   0.567
 6689SOL    HW120966   4.957   3.693   0.586
 6689SOL    HW220967   4.991   3.802   0.469
 6690SOL     OW20968   2.436   2.625   1.199
 6690SOL    HW120969   2.500   2.656   1.269
 6690SOL    HW220970   2.464   2.535   1.165
 6691SOL     OW20971   2.330   5.868   1.208
 6691SOL    HW120972   2.244   5.919   1.211
 6691SOL    HW220973   2.407   5.931   1.215
 6692SOL     OW20974   3.145   4.282   5.274
 6692SOL    HW120975   3.099   4.199   5.302
 6692SOL    HW220976   3.081   4.341   5.225
 6693SOL     OW20977   4.534   3.869   5.586
 6693SOL    HW120978   4.595   3.932   5.634
 6693SOL    HW220979   4.588   3.807   5.529
 6694SOL     OW20980   4.881   6.480   0.815
 6694SOL    HW120981   4.977   6.496   0.794
 6694SOL    HW220982   4.833   6.567   0.821
 6695SOL     OW20983   0.504   1.442   6.788
 6695SOL    HW120984   0.602   1.430   6.774
 6695SOL    HW220985   0.475   1.386   6.866
 6696SOL     OW20986   2.259   2.853   1.540
 6696SOL    HW120987   2.246   2.791   1.462
 6696SOL    HW220988   2.177   2.910   1.551
 6697SOL     OW20989   4.363   1.491   2.780
 6697SOL    HW120990   4.390   1.515   2.687
 6697SOL    HW220991   4.416   1.544   2.846
 6698SOL     OW20992   4.079   2.798   6.742
 6698SOL    HW120993   4.160   2.854   6.758
 6698SOL    HW220994   3.998   2.857   6.736
 6699SOL     OW20995   3.743   4.927   0.007
 6699SOL    HW120996   3.762   4.849   6.970
 6699SOL    HW220997   3.716   4.895   0.098
 6700SOL     OW20998   0.550   5.675   1.440
 6700SOL    HW120999   0.562   5.737   1.362
 6700SOL    HW221000   0.605   5.707   1.517
 6701SOL     OW21001   0.223   1.625   0.513
 6701SOL    HW121002   0.316   1.616   0.476
 6701SOL    HW221003   0.225   1.614   0.612
 6702SOL     OW21004   2.670   1.992   0.814
 6702SOL    HW121005   2.655   2.079   0.767
 6702SOL    HW221006   2.584   1.959   0.852
 6703SOL     OW21007   6.813   1.366   6.167
 6703SOL    HW121008   6.762   1.315   6.236
 6703SOL    HW221009   6.870   1.435   6.211
 6704SOL     OW21010   4.629   2.396   2.226
 6704SOL    HW121011   4.673   2.389   2.136
 6704SOL    HW221012   4.544   2.449   2.216
 6705SOL     OW21013   6.304   2.567   1.659
 6705SOL    HW121014   6.342   2.610   1.741
 6705SOL    HW221015   6.378   2.539   1.598
 6706SOL     OW21016   1.115   3.653   0.210
 6706SOL    HW121017   1.072   3.566   0.235
 6706SOL    HW221018   1.056   3.703   0.147
 6707SOL     OW21019   6.294   5.398   4.216
 6707SOL    HW121020   6.270   5.325   4.280
 6707SOL    HW221021   6.326   5.478   4.267
 6708SOL     OW21022   1.714   5.188   2.199
 6708SOL    HW121023   1.747   5.246   2.124
 6708SOL    HW221024   1.770   5.202   2.280
 6709SOL     OW21025   3.561   6.789   1.668
 6709SOL    HW121026   3.504   6.777   1.749
 6709SOL    HW221027   3.657   6.782   1.694
 6710SOL     OW21028   2.617   2.743   6.304
 6710SOL    HW121029   2.549   2.814   6.292
 6710SOL    HW221030   2.575   2.662   6.346
 6711SOL     OW21031   4.966   3.722   6.542
 6711SOL    HW121032   5.047   3.762   6.584
 6711SOL    HW221033   4.959   3.753   6.448
 6712SOL     OW21034   4.278   5.300   0.687
 6712SOL    HW121035   4.205   5.298   0.618
 6712SOL    HW221036   4.240   5.329   0.775
 6713SOL     OW21037   2.310   2.509   1.729
 6713SOL    HW121038   2.361   2.575   1.784
 6713SOL    HW221039   2.212   2.530   1.733
 6714SOL     OW21040   5.039   0.127   4.342
 6714SOL    HW121041   4.991   0.109   4.427
 6714SOL    HW221042   5.133   0.093   4.348
 6715SOL     OW21043   0.373   2.186   1.152
 6715SOL    HW121044   0.417   2.269   1.187
 6715SOL    HW221045   0.402   2.170   1.058
 6716SOL     OW21046   1.612   6.201   1.003
 6716SOL    HW121047   1.632   6.106   0.981
 6716SOL    HW221048   1.648   6.222   1.095
 6717SOL     OW21049   3.723   2.998   0.724
 6717SOL    HW121050   3.712   2.901   0.705
 6717SOL    HW221051   3.794   3.037   0.665
 6718SOL     OW21052   3.630   6.877   0.005
 6718SOL    HW121053   3.713   6.888   0.059
 6718SOL    HW221054   3.603   6.781   0.005
 6719SOL     OW21055   0.403   6.200   5.475
 6719SOL    HW121056   0.366   6.253   5.551
 6719SOL    HW221057   0.503   6.203   5.478
 6720SOL     OW21058   2.104   5.839   1.971
 6720SOL    HW121059   2.006   5.855   1.960
 6720SOL    HW221060   2.124   5.816   2.066
 6721SOL     OW21061   5.131   6.179   4.010
 6721SOL    HW121062   5.182   6.154   3.928
 6721SOL    HW221063   5.035   6.152   4.000
 6722SOL     OW21064   4.272   3.593   6.776
 6722SOL    HW121065   4.355   3.601   6.720
 6722SOL    HW221066   4.282   3.515   6.838
 6723SOL     OW21067   2.556   6.930   3.739
 6723SOL    HW121068   2.483   6.876   3.779
 6723SOL    HW221069   2.595   6.881   3.661
 6724SOL     OW21070   3.047   4.609   5.411
 6724SOL    HW121071   3.003   4.575   5.327
 6724SOL    HW221072   2.977   4.639   5.475
 6725SOL     OW21073   0.872   4.893   2.445
 6725SOL    HW121074   0.943   4.864   2.382
 6725SOL    HW221075   0.837   4.983   2.418
 6726SOL     OW21076   2.280   2.850   4.168
 6726SOL    HW121077   2.266   2.931   4.224
 6726SOL    HW221078   2.317   2.776   4.224
 6727SOL     OW21079   4.532   3.328   5.870
 6727SOL    HW121080   4.544   3.285   5.960
 6727SOL    HW221081   4.435   3.342   5.852
 6728SOL     OW21082   3.862   1.747   4.131
 6728SOL    HW121083   3.937   1.768   4.068
 6728SOL    HW221084   3.794   1.690   4.084
 6729SOL     OW21085   6.427   0.719   2.910
 6729SOL    HW121086   6.421   0.770   2.824
 6729SOL    HW221087   6.442   0.622   2.889
 6730SOL     OW21088   2.763   0.722   0.340
 6730SOL    HW121089   2.768   0.659   0.262
 6730SOL    HW221090   2.667   0.746   0.357
 6731SOL     OW21091   2.653   4.430   1.441
 6731SOL    HW121092   2.596   4.366   1.389
 6731SOL    HW221093   2.638   4.416   1.539
 6732SOL     OW21094   2.517   6.465   0.894
 6732SOL    HW121095   2.504   6.500   0.801
 6732SOL    HW221096   2.428   6.462   0.941
 6733SOL     OW21097   4.589   6.117   5.175
 6733SOL    HW121098   4.660   6.187   5.188
 6733SOL    HW221099   4.499   6.156   5.197
 6734SOL     OW21100   1.402   3.017   5.606
 6734SOL    HW121101   1.355   3.091   5.558
 6734SOL    HW221102   1.501   3.031   5.599
 6735SOL     OW21103   6.773   5.086   5.588
 6735SOL    HW121104   6.868   5.055   5.581
 6735SOL    HW221105   6.739   5.069   5.681
 6736SOL     OW21106   2.716   2.815   1.719
 6736SOL    HW121107   2.687   2.720   1.708
 6736SOL    HW221108   2.642   2.869   1.759
 6737SOL     OW21109   2.586   1.571   2.560
 6737SOL    HW121110   2.652   1.644   2.578
 6737SOL    HW221111   2.629   1.483   2.581
 6738SOL     OW21112   2.861   1.114   2.740
 6738SOL    HW121113   2.827   1.114   2.834
 6738SOL    HW221114   2.878   1.021   2.710
 6739SOL     OW21115   3.831   6.518   4.870
 6739SOL    HW121116   3.751   6.568   4.904
 6739SOL    HW221117   3.812   6.484   4.778
 6740SOL     OW21118   1.643   1.343   4.211
 6740SOL    HW121119   1.616   1.287   4.290
 6740SOL    HW221120   1.729   1.309   4.174
 6741SOL     OW21121   6.768   0.693   6.172
 6741SOL    HW121122   6.810   0.727   6.257
 6741SOL    HW221123   6.749   0.770   6.111
 6742SOL     OW21124   6.362   5.995   5.494
 6742SOL    HW121125   6.357   6.094   5.509
 6742SOL    HW221126   6.457   5.968   5.482
 6743SOL     OW21127   4.140   3.329   1.566
 6743SOL    HW121128   4.141   3.230   1.558
 6743SOL    HW221129   4.071   3.356   1.634
 6744SOL     OW21130   4.427   4.859   5.886
 6744SOL    HW121131   4.485   4.777   5.885
 6744SOL    HW221132   4.425   4.900   5.795
 6745SOL     OW21133   1.235   4.800   3.366
 6745SOL    HW121134   1.323   4.836   3.397
 6745SOL    HW221135   1.175   4.785   3.445
 6746SOL     OW21136   0.075   2.261   1.207
 6746SOL    HW121137   0.161   2.237   1.162
 6746SOL    HW221138   0.044   2.351   1.176
 6747SOL     OW21139   4.995   5.742   4.958
 6747SOL    HW121140   4.920   5.764   5.020
 6747SOL    HW221141   4.959   5.731   4.865
 6748SOL     OW21142   0.897   0.515   2.615
 6748SOL    HW121143   0.981   0.522   2.669
 6748SOL    HW221144   0.902   0.578   2.538
 6749SOL     OW21145   4.663   0.221   0.085
 6749SOL    HW121146   4.629   0.129   0.105
 6749SOL    HW221147   4.762   0.223   0.096
 6750SOL     OW21148   2.600   2.453   4.935
 6750SOL    HW121149   2.524   2.446   5.000
 6750SOL    HW221150   2.684   2.474   4.985
 6751SOL     OW21151   2.476   2.503   4.605
 6751SOL    HW121152   2.395   2.503   4.664
 6751SOL    HW221153   2.551   2.550   4.651
 6752SOL     OW21154   5.388   3.224   0.460
 6752SOL    HW121155   5.408   3.175   0.544
 6752SOL    HW221156   5.450   3.193   0.387
 6753SOL     OW21157   4.550   2.361   6.732
 6753SOL    HW121158   4.619   2.296   6.699
 6753SOL    HW221159   4.468   2.311   6.759
 6754SOL     OW21160   5.955   1.411   6.307
 6754SOL    HW121161   6.024   1.399   6.236
 6754SOL    HW221162   5.978   1.489   6.365
 6755SOL     OW21163   4.903   2.146   3.675
 6755SOL    HW121164   4.859   2.152   3.764
 6755SOL    HW221165   5.001   2.127   3.687
 6756SOL     OW21166   4.872   5.233   3.965
 6756SOL    HW121167   4.895   5.231   4.062
 6756SOL    HW221168   4.777   5.202   3.952
 6757SOL     OW21169   6.282   6.499   1.917
 6757SOL    HW121170   6.272   6.419   1.859
 6757SOL    HW221171   6.203   6.559   1.905
 6758SOL     OW21172   5.291   2.792   1.847
 6758SOL    HW121173   5.264   2.795   1.751
 6758SOL    HW221174   5.388   2.815   1.856
 6759SOL     OW21175   0.742   5.076   2.800
 6759SOL    HW121176   0.824   5.038   2.842
 6759SOL    HW221177   0.689   5.124   2.869
 6760SOL     OW21178   6.654   3.752   3.859
 6760SOL    HW121179   6.592   3.694   3.913
 6760SOL    HW221180   6.693   3.698   3.784
 6761SOL     OW21181   4.820   2.599   5.435
 6761SOL    HW121182   4.732   2.584   5.479
 6761SOL    HW221183   4.890   2.541   5.478
 6762SOL     OW21184   6.275   4.701   3.183
 6762SOL    HW121185   6.256   4.673   3.277
 6762SOL    HW221186   6.358   4.656   3.151
 6763SOL     OW21187   6.520   6.790   5.684
 6763SOL    HW121188   6.481   6.793   5.592
 6763SOL    HW221189   6.516   6.697   5.719
 6764SOL     OW21190   2.989   3.998   6.658
 6764SOL    HW121191   2.981   4.030   6.563
 6764SOL    HW221192   2.897   3.992   6.698
 6765SOL     OW21193   6.206   4.147   2.045
 6765SOL    HW121194   6.265   4.068   2.057
 6765SOL    HW221195   6.152   4.161   2.128
 6766SOL     OW21196   2.149   0.307   5.876
 6766SOL    HW121197   2.089   0.327   5.799
 6766SOL    HW221198   2.215   0.381   5.887
 6767SOL     OW21199   6.871   2.821   6.622
 6767SOL    HW121200   6.840   2.845   6.529
 6767SOL    HW221201   6.859   2.901   6.682
 6768SOL     OW21202   6.487   0.257   4.013
 6768SOL    HW121203   6.491   0.350   3.977
 6768SOL    HW221204   6.578   0.228   4.042
 6769SOL     OW21205   2.042   3.119   5.504
 6769SOL    HW121206   1.966   3.083   5.558
 6769SOL    HW221207   2.063   3.057   5.429
 6770SOL     OW21208   0.123   1.678   3.454
 6770SOL    HW121209   0.119   1.618   3.375
 6770SOL    HW221210   0.218   1.700   3.475
 6771SOL     OW21211   3.892   2.114   3.368
 6771SOL    HW121212   3.990   2.113   3.384
 6771SOL    HW221213   3.873   2.163   3.283
 6772SOL     OW21214   6.964   1.673   2.081
 6772SOL    HW121215   6.917   1.586   2.090
 6772SOL    HW221216   6.993   1.705   2.171
 6773SOL     OW21217   0.908   6.427   1.433
 6773SOL    HW121218   0.877   6.392   1.521
 6773SOL    HW221219   0.971   6.504   1.447
 6774SOL     OW21220   2.050   2.514   5.517
 6774SOL    HW121221   2.073   2.561   5.603
 6774SOL    HW221222   2.055   2.579   5.441
 6775SOL     OW21223   0.447   2.308   4.880
 6775SOL    HW121224   0.409   2.300   4.788
 6775SOL    HW221225   0.521   2.242   4.892
 6776SOL     OW21226   3.224   3.995   2.896
 6776SOL    HW121227   3.290   3.949   2.837
 6776SOL    HW221228   3.141   4.016   2.844
 6777SOL     OW21229   5.918   5.154   6.835
 6777SOL    HW121230   5.844   5.089   6.820
 6777SOL    HW221231   5.901   5.204   6.920
 6778SOL     OW21232   6.573   4.763   2.873
 6778SOL    HW121233   6.570   4.798   2.967
 6778SOL    HW221234   6.657   4.794   2.828
 6779SOL     OW21235   5.211   3.542   5.584
 6779SOL    HW121236   5.146   3.609   5.620
 6779SOL    HW221237   5.223   3.469   5.650
 6780SOL     OW21238   3.135   2.204   3.177
 6780SOL    HW121239   3.045   2.216   3.134
 6780SOL    HW221240   3.143   2.266   3.255
 6781SOL     OW21241   6.859   1.915   3.756
 6781SOL    HW121242   6.919   1.866   3.819
 6781SOL    HW221243   6.901   1.917   3.665
 6782SOL     OW21244   6.932   1.245   2.889
 6782SOL    HW121245   7.013   1.279   2.937
 6782SOL    HW221246   6.961   1.186   2.813
 6783SOL     OW21247   1.681   5.213   5.296
 6783SOL    HW121248   1.746   5.180   5.365
 6783SOL    HW221249   1.668   5.142   5.227
 6784SOL     OW21250   2.207   3.563   1.722
 6784SOL    HW121251   2.146   3.498   1.675
 6784SOL    HW221252   2.268   3.513   1.783
 6785SOL     OW21253   5.150   6.004   4.929
 6785SOL    HW121254   5.154   6.022   4.831
 6785SOL    HW221255   5.104   5.917   4.945
 6786SOL     OW21256   6.250   1.892   6.427
 6786SOL    HW121257   6.290   1.816   6.479
 6786SOL    HW221258   6.258   1.976   6.480
 6787SOL     OW21259   4.068   2.243   6.123
 6787SOL    HW121260   4.070   2.307   6.046
 6787SOL    HW221261   4.155   2.196   6.129
 6788SOL     OW21262   6.649   3.903   3.070
 6788SOL    HW121263   6.579   3.831   3.076
 6788SOL    HW221264   6.613   3.980   3.017
 6789SOL     OW21265   6.145   3.876   3.567
 6789SOL    HW121266   6.171   3.968   3.596
 6789SOL    HW221267   6.228   3.822   3.552
 6790SOL     OW21268   0.409   5.048   6.069
 6790SOL    HW121269   0.503   5.035   6.100
 6790SOL    HW221270   0.347   4.992   6.124
 6791SOL     OW21271   3.581   0.668   3.344
 6791SOL    HW121272   3.510   0.637   3.280
 6791SOL    HW221273   3.606   0.593   3.404
 6792SOL     OW21274   4.070   0.059   4.916
 6792SOL    HW121275   4.051   0.110   5.000
 6792SOL    HW221276   3.997   7.014   4.900
 6793SOL     OW21277   1.439   3.971   0.169
 6793SOL    HW121278   1.512   3.951   0.234
 6793SOL    HW221279   1.440   3.902   0.096
 6794SOL     OW21280   4.753   1.701   5.722
 6794SOL    HW121281   4.719   1.795   5.715
 6794SOL    HW221282   4.679   1.641   5.753
 6795SOL     OW21283   1.176   1.054   0.879
 6795SOL    HW121284   1.217   1.140   0.909
 6795SOL    HW221285   1.095   1.073   0.824
 6796SOL     OW21286   5.908   1.016   2.586
 6796SOL    HW121287   5.961   0.965   2.654
 6796SOL    HW221288   5.943   1.109   2.578
 6797SOL     OW21289   1.054   2.466   1.499
 6797SOL    HW121290   1.006   2.385   1.465
 6797SOL    HW221291   0.995   2.515   1.564
 6798SOL     OW21292   5.906   0.083   1.499
 6798SOL    HW121293   5.815   0.068   1.537
 6798SOL    HW221294   5.909   0.050   1.405
 6799SOL     OW21295   6.332   1.044   3.502
 6799SOL    HW121296   6.406   0.994   3.456
 6799SOL    HW221297   6.368   1.093   3.581
 6800SOL     OW21298   6.642   2.123   1.388
 6800SOL    HW121299   6.730   2.171   1.396
 6800SOL    HW221300   6.568   2.189   1.394
 6801SOL     OW21301   1.006   5.807   6.036
 6801SOL    HW121302   1.080   5.875   6.034
 6801SOL    HW221303   1.018   5.744   5.958
 6802SOL     OW21304   3.347   4.850   1.808
 6802SOL    HW121305   3.264   4.824   1.857
 6802SOL    HW221306   3.414   4.776   1.812
 6803SOL     OW21307   5.616   4.983   5.799
 6803SOL    HW121308   5.584   5.052   5.734
 6803SOL    HW221309   5.539   4.927   5.829
 6804SOL     OW21310   3.425   5.128   2.550
 6804SOL    HW121311   3.394   5.049   2.603
 6804SOL    HW221312   3.496   5.100   2.486
 6805SOL     OW21313   0.124   4.385   4.897
 6805SOL    HW121314   0.045   4.326   4.882
 6805SOL    HW221315   0.187   4.376   4.820
 6806SOL     OW21316   0.023   1.852   2.291
 6806SOL    HW121317   0.072   1.939   2.283
 6806SOL    HW221318   0.037   1.814   2.383
 6807SOL     OW21319   3.116   4.074   1.809
 6807SOL    HW121320   3.087   4.003   1.873
 6807SOL    HW221321   3.216   4.084   1.813
 6808SOL     OW21322   3.470   1.260   4.061
 6808SOL    HW121323   3.501   1.337   4.117
 6808SOL    HW221324   3.375   1.277   4.032
 6809SOL     OW21325   5.522   3.522   0.602
 6809SOL    HW121326   5.579   3.537   0.683
 6809SOL    HW221327   5.544   3.433   0.562
 6810SOL     OW21328   2.666   0.549   4.501
 6810SOL    HW121329   2.707   0.522   4.413
 6810SOL    HW221330   2.576   0.589   4.485
 6811SOL     OW21331   6.388   1.377   0.922
 6811SOL    HW121332   6.429   1.457   0.965
 6811SOL    HW221333   6.438   1.355   0.838
 6812SOL     OW21334   3.656   4.240   5.398
 6812SOL    HW121335   3.694   4.306   5.333
 6812SOL    HW221336   3.730   4.198   5.450
 6813SOL     OW21337   6.128   3.938   1.665
 6813SOL    HW121338   6.069   3.913   1.742
 6813SOL    HW221339   6.081   3.919   1.579
 6814SOL     OW21340   5.191   1.164   6.557
 6814SOL    HW121341   5.247   1.234   6.512
 6814SOL    HW221342   5.249   1.108   6.615
 6815SOL     OW21343   1.507   4.843   5.912
 6815SOL    HW121344   1.470   4.770   5.854
 6815SOL    HW221345   1.432   4.894   5.953
 6816SOL     OW21346   0.858   0.926   2.935
 6816SOL    HW121347   0.900   0.923   2.844
 6816SOL    HW221348   0.900   1.000   2.988
 6817SOL     OW21349   4.117   2.211   2.112
 6817SOL    HW121350   4.039   2.176   2.165
 6817SOL    HW221351   4.092   2.220   2.016
 6818SOL     OW21352   1.760   0.019   5.324
 6818SOL    HW121353   1.856   7.018   5.309
 6818SOL    HW221354   1.724   0.066   5.243
 6819SOL     OW21355   4.807   4.510   1.744
 6819SOL    HW121356   4.739   4.488   1.814
 6819SOL    HW221357   4.855   4.426   1.718
 6820SOL     OW21358   3.051   5.708   2.141
 6820SOL    HW121359   3.102   5.768   2.080
 6820SOL    HW221360   3.107   5.686   2.221
 6821SOL     OW21361   3.996   2.733   5.288
 6821SOL    HW121362   4.063   2.668   5.252
 6821SOL    HW221363   3.909   2.723   5.239
 6822SOL     OW21364   6.610   2.746   6.259
 6822SOL    HW121365   6.673   2.823   6.256
 6822SOL    HW221366   6.599   2.715   6.354
 6823SOL     OW21367   5.831   2.589   5.954
 6823SOL    HW121368   5.761   2.625   6.015
 6823SOL    HW221369   5.834   2.489   5.960
 6824SOL     OW21370   1.113   0.200   5.958
 6824SOL    HW121371   1.204   0.195   6.000
 6824SOL    HW221372   1.045   0.160   6.020
 6825SOL     OW21373   5.592   4.557   0.725
 6825SOL    HW121374   5.581   4.512   0.814
 6825SOL    HW221375   5.688   4.556   0.699
 6826SOL     OW21376   6.616   4.550   4.048
 6826SOL    HW121377   6.603   4.475   4.113
 6826SOL    HW221378   6.530   4.565   3.998
 6827SOL     OW21379   4.168   5.810   4.742
 6827SOL    HW121380   4.092   5.751   4.715
 6827SOL    HW221381   4.193   5.790   4.837
 6828SOL     OW21382   2.818   2.305   2.831
 6828SOL    HW121383   2.876   2.290   2.750
 6828SOL    HW221384   2.869   2.280   2.913
 6829SOL     OW21385   3.687   6.764   3.815
 6829SOL    HW121386   3.707   6.852   3.857
 6829SOL    HW221387   3.664   6.778   3.718
 6830SOL     OW21388   4.792   6.529   2.696
 6830SOL    HW121389   4.703   6.504   2.734
 6830SOL    HW221390   4.784   6.612   2.641
 6831SOL     OW21391   1.591   1.644   6.075
 6831SOL    HW121392   1.609   1.638   6.174
 6831SOL    HW221393   1.593   1.740   6.047
 6832SOL     OW21394   3.257   2.285   0.294
 6832SOL    HW121395   3.166   2.273   0.255
 6832SOL    HW221396   3.259   2.370   0.347
 6833SOL     OW21397   3.460   5.196   6.226
 6833SOL    HW121398   3.409   5.241   6.300
 6833SOL    HW221399   3.550   5.238   6.218
 6834SOL     OW21400   5.560   6.451   0.922
 6834SOL    HW121401   5.552   6.536   0.869
 6834SOL    HW221402   5.557   6.373   0.860
 6835SOL     OW21403   2.471   2.060   5.145
 6835SOL    HW121404   2.486   2.006   5.228
 6835SOL    HW221405   2.391   2.118   5.157
 6836SOL     OW21406   2.141   4.185   5.849
 6836SOL    HW121407   2.214   4.134   5.894
 6836SOL    HW221408   2.179   4.236   5.772
 6837SOL     OW21409   0.513   0.894   1.383
 6837SOL    HW121410   0.476   0.809   1.419
 6837SOL    HW221411   0.613   0.890   1.385
 6838SOL     OW21412   2.887   3.832   4.987
 6838SOL    HW121413   2.819   3.890   4.941
 6838SOL    HW221414   2.909   3.754   4.929
 6839SOL     OW21415   5.790   3.303   4.584
 6839SOL    HW121416   5.816   3.308   4.488
 6839SOL    HW221417   5.699   3.263   4.593
 6840SOL     OW21418   2.712   6.838   4.938
 6840SOL    HW121419   2.772   6.858   4.860
 6840SOL    HW221420   2.745   6.757   4.985
 6841SOL     OW21421   4.279   6.093   1.045
 6841SOL    HW121422   4.221   6.118   1.122
 6841SOL    HW221423   4.240   6.014   0.998
 6842SOL     OW21424   0.202   3.670   5.793
 6842SOL    HW121425   0.246   3.581   5.803
 6842SOL    HW221426   0.104   3.660   5.807
 6843SOL     OW21427   3.883   2.104   2.214
 6843SOL    HW121428   3.810   2.157   2.170
 6843SOL    HW221429   3.857   2.007   2.217
 6844SOL     OW21430   4.125   4.791   3.932
 6844SOL    HW121431   4.165   4.781   3.841
 6844SOL    HW221432   4.128   4.704   3.980
 6845SOL     OW21433   4.687   4.837   1.967
 6845SOL    HW121434   4.596   4.808   1.998
 6845SOL    HW221435   4.688   4.841   1.867
 6846SOL     OW21436   3.152   3.116   2.768
 6846SOL    HW121437   3.150   3.117   2.868
 6846SOL    HW221438   3.213   3.043   2.737
 6847SOL     OW21439   6.078   3.604   1.445
 6847SOL    HW121440   5.980   3.617   1.427
 6847SOL    HW221441   6.092   3.596   1.544
 6848SOL     OW21442   0.607   6.639   3.471
 6848SOL    HW121443   0.513   6.619   3.496
 6848SOL    HW221444   0.610   6.676   3.378
 6849SOL     OW21445   3.560   6.605   4.002
 6849SOL    HW121446   3.617   6.660   3.941
 6849SOL    HW221447   3.478   6.576   3.954
 6850SOL     OW21448   5.289   2.807   2.229
 6850SOL    HW121449   5.190   2.793   2.231
 6850SOL    HW221450   5.328   2.750   2.156
 6851SOL     OW21451   1.182   5.598   5.260
 6851SOL    HW121452   1.203   5.501   5.272
 6851SOL    HW221453   1.112   5.625   5.325
 6852SOL     OW21454   0.034   4.453   2.223
 6852SOL    HW121455   0.119   4.411   2.254
 6852SOL    HW221456   6.996   4.470   2.302
 6853SOL     OW21457   1.021   3.722   5.613
 6853SOL    HW121458   1.026   3.635   5.662
 6853SOL    HW221459   0.945   3.719   5.548
 6854SOL     OW21460   6.394   2.158   6.305
 6854SOL    HW121461   6.453   2.081   6.278
 6854SOL    HW221462   6.374   2.151   6.402
 6855SOL     OW21463   2.645   6.325   1.433
 6855SOL    HW121464   2.556   6.357   1.464
 6855SOL    HW221465   2.646   6.225   1.432
 6856SOL     OW21466   6.384   3.357   5.077
 6856SOL    HW121467   6.284   3.351   5.081
 6856SOL    HW221468   6.424   3.298   5.147
 6857SOL     OW21469   4.027   1.608   5.609
 6857SOL    HW121470   4.082   1.691   5.618
 6857SOL    HW221471   3.942   1.630   5.560
 6858SOL     OW21472   4.032   3.228   4.705
 6858SOL    HW121473   4.072   3.274   4.783
 6858SOL    HW221474   4.005   3.135   4.731
 6859SOL     OW21475   3.951   0.395   0.691
 6859SOL    HW121476   3.882   0.423   0.758
 6859SOL    HW221477   3.907   0.349   0.614
 6860SOL     OW21478   5.347   3.326   6.448
 6860SOL    HW121479   5.373   3.259   6.517
 6860SOL    HW221480   5.394   3.413   6.466
 6861SOL     OW21481   6.526   5.097   0.122
 6861SOL    HW121482   6.553   5.146   0.039
 6861SOL    HW221483   6.608   5.061   0.167
 6862SOL     OW21484   3.399   5.694   4.100
 6862SOL    HW121485   3.441   5.694   4.191
 6862SOL    HW221486   3.449   5.632   4.040
 6863SOL     OW21487   5.556   2.691   4.085
 6863SOL    HW121488   5.559   2.684   4.184
 6863SOL    HW221489   5.464   2.718   4.056
 6864SOL     OW21490   3.620   5.975   5.241
 6864SOL    HW121491   3.680   6.050   5.215
 6864SOL    HW221492   3.595   5.923   5.159
 6865SOL     OW21493   6.450   4.712   3.588
 6865SOL    HW121494   6.466   4.617   3.560
 6865SOL    HW221495   6.401   4.760   3.516
 6866SOL     OW21496   7.012   2.873   2.459
 6866SOL    HW121497   0.073   2.880   2.516
 6866SOL    HW221498   0.012   2.820   2.377
 6867SOL     OW21499   2.423   4.374   2.602
 6867SOL    HW121500   2.499   4.435   2.626
 6867SOL    HW221501   2.428   4.352   2.505
 6868SOL     OW21502   2.126   5.528   4.900
 6868SOL    HW121503   2.091   5.621   4.891
 6868SOL    HW221504   2.091   5.472   4.825
 6869SOL     OW21505   5.833   3.408   5.220
 6869SOL    HW121506   5.880   3.370   5.299
 6869SOL    HW221507   5.890   3.479   5.178
 6870SOL     OW21508   5.610   3.716   2.427
 6870SOL    HW121509   5.524   3.690   2.471
 6870SOL    HW221510   5.627   3.654   2.350
 6871SOL     OW21511   5.319   5.643   1.216
 6871SOL    HW121512   5.318   5.543   1.212
 6871SOL    HW221513   5.279   5.674   1.302
 6872SOL     OW21514   2.099   3.204   6.550
 6872SOL    HW121515   2.124   3.193   6.454
 6872SOL    HW221516   2.134   3.291   6.584
 6873SOL     OW21517   5.642   3.493   5.883
 6873SOL    HW121518   5.679   3.512   5.792
 6873SOL    HW221519   5.559   3.438   5.874
 6874SOL     OW21520   0.633   2.849   5.086
 6874SOL    HW121521   0.654   2.927   5.026
 6874SOL    HW221522   0.549   2.804   5.054
 6875SOL     OW21523   2.445   1.752   3.641
 6875SOL    HW121524   2.533   1.798   3.649
 6875SOL    HW221525   2.388   1.775   3.719
 6876SOL     OW21526   4.099   6.190   0.174
 6876SOL    HW121527   4.128   6.131   0.099
 6876SOL    HW221528   4.115   6.285   0.149
 6877SOL     OW21529   2.254   4.251   6.669
 6877SOL    HW121530   2.326   4.213   6.611
 6877SOL    HW221531   2.295   4.306   6.742
 6878SOL     OW21532   1.440   1.570   5.494
 6878SOL    HW121533   1.381   1.625   5.552
 6878SOL    HW221534   1.535   1.599   5.507
 6879SOL     OW21535   1.550   2.486   6.645
 6879SOL    HW121536   1.450   2.485   6.634
 6879SOL    HW221537   1.584   2.579   6.638
 6880SOL     OW21538   2.208   4.168   5.157
 6880SOL    HW121539   2.280   4.101   5.141
 6880SOL    HW221540   2.136   4.126   5.213
 6881SOL     OW21541   0.193   3.600   1.920
 6881SOL    HW121542   0.242   3.658   1.855
 6881SOL    HW221543   0.183   3.649   2.007
 6882SOL     OW21544   2.092   0.128   5.231
 6882SOL    HW121545   2.176   0.166   5.271
 6882SOL    HW221546   2.110   0.034   5.201
 6883SOL     OW21547   3.933   6.926   1.542
 6883SOL    HW121548   3.969   6.949   1.452
 6883SOL    HW221549   3.999   6.954   1.612
 6884SOL     OW21550   2.132   5.042   3.913
 6884SOL    HW121551   2.197   4.974   3.946
 6884SOL    HW221552   2.039   5.016   3.942
 6885SOL     OW21553   2.978   5.512   4.371
 6885SOL    HW121554   2.951   5.557   4.456
 6885SOL    HW221555   3.050   5.565   4.327
 6886SOL     OW21556   5.581   1.326   2.829
 6886SOL    HW121557   5.576   1.276   2.743
 6886SOL    HW221558   5.640   1.276   2.893
 6887SOL     OW21559   6.008   0.774   4.478
 6887SOL    HW121560   5.998   0.806   4.384
 6887SOL    HW221561   5.936   0.708   4.498
 6888SOL     OW21562   5.372   6.650   4.925
 6888SOL    HW121563   5.413   6.614   5.009
 6888SOL    HW221564   5.385   6.584   4.851
 6889SOL     OW21565   1.517   4.221   5.949
 6889SOL    HW121566   1.573   4.304   5.956
 6889SOL    HW221567   1.506   4.196   5.853
 6890SOL     OW21568   2.231   0.080   1.551
 6890SOL    HW121569   2.190   7.013   1.572
 6890SOL    HW221570   2.221   0.141   1.629
 6891SOL     OW21571   1.281   4.516   3.815
 6891SOL    HW121572   1.294   4.425   3.776
 6891SOL    HW221573   1.225   4.510   3.898
 6892SOL     OW21574   3.251   0.727   3.910
 6892SOL    HW121575   3.323   0.709   3.976
 6892SOL    HW221576   3.270   0.813   3.862
 6893SOL     OW21577   4.486   5.646   3.083
 6893SOL    HW121578   4.526   5.556   3.069
 6893SOL    HW221579   4.525   5.688   3.165
 6894SOL     OW21580   6.757   4.923   6.639
 6894SOL    HW121581   6.842   4.872   6.624
 6894SOL    HW221582   6.691   4.864   6.687
 6895SOL     OW21583   3.293   5.302   6.650
 6895SOL    HW121584   3.303   5.218   6.597
 6895SOL    HW221585   3.362   5.305   6.721
 6896SOL     OW21586   3.828   0.398   3.267
 6896SOL    HW121587   3.904   0.335   3.282
 6896SOL    HW221588   3.778   0.371   3.185
 6897SOL     OW21589   3.285   3.561   0.610
 6897SOL    HW121590   3.233   3.603   0.536
 6897SOL    HW221591   3.251   3.469   0.628
 6898SOL     OW21592   4.416   2.426   1.892
 6898SOL    HW121593   4.323   2.431   1.855
 6898SOL    HW221594   4.460   2.342   1.859
 6899SOL     OW21595   4.750   5.988   6.851
 6899SOL    HW121596   4.716   5.902   6.888
 6899SOL    HW221597   4.751   5.982   6.751
 6900SOL     OW21598   4.992   6.977   6.389
 6900SOL    HW121599   5.025   6.967   6.295
 6900SOL    HW221600   4.917   0.021   6.391
 6901SOL     OW21601   1.630   0.209   6.593
 6901SOL    HW121602   1.677   0.270   6.657
 6901SOL    HW221603   1.682   0.123   6.584
 6902SOL     OW21604   0.104   6.093   1.009
 6902SOL    HW121605   0.081   6.164   0.943
 6902SOL    HW221606   0.196   6.058   0.990
 6903SOL     OW21607   4.570   4.572   0.724
 6903SOL    HW121608   4.616   4.655   0.692
 6903SOL    HW221609   4.636   4.498   0.732
 6904SOL     OW21610   6.492   1.427   3.343
 6904SOL    HW121611   6.578   1.450   3.297
 6904SOL    HW221612   6.445   1.511   3.369
 6905SOL     OW21613   6.133   6.247   1.123
 6905SOL    HW121614   6.066   6.173   1.129
 6905SOL    HW221615   6.205   6.232   1.191
 6906SOL     OW21616   4.316   0.778   3.289
 6906SOL    HW121617   4.340   0.684   3.312
 6906SOL    HW221618   4.219   0.793   3.305
 6907SOL     OW21619   3.790   1.486   1.704
 6907SOL    HW121620   3.832   1.405   1.665
 6907SOL    HW221621   3.747   1.540   1.632
 6908SOL     OW21622   1.889   6.727   5.625
 6908SOL    HW121623   1.912   6.804   5.685
 6908SOL    HW221624   1.971   6.698   5.576
 6909SOL     OW21625   4.446   3.875   6.828
 6909SOL    HW121626   4.404   3.947   6.773
 6909SOL    HW221627   4.397   3.867   6.915
 6910SOL     OW21628   6.568   1.466   1.775
 6910SOL    HW121629   6.639   1.398   1.791
 6910SOL    HW221630   6.479   1.429   1.802
 6911SOL     OW21631   3.593   1.433   4.664
 6911SOL    HW121632   3.687   1.419   4.696
 6911SOL    HW221633   3.560   1.522   4.697
 6912SOL     OW21634   5.460   4.929   0.432
 6912SOL    HW121635   5.368   4.890   0.430
 6912SOL    HW221636   5.474   4.985   0.351
 6913SOL     OW21637   5.513   5.214   4.639
 6913SOL    HW121638   5.470   5.128   4.667
 6913SOL    HW221639   5.444   5.286   4.635
 6914SOL     OW21640   6.010   5.475   1.107
 6914SOL    HW121641   6.083   5.532   1.069
 6914SOL    HW221642   6.048   5.418   1.181
 6915SOL     OW21643   0.464   5.166   2.915
 6915SOL    HW121644   0.439   5.260   2.894
 6915SOL    HW221645   0.541   5.164   2.978
 6916SOL     OW21646   6.136   2.485   6.981
 6916SOL    HW121647   6.117   2.542   0.039
 6916SOL    HW221648   6.157   2.543   6.902
 6917SOL     OW21649   4.936   5.958   5.859
 6917SOL    HW121650   4.843   5.931   5.887
 6917SOL    HW221651   4.986   5.879   5.825
 6918SOL     OW21652   0.041   3.296   3.610
 6918SOL    HW121653   6.988   3.270   3.549
 6918SOL    HW221654   0.015   3.275   3.704
 6919SOL     OW21655   2.244   5.891   3.092
 6919SOL    HW121656   2.220   5.935   3.006
 6919SOL    HW221657   2.298   5.954   3.148
 6920SOL     OW21658   4.570   6.173   4.343
 6920SOL    HW121659   4.519   6.233   4.282
 6920SOL    HW221660   4.624   6.228   4.406
 6921SOL     OW21661   0.430   1.241   3.666
 6921SOL    HW121662   0.443   1.142   3.666
 6921SOL    HW221663   0.351   1.265   3.723
 6922SOL     OW21664   2.542   6.526   0.358
 6922SOL    HW121665   2.571   6.507   0.265
 6922SOL    HW221666   2.450   6.490   0.373
 6923SOL     OW21667   4.816   0.710   4.057
 6923SOL    HW121668   4.783   0.734   4.148
 6923SOL    HW221669   4.764   0.760   3.988
 6924SOL     OW21670   0.228   5.370   1.658
 6924SOL    HW121671   0.289   5.323   1.722
 6924SOL    HW221672   0.269   5.457   1.629
 6925SOL     OW21673   4.520   5.979   3.264
 6925SOL    HW121674   4.435   5.930   3.286
 6925SOL    HW221675   4.502   6.049   3.196
 6926SOL     OW21676   3.282   3.165   4.519
 6926SOL    HW121677   3.320   3.076   4.492
 6926SOL    HW221678   3.188   3.172   4.484
 6927SOL     OW21679   4.362   3.972   5.952
 6927SOL    HW121680   4.393   3.877   5.960
 6927SOL    HW221681   4.282   3.976   5.892
 6928SOL     OW21682   5.157   0.932   6.281
 6928SOL    HW121683   5.113   0.886   6.204
 6928SOL    HW221684   5.143   1.031   6.273
 6929SOL     OW21685   4.278   5.616   0.571
 6929SOL    HW121686   4.221   5.565   0.508
 6929SOL    HW221687   4.371   5.579   0.570
 6930SOL     OW21688   0.529   0.174   3.861
 6930SOL    HW121689   0.525   0.251   3.797
 6930SOL    HW221690   0.599   0.109   3.830
 6931SOL     OW21691   2.127   1.238   1.958
 6931SOL    HW121692   2.208   1.296   1.964
 6931SOL    HW221693   2.152   1.148   1.922
 6932SOL     OW21694   2.994   1.629   0.796
 6932SOL    HW121695   3.087   1.606   0.825
 6932SOL    HW221696   2.976   1.589   0.707
 6933SOL     OW21697   4.523   5.650   5.684
 6933SOL    HW121698   4.472   5.615   5.763
 6933SOL    HW221699   4.485   5.612   5.600
 6934SOL     OW21700   5.073   2.845   6.892
 6934SOL    HW121701   5.003   2.856   6.821
 6934SOL    HW221702   5.101   2.935   6.926
 6935SOL     OW21703   4.437   5.627   3.519
 6935SOL    HW121704   4.505   5.587   3.581
 6935SOL    HW221705   4.451   5.591   3.427
 6936SOL     OW21706   0.834   3.755   1.374
 6936SOL    HW121707   0.815   3.821   1.302
 6936SOL    HW221708   0.887   3.799   1.447
 6937SOL     OW21709   4.439   0.007   5.730
 6937SOL    HW121710   4.520   6.972   5.715
 6937SOL    HW221711   4.391   0.021   5.643
 6938SOL     OW21712   5.462   2.731   5.250
 6938SOL    HW121713   5.404   2.651   5.263
 6938SOL    HW221714   5.434   2.803   5.313
 6939SOL     OW21715   6.858   4.233   2.670
 6939SOL    HW121716   6.913   4.276   2.742
 6939SOL    HW221717   6.847   4.136   2.689
 6940SOL     OW21718   5.383   0.657   5.624
 6940SOL    HW121719   5.331   0.584   5.669
 6940SOL    HW221720   5.441   0.618   5.553
 6941SOL     OW21721   4.063   3.724   3.759
 6941SOL    HW121722   4.060   3.632   3.798
 6941SOL    HW221723   4.073   3.717   3.659
 6942SOL     OW21724   6.768   2.479   0.238
 6942SOL    HW121725   6.757   2.473   0.139
 6942SOL    HW221726   6.745   2.572   0.268
 6943SOL     OW21727   5.279   5.589   6.468
 6943SOL    HW121728   5.264   5.533   6.549
 6943SOL    HW221729   5.359   5.647   6.482
 6944SOL     OW21730   0.929   5.310   6.209
 6944SOL    HW121731   0.996   5.384   6.201
 6944SOL    HW221732   0.976   5.222   6.210
 6945SOL     OW21733   6.762   2.750   5.836
 6945SOL    HW121734   6.680   2.761   5.892
 6945SOL    HW221735   6.816   2.835   5.838
 6946SOL     OW21736   5.197   3.656   2.229
 6946SOL    HW121737   5.279   3.670   2.173
 6946SOL    HW221738   5.156   3.744   2.250
 6947SOL     OW21739   3.293   6.849   3.231
 6947SOL    HW121740   3.330   6.781   3.294
 6947SOL    HW221741   3.253   6.803   3.152
 6948SOL     OW21742   4.966   0.832   6.084
 6948SOL    HW121743   5.033   0.792   6.020
 6948SOL    HW221744   4.878   0.787   6.071
 6949SOL     OW21745   4.924   6.906   2.670
 6949SOL    HW121746   4.979   6.977   2.626
 6949SOL    HW221747   4.881   6.943   2.752
 6950SOL     OW21748   1.905   1.165   3.128
 6950SOL    HW121749   1.913   1.107   3.209
 6950SOL    HW221750   1.990   1.215   3.114
 6951SOL     OW21751   6.488   5.732   5.993
 6951SOL    HW121752   6.541   5.727   6.077
 6951SOL    HW221753   6.547   5.760   5.918
 6952SOL     OW21754   0.480   5.242   5.142
 6952SOL    HW121755   0.538   5.276   5.068
 6952SOL    HW221756   0.497   5.144   5.155
 6953SOL     OW21757   4.895   0.986   5.632
 6953SOL    HW121758   4.990   0.956   5.626
 6953SOL    HW221759   4.867   1.025   5.545
 6954SOL     OW21760   6.636   3.230   3.598
 6954SOL    HW121761   6.614   3.307   3.659
 6954SOL    HW221762   6.554   3.175   3.583
 6955SOL     OW21763   6.902   5.785   1.975
 6955SOL    HW121764   6.866   5.814   2.063
 6955SOL    HW221765   6.995   5.751   1.986
 6956SOL     OW21766   4.134   5.247   1.262
 6956SOL    HW121767   4.220   5.199   1.277
 6956SOL    HW221768   4.134   5.290   1.172
 6957SOL     OW21769   0.217   5.160   1.470
 6957SOL    HW121770   0.209   5.221   1.549
 6957SOL    HW221771   0.289   5.092   1.488
 6958SOL     OW21772   2.804   3.050   6.165
 6958SOL    HW121773   2.883   3.076   6.110
 6958SOL    HW221774   2.828   2.973   6.225
 6959SOL     OW21775   3.528   1.735   4.382
 6959SOL    HW121776   3.535   1.742   4.481
 6959SOL    HW221777   3.606   1.685   4.346
 6960SOL     OW21778   0.719   4.771   6.215
 6960SOL    HW121779   0.711   4.683   6.169
 6960SOL    HW221780   0.630   4.798   6.252
 6961SOL     OW21781   1.063   1.001   3.436
 6961SOL    HW121782   0.997   1.057   3.386
 6961SOL    HW221783   1.017   0.920   3.471
 6962SOL     OW21784   4.958   4.398   1.423
 6962SOL    HW121785   4.992   4.405   1.517
 6962SOL    HW221786   4.868   4.442   1.418
 6963SOL     OW21787   6.670   4.987   1.671
 6963SOL    HW121788   6.607   5.024   1.739
 6963SOL    HW221789   6.687   4.890   1.690
 6964SOL     OW21790   4.266   5.428   5.004
 6964SOL    HW121791   4.332   5.389   5.068
 6964SOL    HW221792   4.293   5.405   4.910
 6965SOL     OW21793   6.803   2.995   6.143
 6965SOL    HW121794   6.902   2.984   6.132
 6965SOL    HW221795   6.763   3.018   6.055
 6966SOL     OW21796   4.710   2.060   2.709
 6966SOL    HW121797   4.709   1.962   2.727
 6966SOL    HW221798   4.644   2.106   2.769
 6967SOL     OW21799   1.194   1.523   6.132
 6967SOL    HW121800   1.123   1.453   6.121
 6967SOL    HW221801   1.265   1.509   6.063
 6968SOL     OW21802   4.918   5.761   1.568
 6968SOL    HW121803   4.927   5.849   1.520
 6968SOL    HW221804   4.825   5.727   1.558
 6969SOL     OW21805   3.363   1.690   0.228
 6969SOL    HW121806   3.378   1.761   0.159
 6969SOL    HW221807   3.374   1.731   0.319
 6970SOL     OW21808   4.748   4.183   0.499
 6970SOL    HW121809   4.805   4.206   0.578
 6970SOL    HW221810   4.660   4.149   0.530
 6971SOL     OW21811   5.713   1.530   1.486
 6971SOL    HW121812   5.689   1.516   1.582
 6971SOL    HW221813   5.659   1.468   1.429
 6972SOL     OW21814   5.140   4.864   3.769
 6972SOL    HW121815   5.048   4.891   3.740
 6972SOL    HW221816   5.144   4.765   3.779
 6973SOL     OW21817   2.118   4.287   3.698
 6973SOL    HW121818   2.124   4.301   3.599
 6973SOL    HW221819   2.147   4.369   3.746
 6974SOL     OW21820   3.301   3.792   4.263
 6974SOL    HW121821   3.400   3.782   4.264
 6974SOL    HW221822   3.277   3.888   4.277
 6975SOL     OW21823   4.443   0.592   5.593
 6975SOL    HW121824   4.475   0.682   5.622
 6975SOL    HW221825   4.497   0.521   5.638
 6976SOL     OW21826   2.075   4.864   6.664
 6976SOL    HW121827   2.006   4.795   6.686
 6976SOL    HW221828   2.031   4.954   6.660
 6977SOL     OW21829   3.429   1.599   2.760
 6977SOL    HW121830   3.407   1.694   2.783
 6977SOL    HW221831   3.380   1.574   2.676
 6978SOL     OW21832   0.327   1.039   1.981
 6978SOL    HW121833   0.248   1.097   2.000
 6978SOL    HW221834   0.368   1.066   1.894
 6979SOL     OW21835   0.499   4.927   3.096
 6979SOL    HW121836   0.514   4.871   3.014
 6979SOL    HW221837   0.588   4.959   3.131
 6980SOL     OW21838   1.928   1.350   4.171
 6980SOL    HW121839   1.973   1.299   4.245
 6980SOL    HW221840   1.956   1.313   4.083
 6981SOL     OW21841   1.925   5.521   0.673
 6981SOL    HW121842   2.013   5.568   0.667
 6981SOL    HW221843   1.914   5.460   0.594
 6982SOL     OW21844   0.593   0.070   4.313
 6982SOL    HW121845   0.510   0.040   4.267
 6982SOL    HW221846   0.659   0.103   4.245
 6983SOL     OW21847   6.745   0.624   4.168
 6983SOL    HW121848   6.810   0.685   4.213
 6983SOL    HW221849   6.653   0.643   4.202
 6984SOL     OW21850   1.978   1.842   6.173
 6984SOL    HW121851   2.060   1.854   6.116
 6984SOL    HW221852   1.970   1.746   6.200
 6985SOL     OW21853   4.816   5.674   2.280
 6985SOL    HW121854   4.896   5.721   2.241
 6985SOL    HW221855   4.789   5.600   2.219
 6986SOL     OW21856   1.977   6.084   6.086
 6986SOL    HW121857   2.012   6.107   5.995
 6986SOL    HW221858   1.878   6.068   6.080
 6987SOL     OW21859   0.203   3.439   6.676
 6987SOL    HW121860   0.272   3.477   6.738
 6987SOL    HW221861   0.209   3.339   6.677
 6988SOL     OW21862   5.252   1.226   3.499
 6988SOL    HW121863   5.179   1.294   3.491
 6988SOL    HW221864   5.275   1.192   3.408
 6989SOL     OW21865   1.242   1.880   3.498
 6989SOL    HW121866   1.306   1.839   3.562
 6989SOL    HW221867   1.176   1.811   3.468
 6990SOL     OW21868   3.478   2.966   0.376
 6990SOL    HW121869   3.448   2.963   0.471
 6990SOL    HW221870   3.576   2.984   0.371
 6991SOL     OW21871   2.803   4.685   5.844
 6991SOL    HW121872   2.730   4.687   5.911
 6991SOL    HW221873   2.890   4.666   5.889
 6992SOL     OW21874   5.411   6.533   4.215
 6992SOL    HW121875   5.401   6.434   4.223
 6992SOL    HW221876   5.508   6.556   4.206
 6993SOL     OW21877   0.306   6.958   3.047
 6993SOL    HW121878   0.373   0.003   3.015
 6993SOL    HW221879   0.247   6.932   2.970
 6994SOL     OW21880   1.828   3.097   6.300
 6994SOL    HW121881   1.806   3.193   6.281
 6994SOL    HW221882   1.910   3.093   6.358
 6995SOL     OW21883   5.365   5.589   3.098
 6995SOL    HW121884   5.374   5.565   3.195
 6995SOL    HW221885   5.290   5.654   3.087
 6996SOL     OW21886   2.629   0.558   5.701
 6996SOL    HW121887   2.606   0.495   5.775
 6996SOL    HW221888   2.728   0.560   5.689
 6997SOL     OW21889   4.498   6.522   4.502
 6997SOL    HW121890   4.432   6.482   4.565
 6997SOL    HW221891   4.465   6.611   4.471
 6998SOL     OW21892   1.768   3.489   2.639
 6998SOL    HW121893   1.707   3.416   2.671
 6998SOL    HW221894   1.744   3.575   2.684
 6999SOL     OW21895   2.915   1.517   5.451
 6999SOL    HW121896   2.987   1.463   5.408
 6999SOL    HW221897   2.890   1.475   5.539
 7000SOL     OW21898   1.104   6.139   2.284
 7000SOL    HW121899   1.102   6.044   2.253
 7000SOL    HW221900   1.023   6.187   2.251
 7001SOL     OW21901   2.402   3.002   5.822
 7001SOL    HW121902   2.432   3.047   5.738
 7001SOL    HW221903   2.482   2.973   5.875
 7002SOL     OW21904   1.004   5.238   3.166
 7002SOL    HW121905   1.092   5.190   3.159
 7002SOL    HW221906   0.929   5.174   3.148
 7003SOL     OW21907   2.754   6.323   0.993
 7003SOL    HW121908   2.820   6.385   0.951
 7003SOL    HW221909   2.662   6.349   0.965
 7004SOL     OW21910   1.365   4.092   1.098
 7004SOL    HW121911   1.351   4.064   1.003
 7004SOL    HW221912   1.342   4.016   1.159
 7005SOL     OW21913   5.325   6.014   6.776
 7005SOL    HW121914   5.382   6.094   6.794
 7005SOL    HW221915   5.346   5.976   6.686
 7006SOL     OW21916   4.566   4.509   4.803
 7006SOL    HW121917   4.621   4.578   4.756
 7006SOL    HW221918   4.484   4.552   4.841
 7007SOL     OW21919   4.271   6.308   3.206
 7007SOL    HW121920   4.280   6.400   3.245
 7007SOL    HW221921   4.252   6.242   3.279
 7008SOL     OW21922   1.852   5.316   4.097
 7008SOL    HW121923   1.949   5.339   4.097
 7008SOL    HW221924   1.805   5.371   4.166
 7009SOL     OW21925   6.951   5.165   2.257
 7009SOL    HW121926   6.911   5.201   2.342
 7009SOL    HW221927   0.028   5.154   2.269
 7010SOL     OW21928   3.609   4.992   6.518
 7010SOL    HW121929   3.615   4.968   6.421
 7010SOL    HW221930   3.629   4.911   6.573
 7011SOL     OW21931   2.889   0.273   5.877
 7011SOL    HW121932   2.939   0.206   5.932
 7011SOL    HW221933   2.950   0.348   5.853
 7012SOL     OW21934   1.602   0.370   1.831
 7012SOL    HW121935   1.638   0.451   1.876
 7012SOL    HW221936   1.583   0.299   1.899
 7013SOL     OW21937   1.082   0.354   1.663
 7013SOL    HW121938   1.120   0.438   1.701
 7013SOL    HW221939   1.121   0.275   1.712
 7014SOL     OW21940   2.727   4.167   1.167
 7014SOL    HW121941   2.784   4.214   1.234
 7014SOL    HW221942   2.748   4.069   1.168
 7015SOL     OW21943   5.103   2.438   2.349
 7015SOL    HW121944   5.070   2.440   2.255
 7015SOL    HW221945   5.203   2.432   2.349
 7016SOL     OW21946   4.572   4.650   1.615
 7016SOL    HW121947   4.579   4.584   1.690
 7016SOL    HW221948   4.476   4.676   1.603
 7017SOL     OW21949   2.810   1.777   3.489
 7017SOL    HW121950   2.867   1.713   3.540
 7017SOL    HW221951   2.762   1.837   3.553
 7018SOL     OW21952   0.399   3.832   4.820
 7018SOL    HW121953   0.338   3.864   4.748
 7018SOL    HW221954   0.494   3.839   4.790
 7019SOL     OW21955   2.411   5.416   6.935
 7019SOL    HW121956   2.438   5.367   6.853
 7019SOL    HW221957   2.343   5.362   6.986
 7020SOL     OW21958   6.313   6.806   6.416
 7020SOL    HW121959   6.402   6.802   6.462
 7020SOL    HW221960   6.244   6.838   6.480
 7021SOL     OW21961   2.312   0.542   5.913
 7021SOL    HW121962   2.324   0.580   5.821
 7021SOL    HW221963   2.367   0.594   5.978
 7022SOL     OW21964   5.087   3.783   6.902
 7022SOL    HW121965   5.089   3.869   6.850
 7022SOL    HW221966   5.179   3.761   6.934
 7023SOL     OW21967   5.911   3.082   1.697
 7023SOL    HW121968   5.992   3.065   1.754
 7023SOL    HW221969   5.892   3.180   1.696
 7024SOL     OW21970   1.409   5.809   0.187
 7024SOL    HW121971   1.430   5.858   0.102
 7024SOL    HW221972   1.490   5.809   0.246
 7025SOL     OW21973   3.247   2.060   0.045
 7025SOL    HW121974   3.251   2.105   0.134
 7025SOL    HW221975   3.290   2.118   6.997
 7026SOL     OW21976   4.102   1.676   1.186
 7026SOL    HW121977   4.091   1.757   1.129
 7026SOL    HW221978   4.196   1.642   1.177
 7027SOL     OW21979   3.645   5.979   3.944
 7027SOL    HW121980   3.654   5.914   3.869
 7027SOL    HW221981   3.734   6.017   3.966
 7028SOL     OW21982   4.560   6.341   3.463
 7028SOL    HW121983   4.471   6.339   3.508
 7028SOL    HW221984   4.572   6.429   3.417
 7029SOL     OW21985   3.463   6.650   0.052
 7029SOL    HW121986   3.483   6.657   0.149
 7029SOL    HW221987   3.491   6.560   0.018
 7030SOL     OW21988   0.123   3.397   4.878
 7030SOL    HW121989   0.154   3.442   4.794
 7030SOL    HW221990   0.050   3.333   4.858
 7031SOL     OW21991   1.775   5.585   4.214
 7031SOL    HW121992   1.715   5.592   4.135
 7031SOL    HW221993   1.746   5.507   4.270
 7032SOL     OW21994   6.237   0.785   3.094
 7032SOL    HW121995   6.285   0.745   3.015
 7032SOL    HW221996   6.230   0.884   3.082
 7033SOL     OW21997   6.960   1.446   3.849
 7033SOL    HW121998   6.927   1.355   3.821
 7033SOL    HW221999   6.946   1.511   3.775
 7034SOL     OW22000   6.509   0.465   2.848
 7034SOL    HW122001   6.606   0.446   2.835
 7034SOL    HW222002   6.472   0.401   2.916
 7035SOL     OW22003   6.504   5.567   2.312
 7035SOL    HW122004   6.404   5.557   2.313
 7035SOL    HW222005   6.532   5.618   2.232
 7036SOL     OW22006   6.679   5.025   2.100
 7036SOL    HW122007   6.760   5.034   2.158
 7036SOL    HW222008   6.598   5.057   2.150
 7037SOL     OW22009   1.448   6.193   6.266
 7037SOL    HW122010   1.392   6.209   6.184
 7037SOL    HW222011   1.396   6.220   6.347
 7038SOL     OW22012   0.468   4.960   3.909
 7038SOL    HW122013   0.450   5.025   3.836
 7038SOL    HW222014   0.566   4.956   3.928
 7039SOL     OW22015   4.020   0.829   5.866
 7039SOL    HW122016   4.022   0.928   5.877
 7039SOL    HW222017   4.003   0.806   5.770
 7040SOL     OW22018   5.238   2.229   6.342
 7040SOL    HW122019   5.165   2.192   6.399
 7040SOL    HW222020   5.221   2.326   6.325
 7041SOL     OW22021   1.839   1.899   3.099
 7041SOL    HW122022   1.885   1.829   3.154
 7041SOL    HW222023   1.907   1.964   3.065
 7042SOL     OW22024   3.764   5.748   6.768
 7042SOL    HW122025   3.721   5.658   6.777
 7042SOL    HW222026   3.702   5.810   6.722
 7043SOL     OW22027   2.347   2.123   3.408
 7043SOL    HW122028   2.360   2.152   3.313
 7043SOL    HW222029   2.289   2.042   3.411
 7044SOL     OW22030   4.644   4.707   2.819
 7044SOL    HW122031   4.684   4.684   2.907
 7044SOL    HW222032   4.703   4.675   2.745
 7045SOL     OW22033   5.726   6.147   1.324
 7045SOL    HW122034   5.695   6.195   1.406
 7045SOL    HW222035   5.728   6.212   1.247
 7046SOL     OW22036   4.317   0.508   4.550
 7046SOL    HW122037   4.328   0.590   4.606
 7046SOL    HW222038   4.221   0.479   4.551
 7047SOL     OW22039   0.873   0.863   4.369
 7047SOL    HW122040   0.834   0.786   4.318
 7047SOL    HW222041   0.819   0.945   4.351
 7048SOL     OW22042   0.026   6.306   0.837
 7048SOL    HW122043   6.981   6.234   0.815
 7048SOL    HW222044   0.018   6.380   0.771
 7049SOL     OW22045   2.605   1.089   0.606
 7049SOL    HW122046   2.636   1.116   0.515
 7049SOL    HW222047   2.662   1.133   0.675
 7050SOL     OW22048   3.003   3.875   4.643
 7050SOL    HW122049   3.002   3.964   4.688
 7050SOL    HW222050   3.012   3.803   4.712
 7051SOL     OW22051   0.385   0.358   1.665
 7051SOL    HW122052   0.316   0.401   1.723
 7051SOL    HW222053   0.462   0.328   1.721
 7052SOL     OW22054   0.063   2.503   4.151
 7052SOL    HW122055   0.163   2.496   4.150
 7052SOL    HW222056   0.036   2.569   4.221
 7053SOL     OW22057   0.637   3.954   6.797
 7053SOL    HW122058   0.726   3.999   6.795
 7053SOL    HW222059   0.599   3.959   6.889
 7054SOL     OW22060   6.443   6.718   1.929
 7054SOL    HW122061   6.400   6.630   1.911
 7054SOL    HW222062   6.503   6.743   1.853
 7055SOL     OW22063   4.466   0.587   4.336
 7055SOL    HW122064   4.490   0.682   4.355
 7055SOL    HW222065   4.402   0.554   4.405
 7056SOL     OW22066   5.291   4.967   3.561
 7056SOL    HW122067   5.310   5.065   3.547
 7056SOL    HW222068   5.248   4.954   3.650
 7057SOL     OW22069   6.823   5.155   3.347
 7057SOL    HW122070   6.885   5.078   3.334
 7057SOL    HW222071   6.802   5.166   3.444
 7058SOL     OW22072   0.595   5.108   5.580
 7058SOL    HW122073   0.685   5.105   5.623
 7058SOL    HW222074   0.526   5.074   5.644
 7059SOL     OW22075   1.034   0.192   2.507
 7059SOL    HW122076   0.945   0.214   2.547
 7059SOL    HW222077   1.032   0.101   2.467
 7060SOL     OW22078   3.531   6.484   1.675
 7060SOL    HW122079   3.460   6.554   1.668
 7060SOL    HW222080   3.501   6.401   1.627
 7061SOL     OW22081   0.694   1.268   3.129
 7061SOL    HW122082   0.725   1.322   3.051
 7061SOL    HW222083   0.671   1.329   3.205
 7062SOL     OW22084   5.660   1.620   5.089
 7062SOL    HW122085   5.639   1.717   5.094
 7062SOL    HW222086   5.697   1.589   5.176
 7063SOL     OW22087   2.293   6.685   1.218
 7063SOL    HW122088   2.214   6.660   1.274
 7063SOL    HW222089   2.363   6.726   1.276
 7064SOL     OW22090   3.929   2.284   1.660
 7064SOL    HW122091   3.917   2.382   1.674
 7064SOL    HW222092   3.848   2.235   1.692
 7065SOL     OW22093   4.458   3.792   1.569
 7065SOL    HW122094   4.493   3.814   1.478
 7065SOL    HW222095   4.482   3.865   1.633
 7066SOL     OW22096   4.175   6.726   0.213
 7066SOL    HW122097   4.246   6.660   0.240
 7066SOL    HW222098   4.148   6.709   0.118
 7067SOL     OW22099   0.637   3.528   5.917
 7067SOL    HW122100   0.624   3.549   5.820
 7067SOL    HW222101   0.728   3.488   5.930
 7068SOL     OW22102   1.579   1.741   3.387
 7068SOL    HW122103   1.652   1.700   3.441
 7068SOL    HW222104   1.619   1.791   3.310
 7069SOL     OW22105   0.034   4.349   5.543
 7069SOL    HW122106   0.026   4.422   5.610
 7069SOL    HW222107   0.104   4.284   5.572
 7070SOL     OW22108   6.703   4.935   4.720
 7070SOL    HW122109   6.648   4.904   4.797
 7070SOL    HW222110   6.652   5.002   4.667
 7071SOL     OW22111   1.418   5.852   5.494
 7071SOL    HW122112   1.473   5.856   5.578
 7071SOL    HW222113   1.347   5.782   5.505
 7072SOL     OW22114   7.016   6.474   6.366
 7072SOL    HW122115   6.978   6.531   6.293
 7072SOL    HW222116   0.067   6.416   6.328
 7073SOL     OW22117   0.528   0.993   5.700
 7073SOL    HW122118   0.580   0.908   5.695
 7073SOL    HW222119   0.590   1.068   5.725
 7074SOL     OW22120   3.208   2.139   1.566
 7074SOL    HW122121   3.281   2.185   1.617
 7074SOL    HW222122   3.119   2.178   1.592
 7075SOL     OW22123   2.023   5.771   4.440
 7075SOL    HW122124   2.053   5.759   4.345
 7075SOL    HW222125   1.982   5.685   4.473
 7076SOL     OW22126   3.500   1.527   6.245
 7076SOL    HW122127   3.596   1.501   6.251
 7076SOL    HW222128   3.492   1.622   6.217
 7077SOL     OW22129   2.384   5.584   5.464
 7077SOL    HW122130   2.314   5.559   5.530
 7077SOL    HW222131   2.462   5.523   5.474
 7078SOL     OW22132   6.466   0.027   3.550
 7078SOL    HW122133   6.406   0.024   3.630
 7078SOL    HW222134   6.524   0.108   3.555
 7079SOL     OW22135   6.432   6.301   6.051
 7079SOL    HW122136   6.476   6.235   6.112
 7079SOL    HW222137   6.431   6.264   5.958
 7080SOL     OW22138   4.075   2.126   3.785
 7080SOL    HW122139   4.058   2.221   3.809
 7080SOL    HW222140   4.158   2.094   3.831
 7081SOL     OW22141   3.058   1.085   5.667
 7081SOL    HW122142   3.055   1.089   5.766
 7081SOL    HW222143   2.987   1.023   5.633
 7082SOL     OW22144   5.698   1.574   6.935
 7082SOL    HW122145   5.674   1.524   6.852
 7082SOL    HW222146   5.722   1.509   7.007
 7083SOL     OW22147   3.564   0.964   5.888
 7083SOL    HW122148   3.645   0.964   5.946
 7083SOL    HW222149   3.545   1.057   5.856
 7084SOL     OW22150   0.005   6.086   5.792
 7084SOL    HW122151   0.020   6.005   5.736
 7084SOL    HW222152   6.928   6.103   5.800
 7085SOL     OW22153   2.250   2.546   3.099
 7085SOL    HW122154   2.300   2.590   3.025
 7085SOL    HW222155   2.192   2.473   3.062
 7086SOL     OW22156   5.467   1.096   6.591
 7086SOL    HW122157   5.557   1.054   6.583
 7086SOL    HW222158   5.459   1.140   6.680
 7087SOL     OW22159   0.579   3.897   4.605
 7087SOL    HW122160   0.658   3.860   4.556
 7087SOL    HW222161   0.499   3.897   4.544
 7088SOL     OW22162   5.079   2.907   4.166
 7088SOL    HW122163   5.070   2.921   4.265
 7088SOL    HW222164   4.989   2.915   4.123
 7089SOL     OW22165   3.623   2.281   6.177
 7089SOL    HW122166   3.683   2.346   6.131
 7089SOL    HW222167   3.646   2.277   6.274
 7090SOL     OW22168   1.810   2.031   5.354
 7090SOL    HW122169   1.817   2.101   5.283
 7090SOL    HW222170   1.796   2.075   5.443
 7091SOL     OW22171   0.129   1.073   0.695
 7091SOL    HW122172   0.138   1.168   0.723
 7091SOL    HW222173   0.114   1.016   0.776
 7092SOL     OW22174   3.598   4.224   0.564
 7092SOL    HW122175   3.529   4.170   0.517
 7092SOL    HW222176   3.682   4.170   0.575
 7093SOL     OW22177   3.591   4.182   4.519
 7093SOL    HW122178   3.509   4.225   4.555
 7093SOL    HW222179   3.667   4.197   4.582
 7094SOL     OW22180   1.066   6.547   5.757
 7094SOL    HW122181   1.159   6.579   5.739
 7094SOL    HW222182   1.021   6.526   5.670
 7095SOL     OW22183   1.157   3.106   6.429
 7095SOL    HW122184   1.213   3.083   6.350
 7095SOL    HW222185   1.183   3.195   6.464
 7096SOL     OW22186   4.368   2.162   3.868
 7096SOL    HW122187   4.433   2.097   3.828
 7096SOL    HW222188   4.416   2.244   3.898
 7097SOL     OW22189   0.383   1.351   2.059
 7097SOL    HW122190   0.329   1.302   2.127
 7097SOL    HW222191   0.327   1.423   2.019
 7098SOL     OW22192   1.570   5.471   6.069
 7098SOL    HW122193   1.582   5.442   6.164
 7098SOL    HW222194   1.635   5.544   6.048
 7099SOL     OW22195   1.074   1.093   4.902
 7099SOL    HW122196   1.079   1.138   4.992
 7099SOL    HW222197   1.052   1.161   4.832
 7100SOL     OW22198   4.971   4.057   0.884
 7100SOL    HW122199   4.926   3.974   0.917
 7100SOL    HW222200   5.033   4.091   0.954
 7101SOL     OW22201   3.039   0.534   4.813
 7101SOL    HW122202   3.001   0.549   4.904
 7101SOL    HW222203   3.085   0.618   4.782
 7102SOL     OW22204   3.967   1.301   1.010
 7102SOL    HW122205   3.885   1.256   0.976
 7102SOL    HW222206   4.011   1.351   0.936
 7103SOL     OW22207   3.354   6.288   6.945
 7103SOL    HW122208   3.438   6.336   6.920
 7103SOL    HW222209   3.311   6.335   0.000
 7104SOL     OW22210   1.652   2.721   3.232
 7104SOL    HW122211   1.738   2.745   3.188
 7104SOL    HW222212   1.653   2.753   3.327
 7105SOL     OW22213   3.297   3.526   4.399
 7105SOL    HW122214   3.308   3.624   4.415
 7105SOL    HW222215   3.242   3.511   4.317
 7106SOL     OW22216   3.531   3.226   4.740
 7106SOL    HW122217   3.576   3.233   4.829
 7106SOL    HW222218   3.440   3.186   4.752
 7107SOL     OW22219   3.240   1.209   0.939
 7107SOL    HW122220   3.234   1.139   1.010
 7107SOL    HW222221   3.278   1.169   0.855
 7108SOL     OW22222   5.009   6.101   1.059
 7108SOL    HW122223   5.057   6.104   0.972
 7108SOL    HW222224   4.962   6.188   1.075
 7109SOL     OW22225   3.394   0.139   5.751
 7109SOL    HW122226   3.305   0.132   5.705
 7109SOL    HW222227   3.467   0.123   5.685
 7110SOL     OW22228   4.790   4.951   4.184
 7110SOL    HW122229   4.799   4.895   4.101
 7110SOL    HW222230   4.880   4.982   4.212
 7111SOL     OW22231   1.846   3.527   4.164
 7111SOL    HW122232   1.795   3.442   4.153
 7111SOL    HW222233   1.939   3.507   4.194
 7112SOL     OW22234   0.460   6.154   4.124
 7112SOL    HW122235   0.482   6.098   4.204
 7112SOL    HW222236   0.493   6.109   4.041
 7113SOL     OW22237   3.876   4.006   4.534
 7113SOL    HW122238   3.897   4.066   4.457
 7113SOL    HW222239   3.955   3.948   4.555
 7114SOL     OW22240   4.614   1.204   1.822
 7114SOL    HW122241   4.562   1.189   1.906
 7114SOL    HW222242   4.553   1.196   1.743
 7115SOL     OW22243   4.724   1.861   1.254
 7115SOL    HW122244   4.720   1.860   1.354
 7115SOL    HW222245   4.781   1.937   1.223
 7116SOL     OW22246   5.473   3.790   3.495
 7116SOL    HW122247   5.537   3.867   3.502
 7116SOL    HW222248   5.396   3.816   3.437
 7117SOL     OW22249   6.153   6.146   2.749
 7117SOL    HW122250   6.120   6.157   2.843
 7117SOL    HW222251   6.086   6.092   2.697
 7118SOL     OW22252   5.203   3.884   1.058
 7118SOL    HW122253   5.124   3.942   1.079
 7118SOL    HW222254   5.179   3.788   1.075
 7119SOL     OW22255   5.840   1.405   2.663
 7119SOL    HW122256   5.826   1.468   2.740
 7119SOL    HW222257   5.935   1.374   2.663
 7120SOL     OW22258   5.029   1.382   3.617
 7120SOL    HW122259   5.035   1.379   3.717
 7120SOL    HW222260   4.955   1.321   3.587
 7121SOL     OW22261   2.261   0.110   3.804
 7121SOL    HW122262   2.304   0.055   3.732
 7121SOL    HW222263   2.168   0.134   3.777
 7122SOL     OW22264   6.610   1.123   6.838
 7122SOL    HW122265   6.584   1.078   6.923
 7122SOL    HW222266   6.686   1.186   6.855
 7123SOL     OW22267   2.777   5.595   1.645
 7123SOL    HW122268   2.693   5.605   1.592
 7123SOL    HW222269   2.856   5.608   1.586
 7124SOL     OW22270   0.114   5.343   6.786
 7124SOL    HW122271   0.086   5.400   6.863
 7124SOL    HW222272   0.212   5.325   6.792
 7125SOL     OW22273   6.544   6.358   2.405
 7125SOL    HW122274   6.519   6.408   2.322
 7125SOL    HW222275   6.612   6.288   2.383
 7126SOL     OW22276   1.907   4.043   0.322
 7126SOL    HW122277   2.000   4.040   0.359
 7126SOL    HW222278   1.889   3.959   0.271
 7127SOL     OW22279   3.095   5.874   3.964
 7127SOL    HW122280   3.149   5.807   3.912
 7127SOL    HW222281   3.150   5.956   3.981
 7128SOL     OW22282   3.364   4.403   0.492
 7128SOL    HW122283   3.463   4.393   0.504
 7128SOL    HW222284   3.346   4.472   0.421
 7129SOL     OW22285   3.277   0.676   1.067
 7129SOL    HW122286   3.330   0.627   1.137
 7129SOL    HW222287   3.197   0.622   1.041
 7130SOL     OW22288   3.025   4.871   3.768
 7130SOL    HW122289   2.959   4.822   3.711
 7130SOL    HW222290   2.978   4.942   3.821
 7131SOL     OW22291   3.182   1.530   2.314
 7131SOL    HW122292   3.184   1.540   2.215
 7131SOL    HW222293   3.089   1.549   2.347
 7132SOL     OW22294   3.885   3.868   2.766
 7132SOL    HW122295   3.849   3.945   2.714
 7132SOL    HW222296   3.939   3.809   2.706
 7133SOL     OW22297   4.677   5.720   3.276
 7133SOL    HW122298   4.649   5.811   3.308
 7133SOL    HW222299   4.722   5.671   3.351
 7134SOL     OW22300   5.996   5.959   3.610
 7134SOL    HW122301   6.058   5.891   3.569
 7134SOL    HW222302   6.050   6.026   3.660
 7135SOL     OW22303   1.354   0.900   4.172
 7135SOL    HW122304   1.285   0.945   4.229
 7135SOL    HW222305   1.355   0.802   4.191
 7136SOL     OW22306   1.740   0.939   0.559
 7136SOL    HW122307   1.753   0.975   0.651
 7136SOL    HW222308   1.784   0.999   0.492
 7137SOL     OW22309   4.714   0.797   4.327
 7137SOL    HW122310   4.641   0.843   4.378
 7137SOL    HW222311   4.746   0.717   4.379
 7138SOL     OW22312   3.172   3.636   1.196
 7138SOL    HW122313   3.086   3.682   1.219
 7138SOL    HW222314   3.189   3.563   1.262
 7139SOL     OW22315   4.754   3.288   1.640
 7139SOL    HW122316   4.761   3.388   1.636
 7139SOL    HW222317   4.658   3.261   1.643
 7140SOL     OW22318   6.460   4.575   4.788
 7140SOL    HW122319   6.454   4.501   4.856
 7140SOL    HW222320   6.469   4.662   4.835
 7141SOL     OW22321   2.873   0.273   0.867
 7141SOL    HW122322   2.794   0.335   0.875
 7141SOL    HW222323   2.947   0.308   0.924
 7142SOL     OW22324   4.195   6.070   3.908
 7142SOL    HW122325   4.282   6.065   3.860
 7142SOL    HW222326   4.204   6.027   3.998
 7143SOL     OW22327   1.633   4.009   6.063
 7143SOL    HW122328   1.568   4.078   6.031
 7143SOL    HW222329   1.614   3.921   6.020
 7144SOL     OW22330   0.972   1.617   2.783
 7144SOL    HW122331   1.043   1.685   2.800
 7144SOL    HW222332   1.004   1.551   2.716
 7145SOL     OW22333   4.762   6.957   6.749
 7145SOL    HW122334   4.859   6.940   6.728
 7145SOL    HW222335   4.708   6.946   6.666
 7146SOL     OW22336   2.866   6.709   0.427
 7146SOL    HW122337   2.940   6.669   0.482
 7146SOL    HW222338   2.804   6.760   0.487
 7147SOL     OW22339   0.146   0.742   3.098
 7147SOL    HW122340   0.092   0.823   3.075
 7147SOL    HW222341   0.087   0.672   3.138
 7148SOL     OW22342   1.261   6.428   1.572
 7148SOL    HW122343   1.290   6.523   1.566
 7148SOL    HW222344   1.212   6.413   1.658
 7149SOL     OW22345   6.656   1.195   3.306
 7149SOL    HW122346   6.577   1.254   3.289
 7149SOL    HW222347   6.626   1.100   3.311
 7150SOL     OW22348   5.506   2.896   0.056
 7150SOL    HW122349   5.556   2.981   0.071
 7150SOL    HW222350   5.457   2.872   0.139
 7151SOL     OW22351   2.185   5.792   1.431
 7151SOL    HW122352   2.108   5.852   1.455
 7151SOL    HW222353   2.236   5.832   1.355
 7152SOL     OW22354   0.780   3.347   5.020
 7152SOL    HW122355   0.747   3.269   5.072
 7152SOL    HW222356   0.714   3.369   4.947
 7153SOL     OW22357   4.390   0.547   5.015
 7153SOL    HW122358   4.405   0.508   5.106
 7153SOL    HW222359   4.295   0.578   5.008
 7154SOL     OW22360   3.677   5.766   4.177
 7154SOL    HW122361   3.639   5.827   4.108
 7154SOL    HW222362   3.755   5.716   4.139
 7155SOL     OW22363   1.234   6.664   2.334
 7155SOL    HW122364   1.212   6.750   2.381
 7155SOL    HW222365   1.332   6.647   2.341
 7156SOL     OW22366   6.410   5.233   5.396
 7156SOL    HW122367   6.338   5.208   5.332
 7156SOL    HW222368   6.425   5.332   5.393
 7157SOL     OW22369   5.854   5.574   0.249
 7157SOL    HW122370   5.810   5.663   0.238
 7157SOL    HW222371   5.818   5.529   0.330
 7158SOL     OW22372   0.061   6.707   3.515
 7158SOL    HW122373   0.095   6.795   3.549
 7158SOL    HW222374   0.004   6.723   3.434
 7159SOL     OW22375   0.416   5.181   0.822
 7159SOL    HW122376   0.370   5.245   0.883
 7159SOL    HW222377   0.490   5.135   0.871
 7160SOL     OW22378   6.128   0.196   2.108
 7160SOL    HW122379   6.193   0.149   2.048
 7160SOL    HW222380   6.173   0.217   2.195
 7161SOL     OW22381   3.748   2.930   4.202
 7161SOL    HW122382   3.847   2.926   4.197
 7161SOL    HW222383   3.716   3.012   4.155
 7162SOL     OW22384   3.673   5.007   4.079
 7162SOL    HW122385   3.590   4.954   4.062
 7162SOL    HW222386   3.721   5.022   3.992
 7163SOL     OW22387   3.362   0.308   3.768
 7163SOL    HW122388   3.265   0.328   3.776
 7163SOL    HW222389   3.376   0.232   3.705
 7164SOL     OW22390   2.155   1.151   3.450
 7164SOL    HW122391   2.108   1.189   3.530
 7164SOL    HW222392   2.253   1.166   3.459
 7165SOL     OW22393   5.665   1.521   1.024
 7165SOL    HW122394   5.757   1.511   0.987
 7165SOL    HW222395   5.598   1.501   0.952
 7166SOL     OW22396   4.763   4.780   0.725
 7166SOL    HW122397   4.853   4.738   0.735
 7166SOL    HW222398   4.742   4.833   0.807
 7167SOL     OW22399   4.687   3.694   5.439
 7167SOL    HW122400   4.683   3.640   5.355
 7167SOL    HW222401   4.766   3.664   5.493
 7168SOL     OW22402   1.163   1.053   4.300
 7168SOL    HW122403   1.102   1.075   4.376
 7168SOL    HW222404   1.118   1.076   4.214
 7169SOL     OW22405   1.456   3.294   6.308
 7169SOL    HW122406   1.402   3.316   6.227
 7169SOL    HW222407   1.442   3.198   6.332
 7170SOL     OW22408   5.229   4.587   3.416
 7170SOL    HW122409   5.169   4.545   3.348
 7170SOL    HW222410   5.262   4.675   3.382
 7171SOL     OW22411   4.151   2.919   5.551
 7171SOL    HW122412   4.149   2.841   5.614
 7171SOL    HW222413   4.058   2.952   5.537
 7172SOL     OW22414   1.767   6.665   0.760
 7172SOL    HW122415   1.860   6.701   0.770
 7172SOL    HW222416   1.716   6.683   0.844
 7173SOL     OW22417   0.193   5.852   4.267
 7173SOL    HW122418   0.130   5.885   4.197
 7173SOL    HW222419   0.161   5.881   4.357
 7174SOL     OW22420   1.986   4.933   0.465
 7174SOL    HW122421   1.967   4.850   0.518
 7174SOL    HW222422   1.982   5.013   0.525
 7175SOL     OW22423   5.072   4.082   0.313
 7175SOL    HW122424   4.986   4.131   0.299
 7175SOL    HW222425   5.053   3.993   0.355
 7176SOL     OW22426   6.606   4.345   1.952
 7176SOL    HW122427   6.687   4.388   1.993
 7176SOL    HW222428   6.577   4.269   2.010
 7177SOL     OW22429   0.588   6.036   3.472
 7177SOL    HW122430   0.567   5.944   3.504
 7177SOL    HW222431   0.615   6.093   3.550
 7178SOL     OW22432   1.198   2.517   4.788
 7178SOL    HW122433   1.215   2.601   4.840
 7178SOL    HW222434   1.159   2.540   4.699
 7179SOL     OW22435   2.916   3.737   5.405
 7179SOL    HW122436   2.892   3.811   5.341
 7179SOL    HW222437   3.000   3.693   5.374
 7180SOL     OW22438   0.768   6.001   0.846
 7180SOL    HW122439   0.850   6.019   0.792
 7180SOL    HW222440   0.719   6.086   0.862
 7181SOL     OW22441   4.489   0.972   1.442
 7181SOL    HW122442   4.485   0.996   1.345
 7181SOL    HW222443   4.398   0.975   1.482
 7182SOL     OW22444   2.344   4.599   5.551
 7182SOL    HW122445   2.284   4.606   5.472
 7182SOL    HW222446   2.328   4.513   5.598
 7183SOL     OW22447   2.041   5.226   2.979
 7183SOL    HW122448   1.989   5.290   3.036
 7183SOL    HW222449   2.127   5.202   3.024
 7184SOL     OW22450   1.372   6.767   4.276
 7184SOL    HW122451   1.385   6.698   4.204
 7184SOL    HW222452   1.280   6.805   4.269
 7185SOL     OW22453   4.681   3.071   6.900
 7185SOL    HW122454   4.761   3.049   6.843
 7185SOL    HW222455   4.614   2.998   6.892
 7186SOL     OW22456   6.605   5.870   5.442
 7186SOL    HW122457   6.637   5.858   5.348
 7186SOL    HW222458   6.675   5.916   5.496
 7187SOL     OW22459   1.616   3.902   1.611
 7187SOL    HW122460   1.708   3.867   1.596
 7187SOL    HW222461   1.621   4.000   1.632
 7188SOL     OW22462   4.767   0.466   1.832
 7188SOL    HW122463   4.863   0.479   1.806
 7188SOL    HW222464   4.716   0.550   1.815
 7189SOL     OW22465   7.004   1.245   5.610
 7189SOL    HW122466   6.996   1.338   5.575
 7189SOL    HW222467   6.974   1.180   5.540
 7190SOL     OW22468   5.559   3.787   2.991
 7190SOL    HW122469   5.606   3.739   3.066
 7190SOL    HW222470   5.527   3.720   2.924
 7191SOL     OW22471   1.515   3.739   2.447
 7191SOL    HW122472   1.555   3.818   2.494
 7191SOL    HW222473   1.479   3.675   2.515
 7192SOL     OW22474   2.027   4.628   6.185
 7192SOL    HW122475   2.115   4.632   6.234
 7192SOL    HW222476   2.042   4.593   6.093
 7193SOL     OW22477   3.518   1.749   4.680
 7193SOL    HW122478   3.441   1.729   4.740
 7193SOL    HW222479   3.570   1.827   4.716
 7194SOL     OW22480   2.587   1.977   1.527
 7194SOL    HW122481   2.595   2.074   1.552
 7194SOL    HW222482   2.558   1.925   1.607
 7195SOL     OW22483   0.118   5.598   0.557
 7195SOL    HW122484   0.197   5.644   0.598
 7195SOL    HW222485   0.062   5.558   0.630
 7196SOL     OW22486   2.999   3.383   3.281
 7196SOL    HW122487   3.098   3.390   3.271
 7196SOL    HW222488   2.955   3.411   3.196
 7197SOL     OW22489   6.766   1.737   4.631
 7197SOL    HW122490   6.771   1.821   4.684
 7197SOL    HW222491   6.776   1.658   4.693
 7198SOL     OW22492   1.750   6.935   6.057
 7198SOL    HW122493   1.779   6.935   5.961
 7198SOL    HW222494   1.754   6.841   6.093
 7199SOL     OW22495   7.010   0.686   2.729
 7199SOL    HW122496   7.012   0.653   2.635
 7199SOL    HW222497   0.071   0.739   2.748
 7200SOL     OW22498   2.457   0.857   0.953
 7200SOL    HW122499   2.453   0.786   0.882
 7200SOL    HW222500   2.404   0.828   1.033
 7201SOL     OW22501   1.535   4.624   3.908
 7201SOL    HW122502   1.467   4.596   3.840
 7201SOL    HW222503   1.564   4.718   3.890
 7202SOL     OW22504   4.318   0.196   6.141
 7202SOL    HW122505   4.255   0.226   6.070
 7202SOL    HW222506   4.412   0.211   6.111
 7203SOL     OW22507   5.778   0.464   0.447
 7203SOL    HW122508   5.828   0.422   0.372
 7203SOL    HW222509   5.839   0.477   0.525
 7204SOL     OW22510   6.098   0.904   3.467
 7204SOL    HW122511   6.115   0.822   3.414
 7204SOL    HW222512   6.181   0.959   3.473
 7205SOL     OW22513   1.809   5.216   3.474
 7205SOL    HW122514   1.805   5.221   3.574
 7205SOL    HW222515   1.887   5.161   3.446
 7206SOL     OW22516   6.770   1.371   0.962
 7206SOL    HW122517   6.753   1.366   0.863
 7206SOL    HW222518   6.816   1.287   0.991
 7207SOL     OW22519   3.101   6.561   1.202
 7207SOL    HW122520   3.115   6.597   1.110
 7207SOL    HW222521   3.004   6.566   1.225
 7208SOL     OW22522   3.247   0.388   5.374
 7208SOL    HW122523   3.246   0.307   5.315
 7208SOL    HW222524   3.212   0.364   5.464
 7209SOL     OW22525   4.120   3.417   3.900
 7209SOL    HW122526   4.137   3.421   3.801
 7209SOL    HW222527   4.021   3.425   3.917
 7210SOL     OW22528   4.511   1.108   4.020
 7210SOL    HW122529   4.548   1.201   4.015
 7210SOL    HW222530   4.416   1.108   3.988
 7211SOL     OW22531   1.256   5.876   4.233
 7211SOL    HW122532   1.345   5.863   4.188
 7211SOL    HW222533   1.203   5.943   4.181
 7212SOL     OW22534   6.249   5.450   4.551
 7212SOL    HW122535   6.179   5.494   4.495
 7212SOL    HW222536   6.268   5.359   4.514
 7213SOL     OW22537   5.728   0.538   5.677
 7213SOL    HW122538   5.722   0.467   5.607
 7213SOL    HW222539   5.718   0.628   5.635
 7214SOL     OW22540   2.516   5.443   4.983
 7214SOL    HW122541   2.612   5.439   5.009
 7214SOL    HW222542   2.496   5.371   4.917
 7215SOL     OW22543   0.752   3.862   4.066
 7215SOL    HW122544   0.661   3.901   4.052
 7215SOL    HW222545   0.799   3.912   4.139
 7216SOL     OW22546   2.312   0.093   0.288
 7216SOL    HW122547   2.375   0.144   0.229
 7216SOL    HW222548   2.224   0.140   0.291
 7217SOL     OW22549   1.362   3.747   2.212
 7217SOL    HW122550   1.299   3.824   2.213
 7217SOL    HW222551   1.401   3.734   2.303
 7218SOL     OW22552   4.552   2.154   5.800
 7218SOL    HW122553   4.611   2.075   5.784
 7218SOL    HW222554   4.602   2.238   5.780
 7219SOL     OW22555   4.284   6.551   3.350
 7219SOL    HW122556   4.248   6.552   3.444
 7219SOL    HW222557   4.384   6.547   3.353
 7220SOL     OW22558   6.380   1.336   2.553
 7220SOL    HW122559   6.401   1.338   2.455
 7220SOL    HW222560   6.338   1.248   2.577
 7221SOL     OW22561   5.300   3.904   5.771
 7221SOL    HW122562   5.323   3.865   5.859
 7221SOL    HW222563   5.214   3.955   5.779
 7222SOL     OW22564   6.753   6.086   1.330
 7222SOL    HW122565   6.764   6.118   1.424
 7222SOL    HW222566   6.839   6.046   1.298
 7223SOL     OW22567   3.287   1.383   6.232
 7223SOL    HW122568   3.207   1.415   6.180
 7223SOL    HW222569   3.361   1.450   6.224
 7224SOL     OW22570   5.418   0.413   4.746
 7224SOL    HW122571   5.480   0.381   4.818
 7224SOL    HW222572   5.448   0.376   4.658
 7225SOL     OW22573   1.928   5.861   0.349
 7225SOL    HW122574   1.982   5.839   0.268
 7225SOL    HW222575   1.834   5.831   0.336
 7226SOL     OW22576   0.460   0.116   0.341
 7226SOL    HW122577   0.394   0.077   0.277
 7226SOL    HW222578   0.412   0.151   0.421
 7227SOL     OW22579   0.588   2.775   6.525
 7227SOL    HW122580   0.613   2.808   6.434
 7227SOL    HW222581   0.669   2.776   6.584
 7228SOL     OW22582   6.918   0.161   2.207
 7228SOL    HW122583   6.855   0.198   2.139
 7228SOL    HW222584   6.967   0.083   2.168
 7229SOL     OW22585   1.383   0.063   4.634
 7229SOL    HW122586   1.308   0.083   4.570
 7229SOL    HW222587   1.453   0.009   4.587
 7230SOL     OW22588   4.619   5.209   3.490
 7230SOL    HW122589   4.622   5.147   3.568
 7230SOL    HW222590   4.705   5.259   3.483
 7231SOL     OW22591   5.926   1.463   5.961
 7231SOL    HW122592   5.842   1.512   5.983
 7231SOL    HW222593   5.989   1.467   6.039
 7232SOL     OW22594   4.053   4.765   2.463
 7232SOL    HW122595   4.112   4.846   2.459
 7232SOL    HW222596   4.027   4.748   2.558
 7233SOL     OW22597   0.262   2.982   5.581
 7233SOL    HW122598   0.187   2.926   5.545
 7233SOL    HW222599   0.330   2.924   5.624
 7234SOL     OW22600   6.232   2.034   1.874
 7234SOL    HW122601   6.202   1.942   1.852
 7234SOL    HW222602   6.319   2.030   1.923
 7235SOL     OW22603   5.287   3.796   5.236
 7235SOL    HW122604   5.230   3.777   5.157
 7235SOL    HW222605   5.343   3.715   5.256
 7236SOL     OW22606   3.697   0.796   3.145
 7236SOL    HW122607   3.778   0.740   3.126
 7236SOL    HW222608   3.650   0.760   3.226
 7237SOL     OW22609   6.023   5.966   5.710
 7237SOL    HW122610   5.942   5.930   5.757
 7237SOL    HW222611   6.100   5.903   5.725
 7238SOL     OW22612   2.557   1.886   2.327
 7238SOL    HW122613   2.542   1.787   2.333
 7238SOL    HW222614   2.552   1.914   2.232
 7239SOL     OW22615   2.921   1.656   2.034
 7239SOL    HW122616   2.836   1.698   2.002
 7239SOL    HW222617   2.909   1.626   2.129
 7240SOL     OW22618   2.649   4.356   0.077
 7240SOL    HW122619   2.575   4.310   0.027
 7240SOL    HW222620   2.647   4.326   0.172
 7241SOL     OW22621   3.375   6.938   5.428
 7241SOL    HW122622   3.283   6.919   5.460
 7241SOL    HW222623   3.408   0.001   5.471
 7242SOL     OW22624   6.233   4.357   6.163
 7242SOL    HW122625   6.142   4.353   6.205
 7242SOL    HW222626   6.295   4.409   6.222
 7243SOL     OW22627   0.789   5.749   0.341
 7243SOL    HW122628   0.865   5.777   0.399
 7243SOL    HW222629   0.822   5.730   0.248
 7244SOL     OW22630   5.428   2.201   1.234
 7244SOL    HW122631   5.379   2.272   1.184
 7244SOL    HW222632   5.414   2.113   1.189
 7245SOL     OW22633   0.044   1.647   4.208
 7245SOL    HW122634   0.049   1.576   4.279
 7245SOL    HW222635   6.973   1.650   4.170
 7246SOL     OW22636   6.501   0.123   5.195
 7246SOL    HW122637   6.540   0.209   5.162
 7246SOL    HW222638   6.549   0.094   5.278
 7247SOL     OW22639   2.686   5.918   2.043
 7247SOL    HW122640   2.644   5.874   1.963
 7247SOL    HW222641   2.774   5.958   2.017
 7248SOL     OW22642   4.068   1.284   4.383
 7248SOL    HW122643   3.998   1.213   4.387
 7248SOL    HW222644   4.096   1.297   4.287
 7249SOL     OW22645   6.155   4.990   6.855
 7249SOL    HW122646   6.070   5.040   6.843
 7249SOL    HW222647   6.186   4.999   6.949
 7250SOL     OW22648   2.737   4.467   6.077
 7250SOL    HW122649   2.821   4.508   6.111
 7250SOL    HW222650   2.757   4.404   6.002
 7251SOL     OW22651   6.608   0.032   4.938
 7251SOL    HW122652   6.581   0.068   5.028
 7251SOL    HW222653   6.700   0.064   4.916
 7252SOL     OW22654   3.354   2.953   4.813
 7252SOL    HW122655   3.265   2.997   4.820
 7252SOL    HW222656   3.370   2.897   4.895
 7253SOL     OW22657   3.599   6.140   1.351
 7253SOL    HW122658   3.569   6.055   1.308
 7253SOL    HW222659   3.698   6.142   1.355
 7254SOL     OW22660   4.205   5.939   4.150
 7254SOL    HW122661   4.129   5.888   4.190
 7254SOL    HW222662   4.259   5.982   4.223
 7255SOL     OW22663   3.087   3.457   2.224
 7255SOL    HW122664   2.995   3.434   2.195
 7255SOL    HW222665   3.086   3.545   2.273
 7256SOL     OW22666   4.201   4.717   3.677
 7256SOL    HW122667   4.296   4.689   3.666
 7256SOL    HW222668   4.164   4.742   3.587
 7257SOL     OW22669   6.168   2.926   3.156
 7257SOL    HW122670   6.250   2.870   3.147
 7257SOL    HW222671   6.096   2.891   3.096
 7258SOL     OW22672   3.552   0.759   4.804
 7258SOL    HW122673   3.640   0.804   4.816
 7258SOL    HW222674   3.485   0.824   4.769
 7259SOL     OW22675   2.225   4.385   6.949
 7259SOL    HW122676   2.201   4.474   6.911
 7259SOL    HW222677   2.157   4.359   7.018
 7260SOL     OW22678   3.258   2.038   2.960
 7260SOL    HW122679   3.222   2.075   2.874
 7260SOL    HW222680   3.214   2.083   3.037
 7261SOL     OW22681   1.949   3.459   1.868
 7261SOL    HW122682   1.901   3.446   1.955
 7261SOL    HW222683   2.048   3.455   1.883
 7262SOL     OW22684   5.890   1.784   4.827
 7262SOL    HW122685   5.915   1.781   4.730
 7262SOL    HW222686   5.841   1.700   4.852
 7263SOL     OW22687   1.846   6.100   1.955
 7263SOL    HW122688   1.887   6.121   1.866
 7263SOL    HW222689   1.826   6.002   1.961
 7264SOL     OW22690   0.457   0.405   5.844
 7264SOL    HW122691   0.439   0.502   5.860
 7264SOL    HW222692   0.555   0.391   5.831
 7265SOL     OW22693   4.228   4.604   5.749
 7265SOL    HW122694   4.220   4.635   5.654
 7265SOL    HW222695   4.268   4.512   5.750
 7266SOL     OW22696   4.826   0.551   1.453
 7266SOL    HW122697   4.826   0.648   1.479
 7266SOL    HW222698   4.758   0.502   1.506
 7267SOL     OW22699   0.213   3.950   4.022
 7267SOL    HW122700   0.169   3.877   3.969
 7267SOL    HW222701   0.188   4.038   3.982
 7268SOL     OW22702   3.816   6.784   1.727
 7268SOL    HW122703   3.887   6.727   1.767
 7268SOL    HW222704   3.851   6.830   1.646
 7269SOL     OW22705   1.268   5.571   2.025
 7269SOL    HW122706   1.344   5.634   2.037
 7269SOL    HW222707   1.229   5.582   1.933
 7270SOL     OW22708   2.958   0.855   2.663
 7270SOL    HW122709   2.923   0.829   2.573
 7270SOL    HW222710   3.056   0.873   2.657
 7271SOL     OW22711   0.174   3.231   3.380
 7271SOL    HW122712   0.164   3.141   3.336
 7271SOL    HW222713   0.114   3.235   3.460
 7272SOL     OW22714   5.790   2.021   2.270
 7272SOL    HW122715   5.734   2.091   2.314
 7272SOL    HW222716   5.816   1.952   2.337
 7273SOL     OW22717   5.518   4.806   0.028
 7273SOL    HW122718   5.599   4.864   0.035
 7273SOL    HW222719   5.492   4.774   0.119
 7274SOL     OW22720   6.295   4.780   5.318
 7274SOL    HW122721   6.229   4.820   5.253
 7274SOL    HW222722   6.388   4.799   5.286
 7275SOL     OW22723   0.194   0.024   0.548
 7275SOL    HW122724   0.198   0.123   0.547
 7275SOL    HW222725   0.201   7.012   0.642
 7276SOL     OW22726   2.280   2.862   3.712
 7276SOL    HW122727   2.340   2.796   3.757
 7276SOL    HW222728   2.232   2.917   3.781
 7277SOL     OW22729   4.806   1.885   4.985
 7277SOL    HW122730   4.905   1.893   5.000
 7277SOL    HW222731   4.772   1.802   5.031
 7278SOL     OW22732   3.298   1.239   2.704
 7278SOL    HW122733   3.349   1.289   2.775
 7278SOL    HW222734   3.363   1.192   2.644
 7279SOL     OW22735   5.489   5.018   1.005
 7279SOL    HW122736   5.433   4.972   0.936
 7279SOL    HW222737   5.497   4.959   1.085
 7280SOL     OW22738   6.051   3.033   5.097
 7280SOL    HW122739   6.127   2.981   5.059
 7280SOL    HW222740   5.966   3.003   5.054
 7281SOL     OW22741   3.778   6.386   2.264
 7281SOL    HW122742   3.829   6.389   2.178
 7281SOL    HW222743   3.822   6.446   2.331
 7282SOL     OW22744   6.831   4.869   2.437
 7282SOL    HW122745   6.915   4.901   2.481
 7282SOL    HW222746   6.854   4.815   2.356
 7283SOL     OW22747   3.952   4.808   2.735
 7283SOL    HW122748   3.860   4.819   2.698
 7283SOL    HW222749   3.947   4.788   2.833
 7284SOL     OW22750   6.561   1.990   3.498
 7284SOL    HW122751   6.472   1.977   3.455
 7284SOL    HW222752   6.552   2.059   3.570
 7285SOL     OW22753   4.911   2.925   1.811
 7285SOL    HW122754   4.866   2.961   1.730
 7285SOL    HW222755   4.852   2.937   1.891
 7286SOL     OW22756   0.417   1.452   1.658
 7286SOL    HW122757   0.418   1.530   1.720
 7286SOL    HW222758   0.509   1.436   1.623
 7287SOL     OW22759   1.469   2.722   4.023
 7287SOL    HW122760   1.563   2.696   4.047
 7287SOL    HW222761   1.462   2.822   4.017
 7288SOL     OW22762   2.875   2.198   3.079
 7288SOL    HW122763   2.816   2.247   3.143
 7288SOL    HW222764   2.840   2.105   3.066
 7289SOL     OW22765   6.014   2.502   0.911
 7289SOL    HW122766   5.981   2.468   0.999
 7289SOL    HW222767   6.015   2.427   0.844
 7290SOL     OW22768   3.096   1.882   5.529
 7290SOL    HW122769   3.092   1.970   5.481
 7290SOL    HW222770   3.192   1.858   5.545
 7291SOL     OW22771   4.358   1.236   0.591
 7291SOL    HW122772   4.278   1.230   0.531
 7291SOL    HW222773   4.385   1.332   0.600
 7292SOL     OW22774   2.548   0.539   2.242
 7292SOL    HW122775   2.472   0.571   2.298
 7292SOL    HW222776   2.626   0.519   2.301
 7293SOL     OW22777   1.087   0.511   5.315
 7293SOL    HW122778   1.003   0.481   5.269
 7293SOL    HW222779   1.113   0.445   5.385
 7294SOL     OW22780   2.175   5.971   1.730
 7294SOL    HW122781   2.113   6.046   1.706
 7294SOL    HW222782   2.153   5.937   1.821
 7295SOL     OW22783   5.787   5.177   2.376
 7295SOL    HW122784   5.730   5.102   2.408
 7295SOL    HW222785   5.780   5.185   2.277
 7296SOL     OW22786   5.040   4.572   1.949
 7296SOL    HW122787   4.988   4.548   2.031
 7296SOL    HW222788   4.978   4.577   1.870
 7297SOL     OW22789   3.939   6.397   1.299
 7297SOL    HW122790   4.035   6.392   1.272
 7297SOL    HW222791   3.924   6.477   1.356
 7298SOL     OW22792   4.569   5.440   6.794
 7298SOL    HW122793   4.524   5.496   6.863
 7298SOL    HW222794   4.533   5.463   6.704
 7299SOL     OW22795   1.709   2.874   7.004
 7299SOL    HW122796   1.671   2.959   0.020
 7299SOL    HW222797   1.728   2.886   6.907
 7300SOL     OW22798   0.563   5.214   2.100
 7300SOL    HW122799   0.506   5.271   2.041
 7300SOL    HW222800   0.651   5.259   2.115
 7301SOL     OW22801   5.258   0.124   5.858
 7301SOL    HW122802   5.329   0.104   5.791
 7301SOL    HW222803   5.289   0.097   5.949
 7302SOL     OW22804   5.124   1.215   6.222
 7302SOL    HW122805   5.112   1.247   6.128
 7302SOL    HW222806   5.216   1.239   6.253
 7303SOL     OW22807   2.619   1.509   1.596
 7303SOL    HW122808   2.718   1.502   1.588
 7303SOL    HW222809   2.591   1.485   1.690
 7304SOL     OW22810   2.415   5.967   1.579
 7304SOL    HW122811   2.344   5.993   1.644
 7304SOL    HW222812   2.405   5.870   1.556
 7305SOL     OW22813   6.275   1.959   0.852
 7305SOL    HW122814   6.311   1.920   0.767
 7305SOL    HW222815   6.258   1.886   0.918
 7306SOL     OW22816   2.432   2.250   1.786
 7306SOL    HW122817   2.446   2.337   1.738
 7306SOL    HW222818   2.520   2.213   1.815
 7307SOL     OW22819   2.272   0.155   1.886
 7307SOL    HW122820   2.246   0.188   1.977
 7307SOL    HW222821   2.230   0.213   1.816
 7308SOL     OW22822   4.979   1.144   3.149
 7308SOL    HW122823   5.017   1.057   3.182
 7308SOL    HW222824   4.898   1.167   3.203
 7309SOL     OW22825   1.747   5.552   3.362
 7309SOL    HW122826   1.751   5.501   3.448
 7309SOL    HW222827   1.811   5.512   3.296
 7310SOL     OW22828   2.293   2.458   6.591
 7310SOL    HW122829   2.265   2.529   6.655
 7310SOL    HW222830   2.224   2.385   6.589
 7311SOL     OW22831   7.009   6.693   6.527
 7311SOL    HW122832   7.006   6.612   6.468
 7311SOL    HW222833   7.013   6.775   6.471
 7312SOL     OW22834   6.863   2.156   4.285
 7312SOL    HW122835   6.800   2.105   4.227
 7312SOL    HW222836   6.950   2.108   4.290
 7313SOL     OW22837   3.196   0.990   1.816
 7313SOL    HW122838   3.271   1.020   1.757
 7313SOL    HW222839   3.176   0.894   1.799
 7314SOL     OW22840   0.196   3.817   6.882
 7314SOL    HW122841   0.262   3.891   6.869
 7314SOL    HW222842   0.240   3.729   6.867
 7315SOL     OW22843   1.311   4.360   2.650
 7315SOL    HW122844   1.292   4.311   2.565
 7315SOL    HW222845   1.403   4.399   2.646
 7316SOL     OW22846   3.189   1.965   0.836
 7316SOL    HW122847   3.094   1.950   0.810
 7316SOL    HW222848   3.245   1.891   0.797
 7317SOL     OW22849   3.737   1.280   1.325
 7317SOL    HW122850   3.830   1.286   1.289
 7317SOL    HW222851   3.728   1.339   1.405
 7318SOL     OW22852   4.372   6.557   0.242
 7318SOL    HW122853   4.407   6.517   0.327
 7318SOL    HW222854   4.444   6.555   0.173
 7319SOL     OW22855   6.179   4.633   6.705
 7319SOL    HW122856   6.205   4.706   6.643
 7319SOL    HW222857   6.235   4.552   6.687
 7320SOL     OW22858   6.795   3.175   1.913
 7320SOL    HW122859   6.791   3.085   1.957
 7320SOL    HW222860   6.864   3.231   1.958
 7321SOL     OW22861   1.941   6.951   6.931
 7321SOL    HW122862   1.876   6.962   6.856
 7321SOL    HW222863   1.919   6.869   6.983
 7322SOL     OW22864   0.717   2.808   2.782
 7322SOL    HW122865   0.668   2.873   2.840
 7322SOL    HW222866   0.696   2.827   2.686
 7323SOL     OW22867   1.319   2.301   1.426
 7323SOL    HW122868   1.274   2.335   1.509
 7323SOL    HW222869   1.309   2.369   1.353
 7324SOL     OW22870   5.240   4.853   3.311
 7324SOL    HW122871   5.239   4.886   3.405
 7324SOL    HW222872   5.217   4.928   3.249
 7325SOL     OW22873   4.756   1.001   5.875
 7325SOL    HW122874   4.811   1.000   5.791
 7325SOL    HW222875   4.683   0.933   5.867
 7326SOL     OW22876   3.608   0.399   0.036
 7326SOL    HW122877   3.618   0.303   0.062
 7326SOL    HW222878   3.600   0.406   6.958
 7327SOL     OW22879   0.268   3.482   3.270
 7327SOL    HW122880   0.231   3.401   3.316
 7327SOL    HW222881   0.323   3.535   3.334
 7328SOL     OW22882   4.314   4.756   4.779
 7328SOL    HW122883   4.310   4.678   4.841
 7328SOL    HW222884   4.407   4.766   4.744
 7329SOL     OW22885   3.098   3.190   1.097
 7329SOL    HW122886   3.185   3.227   1.065
 7329SOL    HW222887   3.035   3.183   1.020
 7330SOL     OW22888   2.926   3.381   1.496
 7330SOL    HW122889   2.936   3.301   1.555
 7330SOL    HW222890   2.871   3.357   1.416
 7331SOL     OW22891   4.897   0.632   2.759
 7331SOL    HW122892   4.902   0.558   2.826
 7331SOL    HW222893   4.805   0.669   2.757
 7332SOL     OW22894   3.190   4.903   6.352
 7332SOL    HW122895   3.139   4.973   6.302
 7332SOL    HW222896   3.168   4.813   6.313
 7333SOL     OW22897   6.766   2.262   1.054
 7333SOL    HW122898   6.808   2.330   1.114
 7333SOL    HW222899   6.787   2.170   1.089
 7334SOL     OW22900   2.835   0.179   4.805
 7334SOL    HW122901   2.861   0.092   4.764
 7334SOL    HW222902   2.792   0.237   4.736
 7335SOL     OW22903   6.598   3.006   2.251
 7335SOL    HW122904   6.548   2.930   2.209
 7335SOL    HW222905   6.559   3.093   2.221
 7336SOL     OW22906   1.537   6.968   1.690
 7336SOL    HW122907   1.573   0.037   1.665
 7336SOL    HW222908   1.550   6.953   1.788
 7337SOL     OW22909   2.015   2.130   3.304
 7337SOL    HW122910   2.020   2.227   3.281
 7337SOL    HW222911   1.943   2.116   3.372
 7338SOL     OW22912   5.376   3.036   1.395
 7338SOL    HW122913   5.451   2.991   1.347
 7338SOL    HW222914   5.403   3.129   1.418
 7339SOL     OW22915   6.257   5.003   4.261
 7339SOL    HW122916   6.245   5.006   4.162
 7339SOL    HW222917   6.300   4.917   4.287
 7340SOL     OW22918   2.725   0.140   0.403
 7340SOL    HW122919   2.815   0.157   0.442
 7340SOL    HW222920   2.667   0.093   0.470
 7341SOL     OW22921   6.050   4.805   4.093
 7341SOL    HW122922   6.051   4.900   4.061
 7341SOL    HW222923   5.988   4.797   4.171
 7342SOL     OW22924   0.109   6.560   0.225
 7342SOL    HW122925   0.052   6.542   0.144
 7342SOL    HW222926   0.189   6.613   0.199
 7343SOL     OW22927   6.008   3.297   2.313
 7343SOL    HW122928   5.936   3.314   2.245
 7343SOL    HW222929   5.967   3.256   2.394
 7344SOL     OW22930   1.494   6.312   0.160
 7344SOL    HW122931   1.453   6.402   0.143
 7344SOL    HW222932   1.518   6.305   0.257
 7345SOL     OW22933   3.579   5.515   6.709
 7345SOL    HW122934   3.562   5.575   6.630
 7345SOL    HW222935   3.596   5.422   6.676
 7346SOL     OW22936   4.014   4.788   1.947
 7346SOL    HW122937   4.067   4.765   1.865
 7346SOL    HW222938   4.041   4.727   2.022
 7347SOL     OW22939   6.259   1.607   2.520
 7347SOL    HW122940   6.280   1.513   2.546
 7347SOL    HW222941   6.179   1.639   2.571
 7348SOL     OW22942   1.322   1.944   3.220
 7348SOL    HW122943   1.415   1.960   3.187
 7348SOL    HW222944   1.325   1.912   3.314
 7349SOL     OW22945   3.318   1.513   1.162
 7349SOL    HW122946   3.257   1.459   1.220
 7349SOL    HW222947   3.338   1.601   1.206
 7350SOL     OW22948   2.157   1.925   3.358
 7350SOL    HW122949   2.112   1.867   3.425
 7350SOL    HW222950   2.097   2.002   3.334
 7351SOL     OW22951   4.546   4.462   6.563
 7351SOL    HW122952   4.459   4.416   6.545
 7351SOL    HW222953   4.534   4.529   6.636
 7352SOL     OW22954   0.805   1.581   2.375
 7352SOL    HW122955   0.896   1.622   2.367
 7352SOL    HW222956   0.790   1.518   2.298
 7353SOL     OW22957   5.391   2.039   4.492
 7353SOL    HW122958   5.466   1.998   4.545
 7353SOL    HW222959   5.374   1.984   4.410
 7354SOL     OW22960   6.153   5.124   5.597
 7354SOL    HW122961   6.235   5.067   5.592
 7354SOL    HW222962   6.089   5.097   5.525
 7355SOL     OW22963   1.833   5.363   2.005
 7355SOL    HW122964   1.924   5.404   1.993
 7355SOL    HW222965   1.801   5.329   1.917
 7356SOL     OW22966   5.673   1.659   5.734
 7356SOL    HW122967   5.689   1.579   5.676
 7356SOL    HW222968   5.750   1.722   5.726
 7357SOL     OW22969   6.004   1.713   0.281
 7357SOL    HW122970   6.055   1.799   0.280
 7357SOL    HW222971   6.059   1.643   0.328
 7358SOL     OW22972   3.090   1.078   3.806
 7358SOL    HW122973   3.170   1.025   3.778
 7358SOL    HW222974   3.021   1.017   3.843
 7359SOL     OW22975   4.118   3.418   3.620
 7359SOL    HW122976   4.174   3.364   3.556
 7359SOL    HW222977   4.093   3.504   3.577
 7360SOL     OW22978   0.765   2.518   4.786
 7360SOL    HW122979   0.714   2.538   4.870
 7360SOL    HW222980   0.712   2.550   4.707
 7361SOL     OW22981   5.251   5.903   2.127
 7361SOL    HW122982   5.299   5.987   2.154
 7361SOL    HW222983   5.290   5.825   2.177
 7362SOL     OW22984   1.965   5.850   6.267
 7362SOL    HW122985   1.979   5.764   6.218
 7362SOL    HW222986   1.927   5.918   6.206
 7363SOL     OW22987   4.892   3.479   6.649
 7363SOL    HW122988   4.804   3.440   6.623
 7363SOL    HW222989   4.912   3.559   6.592
 7364SOL     OW22990   4.296   6.311   1.202
 7364SOL    HW122991   4.327   6.270   1.116
 7364SOL    HW222992   4.282   6.409   1.190
 7365SOL     OW22993   2.837   0.203   2.593
 7365SOL    HW122994   2.778   0.232   2.668
 7365SOL    HW222995   2.869   0.110   2.610
 7366SOL     OW22996   0.282   5.236   6.500
 7366SOL    HW122997   0.280   5.155   6.559
 7366SOL    HW222998   0.189   5.271   6.488
 7367SOL     OW22999   5.136   4.168   1.453
 7367SOL    HW123000   5.087   4.255   1.462
 7367SOL    HW223001   5.088   4.097   1.504
 7368SOL     OW23002   3.231   3.468   4.724
 7368SOL    HW123003   3.160   3.397   4.716
 7368SOL    HW223004   3.231   3.505   4.817
 7369SOL     OW23005   4.674   3.908   0.637
 7369SOL    HW123006   4.769   3.922   0.611
 7369SOL    HW223007   4.668   3.838   0.708
 7370SOL     OW23008   2.681   6.897   0.590
 7370SOL    HW123009   2.597   6.935   0.553
 7370SOL    HW223010   2.686   6.916   0.688
 7371SOL     OW23011   2.620   5.346   4.381
 7371SOL    HW123012   2.545   5.383   4.326
 7371SOL    HW223013   2.661   5.269   4.333
 7372SOL     OW23014   3.765   0.656   6.007
 7372SOL    HW123015   3.822   0.725   5.960
 7372SOL    HW223016   3.688   0.632   5.949
 7373SOL     OW23017   3.999   0.534   2.303
 7373SOL    HW123018   3.900   0.546   2.298
 7373SOL    HW223019   4.020   0.437   2.314
 7374SOL     OW23020   1.653   3.061   6.519
 7374SOL    HW123021   1.626   3.156   6.537
 7374SOL    HW223022   1.695   3.055   6.429
 7375SOL     OW23023   1.041   0.841   4.057
 7375SOL    HW123024   1.086   0.788   4.129
 7375SOL    HW223025   1.039   0.938   4.082
 7376SOL     OW23026   2.259   3.633   6.819
 7376SOL    HW123027   2.263   3.732   6.809
 7376SOL    HW223028   2.347   3.599   6.853
 7377SOL     OW23029   4.592   4.239   1.650
 7377SOL    HW123030   4.606   4.328   1.606
 7377SOL    HW223031   4.513   4.245   1.712
 7378SOL     OW23032   0.060   1.276   5.253
 7378SOL    HW123033   0.024   1.311   5.167
 7378SOL    HW223034   0.136   1.334   5.284
 7379SOL     OW23035   3.915   1.382   2.362
 7379SOL    HW123036   3.816   1.391   2.368
 7379SOL    HW223037   3.942   1.376   2.266
 7380SOL     OW23038   0.129   3.341   5.992
 7380SOL    HW123039   0.114   3.307   5.899
 7380SOL    HW223040   0.225   3.330   6.016
 7381SOL     OW23041   5.153   1.731   1.910
 7381SOL    HW123042   5.147   1.745   1.811
 7381SOL    HW223043   5.189   1.639   1.928
 7382SOL     OW23044   6.670   5.289   4.610
 7382SOL    HW123045   6.629   5.218   4.553
 7382SOL    HW223046   6.602   5.325   4.673
 7383SOL     OW23047   6.724   6.309   3.707
 7383SOL    HW123048   6.771   6.330   3.621
 7383SOL    HW223049   6.679   6.392   3.740
 7384SOL     OW23050   5.207   6.955   2.261
 7384SOL    HW123051   5.189   6.914   2.171
 7384SOL    HW223052   5.249   6.887   2.321
 7385SOL     OW23053   4.725   6.329   1.393
 7385SOL    HW123054   4.795   6.342   1.463
 7385SOL    HW223055   4.766   6.286   1.313
 7386SOL     OW23056   0.732   2.355   5.146
 7386SOL    HW123057   0.658   2.392   5.203
 7386SOL    HW223058   0.798   2.427   5.127
 7387SOL     OW23059   3.620   5.521   3.594
 7387SOL    HW123060   3.618   5.434   3.643
 7387SOL    HW223061   3.593   5.595   3.655
 7388SOL     OW23062   6.226   5.124   3.367
 7388SOL    HW123063   6.272   5.174   3.294
 7388SOL    HW223064   6.226   5.180   3.450
 7389SOL     OW23065   1.651   4.212   6.303
 7389SOL    HW123066   1.695   4.152   6.235
 7389SOL    HW223067   1.670   4.307   6.279
 7390SOL     OW23068   1.259   0.357   5.644
 7390SOL    HW123069   1.302   0.287   5.588
 7390SOL    HW223070   1.252   0.324   5.738
 7391SOL     OW23071   6.154   3.179   6.173
 7391SOL    HW123072   6.144   3.081   6.190
 7391SOL    HW223073   6.078   3.228   6.216
 7392SOL     OW23074   1.650   4.935   4.133
 7392SOL    HW123075   1.699   4.919   4.047
 7392SOL    HW223076   1.578   5.003   4.118
 7393SOL     OW23077   0.232   4.734   2.540
 7393SOL    HW123078   0.220   4.770   2.633
 7393SOL    HW223079   0.243   4.635   2.543
 7394SOL     OW23080   4.025   3.736   6.789
 7394SOL    HW123081   4.114   3.690   6.792
 7394SOL    HW223082   3.967   3.699   6.861
 7395SOL     OW23083   1.018   0.527   0.334
 7395SOL    HW123084   0.922   0.524   0.307
 7395SOL    HW223085   1.043   0.619   0.362
 7396SOL     OW23086   1.046   6.811   6.123
 7396SOL    HW123087   1.013   6.764   6.205
 7396SOL    HW223088   1.041   6.909   6.136
 7397SOL     OW23089   6.560   4.858   5.196
 7397SOL    HW123090   6.643   4.801   5.198
 7397SOL    HW223091   6.581   4.948   5.234
 7398SOL     OW23092   4.600   4.404   3.998
 7398SOL    HW123093   4.599   4.353   4.084
 7398SOL    HW223094   4.681   4.380   3.945
 7399SOL     OW23095   4.961   3.833   6.284
 7399SOL    HW123096   4.895   3.879   6.225
 7399SOL    HW223097   5.029   3.785   6.227
 7400SOL     OW23098   2.829   5.417   6.576
 7400SOL    HW123099   2.914   5.468   6.563
 7400SOL    HW223100   2.787   5.400   6.487
 7401SOL     OW23101   0.078   1.946   4.249
 7401SOL    HW123102   0.077   1.967   4.151
 7401SOL    HW223103   0.053   1.850   4.263
 7402SOL     OW23104   2.802   0.449   3.864
 7402SOL    HW123105   2.893   0.483   3.888
 7402SOL    HW223106   2.796   0.352   3.888
 7403SOL     OW23107   1.519   3.958   3.012
 7403SOL    HW123108   1.577   3.879   2.995
 7403SOL    HW223109   1.423   3.930   3.011
 7404SOL     OW23110   1.392   0.591   1.508
 7404SOL    HW123111   1.429   0.501   1.485
 7404SOL    HW223112   1.447   0.662   1.464
 7405SOL     OW23113   3.042   5.088   6.199
 7405SOL    HW123114   2.967   5.041   6.153
 7405SOL    HW223115   3.109   5.119   6.132
 7406SOL     OW23116   1.040   4.567   2.112
 7406SOL    HW123117   1.133   4.544   2.143
 7406SOL    HW223118   1.039   4.577   2.013
 7407SOL     OW23119   1.448   6.450   6.535
 7407SOL    HW123120   1.481   6.377   6.594
 7407SOL    HW223121   1.348   6.445   6.528
 7408SOL     OW23122   1.600   4.488   5.974
 7408SOL    HW123123   1.525   4.528   5.921
 7408SOL    HW223124   1.678   4.470   5.914
 7409SOL     OW23125   1.886   6.244   5.000
 7409SOL    HW123126   1.787   6.234   5.012
 7409SOL    HW223127   1.928   6.264   5.089
 7410SOL     OW23128   0.200   5.544   1.307
 7410SOL    HW123129   0.184   5.451   1.274
 7410SOL    HW223130   0.149   5.558   1.392
 7411SOL     OW23131   3.150   6.069   4.896
 7411SOL    HW123132   3.165   5.984   4.947
 7411SOL    HW223133   3.055   6.071   4.863
 7412SOL     OW23134   1.348   1.883   0.401
 7412SOL    HW123135   1.282   1.947   0.439
 7412SOL    HW223136   1.425   1.874   0.465
 7413SOL     OW23137   5.902   4.108   4.981
 7413SOL    HW123138   5.836   4.045   4.939
 7413SOL    HW223139   5.853   4.175   5.037
 7414SOL     OW23140   6.794   6.946   2.098
 7414SOL    HW123141   6.740   6.874   2.141
 7414SOL    HW223142   6.744   6.984   2.021
 7415SOL     OW23143   1.868   3.214   3.522
 7415SOL    HW123144   1.797   3.167   3.469
 7415SOL    HW223145   1.873   3.310   3.493
 7416SOL     OW23146   3.718   1.258   3.908
 7416SOL    HW123147   3.619   1.267   3.917
 7416SOL    HW223148   3.751   1.184   3.967
 7417SOL     OW23149   1.191   6.690   0.303
 7417SOL    HW123150   1.149   6.697   0.213
 7417SOL    HW223151   1.186   6.778   0.350
 7418SOL     OW23152   2.258   3.389   1.140
 7418SOL    HW123153   2.234   3.358   1.048
 7418SOL    HW223154   2.336   3.451   1.135
 7419SOL     OW23155   6.169   1.004   4.971
 7419SOL    HW123156   6.212   1.068   5.034
 7419SOL    HW223157   6.239   0.949   4.925
 7420SOL     OW23158   6.577   5.666   1.876
 7420SOL    HW123159   6.667   5.709   1.879
 7420SOL    HW223160   6.584   5.576   1.833
 7421SOL     OW23161   3.762   4.078   1.502
 7421SOL    HW123162   3.857   4.104   1.524
 7421SOL    HW223163   3.763   4.006   1.433
 7422SOL     OW23164   6.936   3.070   0.252
 7422SOL    HW123165   6.916   3.154   0.302
 7422SOL    HW223166   0.005   3.036   0.279
 7423SOL     OW23167   1.525   5.037   6.418
 7423SOL    HW123168   1.598   5.063   6.355
 7423SOL    HW223169   1.531   5.092   6.501
 7424SOL     OW23170   5.468   0.569   4.296
 7424SOL    HW123171   5.533   0.642   4.313
 7424SOL    HW223172   5.439   0.571   4.200
 7425SOL     OW23173   3.649   5.369   6.143
 7425SOL    HW123174   3.709   5.328   6.075
 7425SOL    HW223175   3.686   5.458   6.171
 7426SOL     OW23176   1.253   1.140   6.362
 7426SOL    HW123177   1.329   1.174   6.416
 7426SOL    HW223178   1.167   1.171   6.402
 7427SOL     OW23179   3.996   5.195   4.942
 7427SOL    HW123180   3.960   5.239   4.860
 7427SOL    HW223181   3.927   5.136   4.982
 7428SOL     OW23182   3.149   2.392   6.061
 7428SOL    HW123183   3.128   2.294   6.063
 7428SOL    HW223184   3.242   2.406   6.095
 7429SOL     OW23185   0.157   0.497   2.891
 7429SOL    HW123186   0.120   0.571   2.947
 7429SOL    HW223187   0.083   0.434   2.866
 7430SOL     OW23188   6.272   3.987   5.369
 7430SOL    HW123189   6.209   4.028   5.302
 7430SOL    HW223190   6.323   3.913   5.324
 7431SOL     OW23191   0.246   4.109   2.134
 7431SOL    HW123192   0.306   4.162   2.194
 7431SOL    HW223193   0.268   4.129   2.039
 7432SOL     OW23194   6.999   6.710   4.425
 7432SOL    HW123195   6.973   6.765   4.346
 7432SOL    HW223196   6.943   6.735   4.504
 7433SOL     OW23197   6.195   5.347   0.716
 7433SOL    HW123198   6.156   5.439   0.721
 7433SOL    HW223199   6.121   5.280   0.714
 7434SOL     OW23200   3.152   1.420   6.480
 7434SOL    HW123201   3.144   1.374   6.392
 7434SOL    HW223202   3.067   1.468   6.501
 7435SOL     OW23203   2.735   6.309   0.357
 7435SOL    HW123204   2.773   6.365   0.284
 7435SOL    HW223205   2.650   6.350   0.390
 7436SOL     OW23206   4.914   3.309   6.893
 7436SOL    HW123207   4.867   3.233   6.847
 7436SOL    HW223208   4.926   3.384   6.829
 7437SOL     OW23209   0.649   5.519   5.872
 7437SOL    HW123210   0.706   5.601   5.881
 7437SOL    HW223211   0.554   5.541   5.892
 7438SOL     OW23212   6.661   4.700   1.735
 7438SOL    HW123213   6.585   4.640   1.712
 7438SOL    HW223214   6.747   4.656   1.711
 7439SOL     OW23215   1.892   6.857   3.627
 7439SOL    HW123216   1.926   6.948   3.648
 7439SOL    HW223217   1.968   6.792   3.629
 7440SOL     OW23218   1.441   2.490   4.215
 7440SOL    HW123219   1.408   2.532   4.130
 7440SOL    HW223220   1.526   2.441   4.198
 7441SOL     OW23221   5.642   1.449   3.991
 7441SOL    HW123222   5.564   1.454   3.928
 7441SOL    HW223223   5.661   1.354   4.015
 7442SOL     OW23224   0.980   0.746   6.280
 7442SOL    HW123225   0.997   0.647   6.281
 7442SOL    HW223226   1.042   0.790   6.345
 7443SOL     OW23227   0.513   0.921   6.435
 7443SOL    HW123228   0.514   0.974   6.519
 7443SOL    HW223229   0.591   0.858   6.434
 7444SOL     OW23230   0.557   3.269   6.664
 7444SOL    HW123231   0.506   3.339   6.715
 7444SOL    HW223232   0.592   3.201   6.727
 7445SOL     OW23233   5.233   1.481   1.920
 7445SOL    HW123234   5.221   1.488   2.019
 7445SOL    HW223235   5.231   1.385   1.892
 7446SOL     OW23236   6.661   3.888   1.137
 7446SOL    HW123237   6.715   3.806   1.114
 7446SOL    HW223238   6.610   3.871   1.221
 7447SOL     OW23239   1.208   4.002   6.322
 7447SOL    HW123240   1.116   4.041   6.322
 7447SOL    HW223241   1.273   4.069   6.358
 7448SOL     OW23242   6.279   0.224   6.242
 7448SOL    HW123243   6.340   0.265   6.174
 7448SOL    HW223244   6.193   0.274   6.244
 7449SOL     OW23245   5.576   1.964   2.065
 7449SOL    HW123246   5.666   1.946   2.104
 7449SOL    HW223247   5.513   1.993   2.137
 7450SOL     OW23248   4.694   2.075   2.446
 7450SOL    HW123249   4.748   2.157   2.426
 7450SOL    HW223250   4.708   2.049   2.541
 7451SOL     OW23251   2.000   0.929   4.876
 7451SOL    HW123252   1.932   1.000   4.896
 7451SOL    HW223253   1.992   0.856   4.944
 7452SOL     OW23254   1.950   6.728   4.620
 7452SOL    HW123255   1.869   6.787   4.622
 7452SOL    HW223256   1.926   6.641   4.576
 7453SOL     OW23257   5.597   6.185   4.414
 7453SOL    HW123258   5.584   6.093   4.451
 7453SOL    HW223259   5.567   6.252   4.482
 7454SOL     OW23260   0.749   3.257   1.568
 7454SOL    HW123261   0.696   3.222   1.491
 7454SOL    HW223262   0.747   3.357   1.566
 7455SOL     OW23263   4.681   2.614   0.296
 7455SOL    HW123264   4.744   2.615   0.218
 7455SOL    HW223265   4.590   2.586   0.265
 7456SOL     OW23266   1.634   3.406   4.574
 7456SOL    HW123267   1.649   3.485   4.514
 7456SOL    HW223268   1.536   3.389   4.582
 7457SOL     OW23269   6.134   0.670   5.613
 7457SOL    HW123270   6.068   0.601   5.641
 7457SOL    HW223271   6.221   0.655   5.660
 7458SOL     OW23272   3.029   0.770   0.430
 7458SOL    HW123273   3.072   0.827   0.360
 7458SOL    HW223274   2.937   0.746   0.401
 7459SOL     OW23275   4.841   0.471   5.063
 7459SOL    HW123276   4.775   0.437   4.997
 7459SOL    HW223277   4.814   0.443   5.155
 7460SOL     OW23278   0.306   4.359   0.343
 7460SOL    HW123279   0.218   4.404   0.357
 7460SOL    HW223280   0.294   4.260   0.342
 7461SOL     OW23281   5.394   1.110   5.205
 7461SOL    HW123282   5.298   1.083   5.196
 7461SOL    HW223283   5.440   1.096   5.117
 7462SOL     OW23284   2.292   1.962   2.529
 7462SOL    HW123285   2.354   1.923   2.597
 7462SOL    HW223286   2.263   1.890   2.465
 7463SOL     OW23287   4.128   3.658   2.187
 7463SOL    HW123288   4.063   3.727   2.156
 7463SOL    HW223289   4.151   3.674   2.283
 7464SOL     OW23290   5.192   6.064   0.829
 7464SOL    HW123291   5.176   5.966   0.815
 7464SOL    HW223292   5.238   6.103   0.750
 7465SOL     OW23293   2.832   0.157   1.957
 7465SOL    HW123294   2.798   0.245   1.923
 7465SOL    HW223295   2.926   0.144   1.926
 7466SOL     OW23296   0.256   0.447   6.955
 7466SOL    HW123297   0.170   0.413   6.992
 7466SOL    HW223298   0.247   0.545   6.934
 7467SOL     OW23299   0.192   1.554   1.124
 7467SOL    HW123300   0.124   1.480   1.132
 7467SOL    HW223301   0.144   1.641   1.109
 7468SOL     OW23302   5.308   1.289   2.768
 7468SOL    HW123303   5.309   1.352   2.690
 7468SOL    HW223304   5.377   1.318   2.835
 7469SOL     OW23305   1.210   1.007   0.583
 7469SOL    HW123306   1.288   0.949   0.560
 7469SOL    HW223307   1.219   1.095   0.536
 7470SOL     OW23308   0.123   2.019   2.034
 7470SOL    HW123309   0.208   2.071   2.041
 7470SOL    HW223310   0.047   2.081   2.019
 7471SOL     OW23311   6.082   6.437   5.780
 7471SOL    HW123312   6.040   6.528   5.783
 7471SOL    HW223313   6.176   6.444   5.748
 7472SOL     OW23314   3.923   0.437   4.013
 7472SOL    HW123315   3.905   0.342   3.989
 7472SOL    HW223316   3.969   0.483   3.937
 7473SOL     OW23317   6.480   3.971   4.583
 7473SOL    HW123318   6.467   3.994   4.487
 7473SOL    HW223319   6.488   3.872   4.593
 7474SOL     OW23320   3.810   1.248   3.605
 7474SOL    HW123321   3.789   1.309   3.529
 7474SOL    HW223322   3.728   1.234   3.660
 7475SOL     OW23323   3.973   0.527   1.216
 7475SOL    HW123324   3.886   0.575   1.203
 7475SOL    HW223325   4.028   0.533   1.133
 7476SOL     OW23326   3.913   6.023   3.991
 7476SOL    HW123327   4.003   6.026   3.948
 7476SOL    HW223328   3.913   6.082   4.071
 7477SOL     OW23329   4.247   1.091   3.925
 7477SOL    HW123330   4.162   1.047   3.954
 7477SOL    HW223331   4.237   1.126   3.832
 7478SOL     OW23332   2.090   4.287   0.155
 7478SOL    HW123333   2.022   4.352   0.189
 7478SOL    HW223334   2.071   4.196   0.192
 7479SOL     OW23335   4.769   0.702   0.137
 7479SOL    HW123336   4.684   0.726   0.091
 7479SOL    HW223337   4.840   0.685   0.069
 7480SOL     OW23338   6.518   6.118   1.407
 7480SOL    HW123339   6.535   6.101   1.504
 7480SOL    HW223340   6.604   6.134   1.360
 7481SOL     OW23341   5.751   4.699   0.408
 7481SOL    HW123342   5.822   4.629   0.410
 7481SOL    HW223343   5.727   4.724   0.502
 7482SOL     OW23344   4.786   0.963   2.581
 7482SOL    HW123345   4.852   0.992   2.650
 7482SOL    HW223346   4.693   0.977   2.616
 7483SOL     OW23347   3.703   1.152   4.529
 7483SOL    HW123348   3.619   1.205   4.511
 7483SOL    HW223349   3.735   1.172   4.621
 7484SOL     OW23350   2.255   6.257   2.507
 7484SOL    HW123351   2.245   6.254   2.408
 7484SOL    HW223352   2.297   6.172   2.539
 7485SOL     OW23353   3.106   5.530   5.971
 7485SOL    HW123354   3.061   5.441   5.968
 7485SOL    HW223355   3.059   5.593   5.909
 7486SOL     OW23356   3.057   6.074   5.430
 7486SOL    HW123357   3.071   6.003   5.361
 7486SOL    HW223358   3.139   6.130   5.437
 7487SOL     OW23359   3.029   6.124   3.577
 7487SOL    HW123360   2.954   6.127   3.642
 7487SOL    HW223361   3.003   6.172   3.493
 7488SOL     OW23362   3.373   7.018   5.978
 7488SOL    HW123363   3.387   0.053   5.896
 7488SOL    HW223364   3.375   6.921   5.954
 7489SOL     OW23365   4.707   2.716   4.259
 7489SOL    HW123366   4.726   2.813   4.268
 7489SOL    HW223367   4.638   2.689   4.326
 7490SOL     OW23368   6.086   1.209   1.122
 7490SOL    HW123369   6.095   1.243   1.029
 7490SOL    HW223370   6.023   1.268   1.173
 7491SOL     OW23371   6.739   5.676   6.240
 7491SOL    HW123372   6.644   5.660   6.267
 7491SOL    HW223373   6.793   5.593   6.256
 7492SOL     OW23374   1.994   2.594   5.000
 7492SOL    HW123375   1.985   2.499   5.030
 7492SOL    HW223376   2.070   2.601   4.935
 7493SOL     OW23377   5.508   3.527   6.558
 7493SOL    HW123378   5.495   3.552   6.654
 7493SOL    HW223379   5.563   3.596   6.513
 7494SOL     OW23380   5.436   0.265   2.081
 7494SOL    HW123381   5.447   0.168   2.062
 7494SOL    HW223382   5.524   0.304   2.108
 7495SOL     OW23383   2.253   1.585   0.718
 7495SOL    HW123384   2.337   1.532   0.704
 7495SOL    HW223385   2.226   1.629   0.632
 7496SOL     OW23386   1.122   4.835   6.379
 7496SOL    HW123387   1.084   4.745   6.359
 7496SOL    HW223388   1.068   4.880   6.449
 7497SOL     OW23389   1.573   4.457   2.557
 7497SOL    HW123390   1.624   4.513   2.622
 7497SOL    HW223391   1.613   4.467   2.466
 7498SOL     OW23392   3.015   1.483   4.951
 7498SOL    HW123393   2.975   1.395   4.925
 7498SOL    HW223394   2.947   1.538   5.000
 7499SOL     OW23395   5.713   6.821   4.660
 7499SOL    HW123396   5.616   6.820   4.684
 7499SOL    HW223397   5.731   6.751   4.591
 7500SOL     OW23398   4.496   6.021   1.870
 7500SOL    HW123399   4.549   6.011   1.785
 7500SOL    HW223400   4.552   5.991   1.947
 7501SOL     OW23401   0.999   3.982   3.620
 7501SOL    HW123402   0.978   3.903   3.677
 7501SOL    HW223403   0.964   4.065   3.664
 7502SOL     OW23404   2.474   0.728   4.944
 7502SOL    HW123405   2.433   0.641   4.916
 7502SOL    HW223406   2.573   0.717   4.952
 7503SOL     OW23407   3.050   1.036   0.019
 7503SOL    HW123408   2.968   0.979   0.029
 7503SOL    HW223409   3.026   1.119   6.991
 7504SOL     OW23410   4.056   6.895   3.280
 7504SOL    HW123411   4.077   6.988   3.250
 7504SOL    HW223412   4.010   6.898   3.369
 7505SOL     OW23413   1.931   1.429   5.020
 7505SOL    HW123414   2.019   1.412   5.066
 7505SOL    HW223415   1.868   1.471   5.085
 7506SOL     OW23416   3.602   0.554   2.599
 7506SOL    HW123417   3.626   0.534   2.695
 7506SOL    HW223418   3.615   0.471   2.544
 7507SOL     OW23419   1.090   6.256   5.557
 7507SOL    HW123420   1.153   6.244   5.634
 7507SOL    HW223421   1.011   6.310   5.586
 7508SOL     OW23422   5.806   7.006   2.776
 7508SOL    HW123423   5.811   6.909   2.802
 7508SOL    HW223424   5.711   0.010   2.760
 7509SOL     OW23425   4.874   3.335   5.895
 7509SOL    HW123426   4.862   3.422   5.848
 7509SOL    HW223427   4.814   3.266   5.854
 7510SOL     OW23428   3.491   4.141   4.988
 7510SOL    HW123429   3.536   4.061   5.027
 7510SOL    HW223430   3.550   4.182   4.919
 7511SOL     OW23431   1.548   0.193   2.067
 7511SOL    HW123432   1.592   0.113   2.026
 7511SOL    HW223433   1.617   0.262   2.090
 7512SOL     OW23434   2.762   3.158   1.770
 7512SOL    HW123435   2.705   3.234   1.738
 7512SOL    HW223436   2.710   3.073   1.764
 7513SOL     OW23437   1.492   1.874   6.461
 7513SOL    HW123438   1.519   1.891   6.555
 7513SOL    HW223439   1.550   1.803   6.422
 7514SOL     OW23440   2.782   5.681   2.192
 7514SOL    HW123441   2.871   5.669   2.146
 7514SOL    HW223442   2.712   5.701   2.124
 7515SOL     OW23443   6.875   6.922   2.798
 7515SOL    HW123444   6.796   6.955   2.849
 7515SOL    HW223445   6.875   6.822   2.797
 7516SOL     OW23446   0.455   1.077   3.935
 7516SOL    HW123447   0.356   1.076   3.952
 7516SOL    HW223448   0.504   1.075   4.022
 7517SOL     OW23449   0.313   3.633   0.628
 7517SOL    HW123450   0.326   3.701   0.555
 7517SOL    HW223451   0.403   3.604   0.662
 7518SOL     OW23452   4.506   5.543   3.999
 7518SOL    HW123453   4.543   5.507   4.085
 7518SOL    HW223454   4.460   5.631   4.017
 7519SOL     OW23455   1.324   6.250   4.576
 7519SOL    HW123456   1.392   6.292   4.637
 7519SOL    HW223457   1.236   6.245   4.623
 7520SOL     OW23458   0.980   6.734   3.871
 7520SOL    HW123459   1.046   6.672   3.830
 7520SOL    HW223460   0.942   6.693   3.954
 7521SOL     OW23461   4.704   4.226   4.840
 7521SOL    HW123462   4.709   4.164   4.761
 7521SOL    HW223463   4.633   4.295   4.823
 7522SOL     OW23464   2.157   1.085   0.566
 7522SOL    HW123465   2.233   1.072   0.503
 7522SOL    HW223466   2.188   1.135   0.647
 7523SOL     OW23467   5.879   0.031   6.046
 7523SOL    HW123468   5.877   0.116   5.994
 7523SOL    HW223469   5.892   0.051   6.143
 7524SOL     OW23470   0.261   1.914   5.537
 7524SOL    HW123471   0.216   1.989   5.585
 7524SOL    HW223472   0.360   1.929   5.535
 7525SOL     OW23473   1.421   0.695   6.963
 7525SOL    HW123474   1.500   0.747   6.994
 7525SOL    HW223475   1.359   0.680   0.019
 7526SOL     OW23476   3.634   2.874   4.432
 7526SOL    HW123477   3.691   2.807   4.480
 7526SOL    HW223478   3.661   2.880   4.337
 7527SOL     OW23479   5.340   3.963   2.570
 7527SOL    HW123480   5.419   3.996   2.623
 7527SOL    HW223481   5.258   3.967   2.626
 7528SOL     OW23482   4.550   2.810   6.850
 7528SOL    HW123483   4.610   2.765   6.917
 7528SOL    HW223484   4.549   2.758   6.765
 7529SOL     OW23485   4.167   1.174   4.803
 7529SOL    HW123486   4.148   1.143   4.710
 7529SOL    HW223487   4.227   1.109   4.849
 7530SOL     OW23488   0.092   4.110   2.454
 7530SOL    HW123489   0.094   4.154   2.543
 7530SOL    HW223490   0.185   4.108   2.415
 7531SOL     OW23491   4.294   1.902   3.585
 7531SOL    HW123492   4.385   1.939   3.607
 7531SOL    HW223493   4.287   1.808   3.619
 7532SOL     OW23494   5.545   5.759   2.030
 7532SOL    HW123495   5.473   5.700   1.995
 7532SOL    HW223496   5.543   5.847   1.982
 7533SOL     OW23497   3.185   1.308   4.567
 7533SOL    HW123498   3.275   1.303   4.523
 7533SOL    HW223499   3.131   1.380   4.524
 7534SOL     OW23500   4.001   6.028   5.388
 7534SOL    HW123501   4.067   6.061   5.320
 7534SOL    HW223502   3.974   6.103   5.448
 7535SOL     OW23503   2.818   2.481   5.793
 7535SOL    HW123504   2.845   2.512   5.884
 7535SOL    HW223505   2.865   2.395   5.772
 7536SOL     OW23506   4.437   5.509   4.438
 7536SOL    HW123507   4.409   5.471   4.527
 7536SOL    HW223508   4.401   5.602   4.429
 7537SOL     OW23509   1.991   5.001   5.216
 7537SOL    HW123510   2.070   4.981   5.274
 7537SOL    HW223511   1.911   5.021   5.273
 7538SOL     OW23512   3.183   2.959   3.000
 7538SOL    HW123513   3.274   2.920   2.982
 7538SOL    HW223514   3.163   2.950   3.098
 7539SOL     OW23515   1.967   2.900   5.189
 7539SOL    HW123516   1.988   2.807   5.158
 7539SOL    HW223517   2.051   2.953   5.194
 7540SOL     OW23518   2.930   1.544   6.558
 7540SOL    HW123519   2.887   1.635   6.554
 7540SOL    HW223520   2.986   1.538   6.640
 7541SOL     OW23521   6.075   2.076   5.036
 7541SOL    HW123522   6.035   2.033   5.117
 7541SOL    HW223523   6.175   2.074   5.042
 7542SOL     OW23524   1.126   6.866   5.853
 7542SOL    HW123525   1.136   6.769   5.829
 7542SOL    HW223526   1.103   6.874   5.950
 7543SOL     OW23527   3.985   3.541   0.435
 7543SOL    HW123528   4.071   3.499   0.461
 7543SOL    HW223529   3.940   3.485   0.365
 7544SOL     OW23530   1.427   2.276   3.140
 7544SOL    HW123531   1.492   2.228   3.081
 7544SOL    HW223532   1.339   2.227   3.140
 7545SOL     OW23533   4.934   6.608   3.543
 7545SOL    HW123534   4.911   6.526   3.490
 7545SOL    HW223535   5.009   6.586   3.606
 7546SOL     OW23536   5.256   0.237   0.152
 7546SOL    HW123537   5.239   0.335   0.146
 7546SOL    HW223538   5.209   0.191   0.077
 7547SOL     OW23539   3.676   0.449   0.323
 7547SOL    HW123540   3.666   0.549   0.318
 7547SOL    HW223541   3.624   0.407   0.248
 7548SOL     OW23542   2.606   2.236   1.525
 7548SOL    HW123543   2.510   2.262   1.526
 7548SOL    HW223544   2.656   2.298   1.464
 7549SOL     OW23545   5.276   1.858   2.690
 7549SOL    HW123546   5.182   1.889   2.677
 7549SOL    HW223547   5.330   1.931   2.731
 7550SOL     OW23548   2.059   6.399   2.790
 7550SOL    HW123549   1.967   6.429   2.818
 7550SOL    HW223550   2.051   6.329   2.719
 7551SOL     OW23551   4.496   3.223   6.708
 7551SOL    HW123552   4.412   3.266   6.740
 7551SOL    HW223553   4.546   3.185   6.786
 7552SOL     OW23554   2.452   5.410   4.191
 7552SOL    HW123555   2.383   5.482   4.190
 7552SOL    HW223556   2.522   5.430   4.123
 7553SOL     OW23557   3.742   5.722   6.041
 7553SOL    HW123558   3.766   5.820   6.040
 7553SOL    HW223559   3.826   5.667   6.037
 7554SOL     OW23560   5.250   1.409   0.498
 7554SOL    HW123561   5.281   1.323   0.539
 7554SOL    HW223562   5.151   1.418   0.512
 7555SOL     OW23563   0.115   6.273   4.770
 7555SOL    HW123564   0.148   6.179   4.783
 7555SOL    HW223565   0.103   6.290   4.672
 7556SOL     OW23566   0.774   3.072   4.717
 7556SOL    HW123567   0.699   3.058   4.782
 7556SOL    HW223568   0.830   2.990   4.712
 7557SOL     OW23569   5.343   4.281   6.335
 7557SOL    HW123570   5.393   4.350   6.387
 7557SOL    HW223571   5.398   4.197   6.329
 7558SOL     OW23572   2.145   3.299   3.210
 7558SOL    HW123573   2.208   3.221   3.210
 7558SOL    HW223574   2.051   3.265   3.213
 7559SOL     OW23575   0.550   4.850   0.993
 7559SOL    HW123576   0.484   4.805   0.933
 7559SOL    HW223577   0.604   4.780   1.041
 7560SOL     OW23578   5.630   6.705   0.839
 7560SOL    HW123579   5.619   6.797   0.801
 7560SOL    HW223580   5.719   6.669   0.813
 7561SOL     OW23581   6.679   3.556   0.385
 7561SOL    HW123582   6.747   3.551   0.458
 7561SOL    HW223583   6.587   3.544   0.424
 7562SOL     OW23584   5.296   6.435   5.476
 7562SOL    HW123585   5.321   6.466   5.568
 7562SOL    HW223586   5.317   6.506   5.410
 7563SOL     OW23587   2.917   0.788   1.829
 7563SOL    HW123588   2.826   0.767   1.863
 7563SOL    HW223589   2.980   0.801   1.905
 7564SOL     OW23590   4.974   0.416   3.035
 7564SOL    HW123591   5.061   0.434   2.990
 7564SOL    HW223592   4.910   0.376   2.969
 7565SOL     OW23593   4.606   5.196   6.899
 7565SOL    HW123594   4.605   5.292   6.871
 7565SOL    HW223595   4.701   5.166   6.911
 7566SOL     OW23596   0.652   5.800   4.514
 7566SOL    HW123597   0.632   5.813   4.417
 7566SOL    HW223598   0.685   5.707   4.530
 7567SOL     OW23599   2.632   4.827   6.053
 7567SOL    HW123600   2.553   4.887   6.041
 7567SOL    HW223601   2.631   4.788   6.145
 7568SOL     OW23602   5.320   5.974   2.952
 7568SOL    HW123603   5.409   5.941   2.922
 7568SOL    HW223604   5.317   6.074   2.945
 7569SOL     OW23605   4.148   5.700   7.008
 7569SOL    HW123606   4.065   5.645   7.011
 7569SOL    HW223607   4.193   5.689   6.919
 7570SOL     OW23608   5.757   5.302   3.991
 7570SOL    HW123609   5.766   5.306   3.892
 7570SOL    HW223610   5.756   5.206   4.021
 7571SOL     OW23611   5.767   3.917   1.099
 7571SOL    HW123612   5.820   3.845   1.054
 7571SOL    HW223613   5.698   3.875   1.158
 7572SOL     OW23614   3.827   1.137   4.297
 7572SOL    HW123615   3.824   1.038   4.284
 7572SOL    HW223616   3.777   1.162   4.379
 7573SOL     OW23617   0.085   6.267   4.490
 7573SOL    HW123618   0.103   6.170   4.474
 7573SOL    HW223619   7.018   6.291   4.450
 7574SOL     OW23620   5.428   0.088   3.286
 7574SOL    HW123621   5.410   0.158   3.355
 7574SOL    HW223622   5.346   0.034   3.271
 7575SOL     OW23623   4.064   1.320   5.521
 7575SOL    HW123624   3.981   1.265   5.536
 7575SOL    HW223625   4.049   1.412   5.555
 7576SOL     OW23626   6.355   3.742   7.015
 7576SOL    HW123627   6.405   3.790   6.943
 7576SOL    HW223628   6.279   3.800   0.025
 7577SOL     OW23629   6.577   1.013   5.076
 7577SOL    HW123630   6.506   1.010   5.005
 7577SOL    HW223631   6.534   1.007   5.166
 7578SOL     OW23632   2.111   5.820   4.947
 7578SOL    HW123633   2.135   5.909   4.909
 7578SOL    HW223634   2.188   5.786   5.002
 7579SOL     OW23635   3.792   1.713   2.759
 7579SOL    HW123636   3.816   1.810   2.767
 7579SOL    HW223637   3.764   1.679   2.849
 7580SOL     OW23638   1.629   4.181   2.928
 7580SOL    HW123639   1.572   4.102   2.950
 7580SOL    HW223640   1.708   4.152   2.875
 7581SOL     OW23641   5.104   1.604   0.868
 7581SOL    HW123642   5.123   1.506   0.860
 7581SOL    HW223643   5.090   1.643   0.777
 7582SOL     OW23644   3.443   1.753   1.302
 7582SOL    HW123645   3.363   1.813   1.313
 7582SOL    HW223646   3.520   1.806   1.267
 7583SOL     OW23647   5.931   3.360   1.633
 7583SOL    HW123648   5.877   3.410   1.700
 7583SOL    HW223649   6.007   3.417   1.602
 7584SOL     OW23650   2.725   6.814   1.211
 7584SOL    HW123651   2.808   6.762   1.194
 7584SOL    HW223652   2.748   6.906   1.242
 7585SOL     OW23653   1.632   4.815   6.570
 7585SOL    HW123654   1.599   4.867   6.491
 7585SOL    HW223655   1.621   4.717   6.551
 7586SOL     OW23656   2.728   0.279   2.850
 7586SOL    HW123657   2.781   0.255   2.932
 7586SOL    HW223658   2.678   0.199   2.818
 7587SOL     OW23659   0.781   1.721   6.607
 7587SOL    HW123660   0.698   1.732   6.552
 7587SOL    HW223661   0.856   1.770   6.563
 7588SOL     OW23662   0.370   4.959   2.779
 7588SOL    HW123663   0.400   5.038   2.833
 7588SOL    HW223664   0.422   4.878   2.805
 7589SOL     OW23665   6.026   5.828   0.507
 7589SOL    HW123666   6.063   5.902   0.451
 7589SOL    HW223667   5.999   5.865   0.596
 7590SOL     OW23668   2.687   2.031   5.783
 7590SOL    HW123669   2.772   1.979   5.788
 7590SOL    HW223670   2.625   2.000   5.856
 7591SOL     OW23671   0.089   5.082   6.912
 7591SOL    HW123672   0.078   5.180   6.892
 7591SOL    HW223673   7.021   5.038   6.913
 7592SOL     OW23674   6.642   5.170   6.884
 7592SOL    HW123675   6.658   5.267   6.862
 7592SOL    HW223676   6.602   5.124   6.805
 7593SOL     OW23677   4.788   2.197   6.703
 7593SOL    HW123678   4.739   2.174   6.787
 7593SOL    HW223679   4.883   2.219   6.724
 7594SOL     OW23680   0.877   6.176   3.843
 7594SOL    HW123681   0.859   6.255   3.901
 7594SOL    HW223682   0.967   6.185   3.800
 7595SOL     OW23683   6.783   3.245   6.497
 7595SOL    HW123684   6.782   3.283   6.404
 7595SOL    HW223685   6.769   3.146   6.493
 7596SOL     OW23686   4.989   4.365   2.166
 7596SOL    HW123687   5.059   4.296   2.145
 7596SOL    HW223688   4.898   4.325   2.155
 7597SOL     OW23689   3.388   5.274   1.527
 7597SOL    HW123690   3.294   5.275   1.561
 7597SOL    HW223691   3.387   5.255   1.429
 7598SOL     OW23692   6.957   0.316   2.935
 7598SOL    HW123693   6.890   0.361   2.876
 7598SOL    HW223694   6.913   0.293   3.022
 7599SOL     OW23695   6.299   1.793   3.645
 7599SOL    HW123696   6.313   1.891   3.657
 7599SOL    HW223697   6.360   1.759   3.573
 7600SOL     OW23698   1.395   0.700   2.328
 7600SOL    HW123699   1.381   0.608   2.293
 7600SOL    HW223700   1.405   0.697   2.427
 7601SOL     OW23701   1.879   6.192   4.041
 7601SOL    HW123702   1.905   6.247   4.121
 7601SOL    HW223703   1.791   6.148   4.058
 7602SOL     OW23704   1.467   4.348   4.739
 7602SOL    HW123705   1.448   4.442   4.766
 7602SOL    HW223706   1.417   4.285   4.799
 7603SOL     OW23707   0.906   6.115   0.514
 7603SOL    HW123708   0.904   6.053   0.436
 7603SOL    HW223709   0.999   6.150   0.526
 7604SOL     OW23710   3.916   5.970   4.787
 7604SOL    HW123711   3.910   5.979   4.687
 7604SOL    HW223712   3.987   5.904   4.811
 7605SOL     OW23713   0.524   4.657   6.940
 7605SOL    HW123714   0.441   4.634   6.992
 7605SOL    HW223715   0.568   4.736   6.981
 7606SOL     OW23716   6.744   2.593   2.355
 7606SOL    HW123717   6.748   2.678   2.408
 7606SOL    HW223718   6.722   2.517   2.416
 7607SOL     OW23719   5.082   6.851   6.605
 7607SOL    HW123720   5.050   6.900   6.523
 7607SOL    HW223721   5.008   6.793   6.640
 7608SOL     OW23722   2.935   3.356   3.888
 7608SOL    HW123723   2.945   3.312   3.799
 7608SOL    HW223724   2.914   3.453   3.875
 7609SOL     OW23725   0.778   3.686   3.871
 7609SOL    HW123726   0.754   3.746   3.947
 7609SOL    HW223727   0.871   3.705   3.841
 7610SOL     OW23728   5.490   0.248   1.040
 7610SOL    HW123729   5.445   0.180   1.098
 7610SOL    HW223730   5.441   0.335   1.047
 7611SOL     OW23731   0.946   2.240   0.188
 7611SOL    HW123732   0.873   2.267   0.126
 7611SOL    HW223733   1.034   2.247   0.140
 7612SOL     OW23734   4.067   1.694   4.374
 7612SOL    HW123735   3.995   1.651   4.320
 7612SOL    HW223736   4.065   1.793   4.359
 7613SOL     OW23737   4.871   1.036   1.707
 7613SOL    HW123738   4.942   1.079   1.651
 7613SOL    HW223739   4.806   1.105   1.738
 7614SOL     OW23740   3.846   1.757   1.332
 7614SOL    HW123741   3.891   1.692   1.270
 7614SOL    HW223742   3.778   1.810   1.282
 7615SOL     OW23743   3.859   5.342   6.445
 7615SOL    HW123744   3.913   5.258   6.439
 7615SOL    HW223745   3.832   5.357   6.541
 7616SOL     OW23746   6.986   4.044   3.734
 7616SOL    HW123747   6.941   4.060   3.646
 7616SOL    HW223748   6.918   4.011   3.800
 7617SOL     OW23749   3.092   5.209   3.493
 7617SOL    HW123750   3.115   5.306   3.499
 7617SOL    HW223751   3.146   5.167   3.420
 7618SOL     OW23752   1.676   2.321   6.802
 7618SOL    HW123753   1.608   2.374   6.751
 7618SOL    HW223754   1.679   2.227   6.766
 7619SOL     OW23755   5.784   3.127   5.367
 7619SOL    HW123756   5.691   3.116   5.331
 7619SOL    HW223757   5.831   3.038   5.365
 7620SOL     OW23758   3.970   6.920   0.649
 7620SOL    HW123759   3.985   6.876   0.738
 7620SOL    HW223760   4.041   6.893   0.585
 7621SOL     OW23761   2.078   1.011   1.026
 7621SOL    HW123762   2.110   0.919   1.050
 7621SOL    HW223763   2.155   1.073   1.019
 7622SOL     OW23764   4.333   3.095   0.856
 7622SOL    HW123765   4.383   3.008   0.858
 7622SOL    HW223766   4.237   3.078   0.880
 7623SOL     OW23767   4.383   6.236   6.673
 7623SOL    HW123768   4.320   6.314   6.680
 7623SOL    HW223769   4.464   6.253   6.730
 7624SOL     OW23770   0.662   1.951   3.004
 7624SOL    HW123771   0.666   1.966   3.103
 7624SOL    HW223772   0.589   1.885   2.983
 7625SOL     OW23773   5.385   0.486   1.087
 7625SOL    HW123774   5.355   0.529   1.172
 7625SOL    HW223775   5.315   0.500   1.016
 7626SOL     OW23776   1.368   6.691   4.857
 7626SOL    HW123777   1.378   6.663   4.952
 7626SOL    HW223778   1.275   6.671   4.826
 7627SOL     OW23779   6.433   2.997   0.970
 7627SOL    HW123780   6.366   2.970   1.039
 7627SOL    HW223781   6.480   3.080   1.001
 7628SOL     OW23782   2.656   1.067   1.255
 7628SOL    HW123783   2.594   0.996   1.287
 7628SOL    HW223784   2.609   1.155   1.256
 7629SOL     OW23785   6.791   5.921   2.501
 7629SOL    HW123786   6.825   5.829   2.517
 7629SOL    HW223787   6.700   5.931   2.541
 7630SOL     OW23788   6.323   0.245   2.300
 7630SOL    HW123789   6.400   0.295   2.340
 7630SOL    HW223790   6.289   0.178   2.367
 7631SOL     OW23791   0.650   2.140   4.986
 7631SOL    HW123792   0.686   2.149   4.893
 7631SOL    HW223793   0.698   2.205   5.046
 7632SOL     OW23794   4.312   2.260   0.716
 7632SOL    HW123795   4.233   2.265   0.655
 7632SOL    HW223796   4.281   2.232   0.807
 7633SOL     OW23797   5.572   3.240   6.661
 7633SOL    HW123798   5.484   3.195   6.676
 7633SOL    HW223799   5.557   3.336   6.641
 7634SOL     OW23800   1.690   0.740   2.328
 7634SOL    HW123801   1.750   0.819   2.338
 7634SOL    HW223802   1.595   0.771   2.317
 7635SOL     OW23803   2.469   5.545   6.085
 7635SOL    HW123804   2.451   5.633   6.041
 7635SOL    HW223805   2.481   5.559   6.183
 7636SOL     OW23806   1.082   1.111   4.047
 7636SOL    HW123807   1.024   1.165   3.986
 7636SOL    HW223808   1.175   1.107   4.010
 7637SOL     OW23809   1.299   0.105   4.357
 7637SOL    HW123810   1.233   0.179   4.341
 7637SOL    HW223811   1.264   0.020   4.317
 7638SOL     OW23812   5.173   5.533   1.979
 7638SOL    HW123813   5.268   5.553   1.955
 7638SOL    HW223814   5.112   5.567   1.907
 7639SOL     OW23815   1.086   1.839   5.716
 7639SOL    HW123816   1.069   1.756   5.770
 7639SOL    HW223817   1.179   1.836   5.680
 7640SOL     OW23818   2.489   2.224   1.014
 7640SOL    HW123819   2.537   2.263   1.092
 7640SOL    HW223820   2.390   2.237   1.026
 7641SOL     OW23821   6.596   4.454   2.316
 7641SOL    HW123822   6.688   4.423   2.336
 7641SOL    HW223823   6.547   4.383   2.266
 7642SOL     OW23824   2.680   2.021   2.546
 7642SOL    HW123825   2.640   1.965   2.474
 7642SOL    HW223826   2.698   1.964   2.627
 7643SOL     OW23827   4.584   2.519   2.851
 7643SOL    HW123828   4.664   2.467   2.881
 7643SOL    HW223829   4.566   2.498   2.754
 7644SOL     OW23830   0.312   2.916   3.430
 7644SOL    HW123831   0.374   2.879   3.361
 7644SOL    HW223832   0.225   2.866   3.426
 7645SOL     OW23833   4.435   4.795   0.212
 7645SOL    HW123834   4.371   4.759   0.144
 7645SOL    HW223835   4.526   4.800   0.172
 7646SOL     OW23836   2.357   1.846   2.109
 7646SOL    HW123837   2.314   1.795   2.035
 7646SOL    HW223838   2.333   1.804   2.197
 7647SOL     OW23839   1.677   3.450   1.562
 7647SOL    HW123840   1.719   3.516   1.624
 7647SOL    HW223841   1.695   3.479   1.467
 7648SOL     OW23842   4.480   1.639   3.893
 7648SOL    HW123843   4.537   1.623   3.812
 7648SOL    HW223844   4.453   1.736   3.895
 7649SOL     OW23845   2.185   0.839   2.391
 7649SOL    HW123846   2.190   0.772   2.466
 7649SOL    HW223847   2.273   0.885   2.381
 7650SOL     OW23848   0.004   3.749   2.348
 7650SOL    HW123849   6.958   3.823   2.338
 7650SOL    HW223850   0.090   3.787   2.383
 7651SOL     OW23851   3.021   0.130   7.000
 7651SOL    HW123852   3.080   0.112   0.058
 7651SOL    HW223853   3.060   0.085   6.919
 7652SOL     OW23854   6.754   3.581   3.670
 7652SOL    HW123855   6.804   3.632   3.600
 7652SOL    HW223856   6.671   3.542   3.630
 7653SOL     OW23857   2.521   2.096   1.274
 7653SOL    HW123858   2.459   2.051   1.209
 7653SOL    HW223859   2.526   2.042   1.358
 7654SOL     OW23860   4.850   2.996   3.945
 7654SOL    HW123861   4.880   3.006   3.850
 7654SOL    HW223862   4.799   2.910   3.955
 7655SOL     OW23863   3.120   6.989   4.935
 7655SOL    HW123864   3.138   7.004   4.837
 7655SOL    HW223865   3.045   6.924   4.946
 7656SOL     OW23866   6.784   6.310   5.146
 7656SOL    HW123867   6.721   6.278   5.216
 7656SOL    HW223868   6.812   6.404   5.167
 7657SOL     OW23869   2.759   2.356   3.690
 7657SOL    HW123870   2.787   2.347   3.785
 7657SOL    HW223871   2.669   2.315   3.677
 7658SOL     OW23872   4.719   0.618   5.860
 7658SOL    HW123873   4.644   0.649   5.918
 7658SOL    HW223874   4.682   0.568   5.781
 7659SOL     OW23875   6.781   0.171   0.934
 7659SOL    HW123876   6.852   0.116   0.890
 7659SOL    HW223877   6.718   0.110   0.983
 7660SOL     OW23878   5.361   5.233   2.829
 7660SOL    HW123879   5.420   5.314   2.822
 7660SOL    HW223880   5.328   5.224   2.923
 7661SOL     OW23881   5.982   2.641   4.047
 7661SOL    HW123882   5.958   2.624   4.143
 7661SOL    HW223883   6.057   2.707   4.042
 7662SOL     OW23884   1.548   3.336   2.236
 7662SOL    HW123885   1.485   3.265   2.267
 7662SOL    HW223886   1.625   3.343   2.299
 7663SOL     OW23887   0.690   5.219   6.246
 7663SOL    HW123888   0.675   5.150   6.318
 7663SOL    HW223889   0.787   5.243   6.243
 7664SOL     OW23890   2.539   6.531   3.296
 7664SOL    HW123891   2.441   6.511   3.295
 7664SOL    HW223892   2.556   6.619   3.252
 7665SOL     OW23893   2.900   0.919   4.567
 7665SOL    HW123894   2.809   0.900   4.604
 7665SOL    HW223895   2.940   0.835   4.530
 7666SOL     OW23896   0.906   0.174   1.247
 7666SOL    HW123897   0.831   0.110   1.265
 7666SOL    HW223898   0.934   0.218   1.332
 7667SOL     OW23899   4.997   6.376   6.812
 7667SOL    HW123900   4.967   6.404   6.721
 7667SOL    HW223901   4.963   6.441   6.880
 7668SOL     OW23902   3.580   4.510   1.245
 7668SOL    HW123903   3.491   4.534   1.284
 7668SOL    HW223904   3.592   4.411   1.246
 7669SOL     OW23905   4.821   0.191   3.840
 7669SOL    HW123906   4.848   0.259   3.907
 7669SOL    HW223907   4.721   0.191   3.831
 7670SOL     OW23908   1.315   5.560   0.195
 7670SOL    HW123909   1.354   5.652   0.191
 7670SOL    HW223910   1.255   5.552   0.275
 7671SOL     OW23911   5.597   1.137   4.591
 7671SOL    HW123912   5.681   1.176   4.627
 7671SOL    HW223913   5.532   1.211   4.571
 7672SOL     OW23914   5.662   0.445   4.058
 7672SOL    HW123915   5.606   0.527   4.046
 7672SOL    HW223916   5.621   0.369   4.006
 7673SOL     OW23917   0.902   4.829   1.173
 7673SOL    HW123918   0.947   4.764   1.234
 7673SOL    HW223919   0.816   4.789   1.141
 7674SOL     OW23920   6.588   2.065   4.378
 7674SOL    HW123921   6.644   2.024   4.306
 7674SOL    HW223922   6.560   2.157   4.350
 7675SOL     OW23923   4.651   0.229   1.961
 7675SOL    HW123924   4.662   0.145   1.906
 7675SOL    HW223925   4.699   0.304   1.916
 7676SOL     OW23926   1.165   0.871   6.424
 7676SOL    HW123927   1.175   0.911   6.333
 7676SOL    HW223928   1.159   0.944   6.492
 7677SOL     OW23929   2.087   3.567   2.448
 7677SOL    HW123930   2.095   3.497   2.520
 7677SOL    HW223931   2.091   3.523   2.359
 7678SOL     OW23932   0.822   0.961   0.122
 7678SOL    HW123933   0.882   1.039   0.132
 7678SOL    HW223934   0.856   0.900   0.051
 7679SOL     OW23935   1.058   5.356   4.921
 7679SOL    HW123936   0.964   5.389   4.922
 7679SOL    HW223937   1.119   5.427   4.957
 7680SOL     OW23938   3.405   3.484   6.680
 7680SOL    HW123939   3.325   3.514   6.627
 7680SOL    HW223940   3.400   3.523   6.772
 7681SOL     OW23941   2.243   1.707   0.147
 7681SOL    HW123942   2.342   1.720   0.156
 7681SOL    HW223943   2.198   1.738   0.230
 7682SOL     OW23944   3.067   0.083   1.802
 7682SOL    HW123945   3.159   0.076   1.842
 7682SOL    HW223946   3.022   7.015   1.805
 7683SOL     OW23947   6.073   1.899   2.893
 7683SOL    HW123948   6.124   1.862   2.815
 7683SOL    HW223949   6.114   1.866   2.978
 7684SOL     OW23950   4.999   2.042   6.130
 7684SOL    HW123951   5.089   2.028   6.171
 7684SOL    HW223952   5.001   2.010   6.035
 7685SOL     OW23953   3.447   2.853   0.775
 7685SOL    HW123954   3.447   2.910   0.692
 7685SOL    HW223955   3.519   2.884   0.837
 7686SOL     OW23956   4.783   6.832   3.346
 7686SOL    HW123957   4.809   6.744   3.306
 7686SOL    HW223958   4.784   6.825   3.446
 7687SOL     OW23959   5.149   5.012   5.304
 7687SOL    HW123960   5.055   4.999   5.274
 7687SOL    HW223961   5.209   4.947   5.257
 7688SOL     OW23962   6.949   6.839   5.062
 7688SOL    HW123963   6.889   6.761   5.080
 7688SOL    HW223964   6.951   6.858   4.964
 7689SOL     OW23965   4.246   6.030   4.607
 7689SOL    HW123966   4.297   6.080   4.676
 7689SOL    HW223967   4.216   5.942   4.645
 7690SOL     OW23968   5.584   4.116   2.676
 7690SOL    HW123969   5.656   4.152   2.617
 7690SOL    HW223970   5.598   4.150   2.769
 7691SOL     OW23971   5.087   2.314   3.924
 7691SOL    HW123972   5.140   2.354   3.999
 7691SOL    HW223973   5.131   2.335   3.837
 7692SOL     OW23974   1.637   6.182   1.808
 7692SOL    HW123975   1.582   6.265   1.800
 7692SOL    HW223976   1.701   6.192   1.884
 7693SOL     OW23977   4.045   1.126   5.919
 7693SOL    HW123978   4.032   1.223   5.897
 7693SOL    HW223979   4.072   1.117   6.015
 7694SOL     OW23980   7.014   4.870   4.076
 7694SOL    HW123981   6.982   4.850   4.169
 7694SOL    HW223982   0.086   4.906   4.080
 7695SOL     OW23983   4.588   6.977   0.750
 7695SOL    HW123984   4.537   0.042   0.746
 7695SOL    HW223985   4.525   6.901   0.739
 7696SOL     OW23986   0.214   2.143   4.387
 7696SOL    HW123987   0.178   2.058   4.347
 7696SOL    HW223988   0.139   2.195   4.427
 7697SOL     OW23989   2.133   1.567   3.541
 7697SOL    HW123990   2.231   1.548   3.532
 7697SOL    HW223991   2.120   1.655   3.586
 7698SOL     OW23992   6.841   2.783   4.548
 7698SOL    HW123993   6.756   2.803   4.501
 7698SOL    HW223994   6.823   2.721   4.625
 7699SOL     OW23995   2.709   5.700   0.822
 7699SOL    HW123996   2.730   5.745   0.909
 7699SOL    HW223997   2.794   5.679   0.774
 7700SOL     OW23998   4.750   6.714   4.884
 7700SOL    HW123999   4.740   6.723   4.785
 7700SOL    HW224000   4.717   6.624   4.913
 7701SOL     OW24001   0.195   1.051   5.397
 7701SOL    HW124002   0.200   1.056   5.497
 7701SOL    HW224003   0.135   1.124   5.364
 7702SOL     OW24004   3.049   6.248   5.822
 7702SOL    HW124005   3.000   6.206   5.746
 7702SOL    HW224006   3.079   6.178   5.886
 7703SOL     OW24007   0.451   1.204   5.403
 7703SOL    HW124008   0.414   1.116   5.374
 7703SOL    HW224009   0.395   1.279   5.367
 7704SOL     OW24010   4.297   4.604   0.028
 7704SOL    HW124011   4.231   4.557   6.991
 7704SOL    HW224012   4.299   4.562   0.118
 7705SOL     OW24013   3.953   4.990   5.209
 7705SOL    HW124014   3.920   4.962   5.119
 7705SOL    HW224015   4.039   5.040   5.200
 7706SOL     OW24016   6.239   0.244   5.415
 7706SOL    HW124017   6.283   0.329   5.384
 7706SOL    HW224018   6.205   0.257   5.508
 7707SOL     OW24019   6.932   5.609   6.433
 7707SOL    HW124020   7.020   5.629   6.476
 7707SOL    HW224021   6.859   5.658   6.482
 7708SOL     OW24022   4.431   6.312   4.134
 7708SOL    HW124023   4.447   6.381   4.063
 7708SOL    HW224024   4.334   6.315   4.161
 7709SOL     OW24025   4.481   2.500   1.626
 7709SOL    HW124026   4.494   2.520   1.723
 7709SOL    HW224027   4.392   2.458   1.612
 7710SOL     OW24028   3.118   7.018   0.658
 7710SOL    HW124029   3.051   0.067   0.635
 7710SOL    HW224030   3.075   6.950   0.718
 7711SOL     OW24031   5.758   5.925   5.859
 7711SOL    HW124032   5.782   6.004   5.915
 7711SOL    HW224033   5.670   5.941   5.814
 7712SOL     OW24034   6.428   4.824   1.206
 7712SOL    HW124035   6.392   4.868   1.124
 7712SOL    HW224036   6.528   4.818   1.199
 7713SOL     OW24037   1.671   4.355   6.644
 7713SOL    HW124038   1.610   4.408   6.586
 7713SOL    HW224039   1.730   4.297   6.587
 7714SOL     OW24040   6.020   4.307   4.167
 7714SOL    HW124041   5.978   4.229   4.120
 7714SOL    HW224042   5.995   4.392   4.119
 7715SOL     OW24043   5.332   0.393   1.494
 7715SOL    HW124044   5.334   0.324   1.566
 7715SOL    HW224045   5.237   0.422   1.479
 7716SOL     OW24046   4.849   2.305   2.384
 7716SOL    HW124047   4.784   2.353   2.324
 7716SOL    HW224048   4.942   2.333   2.360
 7717SOL     OW24049   2.811   1.567   5.104
 7717SOL    HW124050   2.822   1.648   5.162
 7717SOL    HW224051   2.722   1.524   5.123
 7718SOL     OW24052   2.413   1.192   3.174
 7718SOL    HW124053   2.413   1.108   3.119
 7718SOL    HW224054   2.432   1.169   3.270
 7719SOL     OW24055   0.021   2.318   4.469
 7719SOL    HW124056   0.085   2.385   4.505
 7719SOL    HW224057   6.964   2.365   4.428
 7720SOL     OW24058   6.478   6.395   1.012
 7720SOL    HW124059   6.576   6.404   0.997
 7720SOL    HW224060   6.461   6.327   1.083
 7721SOL     OW24061   2.411   4.512   3.297
 7721SOL    HW124062   2.509   4.503   3.315
 7721SOL    HW224063   2.363   4.433   3.334
 7722SOL     OW24064   6.102   4.876   2.708
 7722SOL    HW124065   6.187   4.875   2.761
 7722SOL    HW224066   6.067   4.782   2.700
 7723SOL     OW24067   0.139   3.090   0.562
 7723SOL    HW124068   0.101   3.035   0.637
 7723SOL    HW224069   0.064   3.138   0.516
 7724SOL     OW24070   1.584   4.279   1.116
 7724SOL    HW124071   1.567   4.377   1.115
 7724SOL    HW224072   1.500   4.230   1.093
 7725SOL     OW24073   5.765   2.651   3.452
 7725SOL    HW124074   5.693   2.698   3.401
 7725SOL    HW224075   5.738   2.644   3.548
 7726SOL     OW24076   0.947   4.008   2.688
 7726SOL    HW124077   0.971   4.081   2.624
 7726SOL    HW224078   0.974   3.919   2.650
 7727SOL     OW24079   6.283   2.919   3.875
 7727SOL    HW124080   6.374   2.890   3.904
 7727SOL    HW224081   6.236   2.843   3.831
 7728SOL     OW24082   1.682   3.266   2.793
 7728SOL    HW124083   1.599   3.221   2.761
 7728SOL    HW224084   1.754   3.198   2.805
 7729SOL     OW24085   5.159   2.068   1.000
 7729SOL    HW124086   5.115   1.978   1.002
 7729SOL    HW224087   5.150   2.112   1.089
 7730SOL     OW24088   4.817   6.109   2.729
 7730SOL    HW124089   4.793   6.179   2.662
 7730SOL    HW224090   4.783   6.020   2.698
 7731SOL     OW24091   6.137   0.820   0.457
 7731SOL    HW124092   6.037   0.818   0.457
 7731SOL    HW224093   6.171   0.802   0.365
 7732SOL     OW24094   4.903   5.535   0.556
 7732SOL    HW124095   4.921   5.437   0.548
 7732SOL    HW224096   4.915   5.578   0.466
 7733SOL     OW24097   3.683   0.600   1.620
 7733SOL    HW124098   3.639   0.523   1.574
 7733SOL    HW224099   3.619   0.676   1.626
 7734SOL     OW24100   1.343   2.754   3.633
 7734SOL    HW124101   1.397   2.687   3.581
 7734SOL    HW224102   1.248   2.725   3.637
 7735SOL     OW24103   5.298   4.427   6.802
 7735SOL    HW124104   5.215   4.432   6.858
 7735SOL    HW224105   5.290   4.351   6.738
 7736SOL     OW24106   5.439   4.139   6.937
 7736SOL    HW124107   5.342   4.158   6.957
 7736SOL    HW224108   5.474   4.073   7.003
 7737SOL     OW24109   4.571   1.908   0.368
 7737SOL    HW124110   4.569   1.988   0.427
 7737SOL    HW224111   4.500   1.843   0.397
 7738SOL     OW24112   2.926   5.625   0.670
 7738SOL    HW124113   2.907   5.578   0.583
 7738SOL    HW224114   3.024   5.627   0.686
 7739SOL     OW24115   0.707   2.529   1.157
 7739SOL    HW124116   0.766   2.592   1.207
 7739SOL    HW224117   0.687   2.566   1.066
 7740SOL     OW24118   0.065   0.243   2.420
 7740SOL    HW124119   7.001   0.217   2.374
 7740SOL    HW224120   0.050   0.246   2.519
 7741SOL     OW24121   2.109   6.182   3.879
 7741SOL    HW124122   2.023   6.198   3.927
 7741SOL    HW224123   2.177   6.146   3.943
 7742SOL     OW24124   5.958   2.095   3.247
 7742SOL    HW124125   5.859   2.105   3.240
 7742SOL    HW224126   5.981   2.003   3.279
 7743SOL     OW24127   4.728   2.828   5.249
 7743SOL    HW124128   4.741   2.740   5.293
 7743SOL    HW224129   4.634   2.859   5.262
 7744SOL     OW24130   6.194   6.769   3.808
 7744SOL    HW124131   6.097   6.760   3.786
 7744SOL    HW224132   6.238   6.679   3.805
 7745SOL     OW24133   3.299   2.416   6.477
 7745SOL    HW124134   3.358   2.494   6.501
 7745SOL    HW224135   3.319   2.387   6.383
 7746SOL     OW24136   1.905   6.997   0.287
 7746SOL    HW124137   1.963   6.916   0.291
 7746SOL    HW224138   1.860   7.011   0.375
 7747SOL     OW24139   5.528   6.202   0.785
 7747SOL    HW124140   5.510   6.147   0.867
 7747SOL    HW224141   5.467   6.173   0.711
 7748SOL     OW24142   2.359   4.056   6.345
 7748SOL    HW124143   2.274   4.099   6.314
 7748SOL    HW224144   2.404   4.012   6.267
 7749SOL     OW24145   5.367   2.952   5.384
 7749SOL    HW124146   5.276   2.911   5.379
 7749SOL    HW224147   5.366   3.029   5.448
 7750SOL     OW24148   0.365   5.643   1.846
 7750SOL    HW124149   0.349   5.647   1.748
 7750SOL    HW224150   0.426   5.717   1.874
 7751SOL     OW24151   0.622   2.424   1.553
 7751SOL    HW124152   0.636   2.378   1.641
 7751SOL    HW224153   0.696   2.400   1.490
 7752SOL     OW24154   4.630   1.135   4.756
 7752SOL    HW124155   4.559   1.150   4.687
 7752SOL    HW224156   4.675   1.048   4.739
 7753SOL     OW24157   2.288   1.330   5.458
 7753SOL    HW124158   2.384   1.359   5.450
 7753SOL    HW224159   2.243   1.386   5.528
 7754SOL     OW24160   4.212   6.114   1.893
 7754SOL    HW124161   4.206   6.032   1.949
 7754SOL    HW224162   4.257   6.092   1.806
 7755SOL     OW24163   1.336   4.243   6.125
 7755SOL    HW124164   1.264   4.175   6.110
 7755SOL    HW224165   1.413   4.224   6.064
 7756SOL     OW24166   2.934   6.277   1.528
 7756SOL    HW124167   2.980   6.189   1.541
 7756SOL    HW224168   2.856   6.265   1.466
 7757SOL     OW24169   0.344   4.522   3.062
 7757SOL    HW124170   0.310   4.474   3.143
 7757SOL    HW224171   0.432   4.483   3.035
 7758SOL     OW24172   1.630   0.661   5.243
 7758SOL    HW124173   1.551   0.708   5.281
 7758SOL    HW224174   1.680   0.614   5.316
 7759SOL     OW24175   3.244   2.033   6.476
 7759SOL    HW124176   3.207   2.052   6.567
 7759SOL    HW224177   3.240   1.935   6.458
 7760SOL     OW24178   4.502   3.103   1.107
 7760SOL    HW124179   4.590   3.067   1.074
 7760SOL    HW224180   4.468   3.170   1.041
 7761SOL     OW24181   4.533   5.573   4.769
 7761SOL    HW124182   4.438   5.592   4.790
 7761SOL    HW224183   4.573   5.652   4.722
 7762SOL     OW24184   6.680   0.523   3.262
 7762SOL    HW124185   6.625   0.595   3.220
 7762SOL    HW224186   6.651   0.510   3.357
 7763SOL     OW24187   2.867   6.961   4.621
 7763SOL    HW124188   2.768   6.959   4.635
 7763SOL    HW224189   2.909   6.887   4.674
 7764SOL     OW24190   2.954   3.922   5.641
 7764SOL    HW124191   2.918   3.844   5.590
 7764SOL    HW224192   3.042   3.950   5.603
 7765SOL     OW24193   6.433   2.946   4.467
 7765SOL    HW124194   6.444   3.046   4.469
 7765SOL    HW224195   6.340   2.922   4.493
 7766SOL     OW24196   0.235   4.327   6.849
 7766SOL    HW124197   0.136   4.327   6.868
 7766SOL    HW224198   0.272   4.235   6.862
 7767SOL     OW24199   2.725   0.976   3.162
 7767SOL    HW124200   2.706   1.015   3.072
 7767SOL    HW224201   2.685   1.034   3.233
 7768SOL     OW24202   4.626   4.980   3.026
 7768SOL    HW124203   4.680   4.903   2.994
 7768SOL    HW224204   4.635   4.989   3.126
 7769SOL     OW24205   3.448   2.395   5.318
 7769SOL    HW124206   3.372   2.375   5.257
 7769SOL    HW224207   3.483   2.310   5.357
 7770SOL     OW24208   1.824   3.373   4.787
 7770SOL    HW124209   1.768   3.383   4.705
 7770SOL    HW224210   1.893   3.445   4.790
 7771SOL     OW24211   2.735   2.050   6.168
 7771SOL    HW124212   2.769   2.078   6.257
 7771SOL    HW224213   2.782   2.101   6.096
 7772SOL     OW24214   5.288   0.166   1.630
 7772SOL    HW124215   5.356   0.104   1.668
 7772SOL    HW224216   5.197   0.139   1.662
 7773SOL     OW24217   3.512   5.906   0.288
 7773SOL    HW124218   3.418   5.897   0.257
 7773SOL    HW224219   3.555   5.816   0.291
 7774SOL     OW24220   4.484   1.643   2.567
 7774SOL    HW124221   4.550   1.654   2.641
 7774SOL    HW224222   4.404   1.701   2.584
 7775SOL     OW24223   3.595   0.732   6.759
 7775SOL    HW124224   3.608   0.779   6.846
 7775SOL    HW224225   3.639   0.784   6.686
 7776SOL     OW24226   1.634   1.084   4.838
 7776SOL    HW124227   1.599   1.178   4.840
 7776SOL    HW224228   1.576   1.026   4.896
 7777SOL     OW24229   5.002   5.635   3.422
 7777SOL    HW124230   4.919   5.620   3.475
 7777SOL    HW224231   5.014   5.733   3.406
 7778SOL     OW24232   5.697   4.582   2.792
 7778SOL    HW124233   5.702   4.539   2.701
 7778SOL    HW224234   5.788   4.584   2.833
 7779SOL     OW24235   3.699   5.734   2.282
 7779SOL    HW124236   3.601   5.725   2.264
 7779SOL    HW224237   3.750   5.720   2.197
 7780SOL     OW24238   5.690   5.891   5.052
 7780SOL    HW124239   5.703   5.967   5.115
 7780SOL    HW224240   5.607   5.841   5.075
 7781SOL     OW24241   1.755   2.408   0.430
 7781SOL    HW124242   1.839   2.454   0.402
 7781SOL    HW224243   1.730   2.338   0.362
 7782SOL     OW24244   5.453   4.318   3.177
 7782SOL    HW124245   5.435   4.398   3.119
 7782SOL    HW224246   5.367   4.278   3.207
 7783SOL     OW24247   1.019   0.797   5.289
 7783SOL    HW124248   0.947   0.752   5.237
 7783SOL    HW224249   1.061   0.731   5.352
 7784SOL     OW24250   2.375   2.628   2.858
 7784SOL    HW124251   2.475   2.632   2.862
 7784SOL    HW224252   2.344   2.655   2.766
 7785SOL     OW24253   0.692   6.380   2.409
 7785SOL    HW124254   0.593   6.392   2.407
 7785SOL    HW224255   0.732   6.441   2.478
 7786SOL     OW24256   4.485   0.179   6.394
 7786SOL    HW124257   4.455   0.085   6.382
 7786SOL    HW224258   4.461   0.232   6.313
 7787SOL     OW24259   2.942   2.637   1.230
 7787SOL    HW124260   2.873   2.567   1.244
 7787SOL    HW224261   2.910   2.724   1.266
 7788SOL     OW24262   0.763   4.314   1.463
 7788SOL    HW124263   0.739   4.400   1.419
 7788SOL    HW224264   0.775   4.244   1.393
 7789SOL     OW24265   4.097   1.081   6.183
 7789SOL    HW124266   4.089   1.107   6.280
 7789SOL    HW224267   4.020   1.022   6.158
 7790SOL     OW24268   5.094   4.367   1.640
 7790SOL    HW124269   5.170   4.432   1.632
 7790SOL    HW224270   5.121   4.292   1.701
 7791SOL     OW24271   2.923   5.323   2.711
 7791SOL    HW124272   3.023   5.316   2.702
 7791SOL    HW224273   2.887   5.235   2.743
 7792SOL     OW24274   1.349   1.611   2.279
 7792SOL    HW124275   1.405   1.682   2.236
 7792SOL    HW224276   1.350   1.623   2.378
 7793SOL     OW24277   5.239   0.609   6.347
 7793SOL    HW124278   5.170   0.593   6.417
 7793SOL    HW224279   5.216   0.559   6.264
 7794SOL     OW24280   0.353   6.604   3.526
 7794SOL    HW124281   0.300   6.680   3.490
 7794SOL    HW224282   0.315   6.574   3.614
 7795SOL     OW24283   3.158   5.991   6.602
 7795SOL    HW124284   3.148   5.892   6.606
 7795SOL    HW224285   3.239   6.014   6.548
 7796SOL     OW24286   3.776   3.162   6.104
 7796SOL    HW124287   3.756   3.162   6.006
 7796SOL    HW224288   3.727   3.237   6.148
 7797SOL     OW24289   0.701   6.347   3.068
 7797SOL    HW124290   0.791   6.308   3.050
 7797SOL    HW224291   0.678   6.334   3.165
 7798SOL     OW24292   1.108   2.695   1.018
 7798SOL    HW124293   1.080   2.736   1.105
 7798SOL    HW224294   1.193   2.738   0.987
 7799SOL     OW24295   2.387   5.908   3.689
 7799SOL    HW124296   2.315   5.978   3.688
 7799SOL    HW224297   2.402   5.875   3.596
 7800SOL     OW24298   0.210   6.276   1.623
 7800SOL    HW124299   0.271   6.226   1.683
 7800SOL    HW224300   0.207   6.372   1.651
 7801SOL     OW24301   2.029   2.156   2.088
 7801SOL    HW124302   2.026   2.246   2.044
 7801SOL    HW224303   2.080   2.163   2.174
 7802SOL     OW24304   0.266   3.558   4.694
 7802SOL    HW124305   0.204   3.616   4.746
 7802SOL    HW224306   0.316   3.614   4.628
 7803SOL     OW24307   4.267   2.642   5.615
 7803SOL    HW124308   4.319   2.656   5.699
 7803SOL    HW224309   4.175   2.611   5.638
 7804SOL     OW24310   2.593   2.153   5.544
 7804SOL    HW124311   2.633   2.104   5.620
 7804SOL    HW224312   2.620   2.250   5.549
 7805SOL     OW24313   5.609   3.162   0.305
 7805SOL    HW124314   5.640   3.090   0.367
 7805SOL    HW224315   5.647   3.145   0.214
 7806SOL     OW24316   0.043   2.434   5.647
 7806SOL    HW124317   0.141   2.448   5.662
 7806SOL    HW224318   7.019   2.523   5.640
 7807SOL     OW24319   2.212   4.654   5.827
 7807SOL    HW124320   2.312   4.659   5.819
 7807SOL    HW224321   2.175   4.745   5.844
 7808SOL     OW24322   5.003   3.552   3.309
 7808SOL    HW124323   4.935   3.623   3.325
 7808SOL    HW224324   5.052   3.534   3.394
 7809SOL     OW24325   4.338   5.138   3.139
 7809SOL    HW124326   4.386   5.067   3.190
 7809SOL    HW224327   4.404   5.190   3.085
 7810SOL     OW24328   3.835   6.478   5.325
 7810SOL    HW124329   3.913   6.416   5.316
 7810SOL    HW224330   3.862   6.570   5.295
 7811SOL     OW24331   1.401   5.619   2.971
 7811SOL    HW124332   1.378   5.600   2.875
 7811SOL    HW224333   1.325   5.667   3.015
 7812SOL     OW24334   2.661   2.365   6.396
 7812SOL    HW124335   2.750   2.375   6.439
 7812SOL    HW224336   2.630   2.270   6.404
 7813SOL     OW24337   5.809   1.113   0.906
 7813SOL    HW124338   5.845   1.023   0.884
 7813SOL    HW224339   5.806   1.169   0.823
 7814SOL     OW24340   0.046   2.829   2.145
 7814SOL    HW124341   6.970   2.844   2.129
 7814SOL    HW224342   0.099   2.888   2.084
 7815SOL     OW24343   5.809   3.489   4.934
 7815SOL    HW124344   5.726   3.517   4.885
 7815SOL    HW224345   5.791   3.404   4.985
 7816SOL     OW24346   1.106   1.255   5.138
 7816SOL    HW124347   1.201   1.285   5.142
 7816SOL    HW224348   1.082   1.206   5.222
 7817SOL     OW24349   3.061   3.020   6.484
 7817SOL    HW124350   3.069   3.091   6.413
 7817SOL    HW224351   2.986   2.959   6.462
 7818SOL     OW24352   5.546   1.026   2.185
 7818SOL    HW124353   5.520   1.123   2.181
 7818SOL    HW224354   5.635   1.017   2.230
 7819SOL     OW24355   1.305   4.236   3.785
 7819SOL    HW124356   1.384   4.192   3.740
 7819SOL    HW224357   1.269   4.175   3.855
 7820SOL     OW24358   1.729   0.064   5.698
 7820SOL    HW124359   1.646   0.101   5.739
 7820SOL    HW224360   1.705   7.004   5.644
 7821SOL     OW24361   5.355   5.637   6.124
 7821SOL    HW124362   5.429   5.659   6.060
 7821SOL    HW224363   5.376   5.551   6.171
 7822SOL     OW24364   1.317   1.150   4.513
 7822SOL    HW124365   1.275   1.136   4.424
 7822SOL    HW224366   1.302   1.069   4.570
 7823SOL     OW24367   1.378   3.862   6.160
 7823SOL    HW124368   1.366   3.765   6.184
 7823SOL    HW224369   1.346   3.919   6.235
 7824SOL     OW24370   5.442   2.644   3.017
 7824SOL    HW124371   5.465   2.602   2.929
 7824SOL    HW224372   5.342   2.649   3.027
 7825SOL     OW24373   3.571   3.521   2.218
 7825SOL    HW124374   3.477   3.526   2.183
 7825SOL    HW224375   3.634   3.552   2.148
 7826SOL     OW24376   6.823   0.648   0.520
 7826SOL    HW124377   6.890   0.612   0.455
 7826SOL    HW224378   6.867   0.660   0.609
 7827SOL     OW24379   5.504   4.920   1.655
 7827SOL    HW124380   5.497   4.857   1.732
 7827SOL    HW224381   5.600   4.938   1.635
 7828SOL     OW24382   0.798   6.765   0.937
 7828SOL    HW124383   0.780   6.670   0.910
 7828SOL    HW224384   0.722   6.799   0.993
 7829SOL     OW24385   3.986   2.835   1.579
 7829SOL    HW124386   3.914   2.792   1.524
 7829SOL    HW224387   3.945   2.873   1.662
 7830SOL     OW24388   6.216   2.619   6.710
 7830SOL    HW124389   6.133   2.674   6.704
 7830SOL    HW224390   6.266   2.626   6.624
 7831SOL     OW24391   1.232   3.227   0.431
 7831SOL    HW124392   1.299   3.250   0.502
 7831SOL    HW224393   1.182   3.310   0.405
 7832SOL     OW24394   2.175   2.232   5.705
 7832SOL    HW124395   2.104   2.270   5.646
 7832SOL    HW224396   2.196   2.139   5.677
 7833SOL     OW24397   0.274   0.051   0.148
 7833SOL    HW124398   0.176   0.034   0.142
 7833SOL    HW224399   0.306   0.091   0.062
 7834SOL     OW24400   1.028   0.504   1.130
 7834SOL    HW124401   1.068   0.529   1.218
 7834SOL    HW224402   1.075   0.552   1.056
 7835SOL     OW24403   2.200   3.005   4.829
 7835SOL    HW124404   2.239   3.008   4.737
 7835SOL    HW224405   2.273   2.988   4.895
 7836SOL     OW24406   2.157   6.217   0.440
 7836SOL    HW124407   2.105   6.211   0.525
 7836SOL    HW224408   2.094   6.219   0.362
 7837SOL     OW24409   6.125   0.017   3.064
 7837SOL    HW124410   6.132   6.947   3.104
 7837SOL    HW224411   6.040   0.024   3.012
 7838SOL     OW24412   3.397   0.236   4.666
 7838SOL    HW124413   3.330   0.281   4.607
 7838SOL    HW224414   3.488   0.274   4.647
 7839SOL     OW24415   6.363   4.769   4.334
 7839SOL    HW124416   6.326   4.700   4.398
 7839SOL    HW224417   6.463   4.769   4.339
 7840SOL     OW24418   5.754   2.951   4.607
 7840SOL    HW124419   5.823   2.944   4.535
 7840SOL    HW224420   5.715   2.860   4.625
 7841SOL     OW24421   0.542   1.750   6.501
 7841SOL    HW124422   0.490   1.711   6.425
 7841SOL    HW224423   0.497   1.725   6.587
 7842SOL     OW24424   2.657   0.829   2.834
 7842SOL    HW124425   2.739   0.829   2.777
 7842SOL    HW224426   2.678   0.786   2.922
 7843SOL     OW24427   5.219   3.625   0.786
 7843SOL    HW124428   5.122   3.610   0.804
 7843SOL    HW224429   5.233   3.637   0.688
 7844SOL     OW24430   4.032   0.762   3.379
 7844SOL    HW124431   3.982   0.733   3.297
 7844SOL    HW224432   3.981   0.834   3.425
 7845SOL     OW24433   6.469   1.570   4.204
 7845SOL    HW124434   6.470   1.532   4.297
 7845SOL    HW224435   6.472   1.669   4.209
 7846SOL     OW24436   2.971   6.584   2.152
 7846SOL    HW124437   2.898   6.519   2.134
 7846SOL    HW224438   2.974   6.653   2.079
 7847SOL     OW24439   6.758   0.919   0.456
 7847SOL    HW124440   6.764   0.829   0.498
 7847SOL    HW224441   6.718   0.911   0.365
 7848SOL     OW24442   5.050   3.666   1.958
 7848SOL    HW124443   5.063   3.576   2.000
 7848SOL    HW224444   5.004   3.727   2.021
 7849SOL     OW24445   5.693   3.946   4.916
 7849SOL    HW124446   5.658   3.865   4.963
 7849SOL    HW224447   5.710   3.924   4.820
 7850SOL     OW24448   1.424   0.776   4.937
 7850SOL    HW124449   1.524   0.777   4.936
 7850SOL    HW224450   1.391   0.839   5.007
 7851SOL     OW24451   6.037   6.553   0.175
 7851SOL    HW124452   5.978   6.620   0.219
 7851SOL    HW224453   6.060   6.585   0.083
 7852SOL     OW24454   2.421   6.305   6.821
 7852SOL    HW124455   2.465   6.394   6.813
 7852SOL    HW224456   2.430   6.272   6.915
 7853SOL     OW24457   2.597   3.204   0.201
 7853SOL    HW124458   2.602   3.297   0.165
 7853SOL    HW224459   2.629   3.139   0.132
 7854SOL     OW24460   3.389   3.994   2.511
 7854SOL    HW124461   3.314   4.060   2.507
 7854SOL    HW224462   3.351   3.901   2.518
 7855SOL     OW24463   4.210   6.165   5.924
 7855SOL    HW124464   4.251   6.147   6.013
 7855SOL    HW224465   4.184   6.079   5.881
 7856SOL     OW24466   5.175   3.361   5.819
 7856SOL    HW124467   5.100   3.324   5.765
 7856SOL    HW224468   5.147   3.367   5.915
 7857SOL     OW24469   6.499   1.537   5.548
 7857SOL    HW124470   6.438   1.617   5.551
 7857SOL    HW224471   6.593   1.567   5.562
 7858SOL     OW24472   6.226   3.867   2.893
 7858SOL    HW124473   6.131   3.835   2.900
 7858SOL    HW224474   6.253   3.908   2.980
 7859SOL     OW24475   1.237   5.337   6.782
 7859SOL    HW124476   1.296   5.365   6.858
 7859SOL    HW224477   1.167   5.274   6.815
 7860SOL     OW24478   3.991   0.011   1.921
 7860SOL    HW124479   4.049   0.019   1.840
 7860SOL    HW224480   3.983   0.101   1.964
 7861SOL     OW24481   5.031   4.742   0.587
 7861SOL    HW124482   4.969   4.733   0.510
 7861SOL    HW224483   4.997   4.688   0.664
 7862SOL     OW24484   3.111   4.443   1.474
 7862SOL    HW124485   3.023   4.464   1.516
 7862SOL    HW224486   3.153   4.365   1.520
 7863SOL     OW24487   6.627   5.437   1.782
 7863SOL    HW124488   6.707   5.391   1.819
 7863SOL    HW224489   6.613   5.408   1.687
 7864SOL     OW24490   0.848   4.961   4.862
 7864SOL    HW124491   0.838   5.009   4.950
 7864SOL    HW224492   0.843   5.028   4.787
 7865SOL     OW24493   3.120   0.336   3.429
 7865SOL    HW124494   3.158   0.244   3.426
 7865SOL    HW224495   3.171   0.396   3.367
 7866SOL     OW24496   2.478   1.943   4.186
 7866SOL    HW124497   2.380   1.965   4.186
 7866SOL    HW224498   2.513   1.945   4.279
 7867SOL     OW24499   6.374   4.527   1.961
 7867SOL    HW124500   6.448   4.460   1.955
 7867SOL    HW224501   6.409   4.617   1.935
 7868SOL     OW24502   5.195   6.317   0.512
 7868SOL    HW124503   5.228   6.396   0.460
 7868SOL    HW224504   5.098   6.303   0.492
 7869SOL     OW24505   0.881   3.747   2.043
 7869SOL    HW124506   0.868   3.839   2.007
 7869SOL    HW224507   0.814   3.729   2.115
 7870SOL     OW24508   6.905   5.799   3.979
 7870SOL    HW124509   6.873   5.704   3.981
 7870SOL    HW224510   6.890   5.838   3.889
 7871SOL     OW24511   4.842   3.043   3.104
 7871SOL    HW124512   4.853   3.132   3.149
 7871SOL    HW224513   4.798   3.055   3.016
 7872SOL     OW24514   0.099   2.691   3.458
 7872SOL    HW124515   0.124   2.594   3.452
 7872SOL    HW224516   0.041   2.715   3.380
 7873SOL     OW24517   0.267   5.425   5.101
 7873SOL    HW124518   0.297   5.499   5.041
 7873SOL    HW224519   0.347   5.371   5.130
 7874SOL     OW24520   6.118   1.568   0.689
 7874SOL    HW124521   6.131   1.579   0.591
 7874SOL    HW224522   6.045   1.629   0.721
 7875SOL     OW24523   4.249   3.244   6.260
 7875SOL    HW124524   4.256   3.287   6.350
 7875SOL    HW224525   4.152   3.229   6.238
 7876SOL     OW24526   6.693   0.555   3.808
 7876SOL    HW124527   6.776   0.538   3.862
 7876SOL    HW224528   6.614   0.518   3.856
 7877SOL     OW24529   0.012   1.971   2.589
 7877SOL    HW124530   0.033   2.037   2.517
 7877SOL    HW224531   6.964   2.009   2.651
 7878SOL     OW24532   4.942   3.766   2.517
 7878SOL    HW124533   5.002   3.691   2.546
 7878SOL    HW224534   4.904   3.745   2.427
 7879SOL     OW24535   5.300   6.769   4.073
 7879SOL    HW124536   5.247   6.725   3.999
 7879SOL    HW224537   5.342   6.698   4.130
 7880SOL     OW24538   0.112   0.091   6.644
 7880SOL    HW124539   0.176   0.167   6.650
 7880SOL    HW224540   0.156   0.014   6.598
 7881SOL     OW24541   0.185   4.677   4.445
 7881SOL    HW124542   0.188   4.654   4.347
 7881SOL    HW224543   0.169   4.775   4.455
 7882SOL     OW24544   6.566   4.035   3.288
 7882SOL    HW124545   6.515   4.118   3.267
 7882SOL    HW224546   6.598   3.992   3.204
 7883SOL     OW24547   3.121   1.655   3.471
 7883SOL    HW124548   3.075   1.677   3.557
 7883SOL    HW224549   3.166   1.736   3.435
 7884SOL     OW24550   0.629   4.437   4.508
 7884SOL    HW124551   0.659   4.409   4.417
 7884SOL    HW224552   0.531   4.419   4.518
 7885SOL     OW24553   5.899   5.653   3.156
 7885SOL    HW124554   5.987   5.688   3.187
 7885SOL    HW224555   5.889   5.557   3.183
 7886SOL     OW24556   4.667   2.766   2.367
 7886SOL    HW124557   4.737   2.732   2.305
 7886SOL    HW224558   4.592   2.807   2.314
 7887SOL     OW24559   3.069   3.444   0.435
 7887SOL    HW124560   3.026   3.531   0.407
 7887SOL    HW224561   3.106   3.398   0.354
 7888SOL     OW24562   5.728   1.701   3.946
 7888SOL    HW124563   5.824   1.698   3.919
 7888SOL    HW224564   5.696   1.608   3.966
 7889SOL     OW24565   6.241   4.933   0.888
 7889SOL    HW124566   6.163   4.874   0.867
 7889SOL    HW224567   6.210   5.008   0.948
 7890SOL     OW24568   0.891   3.976   4.306
 7890SOL    HW124569   0.865   4.001   4.400
 7890SOL    HW224570   0.985   3.942   4.306
 7891SOL     OW24571   1.010   2.142   4.176
 7891SOL    HW124572   0.918   2.122   4.142
 7891SOL    HW224573   1.047   2.221   4.128
 7892SOL     OW24574   0.898   3.066   5.796
 7892SOL    HW124575   0.799   3.050   5.789
 7892SOL    HW224576   0.941   3.044   5.708
 7893SOL     OW24577   6.182   0.971   1.273
 7893SOL    HW124578   6.145   1.061   1.251
 7893SOL    HW224579   6.252   0.946   1.205
 7894SOL     OW24580   2.690   1.007   6.246
 7894SOL    HW124581   2.606   0.953   6.250
 7894SOL    HW224582   2.711   1.042   6.337
 7895SOL     OW24583   3.869   6.466   3.559
 7895SOL    HW124584   3.895   6.392   3.496
 7895SOL    HW224585   3.791   6.436   3.614
 7896SOL     OW24586   3.795   2.113   1.169
 7896SOL    HW124587   3.716   2.142   1.115
 7896SOL    HW224588   3.784   2.142   1.264
 7897SOL     OW24589   3.655   4.221   6.993
 7897SOL    HW124590   3.727   4.166   0.014
 7897SOL    HW224591   3.587   4.160   6.951
 7898SOL     OW24592   5.479   0.094   4.147
 7898SOL    HW124593   5.521   0.158   4.211
 7898SOL    HW224594   5.392   0.061   4.184
 7899SOL     OW24595   5.785   4.686   1.509
 7899SOL    HW124596   5.782   4.784   1.530
 7899SOL    HW224597   5.800   4.635   1.593
 7900SOL     OW24598   0.879   3.885   0.078
 7900SOL    HW124599   0.862   3.983   0.081
 7900SOL    HW224600   0.830   3.840   0.153
 7901SOL     OW24601   5.711   1.244   6.042
 7901SOL    HW124602   5.804   1.210   6.057
 7901SOL    HW224603   5.712   1.344   6.049
 7902SOL     OW24604   0.323   6.574   2.461
 7902SOL    HW124605   0.236   6.623   2.450
 7902SOL    HW224606   0.394   6.623   2.410
 7903SOL     OW24607   2.148   2.045   4.936
 7903SOL    HW124608   2.198   2.130   4.954
 7903SOL    HW224609   2.210   1.977   4.898
 7904SOL     OW24610   5.448   0.826   1.795
 7904SOL    HW124611   5.351   0.851   1.802
 7904SOL    HW224612   5.456   0.732   1.761
 7905SOL     OW24613   5.765   0.264   0.735
 7905SOL    HW124614   5.723   0.351   0.762
 7905SOL    HW224615   5.694   0.196   0.719
 7906SOL     OW24616   1.534   5.352   1.071
 7906SOL    HW124617   1.509   5.401   0.987
 7906SOL    HW224618   1.450   5.326   1.120
 7907SOL     OW24619   6.294   0.392   3.384
 7907SOL    HW124620   6.312   0.392   3.483
 7907SOL    HW224621   6.316   0.302   3.347
 7908SOL     OW24622   0.195   0.914   0.082
 7908SOL    HW124623   0.154   0.985   0.025
 7908SOL    HW224624   0.275   0.952   0.130
 7909SOL     OW24625   6.019   3.781   1.884
 7909SOL    HW124626   6.067   3.749   1.966
 7909SOL    HW224627   5.950   3.714   1.857
 7910SOL     OW24628   2.229   3.552   0.454
 7910SOL    HW124629   2.210   3.498   0.372
 7910SOL    HW224630   2.278   3.495   0.521
 7911SOL     OW24631   0.957   4.399   0.457
 7911SOL    HW124632   1.037   4.457   0.441
 7911SOL    HW224633   0.893   4.446   0.518
 7912SOL     OW24634   6.055   5.510   0.053
 7912SOL    HW124635   6.000   5.484   6.995
 7912SOL    HW224636   5.994   5.529   0.130
 7913SOL     OW24637   0.688   3.327   0.826
 7913SOL    HW124638   0.638   3.353   0.744
 7913SOL    HW224639   0.771   3.382   0.834
 7914SOL     OW24640   6.397   5.167   4.818
 7914SOL    HW124641   6.423   5.262   4.804
 7914SOL    HW224642   6.297   5.160   4.818
 7915SOL     OW24643   3.437   6.976   3.021
 7915SOL    HW124644   3.422   6.936   3.112
 7915SOL    HW224645   3.382   0.037   3.011
 7916SOL     OW24646   1.695   0.742   4.415
 7916SOL    HW124647   1.637   0.787   4.483
 7916SOL    HW224648   1.788   0.776   4.423
 7917SOL     OW24649   3.876   3.424   0.232
 7917SOL    HW124650   3.919   3.451   0.146
 7917SOL    HW224651   3.784   3.390   0.214
 7918SOL     OW24652   2.284   0.814   5.132
 7918SOL    HW124653   2.327   0.845   5.217
 7918SOL    HW224654   2.347   0.828   5.056
 7919SOL     OW24655   1.478   5.566   2.558
 7919SOL    HW124656   1.475   5.665   2.570
 7919SOL    HW224657   1.533   5.543   2.478
 7920SOL     OW24658   4.828   0.128   0.866
 7920SOL    HW124659   4.764   0.052   0.854
 7920SOL    HW224660   4.856   0.162   0.777
 7921SOL     OW24661   4.769   1.389   1.700
 7921SOL    HW124662   4.863   1.358   1.716
 7921SOL    HW224663   4.705   1.330   1.749
 7922SOL     OW24664   0.331   5.720   0.655
 7922SOL    HW124665   0.348   5.707   0.753
 7922SOL    HW224666   0.285   5.808   0.641
 7923SOL     OW24667   3.914   1.368   6.726
 7923SOL    HW124668   3.961   1.448   6.764
 7923SOL    HW224669   3.890   1.305   6.799
 7924SOL     OW24670   6.357   0.312   0.765
 7924SOL    HW124671   6.317   0.269   0.684
 7924SOL    HW224672   6.309   0.280   0.847
 7925SOL     OW24673   2.381   6.097   0.538
 7925SOL    HW124674   2.369   6.005   0.500
 7925SOL    HW224675   2.307   6.156   0.506
 7926SOL     OW24676   4.567   6.001   6.535
 7926SOL    HW124677   4.495   6.037   6.595
 7926SOL    HW224678   4.653   6.049   6.553
 7927SOL     OW24679   4.895   6.623   2.330
 7927SOL    HW124680   4.845   6.538   2.342
 7927SOL    HW224681   4.992   6.603   2.318
 7928SOL     OW24682   6.603   1.568   2.965
 7928SOL    HW124683   6.650   1.562   3.053
 7928SOL    HW224684   6.597   1.476   2.925
 7929SOL     OW24685   3.762   4.175   5.930
 7929SOL    HW124686   3.802   4.251   5.879
 7929SOL    HW224687   3.748   4.097   5.870
 7930SOL     OW24688   3.973   5.829   5.745
 7930SOL    HW124689   3.874   5.818   5.744
 7930SOL    HW224690   4.016   5.748   5.707
 7931SOL     OW24691   3.684   2.128   0.463
 7931SOL    HW124692   3.724   2.123   0.372
 7931SOL    HW224693   3.584   2.131   0.455
 7932SOL     OW24694   0.678   5.385   1.831
 7932SOL    HW124695   0.587   5.424   1.844
 7932SOL    HW224696   0.720   5.368   1.920
 7933SOL     OW24697   0.263   1.322   6.095
 7933SOL    HW124698   0.216   1.237   6.119
 7933SOL    HW224699   0.321   1.306   6.015
 7934SOL     OW24700   1.160   4.504   1.024
 7934SOL    HW124701   1.141   4.594   0.984
 7934SOL    HW224702   1.089   4.481   1.090
 7935SOL     OW24703   5.407   3.244   2.454
 7935SOL    HW124704   5.366   3.303   2.385
 7935SOL    HW224705   5.358   3.255   2.541
 7936SOL     OW24706   3.390   5.995   4.047
 7936SOL    HW124707   3.482   6.009   4.009
 7936SOL    HW224708   3.369   5.898   4.046
 7937SOL     OW24709   2.711   6.049   7.004
 7937SOL    HW124710   2.682   6.003   0.067
 7937SOL    HW224711   2.741   5.980   6.938
 7938SOL     OW24712   3.324   6.732   4.626
 7938SOL    HW124713   3.323   6.824   4.665
 7938SOL    HW224714   3.249   6.678   4.665
 7939SOL     OW24715   0.465   1.829   4.811
 7939SOL    HW124716   0.422   1.739   4.806
 7939SOL    HW224717   0.396   1.898   4.830
 7940SOL     OW24718   4.873   0.853   3.217
 7940SOL    HW124719   4.819   0.854   3.132
 7940SOL    HW224720   4.930   0.772   3.219
 7941SOL     OW24721   3.930   6.528   1.597
 7941SOL    HW124722   3.973   6.453   1.647
 7941SOL    HW224723   4.000   6.590   1.563
 7942SOL     OW24724   1.267   4.223   1.550
 7942SOL    HW124725   1.260   4.246   1.453
 7942SOL    HW224726   1.215   4.139   1.567
 7943SOL     OW24727   2.016   5.658   6.553
 7943SOL    HW124728   1.988   5.743   6.507
 7943SOL    HW224729   1.995   5.580   6.494
 7944SOL     OW24730   1.585   2.717   1.061
 7944SOL    HW124731   1.557   2.772   1.141
 7944SOL    HW224732   1.512   2.719   0.993
 7945SOL     OW24733   6.023   4.582   2.593
 7945SOL    HW124734   6.019   4.482   2.591
 7945SOL    HW224735   6.044   4.616   2.502
 7946SOL     OW24736   3.689   1.022   5.128
 7946SOL    HW124737   3.600   1.044   5.087
 7946SOL    HW224738   3.736   1.107   5.152
 7947SOL     OW24739   1.390   2.702   5.321
 7947SOL    HW124740   1.421   2.739   5.408
 7947SOL    HW224741   1.343   2.615   5.336
 7948SOL     OW24742   1.831   4.811   2.565
 7948SOL    HW124743   1.749   4.855   2.602
 7948SOL    HW224744   1.842   4.721   2.606
 7949SOL     OW24745   3.830   4.530   6.459
 7949SOL    HW124746   3.895   4.604   6.445
 7949SOL    HW224747   3.770   4.523   6.379
 7950SOL     OW24748   6.025   5.027   5.365
 7950SOL    HW124749   6.012   4.959   5.292
 7950SOL    HW224750   5.940   5.077   5.378
 7951SOL     OW24751   2.772   5.527   2.775
 7951SOL    HW124752   2.836   5.461   2.735
 7951SOL    HW224753   2.805   5.556   2.864
 7952SOL     OW24754   5.169   3.525   6.734
 7952SOL    HW124755   5.181   3.622   6.718
 7952SOL    HW224756   5.075   3.499   6.714
 7953SOL     OW24757   2.720   1.462   0.786
 7953SOL    HW124758   2.709   1.502   0.695
 7953SOL    HW224759   2.765   1.373   0.777
 7954SOL     OW24760   3.393   2.738   0.214
 7954SOL    HW124761   3.404   2.800   0.291
 7954SOL    HW224762   3.298   2.738   0.183
 7955SOL     OW24763   1.415   1.091   6.593
 7955SOL    HW124764   1.399   1.037   6.675
 7955SOL    HW224765   1.447   1.182   6.619
 7956SOL     OW24766   6.987   6.710   1.003
 7956SOL    HW124767   7.005   6.637   1.069
 7956SOL    HW224768   6.899   6.752   1.023
 7957SOL     OW24769   4.943   0.677   5.352
 7957SOL    HW124770   4.867   0.704   5.412
 7957SOL    HW224771   4.929   0.717   5.262
 7958SOL     OW24772   6.018   3.211   6.757
 7958SOL    HW124773   5.987   3.140   6.693
 7958SOL    HW224774   6.075   3.170   6.828
 7959SOL     OW24775   5.348   0.803   6.086
 7959SOL    HW124776   5.421   0.735   6.096
 7959SOL    HW224777   5.352   0.866   6.163
 7960SOL     OW24778   0.438   0.653   5.936
 7960SOL    HW124779   0.424   0.725   5.868
 7960SOL    HW224780   0.520   0.673   5.990
 7961SOL     OW24781   6.545   0.585   0.448
 7961SOL    HW124782   6.544   0.496   0.401
 7961SOL    HW224783   6.636   0.602   0.485
 7962SOL     OW24784   6.262   6.677   5.985
 7962SOL    HW124785   6.207   6.706   6.064
 7962SOL    HW224786   6.206   6.680   5.903
 7963SOL     OW24787   0.095   5.303   4.929
 7963SOL    HW124788   0.160   5.344   4.993
 7963SOL    HW224789   0.128   5.212   4.901
 7964SOL     OW24790   6.474   3.633   2.516
 7964SOL    HW124791   6.533   3.552   2.515
 7964SOL    HW224792   6.378   3.604   2.515
 7965SOL     OW24793   4.205   1.571   6.658
 7965SOL    HW124794   4.223   1.508   6.582
 7965SOL    HW224795   4.175   1.659   6.622
 7966SOL     OW24796   4.650   4.105   5.212
 7966SOL    HW124797   4.558   4.116   5.173
 7966SOL    HW224798   4.659   4.166   5.291
 7967SOL     OW24799   1.644   4.847   1.935
 7967SOL    HW124800   1.709   4.887   1.999
 7967SOL    HW224801   1.591   4.776   1.982
 7968SOL     OW24802   6.523   2.342   4.313
 7968SOL    HW124803   6.467   2.364   4.233
 7968SOL    HW224804   6.470   2.357   4.396
 7969SOL     OW24805   4.675   5.764   6.987
 7969SOL    HW124806   4.591   5.709   6.982
 7969SOL    HW224807   4.739   5.722   0.030
 7970SOL     OW24808   6.037   2.464   2.443
 7970SOL    HW124809   6.099   2.490   2.518
 7970SOL    HW224810   5.968   2.400   2.478
 7971SOL     OW24811   3.001   1.355   0.955
 7971SOL    HW124812   3.092   1.316   0.940
 7971SOL    HW224813   3.010   1.453   0.973
 7972SOL     OW24814   4.126   3.281   2.790
 7972SOL    HW124815   4.145   3.317   2.881
 7972SOL    HW224816   4.091   3.187   2.798
 7973SOL     OW24817   6.258   3.987   3.147
 7973SOL    HW124818   6.242   4.073   3.197
 7973SOL    HW224819   6.251   3.910   3.211
 7974SOL     OW24820   6.613   2.082   5.437
 7974SOL    HW124821   6.539   2.051   5.378
 7974SOL    HW224822   6.649   2.005   5.489
 7975SOL     OW24823   5.155   0.781   1.047
 7975SOL    HW124824   5.153   0.881   1.054
 7975SOL    HW224825   5.199   0.742   1.127
 7976SOL     OW24826   0.898   6.761   6.616
 7976SOL    HW124827   0.824   6.703   6.652
 7976SOL    HW224828   0.986   6.726   6.648
 7977SOL     OW24829   5.648   6.165   2.613
 7977SOL    HW124830   5.573   6.229   2.632
 7977SOL    HW224831   5.610   6.081   2.575
 7978SOL     OW24832   0.297   4.720   0.891
 7978SOL    HW124833   0.244   4.803   0.908
 7978SOL    HW224834   0.327   4.681   0.979
 7979SOL     OW24835   1.349   3.641   4.787
 7979SOL    HW124836   1.327   3.623   4.883
 7979SOL    HW224837   1.419   3.712   4.782
 7980SOL     OW24838   4.063   5.164   6.567
 7980SOL    HW124839   4.132   5.231   6.596
 7980SOL    HW224840   4.048   5.098   6.640
 7981SOL     OW24841   1.684   4.840   3.555
 7981SOL    HW124842   1.719   4.760   3.506
 7981SOL    HW224843   1.658   4.911   3.490
 7982SOL     OW24844   0.931   2.059   6.254
 7982SOL    HW124845   1.001   2.103   6.198
 7982SOL    HW224846   0.840   2.078   6.216
 7983SOL     OW24847   5.123   0.513   1.022
 7983SOL    HW124848   5.150   0.610   1.023
 7983SOL    HW224849   5.099   0.487   0.928
 7984SOL     OW24850   1.208   1.967   1.987
 7984SOL    HW124851   1.197   2.042   1.921
 7984SOL    HW224852   1.256   2.001   2.068
 7985SOL     OW24853   1.731   2.697   5.678
 7985SOL    HW124854   1.729   2.728   5.583
 7985SOL    HW224855   1.826   2.692   5.710
 7986SOL     OW24856   2.739   1.146   3.888
 7986SOL    HW124857   2.717   1.243   3.874
 7986SOL    HW224858   2.824   1.139   3.939
 7987SOL     OW24859   1.234   3.289   1.078
 7987SOL    HW124860   1.250   3.191   1.065
 7987SOL    HW224861   1.266   3.339   0.998
 7988SOL     OW24862   0.484   1.980   1.303
 7988SOL    HW124863   0.575   1.956   1.270
 7988SOL    HW224864   0.449   2.058   1.251
 7989SOL     OW24865   0.655   4.760   0.693
 7989SOL    HW124866   0.584   4.829   0.699
 7989SOL    HW224867   0.627   4.688   0.629
 7990SOL     OW24868   3.049   5.412   5.658
 7990SOL    HW124869   3.148   5.416   5.663
 7990SOL    HW224870   3.013   5.365   5.739
 7991SOL     OW24871   5.355   1.286   4.941
 7991SOL    HW124872   5.453   1.281   4.922
 7991SOL    HW224873   5.342   1.320   5.034
 7992SOL     OW24874   2.906   0.716   0.671
 7992SOL    HW124875   2.955   0.724   0.584
 7992SOL    HW224876   2.941   0.784   0.736
 7993SOL     OW24877   6.767   5.870   1.754
 7993SOL    HW124878   6.829   5.837   1.683
 7993SOL    HW224879   6.809   5.860   1.844
 7994SOL     OW24880   5.197   0.859   3.048
 7994SOL    HW124881   5.280   0.807   3.030
 7994SOL    HW224882   5.134   0.804   3.104
 7995SOL     OW24883   0.444   4.468   1.389
 7995SOL    HW124884   0.483   4.458   1.480
 7995SOL    HW224885   0.450   4.564   1.360
 7996SOL     OW24886   3.860   0.027   2.731
 7996SOL    HW124887   3.810   6.981   2.786
 7996SOL    HW224888   3.950   0.044   2.772
 7997SOL     OW24889   0.399   2.373   0.022
 7997SOL    HW124890   0.455   2.426   6.980
 7997SOL    HW224891   0.450   2.293   0.053
 7998SOL     OW24892   3.348   0.694   0.211
 7998SOL    HW124893   3.357   0.693   0.311
 7998SOL    HW224894   3.323   0.786   0.181
 7999SOL     OW24895   1.341   1.594   5.226
 7999SOL    HW124896   1.349   1.576   5.324
 7999SOL    HW224897   1.252   1.636   5.208
 8000SOL     OW24898   5.678   5.451   6.639
 8000SOL    HW124899   5.757   5.455   6.701
 8000SOL    HW224900   5.710   5.430   6.547
 8001SOL     OW24901   4.747   0.435   1.234
 8001SOL    HW124902   4.778   0.484   1.315
 8001SOL    HW224903   4.648   0.442   1.226
 8002SOL     OW24904   0.776   0.014   5.826
 8002SOL    HW124905   0.782   0.019   5.926
 8002SOL    HW224906   0.855   0.060   5.786
 8003SOL     OW24907   2.076   6.983   2.931
 8003SOL    HW124908   2.167   6.973   2.970
 8003SOL    HW224909   2.042   6.893   2.903
 8004SOL     OW24910   1.298   3.414   3.796
 8004SOL    HW124911   1.316   3.498   3.849
 8004SOL    HW224912   1.275   3.439   3.702
 8005SOL     OW24913   2.610   0.596   3.600
 8005SOL    HW124914   2.561   0.658   3.540
 8005SOL    HW224915   2.596   0.502   3.569
 8006SOL     OW24916   3.833   4.769   5.505
 8006SOL    HW124917   3.883   4.716   5.573
 8006SOL    HW224918   3.736   4.743   5.507
 8007SOL     OW24919   6.054   1.278   6.568
 8007SOL    HW124920   6.013   1.360   6.528
 8007SOL    HW224921   5.985   1.229   6.621
 8008SOL     OW24922   4.709   6.572   6.878
 8008SOL    HW124923   4.777   6.585   6.951
 8008SOL    HW224924   4.702   6.474   6.857
 8009SOL     OW24925   4.960   1.331   0.577
 8009SOL    HW124926   4.922   1.252   0.625
 8009SOL    HW224927   4.925   1.334   0.484
 8010SOL     OW24928   2.811   2.488   5.363
 8010SOL    HW124929   2.792   2.435   5.280
 8010SOL    HW224930   2.733   2.481   5.426
 8011SOL     OW24931   4.156   1.780   2.316
 8011SOL    HW124932   4.211   1.813   2.393
 8011SOL    HW224933   4.191   1.820   2.231
 8012SOL     OW24934   1.011   2.539   5.271
 8012SOL    HW124935   0.955   2.594   5.209
 8012SOL    HW224936   1.082   2.492   5.219
 8013SOL     OW24937   1.811   2.426   3.416
 8013SOL    HW124938   1.781   2.505   3.468
 8013SOL    HW224939   1.762   2.424   3.328
 8014SOL     OW24940   1.888   0.741   3.028
 8014SOL    HW124941   1.973   0.739   3.081
 8014SOL    HW224942   1.902   0.695   2.941
 8015SOL     OW24943   2.196   6.925   5.124
 8015SOL    HW124944   2.173   6.913   5.027
 8015SOL    HW224945   2.285   6.969   5.132
 8016SOL     OW24946   4.471   1.761   5.668
 8016SOL    HW124947   4.376   1.791   5.682
 8016SOL    HW224948   4.492   1.764   5.570
 8017SOL     OW24949   6.464   0.308   0.387
 8017SOL    HW124950   6.388   0.262   0.343
 8017SOL    HW224951   6.504   0.248   0.457
 8018SOL     OW24952   4.110   1.528   0.148
 8018SOL    HW124953   4.133   1.575   0.062
 8018SOL    HW224954   4.087   1.595   0.218
 8019SOL     OW24955   3.021   2.972   0.744
 8019SOL    HW124956   3.061   3.056   0.707
 8019SOL    HW224957   2.921   2.977   0.736
 8020SOL     OW24958   0.570   0.563   5.130
 8020SOL    HW124959   0.663   0.598   5.127
 8020SOL    HW224960   0.556   0.510   5.213
 8021SOL     OW24961   1.257   2.153   2.686
 8021SOL    HW124962   1.202   2.088   2.633
 8021SOL    HW224963   1.200   2.232   2.711
 8022SOL     OW24964   4.710   1.338   2.231
 8022SOL    HW124965   4.618   1.313   2.201
 8022SOL    HW224966   4.705   1.373   2.324
 8023SOL     OW24967   4.793   5.918   3.627
 8023SOL    HW124968   4.792   5.950   3.722
 8023SOL    HW224969   4.725   5.970   3.574
 8024SOL     OW24970   2.003   6.761   6.477
 8024SOL    HW124971   2.009   6.692   6.405
 8024SOL    HW224972   1.937   6.831   6.451
 8025SOL     OW24973   2.044   5.147   1.426
 8025SOL    HW124974   2.103   5.067   1.437
 8025SOL    HW224975   2.000   5.144   1.336
 8026SOL     OW24976   0.881   5.947   6.918
 8026SOL    HW124977   0.820   5.939   6.839
 8026SOL    HW224978   0.875   5.864   6.973
 8027SOL     OW24979   3.587   6.425   6.898
 8027SOL    HW124980   3.649   6.351   6.923
 8027SOL    HW224981   3.625   6.476   6.821
 8028SOL     OW24982   2.918   5.646   4.611
 8028SOL    HW124983   2.879   5.564   4.654
 8028SOL    HW224984   2.855   5.723   4.623
 8029SOL     OW24985   6.449   0.836   0.737
 8029SOL    HW124986   6.395   0.917   0.718
 8029SOL    HW224987   6.419   0.761   0.678
 8030SOL     OW24988   6.475   4.870   0.771
 8030SOL    HW124989   6.384   4.909   0.789
 8030SOL    HW224990   6.511   4.909   0.686
 8031SOL     OW24991   6.735   0.919   2.717
 8031SOL    HW124992   6.741   0.880   2.809
 8031SOL    HW224993   6.799   0.873   2.656
 8032SOL     OW24994   5.748   2.955   0.845
 8032SOL    HW124995   5.739   2.856   0.860
 8032SOL    HW224996   5.705   3.004   0.921
 8033SOL     OW24997   3.911   4.178   1.114
 8033SOL    HW124998   3.884   4.168   1.018
 8033SOL    HW224999   3.986   4.244   1.121
 8034SOL     OW25000   5.867   7.020   5.572
 8034SOL    HW125001   5.865   0.012   5.472
 8034SOL    HW225002   5.957   0.021   5.607
 8035SOL     OW25003   5.146   1.948   2.959
 8035SOL    HW125004   5.126   1.855   2.927
 8035SOL    HW225005   5.185   1.944   3.051
 8036SOL     OW25006   6.420   3.394   3.370
 8036SOL    HW125007   6.479   3.317   3.349
 8036SOL    HW225008   6.355   3.408   3.296
 8037SOL     OW25009   0.618   2.349   6.436
 8037SOL    HW125010   0.593   2.351   6.532
 8037SOL    HW225011   0.635   2.443   6.404
 8038SOL     OW25012   6.181   6.388   2.449
 8038SOL    HW125013   6.181   6.450   2.371
 8038SOL    HW225014   6.266   6.334   2.449
 8039SOL     OW25015   1.378   2.100   5.389
 8039SOL    HW125016   1.452   2.034   5.399
 8039SOL    HW225017   1.354   2.137   5.479
 8040SOL     OW25018   1.764   4.984   5.948
 8040SOL    HW125019   1.701   4.946   5.881
 8040SOL    HW225020   1.778   4.918   6.022
 8041SOL     OW25021   3.892   1.959   2.764
 8041SOL    HW125022   3.982   1.943   2.805
 8041SOL    HW225023   3.900   2.029   2.694
 8042SOL     OW25024   4.294   4.334   5.688
 8042SOL    HW125025   4.370   4.272   5.670
 8042SOL    HW225026   4.209   4.293   5.654
 8043SOL     OW25027   5.459   4.704   0.256
 8043SOL    HW125028   5.511   4.714   0.341
 8043SOL    HW225029   5.421   4.612   0.251
 8044SOL     OW25030   3.399   3.738   0.812
 8044SOL    HW125031   3.480   3.792   0.790
 8044SOL    HW225032   3.372   3.684   0.732
 8045SOL     OW25033   0.810   1.261   2.676
 8045SOL    HW125034   0.887   1.202   2.700
 8045SOL    HW225035   0.729   1.234   2.729
 8046SOL     OW25036   0.461   5.216   2.371
 8046SOL    HW125037   0.405   5.296   2.393
 8046SOL    HW225038   0.501   5.228   2.280
 8047SOL     OW25039   4.432   6.617   5.522
 8047SOL    HW125040   4.430   6.636   5.620
 8047SOL    HW225041   4.509   6.666   5.480
 8048SOL     OW25042   3.464   4.027   6.992
 8048SOL    HW125043   3.475   3.962   6.916
 8048SOL    HW225044   3.440   3.977   0.054
 8049SOL     OW25045   2.241   0.499   1.048
 8049SOL    HW125046   2.260   0.567   0.976
 8049SOL    HW225047   2.205   0.416   1.006
 8050SOL     OW25048   2.071   4.512   4.593
 8050SOL    HW125049   2.055   4.602   4.552
 8050SOL    HW225050   1.984   4.472   4.622
 8051SOL     OW25051   3.385   6.222   4.181
 8051SOL    HW125052   3.369   6.148   4.115
 8051SOL    HW225053   3.482   6.225   4.205
 8052SOL     OW25054   2.293   2.323   2.006
 8052SOL    HW125055   2.346   2.328   1.921
 8052SOL    HW225056   2.327   2.248   2.063
 8053SOL     OW25057   2.472   3.252   6.041
 8053SOL    HW125058   2.381   3.211   6.034
 8053SOL    HW225059   2.509   3.236   6.133
 8054SOL     OW25060   5.396   4.056   5.179
 8054SOL    HW125061   5.400   4.125   5.252
 8054SOL    HW225062   5.377   3.966   5.219
 8055SOL     OW25063   0.019   0.671   5.360
 8055SOL    HW125064   6.947   0.635   5.357
 8055SOL    HW225065   0.023   0.759   5.312
 8056SOL     OW25066   2.509   0.959   4.749
 8056SOL    HW125067   2.450   0.894   4.798
 8056SOL    HW225068   2.588   0.911   4.711
 8057SOL     OW25069   2.670   2.358   1.928
 8057SOL    HW125070   2.769   2.359   1.941
 8057SOL    HW225071   2.626   2.414   1.998
 8058SOL     OW25072   2.803   6.985   3.368
 8058SOL    HW125073   2.761   0.054   3.354
 8058SOL    HW225074   2.879   6.974   3.304
 8059SOL     OW25075   2.664   3.102   6.556
 8059SOL    HW125076   2.691   3.012   6.590
 8059SOL    HW225077   2.571   3.122   6.585
 8060SOL     OW25078   6.455   0.060   5.521
 8060SOL    HW125079   6.550   0.073   5.490
 8060SOL    HW225080   6.393   0.103   5.457
 8061SOL     OW25081   0.628   1.442   2.219
 8061SOL    HW125082   0.703   1.378   2.198
 8061SOL    HW225083   0.546   1.413   2.169
 8062SOL     OW25084   4.256   5.797   5.315
 8062SOL    HW125085   4.273   5.868   5.382
 8062SOL    HW225086   4.205   5.835   5.238
 8063SOL     OW25087   3.393   0.229   2.974
 8063SOL    HW125088   3.402   0.194   2.880
 8063SOL    HW225089   3.483   0.256   3.008
 8064SOL     OW25090   5.946   2.900   7.012
 8064SOL    HW125091   6.015   2.969   6.993
 8064SOL    HW225092   5.977   2.841   0.065
 8065SOL     OW25093   3.469   6.988   5.175
 8065SOL    HW125094   3.424   6.978   5.264
 8065SOL    HW225095   3.443   0.055   5.135
 8066SOL     OW25096   0.060   1.029   5.005
 8066SOL    HW125097   0.134   1.020   4.938
 8066SOL    HW225098   0.069   1.116   5.052
 8067SOL     OW25099   4.843   2.974   3.389
 8067SOL    HW125100   4.834   2.975   3.290
 8067SOL    HW225101   4.886   3.060   3.419
 8068SOL     OW25102   6.383   4.576   0.955
 8068SOL    HW125103   6.337   4.567   1.043
 8068SOL    HW225104   6.482   4.561   0.967
 8069SOL     OW25105   2.781   4.795   2.453
 8069SOL    HW125106   2.796   4.783   2.355
 8069SOL    HW225107   2.743   4.886   2.470
 8070SOL     OW25108   5.261   4.771   6.942
 8070SOL    HW125109   5.351   4.805   6.968
 8070SOL    HW225110   5.201   4.768   0.001
 8071SOL     OW25111   3.789   6.559   6.099
 8071SOL    HW125112   3.740   6.578   6.184
 8071SOL    HW225113   3.780   6.637   6.037
 8072SOL     OW25114   1.757   2.931   6.737
 8072SOL    HW125115   1.697   2.985   6.678
 8072SOL    HW225116   1.848   2.973   6.740
 8073SOL     OW25117   3.857   0.494   6.796
 8073SOL    HW125118   3.862   0.410   6.743
 8073SOL    HW225119   3.850   0.572   6.734
 8074SOL     OW25120   1.818   1.598   0.199
 8074SOL    HW125121   1.734   1.548   0.179
 8074SOL    HW225122   1.875   1.602   0.117
 8075SOL     OW25123   0.235   6.142   6.891
 8075SOL    HW125124   0.281   6.106   6.972
 8075SOL    HW225125   0.289   6.216   6.852
 8076SOL     OW25126   6.569   7.020   6.888
 8076SOL    HW125127   6.569   6.951   6.816
 8076SOL    HW225128   6.575   0.090   6.846
 8077SOL     OW25129   4.469   5.630   1.244
 8077SOL    HW125130   4.435   5.624   1.150
 8077SOL    HW225131   4.412   5.574   1.304
 8078SOL     OW25132   0.621   0.724   0.544
 8078SOL    HW125133   0.614   0.787   0.621
 8078SOL    HW225134   0.689   0.758   0.479
 8079SOL     OW25135   1.528   1.327   4.890
 8079SOL    HW125136   1.470   1.409   4.893
 8079SOL    HW225137   1.614   1.349   4.844
 8080SOL     OW25138   1.374   3.497   2.641
 8080SOL    HW125139   1.293   3.554   2.652
 8080SOL    HW225140   1.430   3.500   2.724
 8081SOL     OW25141   6.069   4.820   4.610
 8081SOL    HW125142   6.024   4.743   4.564
 8081SOL    HW225143   6.168   4.812   4.599
 8082SOL     OW25144   3.173   1.875   2.606
 8082SOL    HW125145   3.115   1.828   2.539
 8082SOL    HW225146   3.127   1.959   2.636
 8083SOL     OW25147   5.974   2.168   4.808
 8083SOL    HW125148   5.881   2.139   4.787
 8083SOL    HW225149   6.009   2.114   4.885
 8084SOL     OW25150   2.388   0.201   6.496
 8084SOL    HW125151   2.432   0.115   6.469
 8084SOL    HW225152   2.400   0.269   6.424
 8085SOL     OW25153   0.398   5.808   3.843
 8085SOL    HW125154   0.339   5.880   3.804
 8085SOL    HW225155   0.406   5.734   3.777
 8086SOL     OW25156   0.470   0.925   2.185
 8086SOL    HW125157   0.412   0.959   2.111
 8086SOL    HW225158   0.475   0.993   2.258
 8087SOL     OW25159   1.623   0.439   6.847
 8087SOL    HW125160   1.623   0.496   6.929
 8087SOL    HW225161   1.540   0.457   6.794
 8088SOL     OW25162   4.872   6.574   5.931
 8088SOL    HW125163   4.906   6.538   6.018
 8088SOL    HW225164   4.941   6.560   5.860
 8089SOL     OW25165   5.933   2.469   6.318
 8089SOL    HW125166   5.835   2.488   6.331
 8089SOL    HW225167   5.952   2.373   6.342
 8090SOL     OW25168   4.269   1.355   6.482
 8090SOL    HW125169   4.340   1.322   6.420
 8090SOL    HW225170   4.264   1.295   6.562
 8091SOL     OW25171   1.104   4.346   5.107
 8091SOL    HW125172   1.019   4.396   5.125
 8091SOL    HW225173   1.124   4.287   5.185
 8092SOL     OW25174   4.789   1.984   5.400
 8092SOL    HW125175   4.703   1.959   5.356
 8092SOL    HW225176   4.865   1.939   5.353
 8093SOL     OW25177   2.803   6.403   2.629
 8093SOL    HW125178   2.762   6.495   2.634
 8093SOL    HW225179   2.742   6.343   2.577
 8094SOL     OW25180   1.345   4.103   4.148
 8094SOL    HW125181   1.435   4.086   4.107
 8094SOL    HW225182   1.355   4.167   4.224
 8095SOL     OW25183   1.205   4.606   5.434
 8095SOL    HW125184   1.153   4.574   5.355
 8095SOL    HW225185   1.149   4.599   5.517
 8096SOL     OW25186   0.781   6.768   2.414
 8096SOL    HW125187   0.856   6.762   2.348
 8096SOL    HW225188   0.785   6.689   2.475
 8097SOL     OW25189   2.867   6.296   5.061
 8097SOL    HW125190   2.776   6.280   5.099
 8097SOL    HW225191   2.933   6.311   5.135
 8098SOL     OW25192   1.153   5.794   3.856
 8098SOL    HW125193   1.169   5.830   3.948
 8098SOL    HW225194   1.088   5.718   3.860
 8099SOL     OW25195   3.173   5.727   4.293
 8099SOL    HW125196   3.181   5.746   4.391
 8099SOL    HW225197   3.264   5.728   4.252
 8100SOL     OW25198   6.450   0.923   6.460
 8100SOL    HW125199   6.397   0.923   6.375
 8100SOL    HW225200   6.454   1.016   6.497
 8101SOL     OW25201   1.643   6.174   1.325
 8101SOL    HW125202   1.594   6.261   1.318
 8101SOL    HW225203   1.667   6.157   1.421
 8102SOL     OW25204   1.102   3.075   4.623
 8102SOL    HW125205   1.036   3.135   4.577
 8102SOL    HW225206   1.190   3.079   4.575
 8103SOL     OW25207   3.623   1.467   2.338
 8103SOL    HW125208   3.621   1.505   2.431
 8103SOL    HW225209   3.551   1.398   2.329
 8104SOL     OW25210   2.094   6.526   6.326
 8104SOL    HW125211   2.171   6.572   6.282
 8104SOL    HW225212   2.122   6.492   6.416
 8105SOL     OW25213   6.579   1.678   2.720
 8105SOL    HW125214   6.511   1.751   2.722
 8105SOL    HW225215   6.574   1.624   2.804
 8106SOL     OW25216   2.063   6.018   4.396
 8106SOL    HW125217   2.029   5.927   4.419
 8106SOL    HW225218   2.152   6.033   4.439
 8107SOL     OW25219   2.053   5.355   4.721
 8107SOL    HW125220   2.030   5.287   4.791
 8107SOL    HW225221   2.008   5.331   4.636
 8108SOL     OW25222   0.284   0.765   6.408
 8108SOL    HW125223   0.302   0.714   6.324
 8108SOL    HW225224   0.357   0.832   6.423
 8109SOL     OW25225   6.580   3.643   6.400
 8109SOL    HW125226   6.649   3.645   6.327
 8109SOL    HW225227   6.529   3.729   6.400
 8110SOL     OW25228   4.720   4.946   0.943
 8110SOL    HW125229   4.812   4.944   0.981
 8110SOL    HW225230   4.693   5.041   0.927
 8111SOL     OW25231   5.869   0.991   3.292
 8111SOL    HW125232   5.820   0.912   3.258
 8111SOL    HW225233   5.926   0.964   3.370
 8112SOL     OW25234   0.522   2.506   5.207
 8112SOL    HW125235   0.434   2.462   5.225
 8112SOL    HW225236   0.518   2.553   5.119
 8113SOL     OW25237   6.098   2.894   1.063
 8113SOL    HW125238   6.098   2.817   0.999
 8113SOL    HW225239   6.012   2.895   1.115
 8114SOL     OW25240   1.682   4.163   1.644
 8114SOL    HW125241   1.631   4.247   1.632
 8114SOL    HW225242   1.769   4.169   1.596
 8115SOL     OW25243   3.196   0.037   0.159
 8115SOL    HW125244   3.282   0.046   0.210
 8115SOL    HW225245   3.125   0.001   0.220
 8116SOL     OW25246   3.401   5.223   1.052
 8116SOL    HW125247   3.436   5.134   1.024
 8116SOL    HW225248   3.313   5.240   1.006
 8117SOL     OW25249   2.411   0.231   2.947
 8117SOL    HW125250   2.420   0.329   2.928
 8117SOL    HW225251   2.483   0.182   2.898
 8118SOL     OW25252   6.133   3.378   6.556
 8118SOL    HW125253   6.105   3.328   6.637
 8118SOL    HW225254   6.211   3.438   6.578
 8119SOL     OW25255   5.640   5.486   5.409
 8119SOL    HW125256   5.626   5.456   5.314
 8119SOL    HW225257   5.722   5.442   5.446
 8120SOL     OW25258   2.197   5.682   0.637
 8120SOL    HW125259   2.231   5.727   0.555
 8120SOL    HW225260   2.259   5.701   0.714
 8121SOL     OW25261   1.147   4.515   2.790
 8121SOL    HW125262   1.132   4.599   2.738
 8121SOL    HW225263   1.214   4.458   2.743
 8122SOL     OW25264   1.108   4.725   2.572
 8122SOL    HW125265   1.013   4.695   2.569
 8122SOL    HW225266   1.130   4.774   2.488
 8123SOL     OW25267   0.032   2.014   6.858
 8123SOL    HW125268   0.081   2.055   6.781
 8123SOL    HW225269   0.077   2.040   6.944
 8124SOL     OW25270   4.946   5.754   3.777
 8124SOL    HW125271   5.042   5.775   3.754
 8124SOL    HW225272   4.887   5.786   3.703
 8125SOL     OW25273   0.385   0.813   2.961
 8125SOL    HW125274   0.415   0.896   3.007
 8125SOL    HW225275   0.302   0.778   3.005
 8126SOL     OW25276   3.865   5.207   4.220
 8126SOL    HW125277   3.845   5.130   4.160
 8126SOL    HW225278   3.794   5.277   4.210
 8127SOL     OW25279   2.723   2.699   0.526
 8127SOL    HW125280   2.740   2.610   0.570
 8127SOL    HW225281   2.628   2.726   0.540
 8128SOL     OW25282   3.346   2.933   1.797
 8128SOL    HW125283   3.316   3.023   1.764
 8128SOL    HW225284   3.285   2.862   1.760
 8129SOL     OW25285   0.880   2.387   0.486
 8129SOL    HW125286   0.940   2.394   0.406
 8129SOL    HW225287   0.929   2.344   0.561
 8130SOL     OW25288   1.351   5.314   0.370
 8130SOL    HW125289   1.368   5.378   0.295
 8130SOL    HW225290   1.253   5.313   0.391
 8131SOL     OW25291   2.062   2.786   0.805
 8131SOL    HW125292   1.963   2.793   0.815
 8131SOL    HW225293   2.085   2.707   0.748
 8132SOL     OW25294   6.327   7.001   3.830
 8132SOL    HW125295   6.376   6.993   3.917
 8132SOL    HW225296   6.283   6.914   3.809
 8133SOL     OW25297   3.602   5.236   1.316
 8133SOL    HW125298   3.571   5.158   1.262
 8133SOL    HW225299   3.578   5.321   1.269
 8134SOL     OW25300   6.479   0.799   5.562
 8134SOL    HW125301   6.573   0.766   5.554
 8134SOL    HW225302   6.424   0.733   5.613
 8135SOL     OW25303   2.739   6.889   2.105
 8135SOL    HW125304   2.705   6.957   2.040
 8135SOL    HW225305   2.807   6.831   2.059
 8136SOL     OW25306   4.873   5.192   2.486
 8136SOL    HW125307   4.955   5.135   2.487
 8136SOL    HW225308   4.899   5.288   2.476
 8137SOL     OW25309   3.783   1.833   5.185
 8137SOL    HW125310   3.789   1.916   5.129
 8137SOL    HW225311   3.688   1.804   5.192
 8138SOL     OW25312   5.186   1.188   1.877
 8138SOL    HW125313   5.161   1.146   1.964
 8138SOL    HW225314   5.285   1.199   1.873
 8139SOL     OW25315   1.552   1.423   2.479
 8139SOL    HW125316   1.469   1.454   2.525
 8139SOL    HW225317   1.613   1.501   2.465
 8140SOL     OW25318   4.731   1.313   4.476
 8140SOL    HW125319   4.720   1.246   4.403
 8140SOL    HW225320   4.641   1.349   4.502
 8141SOL     OW25321   4.406   5.613   5.447
 8141SOL    HW125322   4.346   5.534   5.453
 8141SOL    HW225323   4.357   5.690   5.406
 8142SOL     OW25324   5.929   4.505   0.484
 8142SOL    HW125325   5.912   4.430   0.420
 8142SOL    HW225326   6.003   4.479   0.546
 8143SOL     OW25327   5.983   4.363   6.291
 8143SOL    HW125328   5.977   4.430   6.365
 8143SOL    HW225329   5.895   4.355   6.245
 8144SOL     OW25330   5.588   6.829   6.984
 8144SOL    HW125331   5.592   6.761   6.910
 8144SOL    HW225332   5.652   6.903   6.963
 8145SOL     OW25333   6.137   5.888   3.013
 8145SOL    HW125334   6.140   5.800   3.060
 8145SOL    HW225335   6.112   5.874   2.917
 8146SOL     OW25336   3.990   0.738   5.621
 8146SOL    HW125337   4.002   0.831   5.584
 8146SOL    HW225338   3.999   0.672   5.547
 8147SOL     OW25339   4.447   1.919   4.106
 8147SOL    HW125340   4.436   1.834   4.157
 8147SOL    HW225341   4.543   1.947   4.109
 8148SOL     OW25342   5.544   2.598   2.422
 8148SOL    HW125343   5.492   2.516   2.399
 8148SOL    HW225344   5.483   2.665   2.464
 8149SOL     OW25345   3.823   5.100   2.647
 8149SOL    HW125346   3.817   5.100   2.547
 8149SOL    HW225347   3.871   5.183   2.677
 8150SOL     OW25348   0.420   5.319   0.573
 8150SOL    HW125349   0.395   5.280   0.662
 8150SOL    HW225350   0.519   5.329   0.567
 8151SOL     OW25351   1.285   2.278   4.328
 8151SOL    HW125352   1.188   2.286   4.348
 8151SOL    HW225353   1.323   2.369   4.307
 8152SOL     OW25354   2.221   0.755   3.632
 8152SOL    HW125355   2.266   0.771   3.544
 8152SOL    HW225356   2.122   0.751   3.619
 8153SOL     OW25357   2.788   0.056   1.311
 8153SOL    HW125358   2.783   0.059   1.411
 8153SOL    HW225359   2.748   0.140   1.274
 8154SOL     OW25360   2.086   6.513   4.009
 8154SOL    HW125361   2.003   6.483   4.055
 8154SOL    HW225362   2.122   6.594   4.054
 8155SOL     OW25363   3.006   3.183   2.554
 8155SOL    HW125364   3.017   3.121   2.476
 8155SOL    HW225365   3.052   3.143   2.634
 8156SOL     OW25366   5.798   0.844   5.137
 8156SOL    HW125367   5.849   0.906   5.197
 8156SOL    HW225368   5.827   0.750   5.154
 8157SOL     OW25369   5.854   3.996   6.411
 8157SOL    HW125370   5.946   4.032   6.425
 8157SOL    HW225371   5.825   3.948   6.494
 8158SOL     OW25372   1.027   5.496   1.328
 8158SOL    HW125373   1.085   5.575   1.348
 8158SOL    HW225374   1.085   5.414   1.324
 8159SOL     OW25375   2.118   5.130   1.792
 8159SOL    HW125376   2.170   5.122   1.876
 8159SOL    HW225377   2.156   5.070   1.722
 8160SOL     OW25378   4.306   2.488   0.934
 8160SOL    HW125379   4.287   2.391   0.919
 8160SOL    HW225380   4.363   2.499   1.015
 8161SOL     OW25381   4.819   1.361   0.344
 8161SOL    HW125382   4.725   1.356   0.310
 8161SOL    HW225383   4.854   1.454   0.332
 8162SOL     OW25384   5.892   6.614   0.780
 8162SOL    HW125385   5.964   6.573   0.724
 8162SOL    HW225386   5.935   6.673   0.850
 8163SOL     OW25387   2.487   4.305   5.400
 8163SOL    HW125388   2.585   4.310   5.380
 8163SOL    HW225389   2.471   4.241   5.474
 8164SOL     OW25390   4.474   2.533   1.163
 8164SOL    HW125391   4.491   2.618   1.212
 8164SOL    HW225392   4.480   2.456   1.226
 8165SOL     OW25393   2.193   4.143   1.687
 8165SOL    HW125394   2.100   4.156   1.653
 8165SOL    HW225395   2.207   4.200   1.768
 8166SOL     OW25396   2.590   0.684   1.868
 8166SOL    HW125397   2.604   0.653   1.773
 8166SOL    HW225398   2.532   0.766   1.868
 8167SOL     OW25399   6.004   2.960   3.601
 8167SOL    HW125400   5.910   2.978   3.571
 8167SOL    HW225401   6.065   3.029   3.562
 8168SOL     OW25402   3.724   1.701   3.020
 8168SOL    HW125403   3.787   1.769   3.056
 8168SOL    HW225404   3.687   1.646   3.095
 8169SOL     OW25405   4.083   3.961   6.970
 8169SOL    HW125406   4.161   3.916   7.014
 8169SOL    HW225407   4.070   3.922   6.879
 8170SOL     OW25408   0.748   5.864   4.230
 8170SOL    HW125409   0.733   5.960   4.208
 8170SOL    HW225410   0.671   5.809   4.196
 8171SOL     OW25411   0.154   2.060   6.606
 8171SOL    HW125412   0.148   2.158   6.621
 8171SOL    HW225413   0.245   2.027   6.632
 8172SOL     OW25414   0.306   6.773   0.163
 8172SOL    HW125415   0.328   6.787   0.260
 8172SOL    HW225416   0.313   6.861   0.115
 8173SOL     OW25417   3.234   2.472   0.089
 8173SOL    HW125418   3.285   2.427   0.162
 8173SOL    HW225419   3.294   2.488   0.011
 8174SOL     OW25420   5.416   1.055   1.563
 8174SOL    HW125421   5.454   1.065   1.471
 8174SOL    HW225422   5.474   0.993   1.616
 8175SOL     OW25423   0.614   1.997   6.428
 8175SOL    HW125424   0.674   2.004   6.349
 8175SOL    HW225425   0.583   1.902   6.438
 8176SOL     OW25426   2.499   5.342   1.968
 8176SOL    HW125427   2.479   5.271   1.901
 8176SOL    HW225428   2.549   5.417   1.924
 8177SOL     OW25429   0.850   6.823   4.356
 8177SOL    HW125430   0.855   6.879   4.439
 8177SOL    HW225431   0.760   6.779   4.350
 8178SOL     OW25432   1.258   6.332   6.823
 8178SOL    HW125433   1.325   6.274   6.869
 8178SOL    HW225434   1.180   6.347   6.883
 8179SOL     OW25435   3.259   2.838   6.888
 8179SOL    HW125436   3.221   2.898   6.818
 8179SOL    HW225437   3.331   2.887   6.938
 8180SOL     OW25438   6.645   6.880   4.451
 8180SOL    HW125439   6.561   6.865   4.503
 8180SOL    HW225440   6.722   6.838   4.499
 8181SOL     OW25441   2.539   2.381   3.167
 8181SOL    HW125442   2.469   2.423   3.225
 8181SOL    HW225443   2.591   2.314   3.219
 8182SOL     OW25444   3.754   2.133   5.541
 8182SOL    HW125445   3.782   2.142   5.636
 8182SOL    HW225446   3.795   2.206   5.487
 8183SOL     OW25447   1.514   3.857   4.752
 8183SOL    HW125448   1.609   3.855   4.721
 8183SOL    HW225449   1.466   3.933   4.709
 8184SOL     OW25450   0.227   0.332   5.406
 8184SOL    HW125451   0.220   0.322   5.505
 8184SOL    HW225452   0.155   0.393   5.374
 8185SOL     OW25453   3.174   1.615   2.043
 8185SOL    HW125454   3.234   1.688   2.009
 8185SOL    HW225455   3.081   1.631   2.013
 8186SOL     OW25456   3.934   5.988   6.122
 8186SOL    HW125457   3.967   6.043   6.199
 8186SOL    HW225458   3.862   6.037   6.074
 8187SOL     OW25459   1.352   2.199   5.640
 8187SOL    HW125460   1.280   2.224   5.705
 8187SOL    HW225461   1.430   2.261   5.652
 8188SOL     OW25462   5.939   2.778   3.049
 8188SOL    HW125463   5.883   2.858   3.068
 8188SOL    HW225464   5.927   2.751   2.954
 8189SOL     OW25465   6.145   4.175   2.799
 8189SOL    HW125466   6.111   4.096   2.850
 8189SOL    HW225467   6.209   4.145   2.729
 8190SOL     OW25468   5.228   3.465   3.809
 8190SOL    HW125469   5.327   3.455   3.799
 8190SOL    HW225470   5.191   3.385   3.857
 8191SOL     OW25471   0.725   5.522   4.525
 8191SOL    HW125472   0.816   5.501   4.491
 8191SOL    HW225473   0.656   5.479   4.467
 8192SOL     OW25474   2.205   4.750   2.341
 8192SOL    HW125475   2.302   4.776   2.342
 8192SOL    HW225476   2.187   4.687   2.416
 8193SOL     OW25477   3.925   6.740   5.291
 8193SOL    HW125478   3.853   6.784   5.238
 8193SOL    HW225479   4.014   6.774   5.261
 8194SOL     OW25480   6.802   0.884   0.093
 8194SOL    HW125481   6.842   0.974   0.079
 8194SOL    HW225482   6.875   0.818   0.113
 8195SOL     OW25483   6.586   6.943   0.148
 8195SOL    HW125484   6.662   6.879   0.140
 8195SOL    HW225485   6.580   6.998   0.064
 8196SOL     OW25486   3.202   6.743   6.282
 8196SOL    HW125487   3.267   6.669   6.302
 8196SOL    HW225488   3.253   6.828   6.264
 8197SOL     OW25489   0.302   0.615   6.162
 8197SOL    HW125490   0.330   0.618   6.066
 8197SOL    HW225491   0.225   0.552   6.173
 8198SOL     OW25492   2.406   6.998   3.315
 8198SOL    HW125493   2.451   0.037   3.381
 8198SOL    HW225494   2.308   6.992   3.337
 8199SOL     OW25495   0.039   3.618   6.552
 8199SOL    HW125496   0.087   3.542   6.597
 8199SOL    HW225497   0.039   3.603   6.453
 8200SOL     OW25498   5.232   4.332   1.021
 8200SOL    HW125499   5.304   4.279   1.066
 8200SOL    HW225500   5.150   4.330   1.078
 8201SOL     OW25501   5.812   6.838   3.493
 8201SOL    HW125502   5.739   6.887   3.541
 8201SOL    HW225503   5.873   6.903   3.449
 8202SOL     OW25504   1.549   3.946   4.076
 8202SOL    HW125505   1.638   3.979   4.106
 8202SOL    HW225506   1.554   3.918   3.980
 8203SOL     OW25507   5.481   3.990   0.979
 8203SOL    HW125508   5.387   3.959   0.988
 8203SOL    HW225509   5.538   3.915   0.947
 8204SOL     OW25510   3.079   0.485   1.981
 8204SOL    HW125511   3.105   0.569   1.933
 8204SOL    HW225512   3.159   0.444   2.023
 8205SOL     OW25513   5.447   5.525   1.610
 8205SOL    HW125514   5.416   5.433   1.633
 8205SOL    HW225515   5.507   5.522   1.530
 8206SOL     OW25516   4.284   1.990   5.058
 8206SOL    HW125517   4.280   1.891   5.042
 8206SOL    HW225518   4.277   2.008   5.156
 8207SOL     OW25519   2.732   5.686   6.640
 8207SOL    HW125520   2.786   5.684   6.556
 8207SOL    HW225521   2.714   5.592   6.670
 8208SOL     OW25522   1.231   4.369   0.765
 8208SOL    HW125523   1.220   4.384   0.863
 8208SOL    HW225524   1.233   4.457   0.718
 8209SOL     OW25525   0.733   0.044   5.342
 8209SOL    HW125526   0.743   0.086   5.251
 8209SOL    HW225527   0.665   6.992   5.338
 8210SOL     OW25528   2.485   1.007   6.960
 8210SOL    HW125529   2.531   0.994   0.026
 8210SOL    HW225530   2.550   1.042   6.893
 8211SOL     OW25531   3.388   2.910   4.497
 8211SOL    HW125532   3.476   2.871   4.467
 8211SOL    HW225533   3.376   2.893   4.595
 8212SOL     OW25534   3.394   0.271   1.250
 8212SOL    HW125535   3.296   0.288   1.259
 8212SOL    HW225536   3.409   0.174   1.230
 8213SOL     OW25537   4.604   3.949   1.718
 8213SOL    HW125538   4.694   3.907   1.704
 8213SOL    HW225539   4.615   4.046   1.736
 8214SOL     OW25540   3.715   5.804   4.456
 8214SOL    HW125541   3.701   5.781   4.359
 8214SOL    HW225542   3.626   5.804   4.503
 8215SOL     OW25543   4.506   6.577   6.635
 8215SOL    HW125544   4.417   6.539   6.660
 8215SOL    HW225545   4.577   6.534   6.690
 8216SOL     OW25546   5.317   5.295   1.686
 8216SOL    HW125547   5.239   5.234   1.694
 8216SOL    HW225548   5.392   5.247   1.638
 8217SOL     OW25549   2.123   5.967   3.713
 8217SOL    HW125550   2.054   5.947   3.644
 8217SOL    HW225551   2.102   6.056   3.756
 8218SOL     OW25552   1.392   0.013   5.166
 8218SOL    HW125553   1.378   0.072   5.087
 8218SOL    HW225554   1.370   0.064   5.249
 8219SOL     OW25555   3.828   3.876   1.340
 8219SOL    HW125556   3.880   3.857   1.257
 8219SOL    HW225557   3.854   3.810   1.411
 8220SOL     OW25558   4.109   3.331   4.170
 8220SOL    HW125559   4.027   3.382   4.194
 8220SOL    HW225560   4.129   3.343   4.073
 8221SOL     OW25561   5.446   3.214   3.209
 8221SOL    HW125562   5.428   3.117   3.224
 8221SOL    HW225563   5.409   3.267   3.286
 8222SOL     OW25564   6.513   2.978   0.698
 8222SOL    HW125565   6.500   2.946   0.792
 8222SOL    HW225566   6.438   3.038   0.673
 8223SOL     OW25567   0.704   5.834   5.175
 8223SOL    HW125568   0.727   5.738   5.155
 8223SOL    HW225569   0.671   5.841   5.269
 8224SOL     OW25570   5.510   1.892   0.473
 8224SOL    HW125571   5.475   1.981   0.502
 8224SOL    HW225572   5.494   1.880   0.376
 8225SOL     OW25573   5.036   1.669   0.616
 8225SOL    HW125574   5.104   1.739   0.596
 8225SOL    HW225575   5.058   1.586   0.565
 8226SOL     OW25576   4.237   0.290   0.250
 8226SOL    HW125577   4.141   0.269   0.269
 8226SOL    HW225578   4.295   0.234   0.309
 8227SOL     OW25579   4.935   2.126   2.910
 8227SOL    HW125580   4.970   2.219   2.900
 8227SOL    HW225581   5.011   2.064   2.930
 8228SOL     OW25582   1.771   0.486   5.402
 8228SOL    HW125583   1.808   0.544   5.474
 8228SOL    HW225584   1.764   0.392   5.435
 8229SOL     OW25585   4.510   4.395   1.265
 8229SOL    HW125586   4.482   4.451   1.187
 8229SOL    HW225587   4.553   4.311   1.233
 8230SOL     OW25588   5.627   0.325   5.905
 8230SOL    HW125589   5.722   0.296   5.915
 8230SOL    HW225590   5.622   0.408   5.851
 8231SOL     OW25591   2.723   1.158   2.967
 8231SOL    HW125592   2.656   1.230   2.947
 8231SOL    HW225593   2.795   1.195   3.025
 8232SOL     OW25594   3.807   6.424   2.736
 8232SOL    HW125595   3.739   6.496   2.720
 8232SOL    HW225596   3.783   6.343   2.681
 8233SOL     OW25597   0.943   0.911   5.922
 8233SOL    HW125598   0.897   0.930   6.009
 8233SOL    HW225599   0.914   0.978   5.854
 8234SOL     OW25600   1.741   1.716   0.635
 8234SOL    HW125601   1.797   1.670   0.704
 8234SOL    HW225602   1.797   1.739   0.556
 8235SOL     OW25603   0.401   5.659   0.914
 8235SOL    HW125604   0.324   5.696   0.965
 8235SOL    HW225605   0.484   5.662   0.970
 8236SOL     OW25606   0.715   6.283   0.584
 8236SOL    HW125607   0.770   6.206   0.552
 8236SOL    HW225608   0.774   6.361   0.603
 8237SOL     OW25609   4.277   4.865   6.935
 8237SOL    HW125610   4.286   4.934   7.006
 8237SOL    HW225611   4.300   4.775   6.972
 8238SOL     OW25612   0.718   4.255   0.259
 8238SOL    HW125613   0.775   4.231   0.338
 8238SOL    HW225614   0.647   4.320   0.287
 8239SOL     OW25615   1.505   1.250   5.482
 8239SOL    HW125616   1.453   1.335   5.496
 8239SOL    HW225617   1.466   1.178   5.540
 8240SOL     OW25618   3.698   3.788   4.581
 8240SOL    HW125619   3.741   3.877   4.562
 8240SOL    HW225620   3.765   3.728   4.625
 8241SOL     OW25621   2.278   4.039   6.010
 8241SOL    HW125622   2.234   3.959   6.052
 8241SOL    HW225623   2.372   4.016   5.985
 8242SOL     OW25624   0.614   3.469   3.902
 8242SOL    HW125625   0.658   3.551   3.866
 8242SOL    HW225626   0.683   3.404   3.932
 8243SOL     OW25627   0.544   4.739   4.704
 8243SOL    HW125628   0.627   4.717   4.652
 8243SOL    HW225629   0.547   4.692   4.793
 8244SOL     OW25630   1.278   0.465   4.609
 8244SOL    HW125631   1.256   0.476   4.512
 8244SOL    HW225632   1.223   0.391   4.647
 8245SOL     OW25633   5.308   1.679   3.871
 8245SOL    HW125634   5.346   1.595   3.831
 8245SOL    HW225635   5.356   1.700   3.956
 8246SOL     OW25636   2.111   5.397   6.489
 8246SOL    HW125637   2.187   5.435   6.542
 8246SOL    HW225638   2.144   5.370   6.398
 8247SOL     OW25639   3.097   5.388   3.022
 8247SOL    HW125640   2.999   5.407   3.013
 8247SOL    HW225641   3.116   5.295   2.990
 8248SOL     OW25642   0.157   5.329   3.137
 8248SOL    HW125643   0.216   5.250   3.120
 8248SOL    HW225644   0.203   5.412   3.105
 8249SOL     OW25645   3.015   1.940   6.321
 8249SOL    HW125646   2.939   1.956   6.385
 8249SOL    HW225647   3.079   2.016   6.324
 8250SOL     OW25648   1.583   1.303   6.721
 8250SOL    HW125649   1.527   1.386   6.719
 8250SOL    HW225650   1.679   1.327   6.736
 8251SOL     OW25651   0.413   1.789   4.490
 8251SOL    HW125652   0.410   1.691   4.473
 8251SOL    HW225653   0.468   1.835   4.421
 8252SOL     OW25654   1.274   2.171   6.678
 8252SOL    HW125655   1.264   2.264   6.713
 8252SOL    HW225656   1.222   2.162   6.593
 8253SOL     OW25657   4.673   6.201   1.146
 8253SOL    HW125658   4.594   6.208   1.084
 8253SOL    HW225659   4.744   6.266   1.118
 8254SOL     OW25660   4.841   5.034   6.689
 8254SOL    HW125661   4.837   4.947   6.641
 8254SOL    HW225662   4.837   5.019   6.788
 8255SOL     OW25663   0.751   6.529   6.670
 8255SOL    HW125664   0.753   6.498   6.765
 8255SOL    HW225665   0.753   6.449   6.610
 8256SOL     OW25666   1.645   5.787   3.681
 8256SOL    HW125667   1.596   5.863   3.723
 8256SOL    HW225668   1.663   5.807   3.585
 8257SOL     OW25669   4.891   3.325   3.211
 8257SOL    HW125670   4.885   3.346   3.114
 8257SOL    HW225671   4.930   3.404   3.260
 8258SOL     OW25672   6.840   3.108   2.378
 8258SOL    HW125673   6.746   3.086   2.351
 8258SOL    HW225674   6.884   3.027   2.416
 8259SOL     OW25675   5.161   1.187   4.563
 8259SOL    HW125676   5.094   1.215   4.632
 8259SOL    HW225677   5.113   1.143   4.486
 8260SOL     OW25678   4.230   1.360   1.360
 8260SOL    HW125679   4.292   1.287   1.329
 8260SOL    HW225680   4.262   1.447   1.323
 8261SOL     OW25681   5.742   0.344   2.921
 8261SOL    HW125682   5.831   0.316   2.887
 8261SOL    HW225683   5.740   0.444   2.931
 8262SOL     OW25684   6.141   3.787   2.197
 8262SOL    HW125685   6.052   3.776   2.241
 8262SOL    HW225686   6.170   3.699   2.158
 8263SOL     OW25687   0.042   2.141   6.026
 8263SOL    HW125688   0.110   2.211   6.047
 8263SOL    HW225689   7.005   2.173   5.951
 8264SOL     OW25690   2.756   6.676   2.584
 8264SOL    HW125691   2.679   6.633   2.536
 8264SOL    HW225692   2.838   6.667   2.528
 8265SOL     OW25693   5.165   0.188   0.746
 8265SOL    HW125694   5.179   0.098   0.786
 8265SOL    HW225695   5.143   0.179   0.649
 8266SOL     OW25696   2.583   0.735   4.018
 8266SOL    HW125697   2.557   0.828   3.992
 8266SOL    HW225698   2.635   0.738   4.104
 8267SOL     OW25699   1.243   4.253   3.181
 8267SOL    HW125700   1.210   4.278   3.272
 8267SOL    HW225701   1.322   4.191   3.190
 8268SOL     OW25702   3.005   4.680   6.285
 8268SOL    HW125703   3.072   4.633   6.229
 8268SOL    HW225704   2.969   4.618   6.354
 8269SOL     OW25705   5.669   2.635   3.713
 8269SOL    HW125706   5.594   2.570   3.726
 8269SOL    HW225707   5.756   2.591   3.738
 8270SOL     OW25708   3.625   0.319   5.967
 8270SOL    HW125709   3.632   0.308   6.066
 8270SOL    HW225710   3.640   0.230   5.922
 8271SOL     OW25711   3.751   6.091   5.971
 8271SOL    HW125712   3.697   6.091   5.887
 8271SOL    HW225713   3.702   6.142   6.042
 8272SOL     OW25714   0.642   0.414   1.513
 8272SOL    HW125715   0.564   0.356   1.535
 8272SOL    HW225716   0.693   0.373   1.437
 8273SOL     OW25717   3.553   0.415   6.777
 8273SOL    HW125718   3.573   0.506   6.740
 8273SOL    HW225719   3.590   0.346   6.715
 8274SOL     OW25720   5.408   5.898   6.217
 8274SOL    HW125721   5.391   5.805   6.185
 8274SOL    HW225722   5.479   5.939   6.160
 8275SOL     OW25723   5.340   0.243   3.500
 8275SOL    HW125724   5.284   0.202   3.572
 8275SOL    HW225725   5.390   0.322   3.537
 8276SOL     OW25726   0.248   2.317   6.128
 8276SOL    HW125727   0.324   2.369   6.089
 8276SOL    HW225728   0.189   2.379   6.180
 8277SOL     OW25729   1.150   6.071   6.336
 8277SOL    HW125730   1.090   5.991   6.336
 8277SOL    HW225731   1.217   6.063   6.409
 8278SOL     OW25732   4.000   1.096   0.559
 8278SOL    HW125733   4.025   1.001   0.541
 8278SOL    HW225734   4.073   1.157   0.527
 8279SOL     OW25735   5.027   4.942   5.951
 8279SOL    HW125736   5.025   5.014   5.881
 8279SOL    HW225737   5.099   4.964   6.017
 8280SOL     OW25738   5.126   3.114   6.987
 8280SOL    HW125739   5.044   3.168   6.969
 8280SOL    HW225740   5.169   3.146   0.050
 8281SOL     OW25741   2.384   5.060   6.922
 8281SOL    HW125742   2.429   4.990   6.976
 8281SOL    HW225743   2.320   5.112   6.979
 8282SOL     OW25744   2.890   1.863   0.471
 8282SOL    HW125745   2.940   1.831   0.552
 8282SOL    HW225746   2.954   1.878   0.396
 8283SOL     OW25747   0.249   5.583   3.075
 8283SOL    HW125748   0.210   5.668   3.040
 8283SOL    HW225749   0.324   5.604   3.137
 8284SOL     OW25750   2.815   1.880   1.864
 8284SOL    HW125751   2.749   1.854   1.935
 8284SOL    HW225752   2.783   1.964   1.819
 8285SOL     OW25753   3.065   4.212   6.212
 8285SOL    HW125754   3.018   4.246   6.294
 8285SOL    HW225755   3.062   4.112   6.210
 8286SOL     OW25756   5.753   1.037   5.471
 8286SOL    HW125757   5.671   0.997   5.431
 8286SOL    HW225758   5.738   1.054   5.569
 8287SOL     OW25759   2.247   0.548   3.169
 8287SOL    HW125760   2.197   0.634   3.159
 8287SOL    HW225761   2.190   0.472   3.138
 8288SOL     OW25762   1.771   0.979   2.989
 8288SOL    HW125763   1.794   0.893   3.035
 8288SOL    HW225764   1.825   1.053   3.029
 8289SOL     OW25765   6.614   1.632   5.975
 8289SOL    HW125766   6.627   1.545   5.928
 8289SOL    HW225767   6.524   1.670   5.950
 8290SOL     OW25768   4.517   2.756   1.554
 8290SOL    HW125769   4.537   2.662   1.581
 8290SOL    HW225770   4.571   2.819   1.609
 8291SOL     OW25771   4.309   4.845   6.154
 8291SOL    HW125772   4.277   4.932   6.193
 8291SOL    HW225773   4.383   4.863   6.090
 8292SOL     OW25774   0.805   4.050   4.565
 8292SOL    HW125775   0.862   4.070   4.645
 8292SOL    HW225776   0.711   4.032   4.595
 8293SOL     OW25777   3.185   4.855   4.013
 8293SOL    HW125778   3.145   4.843   3.922
 8293SOL    HW225779   3.112   4.865   4.081
 8294SOL     OW25780   4.724   3.173   5.748
 8294SOL    HW125781   4.653   3.226   5.795
 8294SOL    HW225782   4.690   3.142   5.659
 8295SOL     OW25783   5.133   4.123   2.149
 8295SOL    HW125784   5.112   4.080   2.237
 8295SOL    HW225785   5.221   4.091   2.116
 8296SOL     OW25786   3.763   6.311   1.592
 8296SOL    HW125787   3.665   6.305   1.574
 8296SOL    HW225788   3.788   6.407   1.607
 8297SOL     OW25789   5.706   4.283   2.988
 8297SOL    HW125790   5.785   4.303   2.931
 8297SOL    HW225791   5.653   4.367   3.002
 8298SOL     OW25792   6.548   0.016   5.924
 8298SOL    HW125793   6.618   0.086   5.911
 8298SOL    HW225794   6.570   6.958   5.868
 8299SOL     OW25795   0.495   3.516   0.966
 8299SOL    HW125796   0.445   3.603   0.969
 8299SOL    HW225797   0.478   3.471   0.879
 8300SOL     OW25798   5.377   4.574   2.508
 8300SOL    HW125799   5.459   4.612   2.550
 8300SOL    HW225800   5.343   4.635   2.437
 8301SOL     OW25801   4.689   6.533   0.486
 8301SOL    HW125802   4.622   6.606   0.489
 8301SOL    HW225803   4.725   6.517   0.578
 8302SOL     OW25804   3.594   6.703   5.329
 8302SOL    HW125805   3.625   6.757   5.251
 8302SOL    HW225806   3.572   6.763   5.405
 8303SOL     OW25807   0.130   6.368   2.741
 8303SOL    HW125808   0.124   6.274   2.774
 8303SOL    HW225809   0.040   6.399   2.712
 8304SOL     OW25810   5.386   3.917   3.207
 8304SOL    HW125811   5.398   3.933   3.109
 8304SOL    HW225812   5.337   3.994   3.248
 8305SOL     OW25813   4.718   6.317   4.559
 8305SOL    HW125814   4.660   6.395   4.536
 8305SOL    HW225815   4.813   6.346   4.565
 8306SOL     OW25816   0.065   0.863   2.344
 8306SOL    HW125817   0.119   0.782   2.370
 8306SOL    HW225818   0.031   0.851   2.251
 8307SOL     OW25819   1.297   3.684   2.868
 8307SOL    HW125820   1.268   3.773   2.903
 8307SOL    HW225821   1.218   3.622   2.864
 8308SOL     OW25822   1.449   5.656   0.991
 8308SOL    HW125823   1.425   5.600   0.912
 8308SOL    HW225824   1.381   5.729   1.002
 8309SOL     OW25825   5.683   4.380   4.278
 8309SOL    HW125826   5.711   4.404   4.185
 8309SOL    HW225827   5.718   4.289   4.301
 8310SOL     OW25828   0.973   0.231   0.346
 8310SOL    HW125829   0.991   0.325   0.319
 8310SOL    HW225830   0.996   0.218   0.442
 8311SOL     OW25831   5.934   6.651   3.098
 8311SOL    HW125832   5.977   6.574   3.050
 8311SOL    HW225833   6.006   6.713   3.131
 8312SOL     OW25834   5.660   1.634   0.458
 8312SOL    HW125835   5.678   1.723   0.417
 8312SOL    HW225836   5.574   1.637   0.509
 8313SOL     OW25837   5.304   2.365   4.955
 8313SOL    HW125838   5.251   2.280   4.945
 8313SOL    HW225839   5.265   2.436   4.896
 8314SOL     OW25840   5.116   6.117   4.639
 8314SOL    HW125841   5.209   6.130   4.605
 8314SOL    HW225842   5.078   6.032   4.602
 8315SOL     OW25843   3.598   3.905   5.083
 8315SOL    HW125844   3.620   3.892   5.180
 8315SOL    HW225845   3.653   3.843   5.027
 8316SOL     OW25846   2.360   2.606   6.087
 8316SOL    HW125847   2.437   2.615   6.024
 8316SOL    HW225848   2.393   2.608   6.181
 8317SOL     OW25849   2.017   1.495   3.836
 8317SOL    HW125850   1.974   1.410   3.809
 8317SOL    HW225851   2.084   1.523   3.767
 8318SOL     OW25852   4.239   0.219   6.999
 8318SOL    HW125853   4.267   0.278   6.923
 8318SOL    HW225854   4.238   0.272   0.062
 8319SOL     OW25855   1.082   6.587   6.791
 8319SOL    HW125856   0.999   6.536   6.814
 8319SOL    HW225857   1.158   6.556   6.848
 8320SOL     OW25858   2.993   3.262   4.721
 8320SOL    HW125859   2.918   3.267   4.655
 8320SOL    HW225860   3.014   3.166   4.741
 8321SOL     OW25861   0.348   6.719   1.788
 8321SOL    HW125862   0.415   6.646   1.773
 8321SOL    HW225863   0.265   6.680   1.828
 8322SOL     OW25864   1.046   6.906   6.843
 8322SOL    HW125865   1.102   6.921   6.762
 8322SOL    HW225866   0.969   6.846   6.820
 8323SOL     OW25867   5.385   4.112   0.280
 8323SOL    HW125868   5.305   4.056   0.302
 8323SOL    HW225869   5.355   4.202   0.248
 8324SOL     OW25870   4.921   5.833   6.141
 8324SOL    HW125871   4.964   5.921   6.164
 8324SOL    HW225872   4.976   5.787   6.071
 8325SOL     OW25873   1.143   5.483   6.193
 8325SOL    HW125874   1.108   5.542   6.267
 8325SOL    HW225875   1.187   5.540   6.124
 8326SOL     OW25876   1.475   3.715   1.046
 8326SOL    HW125877   1.447   3.770   1.124
 8326SOL    HW225878   1.397   3.661   1.014
 8327SOL     OW25879   0.728   0.101   5.069
 8327SOL    HW125880   0.672   0.177   5.037
 8327SOL    HW225881   0.676   0.016   5.061
 8328SOL     OW25882   1.503   6.999   0.253
 8328SOL    HW125883   1.423   0.031   0.226
 8328SOL    HW225884   1.565   0.035   0.307
 8329SOL     OW25885   1.661   2.938   4.784
 8329SOL    HW125886   1.631   2.996   4.860
 8329SOL    HW225887   1.760   2.925   4.789
 8330SOL     OW25888   3.801   1.387   6.181
 8330SOL    HW125889   3.820   1.343   6.268
 8330SOL    HW225890   3.875   1.367   6.116
 8331SOL     OW25891   1.848   2.648   6.123
 8331SOL    HW125892   1.791   2.567   6.121
 8331SOL    HW225893   1.908   2.645   6.203
 8332SOL     OW25894   5.984   5.239   1.652
 8332SOL    HW125895   6.035   5.240   1.738
 8332SOL    HW225896   5.911   5.307   1.656
 8333SOL     OW25897   2.121   4.772   0.924
 8333SOL    HW125898   2.064   4.737   0.998
 8333SOL    HW225899   2.217   4.753   0.944
 8334SOL     OW25900   3.719   1.825   6.211
 8334SOL    HW125901   3.773   1.777   6.280
 8334SOL    HW225902   3.760   1.915   6.193
 8335SOL     OW25903   5.416   3.627   6.226
 8335SOL    HW125904   5.373   3.537   6.223
 8335SOL    HW225905   5.509   3.620   6.190
 8336SOL     OW25906   1.048   4.323   3.673
 8336SOL    HW125907   0.979   4.375   3.723
 8336SOL    HW225908   1.116   4.287   3.737
 8337SOL     OW25909   0.694   1.334   5.051
 8337SOL    HW125910   0.765   1.404   5.035
 8337SOL    HW225911   0.715   1.284   5.134
 8338SOL     OW25912   4.271   5.599   2.145
 8338SOL    HW125913   4.259   5.682   2.090
 8338SOL    HW225914   4.192   5.539   2.132
 8339SOL     OW25915   6.074   6.490   0.609
 8339SOL    HW125916   6.104   6.405   0.652
 8339SOL    HW225917   6.154   6.542   0.579
 8340SOL     OW25918   6.030   2.293   6.741
 8340SOL    HW125919   6.123   2.257   6.746
 8340SOL    HW225920   6.009   2.342   6.826
 8341SOL     OW25921   3.310   0.677   0.487
 8341SOL    HW125922   3.342   0.627   0.567
 8341SOL    HW225923   3.224   0.723   0.509
 8342SOL     OW25924   4.843   0.470   0.301
 8342SOL    HW125925   4.765   0.412   0.278
 8342SOL    HW225926   4.836   0.557   0.252
 8343SOL     OW25927   5.939   4.108   3.450
 8343SOL    HW125928   5.897   4.163   3.522
 8343SOL    HW225929   5.930   4.011   3.472
 8344SOL     OW25930   1.259   5.334   5.289
 8344SOL    HW125931   1.298   5.251   5.250
 8344SOL    HW225932   1.258   5.326   5.389
 8345SOL     OW25933   4.161   1.229   3.678
 8345SOL    HW125934   4.220   1.294   3.630
 8345SOL    HW225935   4.084   1.278   3.719
 8346SOL     OW25936   5.788   3.236   5.030
 8346SOL    HW125937   5.817   3.288   5.110
 8346SOL    HW225938   5.770   3.141   5.056
 8347SOL     OW25939   2.660   0.203   0.148
 8347SOL    HW125940   2.737   0.266   0.158
 8347SOL    HW225941   2.680   0.118   0.196
 8348SOL     OW25942   3.674   6.591   1.876
 8348SOL    HW125943   3.713   6.668   1.826
 8348SOL    HW225944   3.612   6.540   1.816
 8349SOL     OW25945   0.379   6.133   1.778
 8349SOL    HW125946   0.404   6.100   1.870
 8349SOL    HW225947   0.406   6.065   1.710
 8350SOL     OW25948   2.680   0.551   0.683
 8350SOL    HW125949   2.758   0.611   0.697
 8350SOL    HW225950   2.665   0.537   0.585
 8351SOL     OW25951   6.387   3.154   3.009
 8351SOL    HW125952   6.448   3.163   3.088
 8351SOL    HW225953   6.400   3.064   2.968
 8352SOL     OW25954   1.942   6.165   1.703
 8352SOL    HW125955   1.998   6.242   1.671
 8352SOL    HW225956   1.852   6.170   1.662
 8353SOL     OW25957   1.630   4.396   1.852
 8353SOL    HW125958   1.546   4.350   1.881
 8353SOL    HW225959   1.614   4.442   1.765
 8354SOL     OW25960   2.741   0.244   3.266
 8354SOL    HW125961   2.740   0.322   3.328
 8354SOL    HW225962   2.647   0.221   3.239
 8355SOL     OW25963   2.480   5.844   6.730
 8355SOL    HW125964   2.409   5.831   6.661
 8355SOL    HW225965   2.561   5.790   6.704
 8356SOL     OW25966   1.737   5.704   0.877
 8356SOL    HW125967   1.651   5.703   0.929
 8356SOL    HW225968   1.796   5.630   0.909
 8357SOL     OW25969   4.150   6.014   5.707
 8357SOL    HW125970   4.232   5.967   5.675
 8357SOL    HW225971   4.074   5.948   5.712
 8358SOL     OW25972   0.697   1.837   5.006
 8358SOL    HW125973   0.674   1.931   4.982
 8358SOL    HW225974   0.646   1.774   4.947
 8359SOL     OW25975   3.280   2.127   5.682
 8359SOL    HW125976   3.344   2.136   5.605
 8359SOL    HW225977   3.286   2.208   5.739
 8360SOL     OW25978   4.450   6.903   1.506
 8360SOL    HW125979   4.428   6.830   1.570
 8360SOL    HW225980   4.384   6.978   1.517
 8361SOL     OW25981   3.791   0.253   6.639
 8361SOL    HW125982   3.709   0.203   6.611
 8361SOL    HW225983   3.851   0.192   6.691
 8362SOL     OW25984   0.285   3.786   1.756
 8362SOL    HW125985   0.345   3.733   1.696
 8362SOL    HW225986   0.338   3.861   1.798
 8363SOL     OW25987   2.851   3.175   6.978
 8363SOL    HW125988   2.926   3.120   7.017
 8363SOL    HW225989   2.764   3.138   7.010
 8364SOL     OW25990   6.918   3.110   4.311
 8364SOL    HW125991   6.874   3.037   4.259
 8364SOL    HW225992   6.928   3.082   4.406
 8365SOL     OW25993   1.713   2.635   2.589
 8365SOL    HW125994   1.772   2.676   2.658
 8365SOL    HW225995   1.768   2.576   2.529
 8366SOL     OW25996   4.881   5.242   2.144
 8366SOL    HW125997   4.817   5.169   2.168
 8366SOL    HW225998   4.894   5.243   2.044
 8367SOL     OW25999   3.765   5.235   4.531
 8367SOL    HW126000   3.667   5.244   4.551
 8367SOL    HW226001   3.794   5.141   4.546
 8368SOL     OW26002   6.790   6.589   0.200
 8368SOL    HW126003   6.854   6.551   0.132
 8368SOL    HW226004   6.810   6.549   0.289
 8369SOL     OW26005   2.665   0.284   1.209
 8369SOL    HW126006   2.660   0.345   1.131
 8369SOL    HW226007   2.652   0.336   1.293
 8370SOL     OW26008   2.546   2.851   0.330
 8370SOL    HW126009   2.551   2.950   0.332
 8370SOL    HW226010   2.519   2.817   0.421
 8371SOL     OW26011   1.719   4.473   6.214
 8371SOL    HW126012   1.795   4.414   6.185
 8371SOL    HW226013   1.663   4.495   6.134
 8372SOL     OW26014   2.348   5.738   2.635
 8372SOL    HW126015   2.291   5.686   2.698
 8372SOL    HW226016   2.445   5.721   2.654
 8373SOL     OW26017   6.704   1.093   4.300
 8373SOL    HW126018   6.641   1.167   4.325
 8373SOL    HW226019   6.798   1.122   4.319
 8374SOL     OW26020   1.646   0.197   4.645
 8374SOL    HW126021   1.550   0.170   4.645
 8374SOL    HW226022   1.655   0.290   4.609
 8375SOL     OW26023   4.132   1.053   4.553
 8375SOL    HW126024   4.120   1.127   4.487
 8375SOL    HW226025   4.094   0.969   4.515
 8376SOL     OW26026   2.156   0.805   3.147
 8376SOL    HW126027   2.240   0.846   3.113
 8376SOL    HW226028   2.125   0.854   3.228
 8377SOL     OW26029   4.432   5.775   0.238
 8377SOL    HW126030   4.433   5.675   0.246
 8377SOL    HW226031   4.514   5.812   0.282
 8378SOL     OW26032   5.369   5.633   3.939
 8378SOL    HW126033   5.298   5.643   4.008
 8378SOL    HW226034   5.411   5.543   3.947
 8379SOL     OW26035   5.722   1.234   1.708
 8379SOL    HW126036   5.797   1.269   1.652
 8379SOL    HW226037   5.712   1.135   1.692
 8380SOL     OW26038   6.375   5.629   0.748
 8380SOL    HW126039   6.283   5.637   0.710
 8380SOL    HW226040   6.402   5.532   0.750
 8381SOL     OW26041   0.302   2.209   1.934
 8381SOL    HW126042   0.218   2.258   1.911
 8381SOL    HW226043   0.374   2.275   1.955
 8382SOL     OW26044   2.682   0.450   0.941
 8382SOL    HW126045   2.624   0.496   1.008
 8382SOL    HW226046   2.662   0.487   0.850
 8383SOL     OW26047   2.665   6.309   6.254
 8383SOL    HW126048   2.731   6.308   6.180
 8383SOL    HW226049   2.713   6.311   6.342
 8384SOL     OW26050   0.474   2.412   1.266
 8384SOL    HW126051   0.472   2.454   1.357
 8384SOL    HW226052   0.566   2.420   1.228
 8385SOL     OW26053   3.554   3.861   1.375
 8385SOL    HW126054   3.501   3.827   1.297
 8385SOL    HW226055   3.651   3.859   1.353
 8386SOL     OW26056   1.774   5.684   2.141
 8386SOL    HW126057   1.802   5.603   2.193
 8386SOL    HW226058   1.757   5.759   2.204
 8387SOL     OW26059   1.485   0.981   2.215
 8387SOL    HW126060   1.450   0.914   2.281
 8387SOL    HW226061   1.493   1.070   2.260
 8388SOL     OW26062   4.093   6.545   0.983
 8388SOL    HW126063   4.050   6.612   0.922
 8388SOL    HW226064   4.076   6.453   0.949
 8389SOL     OW26065   0.585   2.721   3.986
 8389SOL    HW126066   0.663   2.658   3.998
 8389SOL    HW226067   0.572   2.738   3.888
 8390SOL     OW26068   2.932   1.011   5.928
 8390SOL    HW126069   2.914   0.923   5.972
 8390SOL    HW226070   2.854   1.073   5.943
 8391SOL     OW26071   5.194   6.101   1.296
 8391SOL    HW126072   5.167   6.105   1.199
 8391SOL    HW226073   5.264   6.031   1.308
 8392SOL     OW26074   5.490   6.302   5.143
 8392SOL    HW126075   5.561   6.255   5.195
 8392SOL    HW226076   5.478   6.257   5.055
 8393SOL     OW26077   6.948   6.141   3.102
 8393SOL    HW126078   6.955   6.241   3.097
 8393SOL    HW226079   6.963   6.112   3.197
 8394SOL     OW26080   0.571   2.155   2.843
 8394SOL    HW126081   0.505   2.141   2.769
 8394SOL    HW226082   0.611   2.067   2.868
 8395SOL     OW26083   6.767   5.850   5.208
 8395SOL    HW126084   6.718   5.809   5.131
 8395SOL    HW226085   6.835   5.785   5.243
 8396SOL     OW26086   4.880   3.809   2.130
 8396SOL    HW126087   4.804   3.764   2.178
 8396SOL    HW226088   4.892   3.902   2.165
 8397SOL     OW26089   2.077   5.776   3.272
 8397SOL    HW126090   2.128   5.834   3.207
 8397SOL    HW226091   2.128   5.692   3.288
 8398SOL     OW26092   4.341   1.783   0.487
 8398SOL    HW126093   4.327   1.707   0.424
 8398SOL    HW226094   4.253   1.818   0.518
 8399SOL     OW26095   5.993   6.184   0.367
 8399SOL    HW126096   6.048   6.242   0.307
 8399SOL    HW226097   5.910   6.232   0.394
 8400SOL     OW26098   6.417   0.876   2.647
 8400SOL    HW126099   6.516   0.864   2.661
 8400SOL    HW226100   6.386   0.813   2.576
 8401SOL     OW26101   3.032   4.707   6.731
 8401SOL    HW126102   2.977   4.641   6.679
 8401SOL    HW226103   2.972   4.777   6.769
 8402SOL     OW26104   4.808   1.936   6.885
 8402SOL    HW126105   4.781   1.847   6.922
 8402SOL    HW226106   4.884   1.973   6.939
 8403SOL     OW26107   1.625   1.220   4.520
 8403SOL    HW126108   1.531   1.245   4.500
 8403SOL    HW226109   1.641   1.224   4.619
 8404SOL     OW26110   4.781   5.550   5.789
 8404SOL    HW126111   4.699   5.605   5.772
 8404SOL    HW226112   4.756   5.468   5.841
 8405SOL     OW26113   0.425   2.511   6.011
 8405SOL    HW126114   0.520   2.495   6.039
 8405SOL    HW226115   0.419   2.598   5.961
 8406SOL     OW26116   5.096   3.014   1.423
 8406SOL    HW126117   5.087   3.029   1.522
 8406SOL    HW226118   5.192   2.996   1.401
 8407SOL     OW26119   4.840   4.136   3.247
 8407SOL    HW126120   4.782   4.210   3.212
 8407SOL    HW226121   4.932   4.145   3.210
 8408SOL     OW26122   5.097   1.880   4.970
 8408SOL    HW126123   5.095   1.916   4.877
 8408SOL    HW226124   5.096   1.956   5.035
 8409SOL     OW26125   1.492   1.501   3.786
 8409SOL    HW126126   1.539   1.521   3.871
 8409SOL    HW226127   1.533   1.420   3.743
 8410SOL     OW26128   4.348   6.736   1.703
 8410SOL    HW126129   4.270   6.732   1.641
 8410SOL    HW226130   4.349   6.655   1.762
 8411SOL     OW26131   1.537   3.855   5.050
 8411SOL    HW126132   1.470   3.781   5.050
 8411SOL    HW226133   1.490   3.943   5.052
 8412SOL     OW26134   5.114   2.397   3.316
 8412SOL    HW126135   5.146   2.486   3.281
 8412SOL    HW226136   5.017   2.385   3.292
 8413SOL     OW26137   3.627   4.969   0.714
 8413SOL    HW126138   3.609   4.882   0.668
 8413SOL    HW226139   3.725   4.989   0.711
 8414SOL     OW26140   3.884   6.765   3.126
 8414SOL    HW126141   3.937   6.690   3.085
 8414SOL    HW226142   3.943   6.816   3.188
 8415SOL     OW26143   6.409   3.887   2.703
 8415SOL    HW126144   6.344   3.867   2.777
 8415SOL    HW226145   6.448   3.978   2.717
 8416SOL     OW26146   5.813   3.606   2.030
 8416SOL    HW126147   5.791   3.620   1.934
 8416SOL    HW226148   5.846   3.691   2.071
 8417SOL     OW26149   2.420   6.194   5.988
 8417SOL    HW126150   2.342   6.181   5.927
 8417SOL    HW226151   2.400   6.268   6.053
 8418SOL     OW26152   6.657   5.916   3.177
 8418SOL    HW126153   6.716   5.866   3.113
 8418SOL    HW226154   6.684   5.895   3.271
 8419SOL     OW26155   4.294   0.746   3.018
 8419SOL    HW126156   4.305   0.742   3.117
 8419SOL    HW226157   4.259   0.836   2.991
 8420SOL     OW26158   3.748   0.672   6.277
 8420SOL    HW126159   3.762   0.673   6.178
 8420SOL    HW226160   3.672   0.733   6.300
 8421SOL     OW26161   1.707   7.005   2.013
 8421SOL    HW126162   1.704   6.906   2.011
 8421SOL    HW226163   1.798   0.015   1.985
 8422SOL     OW26164   4.536   6.735   0.458
 8422SOL    HW126165   4.526   6.795   0.378
 8422SOL    HW226166   4.471   6.762   0.529
 8423SOL     OW26167   3.345   4.070   0.733
 8423SOL    HW126168   3.293   4.094   0.815
 8423SOL    HW226169   3.442   4.081   0.751
 8424SOL     OW26170   3.649   1.159   2.876
 8424SOL    HW126171   3.578   1.229   2.888
 8424SOL    HW226172   3.729   1.200   2.832
 8425SOL     OW26173   6.324   4.753   0.425
 8425SOL    HW126174   6.398   4.801   0.378
 8425SOL    HW226175   6.236   4.785   0.390
 8426SOL     OW26176   3.986   3.915   3.205
 8426SOL    HW126177   4.079   3.904   3.239
 8426SOL    HW226178   3.926   3.941   3.280
 8427SOL     OW26179   2.040   3.868   6.604
 8427SOL    HW126180   2.129   3.822   6.609
 8427SOL    HW226181   2.039   3.931   6.526
 8428SOL     OW26182   6.808   3.978   2.077
 8428SOL    HW126183   6.797   3.958   2.175
 8428SOL    HW226184   6.883   4.042   2.064
 8429SOL     OW26185   1.668   6.366   3.910
 8429SOL    HW126186   1.649   6.303   3.834
 8429SOL    HW226187   1.753   6.338   3.956
 8430SOL     OW26188   4.187   4.962   2.711
 8430SOL    HW126189   4.115   4.906   2.753
 8430SOL    HW226190   4.275   4.916   2.718
 8431SOL     OW26191   3.130   4.759   1.467
 8431SOL    HW126192   3.144   4.802   1.378
 8431SOL    HW226193   3.121   4.660   1.454
 8432SOL     OW26194   3.962   6.620   6.363
 8432SOL    HW126195   3.924   6.527   6.366
 8432SOL    HW226196   3.987   6.643   6.269
 8433SOL     OW26197   1.146   2.140   6.431
 8433SOL    HW126198   1.170   2.046   6.409
 8433SOL    HW226199   1.047   2.147   6.446
 8434SOL     OW26200   5.134   6.982   5.507
 8434SOL    HW126201   5.095   7.012   5.594
 8434SOL    HW226202   5.231   7.008   5.503
 8435SOL     OW26203   4.208   2.129   1.250
 8435SOL    HW126204   4.172   2.153   1.341
 8435SOL    HW226205   4.262   2.046   1.257
 8436SOL     OW26206   4.225   4.431   1.689
 8436SOL    HW126207   4.255   4.406   1.597
 8436SOL    HW226208   4.283   4.386   1.756
 8437SOL     OW26209   0.835   1.796   0.868
 8437SOL    HW126210   0.825   1.711   0.815
 8437SOL    HW226211   0.775   1.866   0.829
 8438SOL     OW26212   1.882   5.465   2.295
 8438SOL    HW126213   1.930   5.543   2.335
 8438SOL    HW226214   1.924   5.380   2.327
 8439SOL     OW26215   6.850   5.284   2.501
 8439SOL    HW126216   6.833   5.242   2.590
 8439SOL    HW226217   6.794   5.366   2.492
 8440SOL     OW26218   0.724   1.192   2.116
 8440SOL    HW126219   0.821   1.212   2.121
 8440SOL    HW226220   0.709   1.114   2.055
 8441SOL     OW26221   4.208   5.559   6.464
 8441SOL    HW126222   4.169   5.534   6.376
 8441SOL    HW226223   4.228   5.657   6.465
 8442SOL     OW26224   2.168   4.680   6.830
 8442SOL    HW126225   2.099   4.621   6.789
 8442SOL    HW226226   2.157   4.773   6.795
 8443SOL     OW26227   1.496   0.250   3.154
 8443SOL    HW126228   1.508   0.173   3.091
 8443SOL    HW226229   1.491   0.335   3.101
 8444SOL     OW26230   3.275   6.452   3.202
 8444SOL    HW126231   3.326   6.459   3.116
 8444SOL    HW226232   3.331   6.487   3.277
 8445SOL     OW26233   3.687   4.870   2.669
 8445SOL    HW126234   3.744   4.950   2.684
 8445SOL    HW226235   3.638   4.879   2.582
 8446SOL     OW26236   5.780   4.541   2.046
 8446SOL    HW126237   5.857   4.604   2.058
 8446SOL    HW226238   5.815   4.449   2.029
 8447SOL     OW26239   4.706   2.464   1.960
 8447SOL    HW126240   4.645   2.543   1.962
 8447SOL    HW226241   4.757   2.463   1.874
 8448SOL     OW26242   0.749   3.656   6.625
 8448SOL    HW126243   0.836   3.705   6.614
 8448SOL    HW226244   0.716   3.668   6.719
 8449SOL     OW26245   1.363   3.379   4.635
 8449SOL    HW126246   1.359   3.475   4.662
 8449SOL    HW226247   1.368   3.322   4.717
 8450SOL     OW26248   2.523   5.625   2.991
 8450SOL    HW126249   2.622   5.625   2.976
 8450SOL    HW226250   2.478   5.576   2.916
 8451SOL     OW26251   3.832   2.729   1.421
 8451SOL    HW126252   3.836   2.726   1.321
 8451SOL    HW226253   3.787   2.646   1.455
 8452SOL     OW26254   0.006   0.042   0.799
 8452SOL    HW126255   0.036   0.124   0.847
 8452SOL    HW226256   0.063   6.986   0.827
 8453SOL     OW26257   6.718   3.971   6.087
 8453SOL    HW126258   6.680   3.880   6.073
 8453SOL    HW226259   6.682   4.033   6.017
 8454SOL     OW26260   1.677   0.159   4.101
 8454SOL    HW126261   1.623   0.180   4.183
 8454SOL    HW226262   1.774   0.161   4.125
 8455SOL     OW26263   4.796   1.636   0.745
 8455SOL    HW126264   4.889   1.641   0.709
 8455SOL    HW226265   4.748   1.560   0.702
 8456SOL     OW26266   5.248   5.304   3.076
 8456SOL    HW126267   5.153   5.307   3.045
 8456SOL    HW226268   5.291   5.393   3.064
 8457SOL     OW26269   0.182   6.017   5.993
 8457SOL    HW126270   0.233   6.103   6.004
 8457SOL    HW226271   0.107   6.032   5.929
 8458SOL     OW26272   1.693   1.427   0.600
 8458SOL    HW126273   1.675   1.514   0.647
 8458SOL    HW226274   1.680   1.351   0.664
 8459SOL     OW26275   3.564   5.726   2.026
 8459SOL    HW126276   3.643   5.731   1.966
 8459SOL    HW226277   3.505   5.805   2.011
 8460SOL     OW26278   4.830   1.849   0.263
 8460SOL    HW126279   4.895   1.853   0.338
 8460SOL    HW226280   4.743   1.888   0.292
 8461SOL     OW26281   0.068   3.864   1.626
 8461SOL    HW126282   0.002   3.926   1.668
 8461SOL    HW226283   0.145   3.850   1.687
 8462SOL     OW26284   3.332   4.607   6.443
 8462SOL    HW126285   3.302   4.672   6.514
 8462SOL    HW226286   3.427   4.626   6.419
 8463SOL     OW26287   6.450   1.532   0.468
 8463SOL    HW126288   6.439   1.628   0.496
 8463SOL    HW226289   6.547   1.514   0.453
 8464SOL     OW26290   0.360   3.114   0.021
 8464SOL    HW126291   0.406   3.032   0.057
 8464SOL    HW226292   0.299   3.088   6.968
 8465SOL     OW26293   4.158   3.169   1.154
 8465SOL    HW126294   4.151   3.082   1.105
 8465SOL    HW226295   4.142   3.244   1.090
 8466SOL     OW26296   5.769   0.402   5.445
 8466SOL    HW126297   5.821   0.324   5.412
 8466SOL    HW226298   5.750   0.464   5.369
 8467SOL     OW26299   3.486   1.170   1.287
 8467SOL    HW126300   3.418   1.183   1.360
 8467SOL    HW226301   3.571   1.215   1.312
 8468SOL     OW26302   6.582   3.372   6.643
 8468SOL    HW126303   6.652   3.312   6.606
 8468SOL    HW226304   6.612   3.467   6.635
 8469SOL     OW26305   3.570   2.562   5.832
 8469SOL    HW126306   3.606   2.648   5.866
 8469SOL    HW226307   3.492   2.580   5.772
 8470SOL     OW26308   1.616   5.006   1.426
 8470SOL    HW126309   1.602   5.054   1.512
 8470SOL    HW226310   1.529   4.971   1.392
 8471SOL     OW26311   3.498   2.139   5.428
 8471SOL    HW126312   3.587   2.136   5.474
 8471SOL    HW226313   3.510   2.118   5.331
 8472SOL     OW26314   5.440   1.497   5.818
 8472SOL    HW126315   5.512   1.520   5.753
 8472SOL    HW226316   5.464   1.413   5.866
 8473SOL     OW26317   4.905   4.088   6.387
 8473SOL    HW126318   4.825   4.084   6.447
 8473SOL    HW226319   4.942   3.996   6.374
 8474SOL     OW26320   3.160   3.591   2.473
 8474SOL    HW126321   3.092   3.519   2.486
 8474SOL    HW226322   3.113   3.679   2.460
 8475SOL     OW26323   6.425   3.111   1.965
 8475SOL    HW126324   6.494   3.180   1.989
 8475SOL    HW226325   6.466   3.042   1.905
 8476SOL     OW26326   6.207   0.336   1.698
 8476SOL    HW126327   6.119   0.376   1.725
 8476SOL    HW226328   6.196   0.236   1.691
 8477SOL     OW26329   6.032   6.653   1.410
 8477SOL    HW126330   6.058   6.701   1.326
 8477SOL    HW226331   6.111   6.650   1.471
 8478SOL     OW26332   0.325   6.802   4.998
 8478SOL    HW126333   0.267   6.730   5.037
 8478SOL    HW226334   0.276   6.888   4.997
 8479SOL     OW26335   0.864   2.291   1.427
 8479SOL    HW126336   0.858   2.202   1.473
 8479SOL    HW226337   0.840   2.280   1.331
 8480SOL     OW26338   4.857   4.426   0.140
 8480SOL    HW126339   4.807   4.347   0.175
 8480SOL    HW226340   4.809   4.464   0.061
 8481SOL     OW26341   3.864   2.106   3.640
 8481SOL    HW126342   3.955   2.109   3.680
 8481SOL    HW226343   3.869   2.128   3.542
 8482SOL     OW26344   4.547   1.416   0.231
 8482SOL    HW126345   4.550   1.418   0.131
 8482SOL    HW226346   4.512   1.328   0.262
 8483SOL     OW26347   2.796   6.110   3.717
 8483SOL    HW126348   2.801   6.021   3.761
 8483SOL    HW226349   2.702   6.128   3.688
 8484SOL     OW26350   5.996   5.862   4.323
 8484SOL    HW126351   5.956   5.869   4.232
 8484SOL    HW226352   6.093   5.885   4.319
 8485SOL     OW26353   2.527   2.324   0.276
 8485SOL    HW126354   2.624   2.309   0.297
 8485SOL    HW226355   2.519   2.371   0.188
 8486SOL     OW26356   1.065   1.097   2.426
 8486SOL    HW126357   1.058   1.049   2.339
 8486SOL    HW226358   1.141   1.059   2.479
 8487SOL     OW26359   5.539   1.892   5.652
 8487SOL    HW126360   5.614   1.939   5.606
 8487SOL    HW226361   5.574   1.808   5.695
 8488SOL     OW26362   4.978   5.421   1.790
 8488SOL    HW126363   4.888   5.378   1.791
 8488SOL    HW226364   5.037   5.377   1.857
 8489SOL     OW26365   5.160   0.897   1.492
 8489SOL    HW126366   5.243   0.918   1.440
 8489SOL    HW226367   5.084   0.883   1.429
 8490SOL     OW26368   2.281   0.244   6.863
 8490SOL    HW126369   2.359   0.287   6.819
 8490SOL    HW226370   2.256   0.161   6.814
 8491SOL     OW26371   3.117   5.812   2.389
 8491SOL    HW126372   3.061   5.766   2.458
 8491SOL    HW226373   3.083   5.905   2.375
 8492SOL     OW26374   5.827   5.110   4.699
 8492SOL    HW126375   5.857   5.128   4.605
 8492SOL    HW226376   5.810   5.197   4.745
 8493SOL     OW26377   3.872   0.466   0.059
 8493SOL    HW126378   3.870   0.451   6.981
 8493SOL    HW226379   3.779   0.460   0.095
 8494SOL     OW26380   5.745   5.211   2.074
 8494SOL    HW126381   5.766   5.122   2.034
 8494SOL    HW226382   5.665   5.250   2.029
 8495SOL     OW26383   6.621   6.136   0.289
 8495SOL    HW126384   6.701   6.194   0.278
 8495SOL    HW226385   6.627   6.058   0.226
 8496SOL     OW26386   5.044   1.974   2.288
 8496SOL    HW126387   5.017   1.964   2.192
 8496SOL    HW226388   4.967   1.949   2.347
 8497SOL     OW26389   6.581   0.788   3.714
 8497SOL    HW126390   6.495   0.761   3.670
 8497SOL    HW226391   6.628   0.706   3.747
 8498SOL     OW26392   4.904   6.812   4.345
 8498SOL    HW126393   4.936   6.871   4.420
 8498SOL    HW226394   4.894   6.866   4.262
 8499SOL     OW26395   6.379   6.102   6.655
 8499SOL    HW126396   6.375   6.190   6.607
 8499SOL    HW226397   6.445   6.042   6.609
 8500SOL     OW26398   1.877   0.672   5.659
 8500SOL    HW126399   1.915   0.735   5.592
 8500SOL    HW226400   1.833   0.724   5.732
 8501SOL     OW26401   0.607   1.386   0.093
 8501SOL    HW126402   0.585   1.482   0.082
 8501SOL    HW226403   0.565   1.351   0.177
 8502SOL     OW26404   0.526   2.886   6.813
 8502SOL    HW126405   0.530   2.801   6.865
 8502SOL    HW226406   0.448   2.884   6.751
 8503SOL     OW26407   6.184   6.177   4.073
 8503SOL    HW126408   6.224   6.226   4.151
 8503SOL    HW226409   6.196   6.231   3.990
 8504SOL     OW26410   2.511   5.070   2.921
 8504SOL    HW126411   2.461   5.066   2.835
 8504SOL    HW226412   2.538   4.977   2.948
 8505SOL     OW26413   5.294   3.335   2.682
 8505SOL    HW126414   5.373   3.328   2.743
 8505SOL    HW226415   5.225   3.268   2.709
 8506SOL     OW26416   2.608   0.055   6.917
 8506SOL    HW126417   2.648   0.055   7.009
 8506SOL    HW226418   2.617   0.146   6.877
 8507SOL     OW26419   4.825   6.224   5.652
 8507SOL    HW126420   4.897   6.181   5.597
 8507SOL    HW226421   4.767   6.281   5.593
 8508SOL     OW26422   4.177   1.730   6.965
 8508SOL    HW126423   4.270   1.717   6.930
 8508SOL    HW226424   4.168   1.822   7.002
 8509SOL     OW26425   5.506   0.436   3.627
 8509SOL    HW126426   5.523   0.448   3.725
 8509SOL    HW226427   5.581   0.384   3.587
 8510SOL     OW26428   6.045   2.380   4.352
 8510SOL    HW126429   5.983   2.359   4.427
 8510SOL    HW226430   6.025   2.472   4.318
 8511SOL     OW26431   5.724   2.947   1.578
 8511SOL    HW126432   5.709   2.965   1.480
 8511SOL    HW226433   5.806   2.994   1.609
 8512SOL     OW26434   1.588   6.876   4.877
 8512SOL    HW126435   1.496   6.846   4.903
 8512SOL    HW226436   1.585   6.919   4.788
 8513SOL     OW26437   6.014   6.227   6.503
 8513SOL    HW126438   6.093   6.208   6.561
 8513SOL    HW226439   5.938   6.257   6.561
 8514SOL     OW26440   2.418   6.561   4.356
 8514SOL    HW126441   2.376   6.640   4.401
 8514SOL    HW226442   2.505   6.541   4.399
 8515SOL     OW26443   4.780   2.171   1.739
 8515SOL    HW126444   4.692   2.132   1.764
 8515SOL    HW226445   4.843   2.163   1.817
 8516SOL     OW26446   6.545   2.696   2.146
 8516SOL    HW126447   6.632   2.659   2.179
 8516SOL    HW226448   6.469   2.651   2.193
 8517SOL     OW26449   1.685   2.706   6.581
 8517SOL    HW126450   1.708   2.780   6.644
 8517SOL    HW226451   1.684   2.740   6.487
 8518SOL     OW26452   3.918   5.487   0.230
 8518SOL    HW126453   3.891   5.577   0.197
 8518SOL    HW226454   3.841   5.446   0.279
 8519SOL     OW26455   0.641   5.555   2.721
 8519SOL    HW126456   0.675   5.510   2.639
 8519SOL    HW226457   0.665   5.652   2.719
 8520SOL     OW26458   4.099   1.042   7.017
 8520SOL    HW126459   4.003   1.071   0.001
 8520SOL    HW226460   4.151   1.090   0.066
 8521SOL     OW26461   1.315   5.828   6.009
 8521SOL    HW126462   1.262   5.905   6.045
 8521SOL    HW226463   1.413   5.846   6.024
 8522SOL     OW26464   1.354   6.060   5.335
 8522SOL    HW126465   1.393   5.978   5.377
 8522SOL    HW226466   1.367   6.057   5.236
 8523SOL     OW26467   1.399   6.570   0.124
 8523SOL    HW126468   1.314   6.594   0.172
 8523SOL    HW226469   1.390   6.593   0.028
 8524SOL     OW26470   1.253   3.346   6.530
 8524SOL    HW126471   1.233   3.442   6.550
 8524SOL    HW226472   1.352   3.332   6.530
 8525SOL     OW26473   6.187   3.202   3.231
 8525SOL    HW126474   6.187   3.265   3.154
 8525SOL    HW226475   6.184   3.108   3.197
 8526SOL     OW26476   2.299   2.685   2.596
 8526SOL    HW126477   2.312   2.784   2.596
 8526SOL    HW226478   2.293   2.652   2.502
 8527SOL     OW26479   4.413   0.639   4.768
 8527SOL    HW126480   4.508   0.627   4.741
 8527SOL    HW226481   4.402   0.616   4.864
 8528SOL     OW26482   4.895   2.709   6.364
 8528SOL    HW126483   4.947   2.724   6.280
 8528SOL    HW226484   4.884   2.610   6.380
 8529SOL     OW26485   0.926   4.849   0.194
 8529SOL    HW126486   0.872   4.922   0.152
 8529SOL    HW226487   0.866   4.775   0.222
 8530SOL     OW26488   1.992   3.799   5.493
 8530SOL    HW126489   2.067   3.733   5.501
 8530SOL    HW226490   2.021   3.877   5.439
 8531SOL     OW26491   5.114   4.574   2.336
 8531SOL    HW126492   5.162   4.504   2.389
 8531SOL    HW226493   5.062   4.530   2.263
 8532SOL     OW26494   3.076   3.943   6.305
 8532SOL    HW126495   3.160   3.901   6.270
 8532SOL    HW226496   3.008   3.872   6.321
 8533SOL     OW26497   3.457   0.831   5.041
 8533SOL    HW126498   3.499   0.795   5.124
 8533SOL    HW226499   3.486   0.775   4.963
 8534SOL     OW26500   1.261   2.862   2.906
 8534SOL    HW126501   1.355   2.833   2.888
 8534SOL    HW226502   1.218   2.889   2.819
 8535SOL     OW26503   0.381   2.227   4.615
 8535SOL    HW126504   0.339   2.311   4.582
 8535SOL    HW226505   0.346   2.149   4.563
 8536SOL     OW26506   0.415   1.614   6.275
 8536SOL    HW126507   0.349   1.622   6.199
 8536SOL    HW226508   0.408   1.523   6.316
 8537SOL     OW26509   5.683   0.583   2.244
 8537SOL    HW126510   5.639   0.619   2.326
 8537SOL    HW226511   5.658   0.638   2.165
 8538SOL     OW26512   5.792   0.574   4.577
 8538SOL    HW126513   5.712   0.515   4.592
 8538SOL    HW226514   5.875   0.523   4.599
 8539SOL     OW26515   0.463   3.457   2.145
 8539SOL    HW126516   0.521   3.443   2.065
 8539SOL    HW226517   0.377   3.407   2.133
 8540SOL     OW26518   4.132   0.563   0.130
 8540SOL    HW126519   4.175   0.506   0.199
 8540SOL    HW226520   4.041   0.528   0.110
 8541SOL     OW26521   2.902   0.879   4.966
 8541SOL    HW126522   2.991   0.924   4.970
 8541SOL    HW226523   2.839   0.924   5.029
 8542SOL     OW26524   1.697   4.617   6.826
 8542SOL    HW126525   1.638   4.559   6.771
 8542SOL    HW226526   1.720   4.570   6.911
 8543SOL     OW26527   2.187   1.945   6.471
 8543SOL    HW126528   2.173   2.043   6.484
 8543SOL    HW226529   2.215   1.928   6.376
 8544SOL     OW26530   5.100   3.812   5.050
 8544SOL    HW126531   5.093   3.854   4.959
 8544SOL    HW226532   5.052   3.725   5.050
 8545SOL     OW26533   2.766   0.765   6.443
 8545SOL    HW126534   2.814   0.774   6.530
 8545SOL    HW226535   2.709   0.683   6.445
 8546SOL     OW26536   5.615   0.209   1.413
 8546SOL    HW126537   5.541   0.273   1.390
 8546SOL    HW226538   5.620   0.200   1.513
 8547SOL     OW26539   5.997   6.218   5.646
 8547SOL    HW126540   6.012   6.124   5.676
 8547SOL    HW226541   6.028   6.281   5.717
 8548SOL     OW26542   0.585   2.992   6.267
 8548SOL    HW126543   0.639   3.021   6.188
 8548SOL    HW226544   0.534   3.071   6.303
 8549SOL     OW26545   1.485   0.760   2.967
 8549SOL    HW126546   1.478   0.808   3.055
 8549SOL    HW226547   1.543   0.812   2.905
 8550SOL     OW26548   6.965   4.740   6.711
 8550SOL    HW126549   7.016   4.697   6.786
 8550SOL    HW226550   6.909   4.671   6.666
 8551SOL     OW26551   2.192   1.736   5.992
 8551SOL    HW126552   2.120   1.754   5.925
 8551SOL    HW226553   2.264   1.681   5.951
 8552SOL     OW26554   2.816   1.935   3.063
 8552SOL    HW126555   2.855   1.927   3.154
 8552SOL    HW226556   2.825   1.847   3.015
 8553SOL     OW26557   5.307   3.080   6.688
 8553SOL    HW126558   5.292   3.006   6.754
 8553SOL    HW226559   5.223   3.096   6.637
 8554SOL     OW26560   1.232   0.642   0.137
 8554SOL    HW126561   1.149   0.680   0.179
 8554SOL    HW226562   1.269   0.570   0.195
 8555SOL     OW26563   4.540   0.894   4.503
 8555SOL    HW126564   4.485   0.975   4.488
 8555SOL    HW226565   4.540   0.870   4.600
 8556SOL     OW26566   1.601   6.424   0.800
 8556SOL    HW126567   1.629   6.334   0.834
 8556SOL    HW226568   1.637   6.495   0.859
 8557SOL     OW26569   0.553   0.867   0.116
 8557SOL    HW126570   0.510   0.874   0.206
 8557SOL    HW226571   0.647   0.901   0.121
 8558SOL     OW26572   2.908   5.075   3.921
 8558SOL    HW126573   2.941   5.139   3.991
 8558SOL    HW226574   2.824   5.031   3.953
 8559SOL     OW26575   1.103   5.415   2.742
 8559SOL    HW126576   1.069   5.437   2.833
 8559SOL    HW226577   1.045   5.344   2.701
 8560SOL     OW26578   2.937   4.273   1.678
 8560SOL    HW126579   3.002   4.211   1.721
 8560SOL    HW226580   2.917   4.349   1.739
 8561SOL     OW26581   4.614   6.844   2.087
 8561SOL    HW126582   4.597   6.886   2.177
 8561SOL    HW226583   4.712   6.835   2.073
 8562SOL     OW26584   4.539   1.357   6.985
 8562SOL    HW126585   4.455   1.366   6.931
 8562SOL    HW226586   4.577   1.266   6.971
 8563SOL     OW26587   2.378   5.320   2.369
 8563SOL    HW126588   2.450   5.360   2.314
 8563SOL    HW226589   2.377   5.221   2.355
 8564SOL     OW26590   4.656   0.526   6.771
 8564SOL    HW126591   4.698   0.604   6.725
 8564SOL    HW226592   4.627   0.458   6.703
 8565SOL     OW26593   2.794   5.094   1.121
 8565SOL    HW126594   2.807   5.192   1.109
 8565SOL    HW226595   2.697   5.075   1.134
 8566SOL     OW26596   3.286   0.937   3.068
 8566SOL    HW126597   3.380   0.966   3.089
 8566SOL    HW226598   3.223   1.012   3.087
 8567SOL     OW26599   2.555   1.773   1.708
 8567SOL    HW126600   2.580   1.687   1.663
 8567SOL    HW226601   2.492   1.754   1.784
 8568SOL     OW26602   6.578   1.042   0.071
 8568SOL    HW126603   6.569   1.107   0.147
 8568SOL    HW226604   6.650   0.976   0.092
 8569SOL     OW26605   5.046   2.085   6.556
 8569SOL    HW126606   4.950   2.085   6.527
 8569SOL    HW226607   5.062   2.163   6.617
 8570SOL     OW26608   1.675   2.987   3.802
 8570SOL    HW126609   1.773   3.003   3.816
 8570SOL    HW226610   1.634   3.068   3.761
 8571SOL     OW26611   1.665   0.582   3.700
 8571SOL    HW126612   1.611   0.662   3.727
 8571SOL    HW226613   1.647   0.507   3.764
 8572SOL     OW26614   3.070   4.306   5.957
 8572SOL    HW126615   3.072   4.232   5.890
 8572SOL    HW226616   3.089   4.270   6.048
 8573SOL     OW26617   4.183   6.065   0.503
 8573SOL    HW126618   4.258   6.028   0.558
 8573SOL    HW226619   4.206   6.061   0.406
 8574SOL     OW26620   5.880   6.740   5.573
 8574SOL    HW126621   5.862   6.837   5.562
 8574SOL    HW226622   5.802   6.697   5.619
 8575SOL     OW26623   2.888   6.457   3.558
 8575SOL    HW126624   2.808   6.403   3.531
 8575SOL    HW226625   2.910   6.522   3.484
 8576SOL     OW26626   0.748   4.446   3.458
 8576SOL    HW126627   0.732   4.480   3.551
 8576SOL    HW226628   0.695   4.363   3.443
 8577SOL     OW26629   1.566   1.950   0.147
 8577SOL    HW126630   1.471   1.919   0.147
 8577SOL    HW226631   1.578   2.021   0.077
 8578SOL     OW26632   6.745   6.861   5.815
 8578SOL    HW126633   6.829   6.807   5.809
 8578SOL    HW226634   6.683   6.835   5.740
 8579SOL     OW26635   3.323   6.479   2.706
 8579SOL    HW126636   3.366   6.466   2.795
 8579SOL    HW226637   3.365   6.418   2.638
 8580SOL     OW26638   2.209   0.669   1.734
 8580SOL    HW126639   2.263   0.690   1.816
 8580SOL    HW226640   2.131   0.612   1.759
 8581SOL     OW26641   3.235   4.838   1.012
 8581SOL    HW126642   3.142   4.852   1.048
 8581SOL    HW226643   3.265   4.745   1.031
 8582SOL     OW26644   3.796   4.801   5.921
 8582SOL    HW126645   3.721   4.863   5.901
 8582SOL    HW226646   3.872   4.853   5.962
 8583SOL     OW26647   4.371   0.561   2.833
 8583SOL    HW126648   4.438   0.602   2.771
 8583SOL    HW226649   4.370   0.612   2.919
 8584SOL     OW26650   6.475   1.179   4.503
 8584SOL    HW126651   6.523   1.092   4.489
 8584SOL    HW226652   6.412   1.170   4.580
 8585SOL     OW26653   5.247   1.762   2.235
 8585SOL    HW126654   5.324   1.794   2.179
 8585SOL    HW226655   5.193   1.840   2.266
 8586SOL     OW26656   6.175   5.699   1.347
 8586SOL    HW126657   6.265   5.733   1.373
 8586SOL    HW226658   6.173   5.599   1.355
 8587SOL     OW26659   1.996   1.582   6.215
 8587SOL    HW126660   2.071   1.605   6.153
 8587SOL    HW226661   1.944   1.505   6.177
 8588SOL     OW26662   2.821   1.278   6.636
 8588SOL    HW126663   2.793   1.365   6.596
 8588SOL    HW226664   2.875   1.226   6.570
 8589SOL     OW26665   6.741   2.969   6.403
 8589SOL    HW126666   6.784   2.987   6.314
 8589SOL    HW226667   6.656   3.020   6.409
 8590SOL     OW26668   1.547   1.285   2.741
 8590SOL    HW126669   1.627   1.312   2.794
 8590SOL    HW226670   1.547   1.333   2.654
 8591SOL     OW26671   6.697   4.452   0.291
 8591SOL    HW126672   6.683   4.491   0.382
 8591SOL    HW226673   6.679   4.354   0.294
 8592SOL     OW26674   1.241   1.591   6.387
 8592SOL    HW126675   1.227   1.566   6.291
 8592SOL    HW226676   1.314   1.535   6.426
 8593SOL     OW26677   3.601   1.051   6.475
 8593SOL    HW126678   3.541   1.063   6.554
 8593SOL    HW226679   3.595   1.132   6.417
 8594SOL     OW26680   6.793   2.597   5.625
 8594SOL    HW126681   6.721   2.529   5.644
 8594SOL    HW226682   6.813   2.648   5.709
 8595SOL     OW26683   5.643   6.349   2.388
 8595SOL    HW126684   5.647   6.294   2.305
 8595SOL    HW226685   5.652   6.289   2.468
 8596SOL     OW26686   0.539   1.933   3.595
 8596SOL    HW126687   0.603   1.871   3.551
 8596SOL    HW226688   0.453   1.935   3.543
 8597SOL     OW26689   6.028   3.698   0.307
 8597SOL    HW126690   6.056   3.602   0.318
 8597SOL    HW226691   5.970   3.725   0.384
 8598SOL     OW26692   5.806   6.485   3.759
 8598SOL    HW126693   5.835   6.396   3.794
 8598SOL    HW226694   5.722   6.513   3.806
 8599SOL     OW26695   1.087   3.107   3.713
 8599SOL    HW126696   1.151   3.036   3.743
 8599SOL    HW226697   1.069   3.096   3.615
 8600SOL     OW26698   3.947   2.658   1.143
 8600SOL    HW126699   4.035   2.652   1.192
 8600SOL    HW226700   3.931   2.574   1.092
 8601SOL     OW26701   0.943   6.932   3.689
 8601SOL    HW126702   1.010   6.933   3.615
 8601SOL    HW226703   0.970   6.865   3.757
 8602SOL     OW26704   2.098   6.483   4.364
 8602SOL    HW126705   2.141   6.436   4.442
 8602SOL    HW226706   2.103   6.582   4.378
 8603SOL     OW26707   0.131   0.664   0.641
 8603SOL    HW126708   0.051   0.714   0.674
 8603SOL    HW226709   0.142   0.681   0.543
 8604SOL     OW26710   0.422   4.235   6.123
 8604SOL    HW126711   0.445   4.251   6.218
 8604SOL    HW226712   0.470   4.154   6.090
 8605SOL     OW26713   0.014   5.353   4.171
 8605SOL    HW126714   0.053   5.442   4.195
 8605SOL    HW226715   0.082   5.299   4.122
 8606SOL     OW26716   2.346   3.151   6.873
 8606SOL    HW126717   2.299   3.118   6.955
 8606SOL    HW226718   2.433   3.194   6.900
 8607SOL     OW26719   2.515   4.199   1.764
 8607SOL    HW126720   2.449   4.174   1.835
 8607SOL    HW226721   2.474   4.188   1.674
 8608SOL     OW26722   2.488   5.286   3.217
 8608SOL    HW126723   2.519   5.303   3.123
 8608SOL    HW226724   2.464   5.189   3.226
 8609SOL     OW26725   4.670   1.127   4.271
 8609SOL    HW126726   4.738   1.068   4.313
 8609SOL    HW226727   4.658   1.101   4.175
 8610SOL     OW26728   0.791   6.675   2.818
 8610SOL    HW126729   0.792   6.667   2.918
 8610SOL    HW226730   0.742   6.758   2.791
 8611SOL     OW26731   2.495   1.161   4.544
 8611SOL    HW126732   2.484   1.212   4.629
 8611SOL    HW226733   2.486   1.063   4.563
 8612SOL     OW26734   3.837   3.968   3.419
 8612SOL    HW126735   3.739   3.955   3.435
 8612SOL    HW226736   3.885   3.972   3.507
 8613SOL     OW26737   3.341   3.107   1.392
 8613SOL    HW126738   3.398   3.045   1.447
 8613SOL    HW226739   3.325   3.068   1.302
 8614SOL     OW26740   0.935   2.418   2.770
 8614SOL    HW126741   0.991   2.442   2.691
 8614SOL    HW226742   0.909   2.321   2.764
 8615SOL     OW26743   4.117   0.969   3.567
 8615SOL    HW126744   4.144   1.043   3.628
 8615SOL    HW226745   4.019   0.972   3.551
 8616SOL     OW26746   4.235   4.661   2.885
 8616SOL    HW126747   4.271   4.613   2.805
 8616SOL    HW226748   4.148   4.620   2.912
 8617SOL     OW26749   4.033   0.622   3.833
 8617SOL    HW126750   4.005   0.591   3.742
 8617SOL    HW226751   4.129   0.650   3.830
 8618SOL     OW26752   5.653   4.225   0.831
 8618SOL    HW126753   5.716   4.288   0.875
 8618SOL    HW226754   5.612   4.165   0.900
 8619SOL     OW26755   5.405   4.441   0.544
 8619SOL    HW126756   5.465   4.492   0.606
 8619SOL    HW226757   5.406   4.344   0.568
 8620SOL     OW26758   1.689   0.410   4.493
 8620SOL    HW126759   1.659   0.482   4.431
 8620SOL    HW226760   1.783   0.382   4.470
 8621SOL     OW26761   5.021   2.647   1.645
 8621SOL    HW126762   4.982   2.727   1.599
 8621SOL    HW226763   4.956   2.571   1.642
 8622SOL     OW26764   6.324   4.956   2.843
 8622SOL    HW126765   6.402   4.894   2.834
 8622SOL    HW226766   6.294   4.959   2.938
 8623SOL     OW26767   6.993   3.410   4.327
 8623SOL    HW126768   6.953   3.453   4.246
 8623SOL    HW226769   6.987   3.311   4.318
 8624SOL     OW26770   3.038   3.987   5.893
 8624SOL    HW126771   2.966   4.030   5.947
 8624SOL    HW226772   3.004   3.970   5.800
 8625SOL     OW26773   3.544   2.247   5.924
 8625SOL    HW126774   3.493   2.322   5.881
 8625SOL    HW226775   3.548   2.261   6.023
 8626SOL     OW26776   4.166   4.423   0.498
 8626SOL    HW126777   4.123   4.336   0.475
 8626SOL    HW226778   4.244   4.407   0.558
 8627SOL     OW26779   1.946   0.637   2.763
 8627SOL    HW126780   2.020   0.636   2.695
 8627SOL    HW226781   1.867   0.686   2.726
 8628SOL     OW26782   0.847   6.512   0.631
 8628SOL    HW126783   0.832   6.527   0.729
 8628SOL    HW226784   0.941   6.537   0.607
 8629SOL     OW26785   0.347   0.255   4.384
 8629SOL    HW126786   0.360   0.262   4.285
 8629SOL    HW226787   0.431   0.223   4.426
 8630SOL     OW26788   5.070   3.139   2.290
 8630SOL    HW126789   5.121   3.103   2.212
 8630SOL    HW226790   4.975   3.111   2.283
 8631SOL     OW26791   3.096   6.575   0.067
 8631SOL    HW126792   3.091   6.653   0.005
 8631SOL    HW226793   3.183   6.577   0.116
 8632SOL     OW26794   4.821   4.478   5.590
 8632SOL    HW126795   4.832   4.471   5.689
 8632SOL    HW226796   4.758   4.553   5.568
 8633SOL     OW26797   5.370   3.365   6.159
 8633SOL    HW126798   5.360   3.336   6.254
 8633SOL    HW226799   5.284   3.402   6.126
 8634SOL     OW26800   5.075   4.489   0.270
 8634SOL    HW126801   5.067   4.448   0.362
 8634SOL    HW226802   4.999   4.457   0.213
 8635SOL     OW26803   5.666   2.504   6.384
 8635SOL    HW126804   5.697   2.536   6.473
 8635SOL    HW226805   5.588   2.559   6.354
 8636SOL     OW26806   5.046   6.779   1.135
 8636SOL    HW126807   5.022   6.859   1.190
 8636SOL    HW226808   5.144   6.778   1.118
 8637SOL     OW26809   2.194   1.499   6.683
 8637SOL    HW126810   2.277   1.455   6.719
 8637SOL    HW226811   2.126   1.505   6.756
 8638SOL     OW26812   4.485   2.515   5.056
 8638SOL    HW126813   4.474   2.431   5.109
 8638SOL    HW226814   4.447   2.592   5.108
 8639SOL     OW26815   3.838   3.780   6.353
 8639SOL    HW126816   3.848   3.873   6.316
 8639SOL    HW226817   3.839   3.714   6.277
 8640SOL     OW26818   2.734   3.552   1.316
 8640SOL    HW126819   2.650   3.563   1.263
 8640SOL    HW226820   2.740   3.457   1.349
 8641SOL     OW26821   4.303   6.077   2.438
 8641SOL    HW126822   4.331   6.045   2.348
 8641SOL    HW226823   4.373   6.052   2.506
 8642SOL     OW26824   0.960   6.265   4.252
 8642SOL    HW126825   0.989   6.251   4.346
 8642SOL    HW226826   1.037   6.298   4.198
 8643SOL     OW26827   4.357   6.853   0.979
 8643SOL    HW126828   4.412   6.796   1.040
 8643SOL    HW226829   4.337   6.940   1.024
 8644SOL     OW26830   6.000   1.740   6.842
 8644SOL    HW126831   5.909   1.734   6.883
 8644SOL    HW226832   6.065   1.687   6.896
 8645SOL     OW26833   5.834   3.345   2.109
 8645SOL    HW126834   5.739   3.315   2.098
 8645SOL    HW226835   5.843   3.439   2.077
 8646SOL     OW26836   0.101   1.786   5.250
 8646SOL    HW126837   0.026   1.735   5.209
 8646SOL    HW226838   0.115   1.757   5.345
 8647SOL     OW26839   2.403   4.831   2.123
 8647SOL    HW126840   2.460   4.900   2.079
 8647SOL    HW226841   2.435   4.740   2.097
 8648SOL     OW26842   5.847   5.349   0.926
 8648SOL    HW126843   5.900   5.400   0.993
 8648SOL    HW226844   5.807   5.268   0.969
 8649SOL     OW26845   4.245   0.068   1.457
 8649SOL    HW126846   4.246   0.145   1.394
 8649SOL    HW226847   4.191   7.015   1.417
 8650SOL     OW26848   1.934   6.726   4.305
 8650SOL    HW126849   1.849   6.701   4.258
 8650SOL    HW226850   1.913   6.773   4.391
 8651SOL     OW26851   3.623   1.729   0.811
 8651SOL    HW126852   3.706   1.747   0.757
 8651SOL    HW226853   3.642   1.656   0.877
 8652SOL     OW26854   1.459   3.695   3.668
 8652SOL    HW126855   1.380   3.749   3.640
 8652SOL    HW226856   1.444   3.660   3.761
 8653SOL     OW26857   6.949   1.521   6.342
 8653SOL    HW126858   0.013   1.509   6.394
 8653SOL    HW226859   6.915   1.614   6.355
 8654SOL     OW26860   1.011   4.583   1.427
 8654SOL    HW126861   1.076   4.653   1.453
 8654SOL    HW226862   1.020   4.505   1.488
 8655SOL     OW26863   0.586   0.850   5.377
 8655SOL    HW126864   0.634   0.897   5.450
 8655SOL    HW226865   0.552   0.762   5.410
 8656SOL     OW26866   4.829   0.173   1.394
 8656SOL    HW126867   4.771   0.241   1.441
 8656SOL    HW226868   4.804   0.170   1.297
 8657SOL     OW26869   4.966   1.269   2.691
 8657SOL    HW126870   5.040   1.250   2.626
 8657SOL    HW226871   4.999   1.258   2.784
 8658SOL     OW26872   0.126   4.922   0.941
 8658SOL    HW126873   0.176   4.970   1.013
 8658SOL    HW226874   0.036   4.964   0.929
 8659SOL     OW26875   4.499   1.052   2.305
 8659SOL    HW126876   4.422   1.088   2.358
 8659SOL    HW226877   4.510   0.955   2.323
 8660SOL     OW26878   0.426   3.617   1.587
 8660SOL    HW126879   0.394   3.522   1.590
 8660SOL    HW226880   0.523   3.619   1.561
 8661SOL     OW26881   6.791   3.339   3.155
 8661SOL    HW126882   6.767   3.433   3.133
 8661SOL    HW226883   6.817   3.291   3.071
 8662SOL     OW26884   2.921   5.136   3.195
 8662SOL    HW126885   2.886   5.111   3.285
 8662SOL    HW226886   3.009   5.091   3.180
 8663SOL     OW26887   3.689   5.985   3.037
 8663SOL    HW126888   3.597   6.022   3.028
 8663SOL    HW226889   3.698   5.941   3.126
 8664SOL     OW26890   2.952   5.263   3.721
 8664SOL    HW126891   2.945   5.182   3.780
 8664SOL    HW226892   3.000   5.238   3.637
 8665SOL     OW26893   5.304   3.012   5.956
 8665SOL    HW126894   5.206   3.032   5.969
 8665SOL    HW226895   5.349   3.006   6.045
 8666SOL     OW26896   4.384   6.196   2.841
 8666SOL    HW126897   4.426   6.139   2.912
 8666SOL    HW226898   4.296   6.231   2.874
 8667SOL     OW26899   5.108   2.157   4.216
 8667SOL    HW126900   5.122   2.102   4.134
 8667SOL    HW226901   5.194   2.200   4.243
 8668SOL     OW26902   4.857   2.817   5.573
 8668SOL    HW126903   4.829   2.735   5.524
 8668SOL    HW226904   4.785   2.886   5.566
 8669SOL     OW26905   6.367   6.349   5.697
 8669SOL    HW126906   6.383   6.259   5.738
 8669SOL    HW226907   6.327   6.338   5.606
 8670SOL     OW26908   6.043   4.671   6.070
 8670SOL    HW126909   6.052   4.742   6.000
 8670SOL    HW226910   6.014   4.585   6.027
 8671SOL     OW26911   6.974   1.690   2.598
 8671SOL    HW126912   7.011   1.772   2.642
 8671SOL    HW226913   6.893   1.714   2.545
 8672SOL     OW26914   0.507   1.524   3.560
 8672SOL    HW126915   0.426   1.468   3.581
 8672SOL    HW226916   0.547   1.559   3.645
 8673SOL     OW26917   0.978   1.783   1.111
 8673SOL    HW126918   0.916   1.783   1.190
 8673SOL    HW226919   0.933   1.825   1.033
 8674SOL     OW26920   6.593   4.847   3.131
 8674SOL    HW126921   6.606   4.946   3.127
 8674SOL    HW226922   6.618   4.815   3.222
 8675SOL     OW26923   4.004   1.975   5.846
 8675SOL    HW126924   4.073   2.012   5.908
 8675SOL    HW226925   3.944   2.049   5.816
 8676SOL     OW26926   5.485   0.944   0.897
 8676SOL    HW126927   5.438   0.882   0.834
 8676SOL    HW226928   5.470   1.038   0.868
 8677SOL     OW26929   1.638   6.828   5.592
 8677SOL    HW126930   1.613   6.814   5.687
 8677SOL    HW226931   1.722   6.779   5.571
 8678SOL     OW26932   1.606   1.088   1.333
 8678SOL    HW126933   1.655   1.174   1.319
 8678SOL    HW226934   1.663   1.026   1.386
 8679SOL     OW26935   1.766   1.405   4.779
 8679SOL    HW126936   1.720   1.493   4.789
 8679SOL    HW226937   1.838   1.397   4.847
 8680SOL     OW26938   6.595   1.994   6.412
 8680SOL    HW126939   6.582   2.003   6.511
 8680SOL    HW226940   6.560   1.906   6.381
 8681SOL     OW26941   5.412   5.917   1.248
 8681SOL    HW126942   5.370   5.826   1.251
 8681SOL    HW226943   5.511   5.908   1.236
 8682SOL     OW26944   1.071   1.008   1.195
 8682SOL    HW126945   1.070   1.049   1.104
 8682SOL    HW226946   1.166   0.991   1.223
 8683SOL     OW26947   2.432   4.466   4.565
 8683SOL    HW126948   2.410   4.379   4.608
 8683SOL    HW226949   2.384   4.473   4.477
 8684SOL     OW26950   0.763   3.700   4.454
 8684SOL    HW126951   0.674   3.660   4.431
 8684SOL    HW226952   0.827   3.687   4.378
 8685SOL     OW26953   5.099   2.171   5.070
 8685SOL    HW126954   5.076   2.255   5.021
 8685SOL    HW226955   5.049   2.168   5.157
 8686SOL     OW26956   6.831   5.966   2.931
 8686SOL    HW126957   6.861   6.022   3.008
 8686SOL    HW226958   6.742   5.996   2.899
 8687SOL     OW26959   6.125   3.383   3.636
 8687SOL    HW126960   6.074   3.464   3.606
 8687SOL    HW226961   6.174   3.405   3.720
 8688SOL     OW26962   0.971   4.650   6.292
 8688SOL    HW126963   0.955   4.568   6.346
 8688SOL    HW226964   0.887   4.706   6.291
 8689SOL     OW26965   4.700   3.715   6.553
 8689SOL    HW126966   4.665   3.759   6.470
 8689SOL    HW226967   4.800   3.714   6.550
 8690SOL     OW26968   2.097   2.108   3.917
 8690SOL    HW126969   2.065   2.133   4.009
 8690SOL    HW226970   2.099   2.190   3.859
 8691SOL     OW26971   2.923   2.106   5.147
 8691SOL    HW126972   2.986   2.174   5.111
 8691SOL    HW226973   2.974   2.036   5.197
 8692SOL     OW26974   4.360   2.051   5.598
 8692SOL    HW126975   4.398   2.110   5.670
 8692SOL    HW226976   4.337   2.108   5.519
 8693SOL     OW26977   6.753   0.206   6.288
 8693SOL    HW126978   6.673   0.242   6.336
 8693SOL    HW226979   6.836   0.246   6.325
 8694SOL     OW26980   5.387   3.109   4.131
 8694SOL    HW126981   5.371   3.011   4.132
 8694SOL    HW226982   5.469   3.130   4.077
 8695SOL     OW26983   3.505   4.516   5.993
 8695SOL    HW126984   3.451   4.442   5.952
 8695SOL    HW226985   3.581   4.477   6.045
 8696SOL     OW26986   3.447   5.902   6.288
 8696SOL    HW126987   3.489   5.821   6.246
 8696SOL    HW226988   3.385   5.873   6.361
 8697SOL     OW26989   1.497   3.524   5.989
 8697SOL    HW126990   1.522   3.619   5.973
 8697SOL    HW226991   1.580   3.469   5.999
 8698SOL     OW26992   5.348   5.571   4.838
 8698SOL    HW126993   5.327   5.494   4.778
 8698SOL    HW226994   5.288   5.568   4.919
 8699SOL     OW26995   1.790   3.277   6.921
 8699SOL    HW126996   1.746   3.246   6.837
 8699SOL    HW226997   1.725   3.327   6.977
 8700SOL     OW26998   0.891   0.417   5.133
 8700SOL    HW126999   0.819   0.347   5.133
 8700SOL    HW227000   0.919   0.437   5.039
 8701SOL     OW27001   0.734   2.225   6.917
 8701SOL    HW127002   0.732   2.167   6.835
 8701SOL    HW227003   0.807   2.293   6.908
 8702SOL     OW27004   5.910   4.289   1.292
 8702SOL    HW127005   5.976   4.361   1.270
 8702SOL    HW227006   5.821   4.312   1.253
 8703SOL     OW27007   2.682   4.646   1.233
 8703SOL    HW127008   2.676   4.725   1.295
 8703SOL    HW227009   2.659   4.563   1.283
 8704SOL     OW27010   1.306   2.142   3.497
 8704SOL    HW127011   1.277   2.047   3.508
 8704SOL    HW227012   1.383   2.160   3.559
 8705SOL     OW27013   4.190   2.516   7.019
 8705SOL    HW127014   4.129   2.574   0.052
 8705SOL    HW227015   4.194   2.550   6.925
 8706SOL     OW27016   4.437   3.514   6.420
 8706SOL    HW127017   4.363   3.464   6.464
 8706SOL    HW227018   4.411   3.610   6.409
 8707SOL     OW27019   1.667   1.962   4.986
 8707SOL    HW127020   1.571   1.989   4.982
 8707SOL    HW227021   1.674   1.866   5.011
 8708SOL     OW27022   5.681   2.427   1.927
 8708SOL    HW127023   5.653   2.353   1.866
 8708SOL    HW227024   5.779   2.422   1.944
 8709SOL     OW27025   6.750   0.377   5.577
 8709SOL    HW127026   6.819   0.305   5.570
 8709SOL    HW227027   6.683   0.367   5.503
 8710SOL     OW27028   2.389   1.249   3.753
 8710SOL    HW127029   2.370   1.273   3.849
 8710SOL    HW227030   2.397   1.333   3.699
 8711SOL     OW27031   1.673   0.626   1.910
 8711SOL    HW127032   1.594   0.686   1.923
 8711SOL    HW227033   1.741   0.644   1.981
 8712SOL     OW27034   1.477   3.075   6.052
 8712SOL    HW127035   1.460   3.173   6.042
 8712SOL    HW227036   1.429   3.026   5.980
 8713SOL     OW27037   0.714   4.859   1.899
 8713SOL    HW127038   0.703   4.761   1.881
 8713SOL    HW227039   0.642   4.889   1.961
 8714SOL     OW27040   6.787   6.305   0.024
 8714SOL    HW127041   6.690   6.315   0.045
 8714SOL    HW227042   6.801   6.220   6.996
 8715SOL     OW27043   2.096   2.498   0.954
 8715SOL    HW127044   2.066   2.542   1.039
 8715SOL    HW227045   2.114   2.401   0.972
 8716SOL     OW27046   6.659   6.488   1.549
 8716SOL    HW127047   6.611   6.521   1.468
 8716SOL    HW227048   6.708   6.404   1.525
 8717SOL     OW27049   2.678   3.981   0.709
 8717SOL    HW127050   2.597   3.991   0.767
 8717SOL    HW227051   2.738   4.059   0.723
 8718SOL     OW27052   2.272   4.576   6.277
 8718SOL    HW127053   2.315   4.546   6.192
 8718SOL    HW227054   2.337   4.566   6.352
 8719SOL     OW27055   4.210   1.081   5.620
 8719SOL    HW127056   4.205   1.170   5.576
 8719SOL    HW227057   4.119   1.039   5.621
 8720SOL     OW27058   6.920   4.234   4.861
 8720SOL    HW127059   6.863   4.193   4.932
 8720SOL    HW227060   6.862   4.282   4.795
 8721SOL     OW27061   0.641   6.675   6.238
 8721SOL    HW127062   0.556   6.728   6.236
 8721SOL    HW227063   0.703   6.713   6.307
 8722SOL     OW27064   4.209   0.803   1.335
 8722SOL    HW127065   4.240   0.879   1.279
 8722SOL    HW227066   4.256   0.805   1.423
 8723SOL     OW27067   4.501   6.885   2.587
 8723SOL    HW127068   4.508   6.948   2.665
 8723SOL    HW227069   4.579   6.822   2.588
 8724SOL     OW27070   4.377   0.990   4.875
 8724SOL    HW127071   4.374   0.890   4.869
 8724SOL    HW227072   4.421   1.027   4.793
 8725SOL     OW27073   0.206   6.366   3.788
 8725SOL    HW127074   0.200   6.307   3.869
 8725SOL    HW227075   0.258   6.449   3.812
 8726SOL     OW27076   0.861   1.096   0.554
 8726SOL    HW127077   0.830   1.023   0.493
 8726SOL    HW227078   0.782   1.152   0.581
 8727SOL     OW27079   4.559   5.379   6.276
 8727SOL    HW127080   4.604   5.307   6.329
 8727SOL    HW227081   4.629   5.441   6.239
 8728SOL     OW27082   6.867   0.838   3.253
 8728SOL    HW127083   6.835   0.853   3.159
 8728SOL    HW227084   6.925   0.915   3.281
 8729SOL     OW27085   3.571   5.929   6.661
 8729SOL    HW127086   3.486   5.952   6.709
 8729SOL    HW227087   3.583   5.989   6.583
 8730SOL     OW27088   4.814   4.636   2.128
 8730SOL    HW127089   4.784   4.699   2.056
 8730SOL    HW227090   4.853   4.688   2.203
 8731SOL     OW27091   0.936   2.029   3.487
 8731SOL    HW127092   0.944   1.995   3.580
 8731SOL    HW227093   1.007   1.988   3.430
 8732SOL     OW27094   5.677   5.748   0.640
 8732SOL    HW127095   5.657   5.784   0.731
 8732SOL    HW227096   5.708   5.823   0.581
 8733SOL     OW27097   6.306   5.395   1.979
 8733SOL    HW127098   6.299   5.363   1.885
 8733SOL    HW227099   6.271   5.489   1.985
 8734SOL     OW27100   0.232   3.300   2.087
 8734SOL    HW127101   0.199   3.254   2.169
 8734SOL    HW227102   0.154   3.329   2.032
 8735SOL     OW27103   1.889   3.586   5.966
 8735SOL    HW127104   1.890   3.670   6.021
 8735SOL    HW227105   1.852   3.606   5.876
 8736SOL     OW27106   1.487   5.841   2.638
 8736SOL    HW127107   1.437   5.927   2.632
 8736SOL    HW227108   1.534   5.836   2.726
 8737SOL     OW27109   1.751   5.976   6.902
 8737SOL    HW127110   1.791   6.068   6.893
 8737SOL    HW227111   1.824   5.908   6.901
 8738SOL     OW27112   1.086   3.641   3.438
 8738SOL    HW127113   1.168   3.595   3.471
 8738SOL    HW227114   1.087   3.644   3.338
 8739SOL     OW27115   5.520   4.400   4.980
 8739SOL    HW127116   5.508   4.301   4.985
 8739SOL    HW227117   5.521   4.439   5.072
 8740SOL     OW27118   3.175   1.540   4.318
 8740SOL    HW127119   3.119   1.474   4.267
 8740SOL    HW227120   3.117   1.588   4.383
 8741SOL     OW27121   0.934   6.998   2.720
 8741SOL    HW127122   1.023   6.982   2.763
 8741SOL    HW227123   0.865   6.939   2.762
 8742SOL     OW27124   3.124   1.626   2.731
 8742SOL    HW127125   3.170   1.714   2.724
 8742SOL    HW227126   3.180   1.555   2.687
 8743SOL     OW27127   1.212   1.343   1.387
 8743SOL    HW127128   1.300   1.310   1.420
 8743SOL    HW227129   1.191   1.430   1.431
 8744SOL     OW27130   3.489   4.695   6.785
 8744SOL    HW127131   3.434   4.684   6.703
 8744SOL    HW227132   3.577   4.736   6.762
 8745SOL     OW27133   6.190   1.452   6.135
 8745SOL    HW127134   6.199   1.429   6.038
 8745SOL    HW227135   6.238   1.537   6.154
 8746SOL     OW27136   4.542   5.023   4.527
 8746SOL    HW127137   4.596   5.092   4.574
 8746SOL    HW227138   4.450   5.059   4.508
 8747SOL     OW27139   0.557   1.007   1.664
 8747SOL    HW127140   0.472   1.060   1.668
 8747SOL    HW227141   0.570   0.973   1.571
 8748SOL     OW27142   0.911   2.260   3.823
 8748SOL    HW127143   0.901   2.299   3.732
 8748SOL    HW227144   0.900   2.160   3.819
 8749SOL     OW27145   2.893   1.304   5.249
 8749SOL    HW127146   2.878   1.401   5.228
 8749SOL    HW227147   2.959   1.266   5.184
 8750SOL     OW27148   3.901   2.704   5.986
 8750SOL    HW127149   3.968   2.740   6.051
 8750SOL    HW227150   3.814   2.750   6.000
 8751SOL     OW27151   0.958   5.678   1.984
 8751SOL    HW127152   1.000   5.654   2.072
 8751SOL    HW227153   1.023   5.661   1.910
 8752SOL     OW27154   4.635   3.383   6.556
 8752SOL    HW127155   4.586   3.323   6.620
 8752SOL    HW227156   4.571   3.448   6.515
 8753SOL     OW27157   1.949   2.944   0.538
 8753SOL    HW127158   1.935   2.928   0.440
 8753SOL    HW227159   1.963   2.857   0.585
 8754SOL     OW27160   2.845   5.409   6.959
 8754SOL    HW127161   2.928   5.424   6.905
 8754SOL    HW227162   2.827   5.310   6.965
 8755SOL     OW27163   0.124   2.129   2.341
 8755SOL    HW127164   0.087   2.221   2.334
 8755SOL    HW227165   0.214   2.126   2.296
 8756SOL     OW27166   2.244   1.925   2.909
 8756SOL    HW127167   2.156   1.962   2.938
 8756SOL    HW227168   2.287   1.878   2.986
 8757SOL     OW27169   5.329   6.533   5.194
 8757SOL    HW127170   5.395   6.460   5.178
 8757SOL    HW227171   5.244   6.512   5.146
 8758SOL     OW27172   3.495   6.676   4.400
 8758SOL    HW127173   3.500   6.759   4.345
 8758SOL    HW227174   3.432   6.690   4.477
 8759SOL     OW27175   5.809   1.527   0.664
 8759SOL    HW127176   5.840   1.609   0.712
 8759SOL    HW227177   5.753   1.554   0.586
 8760SOL     OW27178   2.164   2.331   4.550
 8760SOL    HW127179   2.135   2.377   4.634
 8760SOL    HW227180   2.086   2.284   4.509
 8761SOL     OW27181   4.775   0.699   2.221
 8761SOL    HW127182   4.690   0.732   2.182
 8761SOL    HW227183   4.851   0.756   2.190
 8762SOL     OW27184   1.597   4.982   3.117
 8762SOL    HW127185   1.571   4.886   3.125
 8762SOL    HW227186   1.537   5.027   3.050
 8763SOL     OW27187   0.660   1.317   6.301
 8763SOL    HW127188   0.636   1.340   6.207
 8763SOL    HW227189   0.709   1.393   6.343
 8764SOL     OW27190   3.382   5.018   5.827
 8764SOL    HW127191   3.356   4.926   5.857
 8764SOL    HW227192   3.357   5.031   5.731
 8765SOL     OW27193   4.985   0.158   5.075
 8765SOL    HW127194   5.024   0.076   5.117
 8765SOL    HW227195   4.912   0.132   5.012
 8766SOL     OW27196   5.030   4.726   5.527
 8766SOL    HW127197   4.989   4.747   5.438
 8766SOL    HW227198   4.964   4.675   5.583
 8767SOL     OW27199   2.938   0.987   4.104
 8767SOL    HW127200   2.933   0.921   4.028
 8767SOL    HW227201   2.847   0.997   4.144
 8768SOL     OW27202   6.361   2.338   0.223
 8768SOL    HW127203   6.416   2.350   0.140
 8768SOL    HW227204   6.283   2.279   0.203
 8769SOL     OW27205   6.528   0.793   0.272
 8769SOL    HW127206   6.433   0.788   0.239
 8769SOL    HW227207   6.542   0.722   0.342
 8770SOL     OW27208   4.839   4.116   1.612
 8770SOL    HW127209   4.760   4.175   1.627
 8770SOL    HW227210   4.834   4.075   1.521
 8771SOL     OW27211   0.046   3.393   0.063
 8771SOL    HW127212   7.004   3.393   7.007
 8771SOL    HW227213   0.089   3.303   0.071
 8772SOL     OW27214   5.573   6.652   3.801
 8772SOL    HW127215   5.516   6.734   3.800
 8772SOL    HW227216   5.579   6.614   3.709
 8773SOL     OW27217   0.023   1.839   3.953
 8773SOL    HW127218   6.979   1.807   4.022
 8773SOL    HW227219   0.113   1.802   3.973
 8774SOL     OW27220   1.871   0.997   0.840
 8774SOL    HW127221   1.929   1.004   0.921
 8774SOL    HW227222   1.785   1.046   0.855
 8775SOL     OW27223   4.999   1.736   4.468
 8775SOL    HW127224   5.086   1.690   4.481
 8775SOL    HW227225   4.998   1.781   4.379
 8776SOL     OW27226   4.144   2.936   0.044
 8776SOL    HW127227   4.141   2.838   0.064
 8776SOL    HW227228   4.054   2.976   0.061
 8777SOL     OW27229   1.180   2.392   3.415
 8777SOL    HW127230   1.211   2.309   3.461
 8777SOL    HW227231   1.259   2.450   3.395
 8778SOL     OW27232   4.041   4.977   6.755
 8778SOL    HW127233   4.058   4.999   6.851
 8778SOL    HW227234   3.974   4.902   6.749
 8779SOL     OW27235   3.419   4.873   2.796
 8779SOL    HW127236   3.465   4.925   2.868
 8779SOL    HW227237   3.483   4.807   2.757
 8780SOL     OW27238   5.942   5.145   3.348
 8780SOL    HW127239   5.935   5.051   3.315
 8780SOL    HW227240   6.033   5.160   3.386
 8781SOL     OW27241   3.530   6.599   2.264
 8781SOL    HW127242   3.579   6.512   2.260
 8781SOL    HW227243   3.457   6.601   2.196
 8782SOL     OW27244   5.195   0.911   1.775
 8782SOL    HW127245   5.151   0.995   1.808
 8782SOL    HW227246   5.202   0.913   1.676
 8783SOL     OW27247   5.048   3.546   5.084
 8783SOL    HW127248   4.952   3.522   5.075
 8783SOL    HW227249   5.105   3.471   5.050
 8784SOL     OW27250   5.760   6.255   0.594
 8784SOL    HW127251   5.839   6.222   0.646
 8784SOL    HW227252   5.683   6.271   0.657
 8785SOL     OW27253   0.625   5.595   6.664
 8785SOL    HW127254   0.569   5.512   6.666
 8785SOL    HW227255   0.572   5.670   6.625
 8786SOL     OW27256   4.295   2.000   2.059
 8786SOL    HW127257   4.331   2.036   2.146
 8786SOL    HW227258   4.196   2.014   2.056
 8787SOL     OW27259   3.642   0.024   1.590
 8787SOL    HW127260   3.726   0.016   1.536
 8787SOL    HW227261   3.600   6.955   1.601
 8788SOL     OW27262   0.810   0.530   4.285
 8788SOL    HW127263   0.776   0.439   4.263
 8788SOL    HW227264   0.790   0.592   4.209
 8789SOL     OW27265   0.062   2.813   4.848
 8789SOL    HW127266   0.040   2.849   4.939
 8789SOL    HW227267   0.114   2.881   4.796
 8790SOL     OW27268   5.401   2.646   6.280
 8790SOL    HW127269   5.322   2.640   6.219
 8790SOL    HW227270   5.377   2.700   6.360
 8791SOL     OW27271   3.975   5.052   6.103
 8791SOL    HW127272   4.025   5.015   6.025
 8791SOL    HW227273   3.891   5.095   6.071
 8792SOL     OW27274   5.664   5.381   1.212
 8792SOL    HW127275   5.582   5.356   1.161
 8792SOL    HW227276   5.745   5.368   1.154
 8793SOL     OW27277   0.255   4.975   4.101
 8793SOL    HW127278   0.274   5.040   4.175
 8793SOL    HW227279   0.339   4.954   4.052
 8794SOL     OW27280   0.485   0.613   2.332
 8794SOL    HW127281   0.581   0.637   2.350
 8794SOL    HW227282   0.435   0.695   2.304
 8795SOL     OW27283   1.432   5.254   5.973
 8795SOL    HW127284   1.504   5.317   6.002
 8795SOL    HW227285   1.356   5.258   6.038
 8796SOL     OW27286   6.664   3.887   3.490
 8796SOL    HW127287   6.652   3.792   3.461
 8796SOL    HW227288   6.614   3.947   3.428
 8797SOL     OW27289   4.874   6.567   4.029
 8797SOL    HW127290   4.830   6.545   4.116
 8797SOL    HW227291   4.960   6.616   4.047
 8798SOL     OW27292   3.855   6.377   5.820
 8798SOL    HW127293   3.926   6.384   5.889
 8798SOL    HW227294   3.828   6.281   5.809
 8799SOL     OW27295   1.675   5.559   1.850
 8799SOL    HW127296   1.717   5.561   1.940
 8799SOL    HW227297   1.745   5.541   1.780
 8800SOL     OW27298   0.352   5.929   5.445
 8800SOL    HW127299   0.366   6.023   5.476
 8800SOL    HW227300   0.256   5.917   5.417
 8801SOL     OW27301   6.688   2.707   5.025
 8801SOL    HW127302   6.648   2.665   4.943
 8801SOL    HW227303   6.641   2.793   5.044
 8802SOL     OW27304   1.544   6.795   5.847
 8802SOL    HW127305   1.553   6.699   5.819
 8802SOL    HW227306   1.462   6.805   5.904
 8803SOL     OW27307   6.540   0.213   6.729
 8803SOL    HW127308   6.605   0.275   6.684
 8803SOL    HW227309   6.453   0.214   6.680
 8804SOL     OW27310   1.317   6.062   2.649
 8804SOL    HW127311   1.284   6.029   2.738
 8804SOL    HW227312   1.242   6.101   2.598
 8805SOL     OW27313   4.818   5.166   2.892
 8805SOL    HW127314   4.798   5.079   2.937
 8805SOL    HW227315   4.776   5.167   2.801
 8806SOL     OW27316   2.029   6.752   0.759
 8806SOL    HW127317   2.050   6.769   0.855
 8806SOL    HW227318   2.105   6.703   0.717
 8807SOL     OW27319   4.743   3.045   0.973
 8807SOL    HW127320   4.841   3.066   0.981
 8807SOL    HW227321   4.727   2.951   1.003
 8808SOL     OW27322   2.234   2.257   1.072
 8808SOL    HW127323   2.185   2.182   1.028
 8808SOL    HW227324   2.183   2.288   1.152
 8809SOL     OW27325   1.228   3.977   2.971
 8809SOL    HW127326   1.242   4.063   2.922
 8809SOL    HW227327   1.164   3.991   3.046
 8810SOL     OW27328   0.643   0.698   6.086
 8810SOL    HW127329   0.600   0.645   6.158
 8810SOL    HW227330   0.691   0.776   6.126
 8811SOL     OW27331   3.463   5.768   2.547
 8811SOL    HW127332   3.422   5.770   2.455
 8811SOL    HW227333   3.398   5.803   2.614
 8812SOL     OW27334   4.592   1.560   6.740
 8812SOL    HW127335   4.509   1.513   6.771
 8812SOL    HW227336   4.665   1.547   6.806
 8813SOL     OW27337   2.274   4.648   3.629
 8813SOL    HW127338   2.318   4.658   3.719
 8813SOL    HW227339   2.188   4.699   3.628
 8814SOL     OW27340   5.152   6.288   6.467
 8814SOL    HW127341   5.240   6.278   6.420
 8814SOL    HW227342   5.092   6.213   6.439
 8815SOL     OW27343   5.686   1.327   0.339
 8815SOL    HW127344   5.675   1.397   0.410
 8815SOL    HW227345   5.597   1.308   0.298
 8816SOL     OW27346   0.791   6.514   5.082
 8816SOL    HW127347   0.788   6.503   4.982
 8816SOL    HW227348   0.847   6.594   5.105
 8817SOL     OW27349   1.702   3.293   4.124
 8817SOL    HW127350   1.602   3.292   4.117
 8817SOL    HW227351   1.729   3.259   4.214
 8818SOL     OW27352   1.705   6.890   4.600
 8818SOL    HW127353   1.664   6.917   4.512
 8818SOL    HW227354   1.768   6.962   4.630
 8819SOL     OW27355   5.956   4.419   5.897
 8819SOL    HW127356   5.905   4.345   5.939
 8819SOL    HW227357   5.985   4.391   5.805
 8820SOL     OW27358   3.213   0.354   4.445
 8820SOL    HW127359   3.134   0.327   4.501
 8820SOL    HW227360   3.234   0.451   4.461
 8821SOL     OW27361   0.828   4.318   6.805
 8821SOL    HW127362   0.731   4.344   6.815
 8821SOL    HW227363   0.873   4.324   6.895
 8822SOL     OW27364   6.615   6.789   4.037
 8822SOL    HW127365   6.528   6.824   4.072
 8822SOL    HW227366   6.658   6.858   3.979
 8823SOL     OW27367   3.942   0.768   2.816
 8823SOL    HW127368   3.941   0.842   2.749
 8823SOL    HW227369   4.025   0.774   2.871
 8824SOL     OW27370   2.164   0.992   1.864
 8824SOL    HW127371   2.072   0.963   1.890
 8824SOL    HW227372   2.167   1.011   1.766
 8825SOL     OW27373   6.966   6.518   0.009
 8825SOL    HW127374   6.965   6.563   6.941
 8825SOL    HW227375   6.925   6.427   0.001
 8826SOL     OW27376   1.147   3.274   0.742
 8826SOL    HW127377   1.245   3.289   0.731
 8826SOL    HW227378   1.132   3.193   0.798
 8827SOL     OW27379   3.957   6.857   2.162
 8827SOL    HW127380   3.985   6.761   2.165
 8827SOL    HW227381   3.980   6.896   2.073
 8828SOL     OW27382   3.439   3.092   6.065
 8828SOL    HW127383   3.473   3.186   6.073
 8828SOL    HW227384   3.402   3.063   6.153
 8829SOL     OW27385   0.403   1.619   2.293
 8829SOL    HW127386   0.495   1.579   2.296
 8829SOL    HW227387   0.405   1.704   2.240
 8830SOL     OW27388   2.918   1.837   3.960
 8830SOL    HW127389   2.868   1.924   3.964
 8830SOL    HW227390   2.989   1.836   4.030
 8831SOL     OW27391   0.284   2.746   2.319
 8831SOL    HW127392   0.381   2.766   2.302
 8831SOL    HW227393   0.227   2.800   2.257
 8832SOL     OW27394   6.189   0.470   4.303
 8832SOL    HW127395   6.130   0.544   4.271
 8832SOL    HW227396   6.186   0.394   4.238
 8833SOL     OW27397   3.209   2.860   0.917
 8833SOL    HW127398   3.297   2.837   0.876
 8833SOL    HW227399   3.156   2.916   0.853
 8834SOL     OW27400   4.950   3.231   5.602
 8834SOL    HW127401   5.013   3.154   5.609
 8834SOL    HW227402   4.862   3.206   5.642
 8835SOL     OW27403   6.215   1.036   5.453
 8835SOL    HW127404   6.244   1.127   5.424
 8835SOL    HW227405   6.210   1.033   5.553
 8836SOL     OW27406   5.223   1.866   0.587
 8836SOL    HW127407   5.168   1.918   0.522
 8836SOL    HW227408   5.272   1.928   0.648
 8837SOL     OW27409   5.665   6.938   1.420
 8837SOL    HW127410   5.643   0.014   1.421
 8837SOL    HW227411   5.672   6.906   1.325
 8838SOL     OW27412   0.612   4.054   3.038
 8838SOL    HW127413   0.709   4.067   3.019
 8838SOL    HW227414   0.572   4.140   3.070
 8839SOL     OW27415   5.099   5.874   3.420
 8839SOL    HW127416   5.165   5.852   3.492
 8839SOL    HW227417   5.147   5.886   3.333
 8840SOL     OW27418   6.961   1.334   1.419
 8840SOL    HW127419   0.028   1.367   1.452
 8840SOL    HW227420   6.887   1.385   1.463
 8841SOL     OW27421   3.718   1.045   1.479
 8841SOL    HW127422   3.713   1.121   1.413
 8841SOL    HW227423   3.809   1.004   1.475
 8842SOL     OW27424   3.849   3.514   4.314
 8842SOL    HW127425   3.845   3.464   4.401
 8842SOL    HW227426   3.927   3.577   4.314
 8843SOL     OW27427   1.778   4.428   5.765
 8843SOL    HW127428   1.736   4.413   5.676
 8843SOL    HW227429   1.864   4.478   5.753
 8844SOL     OW27430   4.768   1.635   5.121
 8844SOL    HW127431   4.747   1.603   5.214
 8844SOL    HW227432   4.717   1.579   5.055
 8845SOL     OW27433   0.411   4.613   1.950
 8845SOL    HW127434   0.323   4.568   1.961
 8845SOL    HW227435   0.430   4.670   2.030
 8846SOL     OW27436   5.652   4.790   3.232
 8846SOL    HW127437   5.611   4.816   3.319
 8846SOL    HW227438   5.696   4.701   3.242
 8847SOL     OW27439   2.353   2.180   3.136
 8847SOL    HW127440   2.411   2.260   3.123
 8847SOL    HW227441   2.395   2.101   3.090
 8848SOL     OW27442   4.026   1.971   1.111
 8848SOL    HW127443   3.935   2.007   1.131
 8848SOL    HW227444   4.095   2.024   1.159
 8849SOL     OW27445   2.849   5.423   4.759
 8849SOL    HW127446   2.825   5.458   4.849
 8849SOL    HW227447   2.771   5.374   4.720
 8850SOL     OW27448   3.114   1.668   1.345
 8850SOL    HW127449   3.140   1.618   1.428
 8850SOL    HW227450   3.132   1.765   1.358
 8851SOL     OW27451   6.904   5.343   3.165
 8851SOL    HW127452   7.004   5.342   3.159
 8851SOL    HW227453   6.873   5.272   3.227
 8852SOL     OW27454   5.475   2.445   5.439
 8852SOL    HW127455   5.474   2.396   5.351
 8852SOL    HW227456   5.407   2.404   5.500
 8853SOL     OW27457   4.716   0.791   5.544
 8853SOL    HW127458   4.636   0.839   5.508
 8853SOL    HW227459   4.765   0.852   5.606
 8854SOL     OW27460   1.658   1.642   6.356
 8854SOL    HW127461   1.737   1.633   6.416
 8854SOL    HW227462   1.613   1.553   6.347
 8855SOL     OW27463   6.281   5.262   6.293
 8855SOL    HW127464   6.318   5.326   6.226
 8855SOL    HW227465   6.341   5.259   6.373
 8856SOL     OW27466   5.893   0.741   4.796
 8856SOL    HW127467   5.905   0.724   4.698
 8856SOL    HW227468   5.891   0.840   4.813
 8857SOL     OW27469   6.369   2.037   3.790
 8857SOL    HW127470   6.368   2.112   3.724
 8857SOL    HW227471   6.280   2.032   3.836
 8858SOL     OW27472   0.295   3.386   6.329
 8858SOL    HW127473   0.389   3.420   6.336
 8858SOL    HW227474   0.289   3.296   6.372
 8859SOL     OW27475   1.687   5.731   6.032
 8859SOL    HW127476   1.704   5.763   5.939
 8859SOL    HW227477   1.666   5.810   6.090
 8860SOL     OW27478   1.506   1.803   2.727
 8860SOL    HW127479   1.484   1.891   2.768
 8860SOL    HW227480   1.596   1.808   2.684
 8861SOL     OW27481   4.292   3.195   0.027
 8861SOL    HW127482   4.361   3.122   0.031
 8861SOL    HW227483   4.277   3.233   0.118
 8862SOL     OW27484   5.749   1.478   4.386
 8862SOL    HW127485   5.652   1.501   4.380
 8862SOL    HW227486   5.786   1.469   4.293
 8863SOL     OW27487   2.040   5.615   5.245
 8863SOL    HW127488   2.138   5.636   5.242
 8863SOL    HW227489   2.010   5.581   5.156
 8864SOL     OW27490   1.423   2.570   0.062
 8864SOL    HW127491   1.487   2.621   0.120
 8864SOL    HW227492   1.394   2.487   0.110
 8865SOL     OW27493   2.880   2.166   5.962
 8865SOL    HW127494   2.858   2.151   5.866
 8865SOL    HW227495   2.971   2.131   5.981
 8866SOL     OW27496   3.063   6.540   4.151
 8866SOL    HW127497   3.114   6.457   4.174
 8866SOL    HW227498   3.095   6.576   4.064
 8867SOL     OW27499   6.428   2.991   3.612
 8867SOL    HW127500   6.404   2.952   3.701
 8867SOL    HW227501   6.346   3.028   3.569
 8868SOL     OW27502   4.343   4.115   0.230
 8868SOL    HW127503   4.322   4.160   0.143
 8868SOL    HW227504   4.364   4.184   0.299
 8869SOL     OW27505   4.871   2.607   3.374
 8869SOL    HW127506   4.961   2.637   3.341
 8869SOL    HW227507   4.881   2.519   3.422
 8870SOL     OW27508   4.300   1.212   0.852
 8870SOL    HW127509   4.308   1.216   0.752
 8870SOL    HW227510   4.367   1.273   0.893
 8871SOL     OW27511   2.520   2.156   3.650
 8871SOL    HW127512   2.498   2.137   3.555
 8871SOL    HW227513   2.461   2.102   3.710
 8872SOL     OW27514   1.090   3.819   3.974
 8872SOL    HW127515   1.065   3.911   3.944
 8872SOL    HW227516   1.092   3.816   4.074
 8873SOL     OW27517   0.409   5.354   4.472
 8873SOL    HW127518   0.450   5.299   4.545
 8873SOL    HW227519   0.423   5.451   4.491
 8874SOL     OW27520   2.817   0.777   1.281
 8874SOL    HW127521   2.778   0.859   1.239
 8874SOL    HW227522   2.811   0.784   1.381
 8875SOL     OW27523   1.869   3.054   4.069
 8875SOL    HW127524   1.794   3.118   4.086
 8875SOL    HW227525   1.921   3.084   3.989
 8876SOL     OW27526   0.715   0.517   4.745
 8876SOL    HW127527   0.658   0.598   4.735
 8876SOL    HW227528   0.786   0.517   4.674
 8877SOL     OW27529   2.972   0.431   4.571
 8877SOL    HW127530   2.992   0.452   4.666
 8877SOL    HW227531   2.987   0.513   4.515
 8878SOL     OW27532   6.976   4.338   6.468
 8878SOL    HW127533   7.009   4.246   6.486
 8878SOL    HW227534   0.021   4.404   6.503
 8879SOL     OW27535   5.659   6.490   6.459
 8879SOL    HW127536   5.570   6.493   6.504
 8879SOL    HW227537   5.647   6.475   6.360
 8880SOL     OW27538   6.945   5.004   4.668
 8880SOL    HW127539   6.849   4.987   4.693
 8880SOL    HW227540   6.949   5.045   4.577
 8881SOL     OW27541   6.432   1.363   1.397
 8881SOL    HW127542   6.514   1.310   1.373
 8881SOL    HW227543   6.454   1.460   1.393
 8882SOL     OW27544   5.480   1.831   6.333
 8882SOL    HW127545   5.563   1.783   6.363
 8882SOL    HW227546   5.493   1.930   6.345
 8883SOL     OW27547   6.604   1.093   5.426
 8883SOL    HW127548   6.550   1.010   5.417
 8883SOL    HW227549   6.555   1.169   5.383
 8884SOL     OW27550   6.511   0.577   6.192
 8884SOL    HW127551   6.527   0.483   6.222
 8884SOL    HW227552   6.597   0.628   6.196
 8885SOL     OW27553   5.764   3.579   1.763
 8885SOL    HW127554   5.703   3.503   1.739
 8885SOL    HW227555   5.754   3.652   1.696
 8886SOL     OW27556   3.087   6.826   5.891
 8886SOL    HW127557   3.129   6.823   5.800
 8886SOL    HW227558   3.036   6.742   5.907
 8887SOL     OW27559   2.844   1.206   0.788
 8887SOL    HW127560   2.829   1.130   0.851
 8887SOL    HW227561   2.915   1.267   0.825
 8888SOL     OW27562   3.211   1.882   1.915
 8888SOL    HW127563   3.299   1.925   1.898
 8888SOL    HW227564   3.143   1.951   1.939
 8889SOL     OW27565   3.744   6.567   4.381
 8889SOL    HW127566   3.757   6.496   4.312
 8889SOL    HW227567   3.651   6.602   4.375
 8890SOL     OW27568   1.260   5.447   4.613
 8890SOL    HW127569   1.191   5.455   4.686
 8890SOL    HW227570   1.294   5.538   4.590
 8891SOL     OW27571   4.921   2.939   6.135
 8891SOL    HW127572   4.973   3.008   6.086
 8891SOL    HW227573   4.833   2.977   6.163
 8892SOL     OW27574   2.150   0.244   2.776
 8892SOL    HW127575   2.174   0.298   2.857
 8892SOL    HW227576   2.078   0.178   2.800
 8893SOL     OW27577   0.403   1.576   1.329
 8893SOL    HW127578   0.323   1.608   1.278
 8893SOL    HW227579   0.485   1.620   1.292
 8894SOL     OW27580   3.876   2.739   6.320
 8894SOL    HW127581   3.920   2.692   6.396
 8894SOL    HW227582   3.804   2.681   6.282
 8895SOL     OW27583   0.320   0.041   2.025
 8895SOL    HW127584   0.241   0.064   1.969
 8895SOL    HW227585   0.380   7.001   1.975
 8896SOL     OW27586   1.716   4.013   4.600
 8896SOL    HW127587   1.737   4.051   4.690
 8896SOL    HW227588   1.662   4.078   4.547
 8897SOL     OW27589   1.542   1.966   1.727
 8897SOL    HW127590   1.531   2.061   1.696
 8897SOL    HW227591   1.581   1.911   1.653
 8898SOL     OW27592   5.858   3.863   3.900
 8898SOL    HW127593   5.943   3.821   3.935
 8898SOL    HW227594   5.822   3.807   3.826
 8899SOL     OW27595   1.140   4.602   0.619
 8899SOL    HW127596   1.113   4.640   0.531
 8899SOL    HW227597   1.182   4.674   0.675
 8900SOL     OW27598   5.243   2.160   3.344
 8900SOL    HW127599   5.323   2.157   3.283
 8900SOL    HW227600   5.191   2.244   3.327
 8901SOL     OW27601   1.088   0.353   2.928
 8901SOL    HW127602   1.145   0.289   2.876
 8901SOL    HW227603   1.106   0.446   2.898
 8902SOL     OW27604   1.262   5.538   6.576
 8902SOL    HW127605   1.205   5.494   6.506
 8902SOL    HW227606   1.278   5.474   6.652
 8903SOL     OW27607   2.056   1.844   3.626
 8903SOL    HW127608   2.006   1.826   3.711
 8903SOL    HW227609   2.043   1.939   3.599
 8904SOL     OW27610   0.562   6.432   3.775
 8904SOL    HW127611   0.598   6.504   3.716
 8904SOL    HW227612   0.486   6.468   3.830
 8905SOL     OW27613   2.526   3.805   5.438
 8905SOL    HW127614   2.538   3.844   5.347
 8905SOL    HW227615   2.494   3.711   5.430
 8906SOL     OW27616   6.653   6.367   5.689
 8906SOL    HW127617   6.562   6.408   5.701
 8906SOL    HW227618   6.696   6.405   5.606
 8907SOL     OW27619   3.326   2.664   5.312
 8907SOL    HW127620   3.231   2.643   5.334
 8907SOL    HW227621   3.382   2.581   5.320
 8908SOL     OW27622   1.117   2.277   1.685
 8908SOL    HW127623   1.026   2.241   1.706
 8908SOL    HW227624   1.109   2.364   1.637
 8909SOL     OW27625   2.142   0.594   0.006
 8909SOL    HW127626   2.173   0.538   0.083
 8909SOL    HW227627   2.202   0.673   7.017
 8910SOL     OW27628   2.898   3.535   6.720
 8910SOL    HW127629   2.934   3.586   6.641
 8910SOL    HW227630   2.803   3.560   6.735
 8911SOL     OW27631   3.863   2.103   4.649
 8911SOL    HW127632   3.805   2.112   4.568
 8911SOL    HW227633   3.946   2.053   4.626
 8912SOL     OW27634   4.729   2.171   6.103
 8912SOL    HW127635   4.691   2.205   6.016
 8912SOL    HW227636   4.809   2.115   6.083
 8913SOL     OW27637   5.361   4.319   1.367
 8913SOL    HW127638   5.292   4.257   1.406
 8913SOL    HW227639   5.420   4.267   1.305
 8914SOL     OW27640   3.315   1.720   4.852
 8914SOL    HW127641   3.244   1.748   4.787
 8914SOL    HW227642   3.282   1.731   4.945
 8915SOL     OW27643   1.688   3.849   2.217
 8915SOL    HW127644   1.738   3.863   2.302
 8915SOL    HW227645   1.634   3.765   2.224
 8916SOL     OW27646   6.751   3.492   2.789
 8916SOL    HW127647   6.686   3.568   2.790
 8916SOL    HW227648   6.773   3.467   2.695
 8917SOL     OW27649   6.178   6.132   0.064
 8917SOL    HW127650   6.174   6.192   0.143
 8917SOL    HW227651   6.123   6.050   0.081
 8918SOL     OW27652   5.359   5.191   6.512
 8918SOL    HW127653   5.437   5.192   6.450
 8918SOL    HW227654   5.356   5.277   6.564
 8919SOL     OW27655   3.393   4.966   1.521
 8919SOL    HW127656   3.320   4.979   1.453
 8919SOL    HW227657   3.358   4.912   1.597
 8920SOL     OW27658   5.881   5.550   5.184
 8920SOL    HW127659   5.911   5.637   5.224
 8920SOL    HW227660   5.783   5.554   5.165
 8921SOL     OW27661   1.283   0.685   3.599
 8921SOL    HW127662   1.241   0.727   3.679
 8921SOL    HW227663   1.297   0.588   3.616
 8922SOL     OW27664   1.068   4.132   0.737
 8922SOL    HW127665   1.029   4.130   0.645
 8922SOL    HW227666   1.129   4.211   0.745
 8923SOL     OW27667   2.056   4.091   6.361
 8923SOL    HW127668   2.024   4.136   6.278
 8923SOL    HW227669   2.068   4.160   6.433
 8924SOL     OW27670   2.880   5.195   5.541
 8924SOL    HW127671   2.925   5.276   5.579
 8924SOL    HW227672   2.933   5.161   5.463
 8925SOL     OW27673   6.873   0.488   2.508
 8925SOL    HW127674   6.969   0.481   2.480
 8925SOL    HW227675   6.818   0.519   2.431
 8926SOL     OW27676   5.145   2.464   1.459
 8926SOL    HW127677   5.153   2.529   1.535
 8926SOL    HW227678   5.104   2.510   1.380
 8927SOL     OW27679   2.195   2.511   4.786
 8927SOL    HW127680   2.246   2.585   4.830
 8927SOL    HW227681   2.210   2.425   4.836
 8928SOL     OW27682   0.491   6.528   5.428
 8928SOL    HW127683   0.529   6.532   5.520
 8928SOL    HW227684   0.421   6.599   5.418
 8929SOL     OW27685   6.455   3.942   3.811
 8929SOL    HW127686   6.523   3.869   3.815
 8929SOL    HW227687   6.497   4.026   3.779
 8930SOL     OW27688   1.518   5.040   4.730
 8930SOL    HW127689   1.480   4.963   4.781
 8930SOL    HW227690   1.599   5.010   4.680
 8931SOL     OW27691   4.781   1.468   0.986
 8931SOL    HW127692   4.749   1.536   1.052
 8931SOL    HW227693   4.803   1.513   0.900
 8932SOL     OW27694   6.924   0.401   6.398
 8932SOL    HW127695   6.965   0.439   6.315
 8932SOL    HW227696   6.969   0.440   6.478
 8933SOL     OW27697   1.683   0.747   4.980
 8933SOL    HW127698   1.668   0.710   5.072
 8933SOL    HW227699   1.749   0.690   4.932
 8934SOL     OW27700   3.270   5.886   2.703
 8934SOL    HW127701   3.223   5.963   2.661
 8934SOL    HW227702   3.244   5.878   2.799
 8935SOL     OW27703   4.982   2.521   2.875
 8935SOL    HW127704   4.930   2.485   2.798
 8935SOL    HW227705   4.921   2.575   2.934
 8936SOL     OW27706   1.148   5.682   1.801
 8936SOL    HW127707   1.170   5.757   1.738
 8936SOL    HW227708   1.136   5.597   1.749
 8937SOL     OW27709   6.418   6.965   4.109
 8937SOL    HW127710   6.485   0.008   4.144
 8937SOL    HW227711   6.359   6.934   4.184
 8938SOL     OW27712   6.159   0.721   0.770
 8938SOL    HW127713   6.237   0.658   0.773
 8938SOL    HW227714   6.154   0.764   0.680
 8939SOL     OW27715   0.773   2.988   4.009
 8939SOL    HW127716   0.713   2.909   4.001
 8939SOL    HW227717   0.738   3.063   3.952
 8940SOL     OW27718   6.964   2.969   1.295
 8940SOL    HW127719   6.982   3.061   1.329
 8940SOL    HW227720   7.002   2.902   1.359
 8941SOL     OW27721   4.785   2.441   1.200
 8941SOL    HW127722   4.704   2.436   1.143
 8941SOL    HW227723   4.758   2.451   1.296
 8942SOL     OW27724   5.853   4.679   3.864
 8942SOL    HW127725   5.910   4.743   3.916
 8942SOL    HW227726   5.775   4.727   3.825
 8943SOL     OW27727   4.892   4.025   6.993
 8943SOL    HW127728   4.902   3.925   6.993
 8943SOL    HW227729   4.979   4.066   0.000
 8944SOL     OW27730   5.015   5.305   4.292
 8944SOL    HW127731   5.045   5.347   4.206
 8944SOL    HW227732   5.024   5.370   4.367
 8945SOL     OW27733   5.901   3.900   5.456
 8945SOL    HW127734   5.807   3.870   5.467
 8945SOL    HW227735   5.949   3.835   5.396
 8946SOL     OW27736   5.256   0.534   4.949
 8946SOL    HW127737   5.356   0.527   4.956
 8946SOL    HW227738   5.213   0.473   5.015
 8947SOL     OW27739   1.966   5.165   6.521
 8947SOL    HW127740   2.022   5.248   6.511
 8947SOL    HW227741   1.952   5.146   6.618
 8948SOL     OW27742   6.640   1.051   3.017
 8948SOL    HW127743   6.660   1.144   2.984
 8948SOL    HW227744   6.545   1.028   2.994
 8949SOL     OW27745   3.118   6.180   0.890
 8949SOL    HW127746   3.172   6.244   0.835
 8949SOL    HW227747   3.170   6.156   0.972
 8950SOL     OW27748   5.016   4.059   1.187
 8950SOL    HW127749   5.017   4.157   1.166
 8950SOL    HW227750   4.954   4.043   1.265
 8951SOL     OW27751   1.774   1.992   4.678
 8951SOL    HW127752   1.743   1.975   4.772
 8951SOL    HW227753   1.699   2.028   4.624
 8952SOL     OW27754   2.157   4.504   3.863
 8952SOL    HW127755   2.229   4.572   3.851
 8952SOL    HW227756   2.154   4.475   3.958
 8953SOL     OW27757   1.546   5.105   1.839
 8953SOL    HW127758   1.518   5.106   1.935
 8953SOL    HW227759   1.615   5.034   1.825
 8954SOL     OW27760   1.509   5.558   4.981
 8954SOL    HW127761   1.596   5.607   4.974
 8954SOL    HW227762   1.514   5.473   4.927
 8955SOL     OW27763   5.729   2.462   4.143
 8955SOL    HW127764   5.656   2.527   4.121
 8955SOL    HW227765   5.806   2.511   4.183
 8956SOL     OW27766   0.787   5.572   6.163
 8956SOL    HW127767   0.796   5.520   6.248
 8956SOL    HW227768   0.874   5.618   6.143
 8957SOL     OW27769   0.985   6.054   2.778
 8957SOL    HW127770   1.017   6.091   2.691
 8957SOL    HW227771   0.973   6.128   2.844
 8958SOL     OW27772   1.782   3.987   5.320
 8958SOL    HW127773   1.843   3.983   5.240
 8958SOL    HW227774   1.723   3.906   5.321
 8959SOL     OW27775   0.333   3.085   2.946
 8959SOL    HW127776   0.253   3.090   3.005
 8959SOL    HW227777   0.352   2.990   2.921
 8960SOL     OW27778   5.239   4.134   3.566
 8960SOL    HW127779   5.316   4.197   3.578
 8960SOL    HW227780   5.175   4.145   3.642
 8961SOL     OW27781   2.687   6.435   5.497
 8961SOL    HW127782   2.785   6.448   5.506
 8961SOL    HW227783   2.644   6.437   5.588
 8962SOL     OW27784   0.733   5.818   1.636
 8962SOL    HW127785   0.765   5.855   1.723
 8962SOL    HW227786   0.784   5.735   1.614
 8963SOL     OW27787   4.055   6.173   4.421
 8963SOL    HW127788   4.118   6.105   4.459
 8963SOL    HW227789   4.056   6.254   4.479
 8964SOL     OW27790   0.728   3.323   4.640
 8964SOL    HW127791   0.707   3.377   4.722
 8964SOL    HW227792   0.740   3.227   4.666
 8965SOL     OW27793   4.114   4.917   0.771
 8965SOL    HW127794   4.118   4.842   0.705
 8965SOL    HW227795   4.201   4.923   0.819
 8966SOL     OW27796   4.585   4.689   6.179
 8966SOL    HW127797   4.536   4.652   6.099
 8966SOL    HW227798   4.680   4.709   6.153
 8967SOL     OW27799   2.931   6.929   3.619
 8967SOL    HW127800   2.912   6.833   3.639
 8967SOL    HW227801   2.891   6.953   3.531
 8968SOL     OW27802   3.364   5.124   1.860
 8968SOL    HW127803   3.380   5.029   1.886
 8968SOL    HW227804   3.314   5.127   1.774
 8969SOL     OW27805   0.121   1.381   3.030
 8969SOL    HW127806   0.207   1.333   3.047
 8969SOL    HW227807   0.140   1.469   2.988
 8970SOL     OW27808   1.850   0.952   5.242
 8970SOL    HW127809   1.894   0.872   5.202
 8970SOL    HW227810   1.787   0.993   5.176
 8971SOL     OW27811   4.501   5.468   0.591
 8971SOL    HW127812   4.588   5.420   0.589
 8971SOL    HW227813   4.427   5.402   0.606
 8972SOL     OW27814   6.455   4.602   0.615
 8972SOL    HW127815   6.409   4.659   0.547
 8972SOL    HW227816   6.462   4.652   0.701
 8973SOL     OW27817   1.046   2.672   2.630
 8973SOL    HW127818   0.958   2.632   2.658
 8973SOL    HW227819   1.054   2.764   2.668
 8974SOL     OW27820   2.184   4.354   4.912
 8974SOL    HW127821   2.188   4.286   4.985
 8974SOL    HW227822   2.244   4.328   4.837
 8975SOL     OW27823   0.358   6.494   5.993
 8975SOL    HW127824   0.405   6.514   5.908
 8975SOL    HW227825   0.407   6.421   6.042
 8976SOL     OW27826   6.824   6.964   1.732
 8976SOL    HW127827   6.765   7.006   1.802
 8976SOL    HW227828   6.882   0.013   1.692
 8977SOL     OW27829   6.869   5.006   6.006
 8977SOL    HW127830   6.960   5.041   5.982
 8977SOL    HW227831   6.847   5.034   6.099
 8978SOL     OW27832   5.529   5.487   5.890
 8978SOL    HW127833   5.618   5.525   5.917
 8978SOL    HW227834   5.486   5.547   5.823
 8979SOL     OW27835   0.921   4.849   5.786
 8979SOL    HW127836   0.895   4.944   5.805
 8979SOL    HW227837   0.951   4.806   5.871
 8980SOL     OW27838   3.453   0.639   5.258
 8980SOL    HW127839   3.468   0.726   5.305
 8980SOL    HW227840   3.365   0.601   5.287
 8981SOL     OW27841   3.833   2.754   6.894
 8981SOL    HW127842   3.879   2.805   6.967
 8981SOL    HW227843   3.809   2.817   6.820
 8982SOL     OW27844   0.831   1.512   1.197
 8982SOL    HW127845   0.872   1.455   1.268
 8982SOL    HW227846   0.902   1.540   1.132
 8983SOL     OW27847   1.077   0.209   2.183
 8983SOL    HW127848   1.134   0.127   2.180
 8983SOL    HW227849   1.043   0.223   2.276
 8984SOL     OW27850   6.343   0.406   3.658
 8984SOL    HW127851   6.410   0.349   3.706
 8984SOL    HW227852   6.252   0.387   3.693
 8985SOL     OW27853   4.614   2.827   0.481
 8985SOL    HW127854   4.700   2.819   0.430
 8985SOL    HW227855   4.568   2.739   0.484
 8986SOL     OW27856   6.965   5.776   0.437
 8986SOL    HW127857   0.016   5.715   0.471
 8986SOL    HW227858   7.003   5.835   0.365
 8987SOL     OW27859   1.982   0.789   1.543
 8987SOL    HW127860   1.999   0.735   1.460
 8987SOL    HW227861   2.052   0.769   1.611
 8988SOL     OW27862   1.443   5.441   1.793
 8988SOL    HW127863   1.526   5.494   1.811
 8988SOL    HW227864   1.467   5.346   1.778
 8989SOL     OW27865   4.772   1.534   1.444
 8989SOL    HW127866   4.772   1.634   1.441
 8989SOL    HW227867   4.808   1.504   1.533
 8990SOL     OW27868   3.877   0.419   1.874
 8990SOL    HW127869   3.781   0.422   1.904
 8990SOL    HW227870   3.934   0.387   1.950
 8991SOL     OW27871   2.246   2.650   6.771
 8991SOL    HW127872   2.184   2.714   6.725
 8991SOL    HW227873   2.329   2.698   6.799
 8992SOL     OW27874   0.310   3.594   0.227
 8992SOL    HW127875   0.340   3.594   0.131
 8992SOL    HW227876   0.231   3.654   0.237
 8993SOL     OW27877   5.747   3.178   3.767
 8993SOL    HW127878   5.751   3.235   3.849
 8993SOL    HW227879   5.750   3.081   3.794
 8994SOL     OW27880   0.659   5.434   3.225
 8994SOL    HW127881   0.569   5.476   3.242
 8994SOL    HW227882   0.694   5.467   3.138
 8995SOL     OW27883   1.919   3.920   5.092
 8995SOL    HW127884   1.841   3.871   5.053
 8995SOL    HW227885   2.002   3.894   5.042
 8996SOL     OW27886   0.549   4.351   2.560
 8996SOL    HW127887   0.646   4.338   2.540
 8996SOL    HW227888   0.507   4.263   2.581
 8997SOL     OW27889   4.521   1.767   5.415
 8997SOL    HW127890   4.446   1.702   5.401
 8997SOL    HW227891   4.521   1.835   5.342
 8998SOL     OW27892   1.394   2.789   6.561
 8998SOL    HW127893   1.342   2.834   6.634
 8998SOL    HW227894   1.487   2.773   6.591
 8999SOL     OW27895   6.339   1.302   4.294
 8999SOL    HW127896   6.265   1.361   4.329
 8999SOL    HW227897   6.393   1.268   4.371
 9000SOL     OW27898   3.157   3.747   0.420
 9000SOL    HW127899   3.228   3.805   0.460
 9000SOL    HW227900   3.068   3.772   0.457
 9001SOL     OW27901   1.779   5.300   3.736
 9001SOL    HW127902   1.743   5.308   3.829
 9001SOL    HW227903   1.763   5.386   3.687
 9002SOL     OW27904   5.670   4.501   5.467
 9002SOL    HW127905   5.622   4.467   5.548
 9002SOL    HW227906   5.755   4.546   5.494
 9003SOL     OW27907   5.804   2.624   6.588
 9003SOL    HW127908   5.811   2.526   6.611
 9003SOL    HW227909   5.865   2.676   6.648
 9004SOL     OW27910   4.445   6.622   1.122
 9004SOL    HW127911   4.481   6.586   1.036
 9004SOL    HW227912   4.521   6.634   1.186
 9005SOL     OW27913   5.039   1.699   3.240
 9005SOL    HW127914   5.127   1.741   3.217
 9005SOL    HW227915   5.045   1.600   3.227
 9006SOL     OW27916   0.893   5.263   0.978
 9006SOL    HW127917   0.891   5.305   0.888
 9006SOL    HW227918   0.866   5.330   1.047
 9007SOL     OW27919   2.718   6.942   4.370
 9007SOL    HW127920   2.707   6.845   4.392
 9007SOL    HW227921   2.811   6.972   4.394
 9008SOL     OW27922   6.841   4.430   2.497
 9008SOL    HW127923   6.849   4.346   2.550
 9008SOL    HW227924   6.788   4.497   2.549
 9009SOL     OW27925   2.882   6.092   1.059
 9009SOL    HW127926   2.965   6.101   1.003
 9009SOL    HW227927   2.830   6.177   1.053
 9010SOL     OW27928   1.199   6.289   5.311
 9010SOL    HW127929   1.262   6.212   5.322
 9010SOL    HW227930   1.140   6.296   5.392
 9011SOL     OW27931   4.802   2.105   1.198
 9011SOL    HW127932   4.777   2.159   1.118
 9011SOL    HW227933   4.887   2.142   1.237
 9012SOL     OW27934   6.942   5.322   1.637
 9012SOL    HW127935   0.003   5.380   1.639
 9012SOL    HW227936   6.896   5.326   1.726
 9013SOL     OW27937   6.040   5.640   3.471
 9013SOL    HW127938   6.082   5.723   3.433
 9013SOL    HW227939   5.947   5.630   3.435
 9014SOL     OW27940   3.262   0.932   1.002
 9014SOL    HW127941   3.223   0.966   1.087
 9014SOL    HW227942   3.300   0.841   1.017
 9015SOL     OW27943   0.270   0.913   5.934
 9015SOL    HW127944   0.326   0.929   6.015
 9015SOL    HW227945   0.224   0.998   5.908
 9016SOL     OW27946   6.081   5.800   6.601
 9016SOL    HW127947   6.092   5.875   6.537
 9016SOL    HW227948   6.151   5.807   6.673
 9017SOL     OW27949   6.654   2.863   3.510
 9017SOL    HW127950   6.566   2.899   3.539
 9017SOL    HW227951   6.727   2.924   3.542
 9018SOL     OW27952   3.764   2.405   5.450
 9018SOL    HW127953   3.668   2.429   5.435
 9018SOL    HW227954   3.812   2.484   5.488
 9019SOL     OW27955   2.223   0.112   0.808
 9019SOL    HW127956   2.278   0.125   0.725
 9019SOL    HW227957   2.276   0.061   0.876
 9020SOL     OW27958   0.264   4.782   3.103
 9020SOL    HW127959   0.296   4.690   3.080
 9020SOL    HW227960   0.336   4.848   3.084
 9021SOL     OW27961   6.643   5.674   5.024
 9021SOL    HW127962   6.555   5.720   5.035
 9021SOL    HW227963   6.641   5.585   5.069
 9022SOL     OW27964   3.609   0.706   0.322
 9022SOL    HW127965   3.523   0.705   0.272
 9022SOL    HW227966   3.638   0.801   0.336
 9023SOL     OW27967   3.341   3.223   3.477
 9023SOL    HW127968   3.283   3.145   3.500
 9023SOL    HW227969   3.286   3.294   3.435
 9024SOL     OW27970   2.137   6.381   6.984
 9024SOL    HW127971   2.156   6.291   0.002
 9024SOL    HW227972   2.218   6.439   6.993
 9025SOL     OW27973   6.109   5.145   1.026
 9025SOL    HW127974   6.049   5.082   1.075
 9025SOL    HW227975   6.188   5.167   1.084
 9026SOL     OW27976   3.297   2.852   5.081
 9026SOL    HW127977   3.333   2.759   5.094
 9026SOL    HW227978   3.238   2.876   5.158
 9027SOL     OW27979   2.110   3.099   3.562
 9027SOL    HW127980   2.128   3.011   3.518
 9027SOL    HW227981   2.019   3.131   3.537
 9028SOL     OW27982   2.850   4.866   5.224
 9028SOL    HW127983   2.811   4.777   5.248
 9028SOL    HW227984   2.895   4.859   5.135
 9029SOL     OW27985   5.073   6.405   3.084
 9029SOL    HW127986   5.008   6.400   3.008
 9029SOL    HW227987   5.166   6.403   3.048
 9030SOL     OW27988   3.075   1.089   2.034
 9030SOL    HW127989   3.121   1.079   1.946
 9030SOL    HW227990   2.977   1.096   2.020
 9031SOL     OW27991   2.498   6.061   6.273
 9031SOL    HW127992   2.563   6.129   6.240
 9031SOL    HW227993   2.430   6.106   6.331
 9032SOL     OW27994   2.297   1.689   1.881
 9032SOL    HW127995   2.312   1.636   1.798
 9032SOL    HW227996   2.199   1.708   1.891
 9033SOL     OW27997   1.811   3.893   2.479
 9033SOL    HW127998   1.906   3.876   2.452
 9033SOL    HW227999   1.786   3.830   2.552
 9034SOL     OW28000   3.029   6.555   5.903
 9034SOL    HW128001   3.063   6.545   5.997
 9034SOL    HW228002   2.940   6.510   5.895
 9035SOL     OW28003   6.975   1.170   4.401
 9035SOL    HW128004   0.007   1.126   4.329
 9035SOL    HW228005   7.012   1.145   4.490
 9036SOL     OW28006   0.716   2.156   5.646
 9036SOL    HW128007   0.808   2.177   5.679
 9036SOL    HW228008   0.695   2.212   5.566
 9037SOL     OW28009   2.008   4.254   6.553
 9037SOL    HW128010   2.099   4.271   6.591
 9037SOL    HW228011   1.976   4.335   6.504
 9038SOL     OW28012   5.068   6.017   5.307
 9038SOL    HW128013   5.041   6.110   5.333
 9038SOL    HW228014   5.158   6.019   5.265
 9039SOL     OW28015   2.090   5.672   5.670
 9039SOL    HW128016   2.031   5.600   5.634
 9039SOL    HW228017   2.146   5.635   5.744
 9040SOL     OW28018   1.993   1.208   2.832
 9040SOL    HW128019   2.078   1.255   2.805
 9040SOL    HW228020   2.015   1.116   2.865
 9041SOL     OW28021   1.851   3.178   0.690
 9041SOL    HW128022   1.913   3.244   0.648
 9041SOL    HW228023   1.863   3.089   0.647
 9042SOL     OW28024   2.685   4.629   3.930
 9042SOL    HW128025   2.748   4.553   3.918
 9042SOL    HW228026   2.707   4.678   4.014
 9043SOL     OW28027   0.520   2.229   5.864
 9043SOL    HW128028   0.576   2.226   5.781
 9043SOL    HW228029   0.503   2.136   5.896
 9044SOL     OW28030   6.262   6.552   0.892
 9044SOL    HW128031   6.351   6.529   0.930
 9044SOL    HW228032   6.215   6.468   0.865
 9045SOL     OW28033   2.618   6.678   3.621
 9045SOL    HW128034   2.599   6.677   3.523
 9045SOL    HW228035   2.717   6.681   3.635
 9046SOL     OW28036   3.333   4.201   4.641
 9046SOL    HW128037   3.268   4.255   4.694
 9046SOL    HW228038   3.359   4.119   4.692
 9047SOL     OW28039   1.339   4.842   4.817
 9047SOL    HW128040   1.319   4.823   4.913
 9047SOL    HW228041   1.254   4.863   4.769
 9048SOL     OW28042   0.836   3.688   4.734
 9048SOL    HW128043   0.798   3.680   4.642
 9048SOL    HW228044   0.936   3.690   4.729
 9049SOL     OW28045   5.393   5.410   6.672
 9049SOL    HW128046   5.480   5.452   6.647
 9049SOL    HW228047   5.360   5.449   6.757
 9050SOL     OW28048   6.931   5.378   6.167
 9050SOL    HW128049   0.002   5.394   6.203
 9050SOL    HW228050   6.908   5.281   6.177
 9051SOL     OW28051   5.492   6.223   6.749
 9051SOL    HW128052   5.572   6.237   6.808
 9051SOL    HW228053   5.441   6.309   6.742
 9052SOL     OW28054   2.622   5.324   4.650
 9052SOL    HW128055   2.536   5.359   4.685
 9052SOL    HW228056   2.616   5.312   4.551
 9053SOL     OW28057   2.767   2.349   4.010
 9053SOL    HW128058   2.804   2.349   4.103
 9053SOL    HW228059   2.668   2.366   4.014
 9054SOL     OW28060   2.950   0.530   1.345
 9054SOL    HW128061   2.941   0.533   1.444
 9054SOL    HW228062   2.910   0.612   1.305
 9055SOL     OW28063   1.189   2.769   4.045
 9055SOL    HW128064   1.275   2.726   4.019
 9055SOL    HW228065   1.134   2.787   3.963
 9056SOL     OW28066   5.673   0.215   3.164
 9056SOL    HW128067   5.675   0.236   3.067
 9056SOL    HW228068   5.579   0.195   3.192
 9057SOL     OW28069   5.586   5.260   6.036
 9057SOL    HW128070   5.541   5.338   5.994
 9057SOL    HW228071   5.678   5.250   5.996
 9058SOL     OW28072   1.361   2.880   4.704
 9058SOL    HW128073   1.454   2.898   4.736
 9058SOL    HW228074   1.311   2.828   4.774
 9059SOL     OW28075   6.978   1.920   2.979
 9059SOL    HW128076   6.988   1.822   2.961
 9059SOL    HW228077   6.881   1.943   2.983
 9060SOL     OW28078   0.694   3.864   1.713
 9060SOL    HW128079   0.698   3.765   1.708
 9060SOL    HW228080   0.761   3.904   1.651
 9061SOL     OW28081   5.186   5.237   1.923
 9061SOL    HW128082   5.255   5.176   1.963
 9061SOL    HW228083   5.232   5.315   1.880
 9062SOL     OW28084   0.833   5.283   3.411
 9062SOL    HW128085   0.876   5.261   3.323
 9062SOL    HW228086   0.781   5.368   3.402
 9063SOL     OW28087   3.737   0.749   2.439
 9063SOL    HW128088   3.718   0.844   2.466
 9063SOL    HW228089   3.692   0.687   2.503
 9064SOL     OW28090   0.723   4.756   3.397
 9064SOL    HW128091   0.737   4.698   3.317
 9064SOL    HW228092   0.804   4.753   3.455
 9065SOL     OW28093   2.584   5.336   5.464
 9065SOL    HW128094   2.485   5.325   5.455
 9065SOL    HW228095   2.615   5.292   5.548
 9066SOL     OW28096   5.291   4.735   5.558
 9066SOL    HW128097   5.192   4.733   5.550
 9066SOL    HW228098   5.316   4.756   5.652
 9067SOL     OW28099   0.077   0.655   4.559
 9067SOL    HW128100   0.142   0.582   4.539
 9067SOL    HW228101   0.123   0.744   4.553
 9068SOL     OW28102   4.875   6.296   4.229
 9068SOL    HW128103   4.799   6.360   4.239
 9068SOL    HW228104   4.960   6.348   4.218
 9069SOL     OW28105   4.961   1.885   2.040
 9069SOL    HW128106   4.876   1.843   2.010
 9069SOL    HW228107   5.037   1.849   1.985
 9070SOL     OW28108   1.533   1.884   5.753
 9070SOL    HW128109   1.573   1.914   5.839
 9070SOL    HW228110   1.548   1.954   5.683
 9071SOL     OW28111   5.219   1.149   5.613
 9071SOL    HW128112   5.181   1.059   5.593
 9071SOL    HW228113   5.227   1.162   5.711
 9072SOL     OW28114   5.303   0.998   2.616
 9072SOL    HW128115   5.354   0.926   2.664
 9072SOL    HW228116   5.342   1.087   2.637
 9073SOL     OW28117   4.659   0.794   6.644
 9073SOL    HW128118   4.619   0.775   6.554
 9073SOL    HW228119   4.740   0.851   6.634
 9074SOL     OW28120   1.620   0.188   1.632
 9074SOL    HW128121   1.719   0.177   1.623
 9074SOL    HW228122   1.600   0.262   1.696
 9075SOL     OW28123   6.851   0.457   1.733
 9075SOL    HW128124   6.937   0.505   1.717
 9075SOL    HW228125   6.789   0.474   1.657
 9076SOL     OW28126   6.576   0.493   2.147
 9076SOL    HW128127   6.654   0.536   2.191
 9076SOL    HW228128   6.514   0.563   2.112
 9077SOL     OW28129   6.263   1.509   5.878
 9077SOL    HW128130   6.277   1.481   5.783
 9077SOL    HW228131   6.310   1.596   5.894
 9078SOL     OW28132   5.792   5.751   6.906
 9078SOL    HW128133   5.838   5.835   6.877
 9078SOL    HW228134   5.702   5.774   6.943
 9079SOL     OW28135   1.245   0.294   6.222
 9079SOL    HW128136   1.271   0.390   6.224
 9079SOL    HW228137   1.159   0.282   6.271
 9080SOL     OW28138   6.496   3.531   1.098
 9080SOL    HW128139   6.515   3.497   1.190
 9080SOL    HW228140   6.474   3.453   1.039
 9081SOL     OW28141   3.785   1.882   0.594
 9081SOL    HW128142   3.759   1.974   0.563
 9081SOL    HW228143   3.748   1.814   0.530
 9082SOL     OW28144   3.120   5.871   5.718
 9082SOL    HW128145   3.048   5.868   5.649
 9082SOL    HW228146   3.093   5.931   5.793
 9083SOL     OW28147   4.474   4.633   6.773
 9083SOL    HW128148   4.440   4.664   6.862
 9083SOL    HW228149   4.430   4.687   6.700
 9084SOL     OW28150   0.493   2.830   5.612
 9084SOL    HW128151   0.528   2.761   5.547
 9084SOL    HW228152   0.537   2.918   5.593
 9085SOL     OW28153   2.424   5.069   6.651
 9085SOL    HW128154   2.397   5.052   6.746
 9085SOL    HW228155   2.446   5.166   6.639
 9086SOL     OW28156   6.621   4.394   0.684
 9086SOL    HW128157   6.546   4.461   0.683
 9086SOL    HW228158   6.705   4.438   0.652
 9087SOL     OW28159   5.940   1.324   1.543
 9087SOL    HW128160   5.910   1.410   1.503
 9087SOL    HW228161   6.038   1.313   1.528
 9088SOL     OW28162   6.408   0.639   1.220
 9088SOL    HW128163   6.322   0.654   1.172
 9088SOL    HW228164   6.415   0.701   1.297
 9089SOL     OW28165   4.316   5.841   3.740
 9089SOL    HW128166   4.331   5.785   3.658
 9089SOL    HW228167   4.369   5.925   3.733
 9090SOL     OW28168   5.729   6.247   4.815
 9090SOL    HW128169   5.802   6.260   4.882
 9090SOL    HW228170   5.769   6.221   4.727
 9091SOL     OW28171   2.793   1.750   0.973
 9091SOL    HW128172   2.756   1.821   0.914
 9091SOL    HW228173   2.865   1.700   0.925
 9092SOL     OW28174   1.576   6.527   5.743
 9092SOL    HW128175   1.662   6.475   5.742
 9092SOL    HW228176   1.540   6.533   5.650
 9093SOL     OW28177   1.532   5.349   0.587
 9093SOL    HW128178   1.488   5.328   0.500
 9093SOL    HW228179   1.598   5.423   0.575
 9094SOL     OW28180   0.100   5.611   2.305
 9094SOL    HW128181   0.095   5.559   2.220
 9094SOL    HW228182   0.163   5.687   2.295
 9095SOL     OW28183   4.096   3.669   6.519
 9095SOL    HW128184   4.107   3.699   6.613
 9095SOL    HW228185   4.023   3.721   6.475
 9096SOL     OW28186   6.007   2.665   2.762
 9096SOL    HW128187   5.939   2.593   2.756
 9096SOL    HW228188   5.980   2.742   2.704
 9097SOL     OW28189   1.303   3.863   6.573
 9097SOL    HW128190   1.261   3.912   6.497
 9097SOL    HW228191   1.253   3.881   6.657
 9098SOL     OW28192   3.721   4.088   2.119
 9098SOL    HW128193   3.749   4.105   2.025
 9098SOL    HW228194   3.774   4.011   2.156
 9099SOL     OW28195   2.542   3.528   1.144
 9099SOL    HW128196   2.567   3.464   1.072
 9099SOL    HW228197   2.524   3.618   1.105
 9100SOL     OW28198   0.488   3.290   1.136
 9100SOL    HW128199   0.399   3.248   1.118
 9100SOL    HW228200   0.489   3.382   1.098
 9101SOL     OW28201   1.472   2.460   2.841
 9101SOL    HW128202   1.390   2.403   2.852
 9101SOL    HW228203   1.548   2.417   2.889
 9102SOL     OW28204   3.677   5.557   1.511
 9102SOL    HW128205   3.642   5.542   1.604
 9102SOL    HW228206   3.600   5.557   1.447
 9103SOL     OW28207   0.106   3.805   0.779
 9103SOL    HW128208   0.095   3.759   0.691
 9103SOL    HW228209   0.077   3.744   0.853
 9104SOL     OW28210   4.444   6.315   1.448
 9104SOL    HW128211   4.374   6.315   1.377
 9104SOL    HW228212   4.533   6.338   1.407
 9105SOL     OW28213   1.439   0.786   6.477
 9105SOL    HW128214   1.345   0.757   6.457
 9105SOL    HW228215   1.439   0.878   6.516
 9106SOL     OW28216   5.709   4.990   6.784
 9106SOL    HW128217   5.634   4.988   6.717
 9106SOL    HW228218   5.716   4.900   6.828
 9107SOL     OW28219   3.815   6.773   0.295
 9107SOL    HW128220   3.837   6.842   0.364
 9107SOL    HW228221   3.878   6.781   0.218
 9108SOL     OW28222   4.979   4.309   5.463
 9108SOL    HW128223   4.921   4.362   5.526
 9108SOL    HW228224   4.953   4.331   5.369
 9109SOL     OW28225   2.294   2.833   3.447
 9109SOL    HW128226   2.332   2.743   3.429
 9109SOL    HW228227   2.286   2.848   3.545
 9110SOL     OW28228   1.883   4.819   3.829
 9110SOL    HW128229   1.922   4.831   3.921
 9110SOL    HW228230   1.786   4.842   3.831
 9111SOL     OW28231   3.614   4.240   1.293
 9111SOL    HW128232   3.708   4.224   1.324
 9111SOL    HW228233   3.550   4.213   1.365
 9112SOL     OW28234   0.872   4.104   2.943
 9112SOL    HW128235   0.872   4.067   2.850
 9112SOL    HW228236   0.913   4.195   2.942
 9113SOL     OW28237   5.308   0.556   0.616
 9113SOL    HW128238   5.388   0.502   0.591
 9113SOL    HW228239   5.265   0.592   0.533
 9114SOL     OW28240   2.183   4.486   2.212
 9114SOL    HW128241   2.193   4.579   2.246
 9114SOL    HW228242   2.099   4.479   2.158
 9115SOL     OW28243   1.373   5.091   4.400
 9115SOL    HW128244   1.377   5.185   4.366
 9115SOL    HW228245   1.440   5.080   4.474
 9116SOL     OW28246   6.591   1.582   6.799
 9116SOL    HW128247   6.534   1.654   6.840
 9116SOL    HW228248   6.684   1.616   6.789
 9117SOL     OW28249   6.426   2.943   6.169
 9117SOL    HW128250   6.471   2.885   6.236
 9117SOL    HW228251   6.468   2.930   6.079
 9118SOL     OW28252   6.383   0.159   1.195
 9118SOL    HW128253   6.411   0.244   1.240
 9118SOL    HW228254   6.328   0.180   1.114
 9119SOL     OW28255   6.008   0.917   2.193
 9119SOL    HW128256   6.038   0.821   2.198
 9119SOL    HW228257   5.921   0.927   2.242
 9120SOL     OW28258   6.147   2.138   6.033
 9120SOL    HW128259   6.123   2.094   6.119
 9120SOL    HW228260   6.143   2.237   6.044
 9121SOL     OW28261   0.841   2.648   5.100
 9121SOL    HW128262   0.756   2.700   5.112
 9121SOL    HW228263   0.882   2.671   5.012
 9122SOL     OW28264   1.583   2.646   2.337
 9122SOL    HW128265   1.609   2.598   2.253
 9122SOL    HW228266   1.654   2.632   2.406
 9123SOL     OW28267   3.113   6.363   4.937
 9123SOL    HW128268   3.180   6.289   4.939
 9123SOL    HW228269   3.023   6.326   4.960
 9124SOL     OW28270   6.293   5.751   5.369
 9124SOL    HW128271   6.331   5.840   5.397
 9124SOL    HW228272   6.307   5.738   5.271
 9125SOL     OW28273   4.638   4.367   3.696
 9125SOL    HW128274   4.609   4.271   3.689
 9125SOL    HW228275   4.733   4.375   3.667
 9126SOL     OW28276   6.449   1.128   1.717
 9126SOL    HW128277   6.416   1.185   1.793
 9126SOL    HW228278   6.538   1.090   1.740
 9127SOL     OW28279   5.939   6.744   6.167
 9127SOL    HW128280   5.863   6.783   6.114
 9127SOL    HW228281   6.007   6.815   6.184
 9128SOL     OW28282   4.228   1.411   5.212
 9128SOL    HW128283   4.292   1.369   5.148
 9128SOL    HW228284   4.138   1.369   5.202
 9129SOL     OW28285   1.897   3.391   6.697
 9129SOL    HW128286   1.994   3.409   6.679
 9129SOL    HW228287   1.887   3.351   6.788
 9130SOL     OW28288   0.139   4.485   6.617
 9130SOL    HW128289   0.202   4.554   6.652
 9130SOL    HW228290   0.178   4.394   6.629
 9131SOL     OW28291   0.561   4.347   5.009
 9131SOL    HW128292   0.649   4.339   5.057
 9131SOL    HW228293   0.510   4.262   5.019
 9132SOL     OW28294   6.621   4.190   3.951
 9132SOL    HW128295   6.716   4.162   3.970
 9132SOL    HW228296   6.561   4.153   4.022
 9133SOL     OW28297   2.652   4.592   0.415
 9133SOL    HW128298   2.579   4.599   0.483
 9133SOL    HW228299   2.650   4.672   0.355
 9134SOL     OW28300   3.555   6.282   0.752
 9134SOL    HW128301   3.609   6.363   0.731
 9134SOL    HW228302   3.585   6.205   0.695
 9135SOL     OW28303   0.176   7.011   2.259
 9135SOL    HW128304   0.208   0.021   2.170
 9135SOL    HW228305   0.151   0.068   2.315
 9136SOL     OW28306   5.091   5.085   5.711
 9136SOL    HW128307   5.019   5.038   5.661
 9136SOL    HW228308   5.090   5.183   5.688
 9137SOL     OW28309   5.566   1.203   1.034
 9137SOL    HW128310   5.621   1.268   0.981
 9137SOL    HW228311   5.599   1.110   1.018
 9138SOL     OW28312   6.202   5.376   5.659
 9138SOL    HW128313   6.180   5.280   5.641
 9138SOL    HW228314   6.294   5.382   5.696
 9139SOL     OW28315   2.540   1.488   5.426
 9139SOL    HW128316   2.585   1.456   5.343
 9139SOL    HW228317   2.596   1.558   5.470
 9140SOL     OW28318   6.503   2.425   2.830
 9140SOL    HW128319   6.489   2.327   2.818
 9140SOL    HW228320   6.453   2.457   2.910
 9141SOL     OW28321   5.408   6.510   6.521
 9141SOL    HW128322   5.359   6.424   6.534
 9141SOL    HW228323   5.364   6.582   6.576
 9142SOL     OW28324   0.231   2.561   5.123
 9142SOL    HW128325   0.274   2.647   5.151
 9142SOL    HW228326   0.254   2.489   5.188
 9143SOL     OW28327   4.394   3.663   0.274
 9143SOL    HW128328   4.429   3.740   0.327
 9143SOL    HW228329   4.450   3.582   0.293
 9144SOL     OW28330   2.064   6.010   6.453
 9144SOL    HW128331   2.040   5.959   6.370
 9144SOL    HW228332   2.141   5.966   6.498
 9145SOL     OW28333   0.345   5.406   1.004
 9145SOL    HW128334   0.340   5.406   1.104
 9145SOL    HW228335   0.379   5.494   0.972
 9146SOL     OW28336   4.993   1.991   1.493
 9146SOL    HW128337   5.038   2.019   1.577
 9146SOL    HW228338   4.906   1.946   1.514
 9147SOL     OW28339   5.566   6.393   4.592
 9147SOL    HW128340   5.626   6.346   4.656
 9147SOL    HW228341   5.531   6.477   4.634
 9148SOL     OW28342   6.085   6.693   1.858
 9148SOL    HW128343   6.021   6.644   1.798
 9148SOL    HW228344   6.034   6.751   1.921
 9149SOL     OW28345   4.904   2.564   4.187
 9149SOL    HW128346   4.891   2.555   4.088
 9149SOL    HW228347   4.845   2.637   4.221
 9150SOL     OW28348   3.989   6.099   3.334
 9150SOL    HW128349   3.953   6.173   3.277
 9150SOL    HW228350   3.975   6.011   3.288
 9151SOL     OW28351   1.288   4.055   2.637
 9151SOL    HW128352   1.218   4.055   2.708
 9151SOL    HW228353   1.367   4.109   2.668
 9152SOL     OW28354   2.521   5.786   3.913
 9152SOL    HW128355   2.507   5.831   3.825
 9152SOL    HW228356   2.462   5.829   3.982
 9153SOL     OW28357   1.619   3.042   0.432
 9153SOL    HW128358   1.546   3.007   0.372
 9153SOL    HW228359   1.655   2.968   0.488
 9154SOL     OW28360   2.559   5.638   6.324
 9154SOL    HW128361   2.468   5.672   6.349
 9154SOL    HW228362   2.615   5.713   6.290
 9155SOL     OW28363   2.053   3.484   0.238
 9155SOL    HW128364   2.085   3.506   0.146
 9155SOL    HW228365   1.954   3.495   0.242
 9156SOL     OW28366   3.036   3.088   1.330
 9156SOL    HW128367   3.113   3.027   1.349
 9156SOL    HW228368   3.055   3.141   1.247
 9157SOL     OW28369   5.802   4.722   5.244
 9157SOL    HW128370   5.833   4.629   5.265
 9157SOL    HW228371   5.803   4.778   5.327
 9158SOL     OW28372   6.231   3.454   4.633
 9158SOL    HW128373   6.156   3.510   4.668
 9158SOL    HW228374   6.283   3.417   4.709
 9159SOL     OW28375   6.980   6.178   3.403
 9159SOL    HW128376   6.928   6.095   3.424
 9159SOL    HW228377   6.917   6.256   3.399
 9160SOL     OW28378   0.006   0.320   4.813
 9160SOL    HW128379   0.059   0.349   4.734
 9160SOL    HW228380   0.059   0.335   4.897
 9161SOL     OW28381   4.822   4.010   4.571
 9161SOL    HW128382   4.779   3.923   4.548
 9161SOL    HW228383   4.866   4.002   4.661
 9162SOL     OW28384   4.683   2.273   3.025
 9162SOL    HW128385   4.761   2.225   2.984
 9162SOL    HW228386   4.598   2.229   2.996
 9163SOL     OW28387   2.018   3.490   3.836
 9163SOL    HW128388   1.921   3.502   3.855
 9163SOL    HW228389   2.030   3.415   3.770
 9164SOL     OW28390   2.853   0.868   0.096
 9164SOL    HW128391   2.774   0.905   0.144
 9164SOL    HW228392   2.879   0.779   0.135
 9165SOL     OW28393   6.392   1.306   6.268
 9165SOL    HW128394   6.466   1.296   6.201
 9165SOL    HW228395   6.313   1.348   6.224
 9166SOL     OW28396   4.874   6.345   1.068
 9166SOL    HW128397   4.882   6.358   0.969
 9166SOL    HW228398   4.876   6.435   1.113
 9167SOL     OW28399   1.704   3.376   6.294
 9167SOL    HW128400   1.706   3.456   6.353
 9167SOL    HW228401   1.612   3.337   6.295
 9168SOL     OW28402   1.505   6.525   5.476
 9168SOL    HW128403   1.589   6.504   5.426
 9168SOL    HW228404   1.460   6.604   5.434
 9169SOL     OW28405   7.005   1.353   4.987
 9169SOL    HW128406   0.037   1.426   4.945
 9169SOL    HW228407   6.930   1.326   4.925
 9170SOL     OW28408   0.467   4.912   0.164
 9170SOL    HW128409   0.420   4.956   0.087
 9170SOL    HW228410   0.415   4.832   0.193
 9171SOL     OW28411   3.199   5.516   0.539
 9171SOL    HW128412   3.271   5.460   0.499
 9171SOL    HW228413   3.170   5.586   0.473
 9172SOL     OW28414   3.200   0.981   5.011
 9172SOL    HW128415   3.222   1.071   4.973
 9172SOL    HW228416   3.284   0.931   5.029
 9173SOL     OW28417   5.933   4.444   4.897
 9173SOL    HW128418   5.908   4.406   4.986
 9173SOL    HW228419   5.876   4.525   4.879
 9174SOL     OW28420   6.307   4.321   0.800
 9174SOL    HW128421   6.378   4.263   0.839
 9174SOL    HW228422   6.324   4.416   0.825
 9175SOL     OW28423   1.843   6.540   4.494
 9175SOL    HW128424   1.789   6.556   4.411
 9175SOL    HW228425   1.823   6.449   4.530
 9176SOL     OW28426   2.510   0.899   5.805
 9176SOL    HW128427   2.563   0.961   5.863
 9176SOL    HW228428   2.435   0.949   5.762
 9177SOL     OW28429   1.506   5.356   4.574
 9177SOL    HW128430   1.543   5.374   4.665
 9177SOL    HW228431   1.409   5.380   4.573
 9178SOL     OW28432   2.000   5.394   1.073
 9178SOL    HW128433   2.054   5.433   1.147
 9178SOL    HW228434   1.986   5.297   1.088
 9179SOL     OW28435   2.800   5.860   3.866
 9179SOL    HW128436   2.731   5.815   3.922
 9179SOL    HW228437   2.882   5.876   3.921
 9180SOL     OW28438   6.137   2.268   3.359
 9180SOL    HW128439   6.086   2.343   3.403
 9180SOL    HW228440   6.074   2.212   3.306
 9181SOL     OW28441   4.339   2.222   3.309
 9181SOL    HW128442   4.271   2.194   3.377
 9181SOL    HW228443   4.411   2.275   3.354
 9182SOL     OW28444   2.584   7.018   2.552
 9182SOL    HW128445   2.499   0.009   2.602
 9182SOL    HW228446   2.656   6.988   2.615
 9183SOL     OW28447   5.486   5.984   0.363
 9183SOL    HW128448   5.506   6.042   0.284
 9183SOL    HW228449   5.387   5.968   0.368
 9184SOL     OW28450   4.962   1.577   0.283
 9184SOL    HW128451   4.923   1.663   0.250
 9184SOL    HW228452   5.058   1.572   0.258
 9185SOL     OW28453   4.352   6.770   4.469
 9185SOL    HW128454   4.306   6.768   4.381
 9185SOL    HW228455   4.286   6.746   4.541
 9186SOL     OW28456   5.610   0.787   3.901
 9186SOL    HW128457   5.587   0.854   3.830
 9186SOL    HW228458   5.704   0.755   3.887
 9187SOL     OW28459   2.557   0.416   1.457
 9187SOL    HW128460   2.461   0.427   1.482
 9187SOL    HW228461   2.587   0.323   1.481
 9188SOL     OW28462   2.181   6.691   2.198
 9188SOL    HW128463   2.171   6.781   2.155
 9188SOL    HW228464   2.194   6.703   2.296
 9189SOL     OW28465   5.507   5.980   1.861
 9189SOL    HW128466   5.412   5.969   1.830
 9189SOL    HW228467   5.558   6.033   1.794
 9190SOL     OW28468   1.111   4.952   0.388
 9190SOL    HW128469   1.204   4.960   0.354
 9190SOL    HW228470   1.050   4.923   0.314
 9191SOL     OW28471   5.950   0.700   5.955
 9191SOL    HW128472   5.893   0.753   5.892
 9191SOL    HW228473   5.976   0.758   6.032
 9192SOL     OW28474   0.313   3.910   5.897
 9192SOL    HW128475   0.399   3.871   5.929
 9192SOL    HW228476   0.250   3.837   5.873
 9193SOL     OW28477   4.864   4.703   0.371
 9193SOL    HW128478   4.821   4.613   0.366
 9193SOL    HW228479   4.919   4.719   0.289
 9194SOL     OW28480   3.213   1.005   3.424
 9194SOL    HW128481   3.179   1.085   3.474
 9194SOL    HW228482   3.194   1.017   3.327
 9195SOL     OW28483   1.680   2.390   4.160
 9195SOL    HW128484   1.734   2.472   4.177
 9195SOL    HW228485   1.721   2.313   4.209
 9196SOL     OW28486   3.875   0.597   4.639
 9196SOL    HW128487   3.816   0.587   4.719
 9196SOL    HW228488   3.956   0.539   4.650
 9197SOL     OW28489   1.543   4.403   1.581
 9197SOL    HW128490   1.456   4.453   1.569
 9197SOL    HW228491   1.600   4.417   1.500
 9198SOL     OW28492   6.456   5.168   5.660
 9198SOL    HW128493   6.435   5.071   5.668
 9198SOL    HW228494   6.452   5.195   5.564
 9199SOL     OW28495   1.023   3.518   6.307
 9199SOL    HW128496   1.004   3.420   6.313
 9199SOL    HW228497   0.940   3.570   6.325
 9200SOL     OW28498   3.016   0.474   0.488
 9200SOL    HW128499   2.936   0.505   0.538
 9200SOL    HW228500   3.053   0.548   0.433
 9201SOL     OW28501   0.607   2.979   0.692
 9201SOL    HW128502   0.622   3.024   0.780
 9201SOL    HW228503   0.660   2.894   0.689
 9202SOL     OW28504   2.180   0.242   3.291
 9202SOL    HW128505   2.188   0.144   3.274
 9202SOL    HW228506   2.230   0.267   3.374
 9203SOL     OW28507   0.398   5.272   6.781
 9203SOL    HW128508   0.385   5.298   6.686
 9203SOL    HW228509   0.432   5.350   6.833
 9204SOL     OW28510   4.191   2.555   6.753
 9204SOL    HW128511   4.135   2.638   6.752
 9204SOL    HW228512   4.248   2.553   6.671
 9205SOL     OW28513   5.839   4.274   2.658
 9205SOL    HW128514   5.859   4.236   2.748
 9205SOL    HW228515   5.925   4.294   2.611
 9206SOL     OW28516   3.931   5.406   1.602
 9206SOL    HW128517   3.867   5.459   1.658
 9206SOL    HW228518   4.020   5.451   1.603
 9207SOL     OW28519   4.074   5.261   0.527
 9207SOL    HW128520   4.103   5.329   0.460
 9207SOL    HW228521   4.080   5.170   0.486
 9208SOL     OW28522   5.637   4.257   3.982
 9208SOL    HW128523   5.706   4.191   3.952
 9208SOL    HW228524   5.673   4.349   3.976
 9209SOL     OW28525   2.960   0.622   0.148
 9209SOL    HW128526   3.024   0.555   0.187
 9209SOL    HW228527   2.906   0.578   0.076
 9210SOL     OW28528   6.666   1.303   2.911
 9210SOL    HW128529   6.635   1.252   2.831
 9210SOL    HW228530   6.763   1.325   2.901
 9211SOL     OW28531   6.600   3.070   4.212
 9211SOL    HW128532   6.586   3.069   4.311
 9211SOL    HW228533   6.646   2.985   4.184
 9212SOL     OW28534   4.048   5.542   4.428
 9212SOL    HW128535   4.118   5.604   4.392
 9212SOL    HW228536   4.009   5.581   4.511
 9213SOL     OW28537   5.655   2.750   5.537
 9213SOL    HW128538   5.556   2.748   5.551
 9213SOL    HW228539   5.690   2.656   5.535
 9214SOL     OW28540   0.259   5.678   5.519
 9214SOL    HW128541   0.297   5.770   5.515
 9214SOL    HW228542   0.212   5.657   5.433
 9215SOL     OW28543   1.267   2.437   0.242
 9215SOL    HW128544   1.309   2.388   0.318
 9215SOL    HW228545   1.193   2.495   0.278
 9216SOL     OW28546   2.688   0.605   3.054
 9216SOL    HW128547   2.760   0.652   3.105
 9216SOL    HW228548   2.725   0.569   2.969
 9217SOL     OW28549   0.147   0.629   5.602
 9217SOL    HW128550   0.079   0.649   5.531
 9217SOL    HW228551   0.121   0.673   5.688
 9218SOL     OW28552   3.827   6.255   0.532
 9218SOL    HW128553   3.907   6.255   0.591
 9218SOL    HW228554   3.842   6.193   0.454
 9219SOL     OW28555   0.348   2.677   0.116
 9219SOL    HW128556   0.268   2.687   0.056
 9219SOL    HW228557   0.317   2.654   0.208
 9220SOL     OW28558   2.482   6.840   1.337
 9220SOL    HW128559   2.481   6.925   1.391
 9220SOL    HW228560   2.576   6.819   1.312
 9221SOL     OW28561   3.311   0.937   4.459
 9221SOL    HW128562   3.231   0.994   4.441
 9221SOL    HW228563   3.342   0.952   4.553
 9222SOL     OW28564   2.831   6.792   6.761
 9222SOL    HW128565   2.882   6.806   6.846
 9222SOL    HW228566   2.745   6.843   6.764
 9223SOL     OW28567   1.462   1.756   4.832
 9223SOL    HW128568   1.469   1.846   4.876
 9223SOL    HW228569   1.552   1.712   4.830
 9224SOL     OW28570   3.161   5.389   5.096
 9224SOL    HW128571   3.118   5.383   5.186
 9224SOL    HW228572   3.260   5.393   5.107
 9225SOL     OW28573   3.793   0.066   5.889
 9225SOL    HW128574   3.886   0.057   5.853
 9225SOL    HW228575   3.743   7.003   5.875
 9226SOL     OW28576   5.514   6.784   1.654
 9226SOL    HW128577   5.610   6.788   1.628
 9226SOL    HW228578   5.459   6.830   1.585
 9227SOL     OW28579   0.812   5.369   2.365
 9227SOL    HW128580   0.905   5.353   2.400
 9227SOL    HW228581   0.776   5.454   2.404
 9228SOL     OW28582   1.602   0.455   5.941
 9228SOL    HW128583   1.556   0.374   5.906
 9228SOL    HW228584   1.696   0.433   5.966
 9229SOL     OW28585   1.532   5.672   4.391
 9229SOL    HW128586   1.622   5.664   4.433
 9229SOL    HW228587   1.462   5.676   4.463
 9230SOL     OW28588   6.120   0.357   2.533
 9230SOL    HW128589   6.198   0.412   2.564
 9230SOL    HW228590   6.036   0.411   2.541
 9231SOL     OW28591   1.803   3.922   4.184
 9231SOL    HW128592   1.860   3.997   4.150
 9231SOL    HW228593   1.835   3.895   4.275
 9232SOL     OW28594   2.972   5.088   0.804
 9232SOL    HW128595   3.014   5.114   0.891
 9232SOL    HW228596   2.985   5.162   0.738
 9233SOL     OW28597   5.783   5.087   1.354
 9233SOL    HW128598   5.877   5.112   1.375
 9233SOL    HW228599   5.735   5.165   1.315
 9234SOL     OW28600   3.506   5.249   4.595
 9234SOL    HW128601   3.450   5.189   4.652
 9234SOL    HW228602   3.450   5.325   4.561
 9235SOL     OW28603   1.957   2.251   3.616
 9235SOL    HW128604   1.916   2.160   3.607
 9235SOL    HW228605   1.938   2.305   3.534
 9236SOL     OW28606   3.408   4.081   5.400
 9236SOL    HW128607   3.500   4.114   5.421
 9236SOL    HW228608   3.381   4.110   5.309
 9237SOL     OW28609   2.295   4.870   4.899
 9237SOL    HW128610   2.387   4.879   4.938
 9237SOL    HW228611   2.243   4.954   4.916
 9238SOL     OW28612   4.337   2.324   5.754
 9238SOL    HW128613   4.426   2.284   5.775
 9238SOL    HW228614   4.321   2.322   5.656
 9239SOL     OW28615   0.385   4.076   1.616
 9239SOL    HW128616   0.320   4.142   1.653
 9239SOL    HW228617   0.473   4.086   1.663
 9240SOL     OW28618   5.775   1.253   0.698
 9240SOL    HW128619   5.833   1.215   0.626
 9240SOL    HW228620   5.782   1.353   0.695
 9241SOL     OW28621   6.964   5.623   5.914
 9241SOL    HW128622   0.038   5.636   5.884
 9241SOL    HW228623   6.951   5.529   5.943
 9242SOL     OW28624   6.821   5.888   0.625
 9242SOL    HW128625   6.733   5.841   0.615
 9242SOL    HW228626   6.887   5.849   0.561
 9243SOL     OW28627   5.854   5.697   2.883
 9243SOL    HW128628   5.771   5.750   2.867
 9243SOL    HW228629   5.853   5.661   2.976
 9244SOL     OW28630   4.295   5.580   5.859
 9244SOL    HW128631   4.299   5.541   5.952
 9244SOL    HW228632   4.207   5.556   5.818
 9245SOL     OW28633   1.745   5.654   2.663
 9245SOL    HW128634   1.800   5.570   2.662
 9245SOL    HW228635   1.648   5.630   2.655
 9246SOL     OW28636   6.013   4.743   3.114
 9246SOL    HW128637   5.967   4.737   3.025
 9246SOL    HW228638   6.111   4.754   3.100
 9247SOL     OW28639   0.579   6.749   3.223
 9247SOL    HW128640   0.610   6.692   3.147
 9247SOL    HW228641   0.615   6.842   3.211
 9248SOL     OW28642   2.178   2.957   5.983
 9248SOL    HW128643   2.239   3.020   5.936
 9248SOL    HW228644   2.097   2.941   5.926
 9249SOL     OW28645   5.591   2.625   6.097
 9249SOL    HW128646   5.581   2.531   6.065
 9249SOL    HW228647   5.511   2.651   6.152
 9250SOL     OW28648   5.327   3.769   4.867
 9250SOL    HW128649   5.234   3.732   4.868
 9250SOL    HW228650   5.353   3.795   4.774
 9251SOL     OW28651   3.626   2.036   3.314
 9251SOL    HW128652   3.605   2.061   3.220
 9251SOL    HW228653   3.724   2.043   3.330
 9252SOL     OW28654   6.251   0.257   4.133
 9252SOL    HW128655   6.328   0.258   4.069
 9252SOL    HW228656   6.180   0.196   4.098
 9253SOL     OW28657   4.677   5.845   5.925
 9253SOL    HW128658   4.618   5.926   5.921
 9253SOL    HW228659   4.668   5.801   6.014
 9254SOL     OW28660   6.327   4.087   1.303
 9254SOL    HW128661   6.380   4.004   1.286
 9254SOL    HW228662   6.231   4.062   1.317
 9255SOL     OW28663   4.961   2.731   0.114
 9255SOL    HW128664   4.915   2.813   0.148
 9255SOL    HW228665   5.022   2.756   0.039
 9256SOL     OW28666   3.619   4.922   3.272
 9256SOL    HW128667   3.569   4.927   3.358
 9256SOL    HW228668   3.717   4.913   3.290
 9257SOL     OW28669   0.990   4.228   2.520
 9257SOL    HW128670   1.081   4.209   2.482
 9257SOL    HW228671   0.958   4.316   2.486
 9258SOL     OW28672   3.976   3.169   3.670
 9258SOL    HW128673   4.014   3.258   3.694
 9258SOL    HW228674   4.000   3.147   3.575
 9259SOL     OW28675   1.580   2.457   1.034
 9259SOL    HW128676   1.507   2.428   0.972
 9259SOL    HW228677   1.576   2.556   1.046
 9260SOL     OW28678   5.158   1.785   5.572
 9260SOL    HW128679   5.174   1.820   5.664
 9260SOL    HW228680   5.217   1.706   5.555
 9261SOL     OW28681   4.410   6.955   6.322
 9261SOL    HW128682   4.451   6.891   6.256
 9261SOL    HW228683   4.319   6.981   6.289
 9262SOL     OW28684   6.460   2.751   5.461
 9262SOL    HW128685   6.378   2.788   5.417
 9262SOL    HW228686   6.523   2.826   5.481
 9263SOL     OW28687   6.136   4.104   0.804
 9263SOL    HW128688   6.094   4.078   0.891
 9263SOL    HW228689   6.184   4.192   0.815
 9264SOL     OW28690   6.154   3.911   0.461
 9264SOL    HW128691   6.118   3.846   0.394
 9264SOL    HW228692   6.253   3.898   0.471
 9265SOL     OW28693   3.387   1.416   0.715
 9265SOL    HW128694   3.463   1.438   0.654
 9265SOL    HW228695   3.331   1.344   0.673
 9266SOL     OW28696   2.558   6.251   2.602
 9266SOL    HW128697   2.477   6.287   2.557
 9266SOL    HW228698   2.532   6.176   2.663
 9267SOL     OW28699   0.198   4.041   5.534
 9267SOL    HW128700   0.124   3.975   5.551
 9267SOL    HW228701   0.216   4.046   5.435
 9268SOL     OW28702   0.902   6.334   2.193
 9268SOL    HW128703   0.833   6.381   2.248
 9268SOL    HW228704   0.969   6.400   2.160
 9269SOL     OW28705   2.681   2.618   6.687
 9269SOL    HW128706   2.610   2.551   6.666
 9269SOL    HW228707   2.744   2.580   6.754
 9270SOL     OW28708   5.052   6.279   5.346
 9270SOL    HW128709   5.096   6.362   5.382
 9270SOL    HW228710   5.045   6.286   5.246
 9271SOL     OW28711   1.354   6.154   1.001
 9271SOL    HW128712   1.451   6.177   1.000
 9271SOL    HW228713   1.301   6.233   1.031
 9272SOL     OW28714   2.885   4.890   6.112
 9272SOL    HW128715   2.939   4.819   6.157
 9272SOL    HW228716   2.792   4.857   6.096
 9273SOL     OW28717   5.073   5.518   3.817
 9273SOL    HW128718   5.015   5.598   3.808
 9273SOL    HW228719   5.028   5.439   3.774
 9274SOL     OW28720   6.181   1.948   6.769
 9274SOL    HW128721   6.190   2.018   6.840
 9274SOL    HW228722   6.101   1.890   6.790
 9275SOL     OW28723   0.478   1.557   0.353
 9275SOL    HW128724   0.538   1.564   0.433
 9275SOL    HW228725   0.528   1.586   0.271
 9276SOL     OW28726   2.436   5.033   4.366
 9276SOL    HW128727   2.423   5.065   4.272
 9276SOL    HW228728   2.385   5.092   4.429
 9277SOL     OW28729   3.815   3.775   0.134
 9277SOL    HW128730   3.912   3.776   0.162
 9277SOL    HW228731   3.760   3.738   0.209
 9278SOL     OW28732   2.029   0.948   3.895
 9278SOL    HW128733   1.999   0.947   3.799
 9278SOL    HW228734   2.112   0.894   3.903
 9279SOL     OW28735   4.715   0.849   1.572
 9279SOL    HW128736   4.648   0.886   1.507
 9279SOL    HW228737   4.773   0.923   1.606
 9280SOL     OW28738   2.097   0.485   3.807
 9280SOL    HW128739   2.038   0.541   3.864
 9280SOL    HW228740   2.081   0.506   3.710
 9281SOL     OW28741   3.117   3.551   0.926
 9281SOL    HW128742   3.126   3.642   0.885
 9281SOL    HW228743   3.165   3.549   1.014
 9282SOL     OW28744   4.912   2.316   4.310
 9282SOL    HW128745   4.900   2.401   4.258
 9282SOL    HW228746   4.978   2.258   4.263
 9283SOL     OW28747   6.271   1.073   2.527
 9283SOL    HW128748   6.274   1.042   2.432
 9283SOL    HW228749   6.305   1.000   2.586
 9284SOL     OW28750   3.860   5.080   0.302
 9284SOL    HW128751   3.847   4.986   0.270
 9284SOL    HW228752   3.954   5.092   0.332
 9285SOL     OW28753   4.966   3.234   0.339
 9285SOL    HW128754   4.929   3.326   0.355
 9285SOL    HW228755   4.901   3.167   0.376
 9286SOL     OW28756   5.913   0.230   5.872
 9286SOL    HW128757   5.980   0.305   5.872
 9286SOL    HW228758   5.930   0.170   5.795
 9287SOL     OW28759   3.062   5.746   0.989
 9287SOL    HW128760   3.123   5.799   1.049
 9287SOL    HW228761   3.112   5.718   0.908
 9288SOL     OW28762   2.872   1.273   5.544
 9288SOL    HW128763   2.875   1.258   5.445
 9288SOL    HW228764   2.913   1.195   5.591
 9289SOL     OW28765   3.880   1.771   2.417
 9289SOL    HW128766   3.876   1.748   2.515
 9289SOL    HW228767   3.975   1.771   2.387
 9290SOL     OW28768   4.519   1.454   4.877
 9290SOL    HW128769   4.517   1.411   4.967
 9290SOL    HW228770   4.454   1.530   4.875
 9291SOL     OW28771   2.384   0.313   5.661
 9291SOL    HW128772   2.313   0.300   5.731
 9291SOL    HW228773   2.474   0.303   5.703
 9292SOL     OW28774   6.364   3.628   6.034
 9292SOL    HW128775   6.279   3.634   5.981
 9292SOL    HW228776   6.345   3.587   6.123
 9293SOL     OW28777   6.354   3.748   1.014
 9293SOL    HW128778   6.385   3.819   0.950
 9293SOL    HW228779   6.433   3.697   1.048
 9294SOL     OW28780   3.965   6.204   5.589
 9294SOL    HW128781   4.038   6.148   5.629
 9294SOL    HW228782   3.984   6.301   5.607
 9295SOL     OW28783   4.947   2.039   3.224
 9295SOL    HW128784   4.874   1.994   3.276
 9295SOL    HW228785   5.030   1.984   3.230
 9296SOL     OW28786   6.673   6.170   6.099
 9296SOL    HW128787   6.719   6.125   6.175
 9296SOL    HW228788   6.702   6.266   6.094
 9297SOL     OW28789   0.318   0.586   0.966
 9297SOL    HW128790   0.363   0.537   1.040
 9297SOL    HW228791   0.353   0.554   0.878
 9298SOL     OW28792   1.654   6.174   5.900
 9298SOL    HW128793   1.685   6.268   5.910
 9298SOL    HW228794   1.687   6.137   5.812
 9299SOL     OW28795   1.100   3.661   4.678
 9299SOL    HW128796   1.194   3.672   4.709
 9299SOL    HW228797   1.099   3.612   4.590
 9300SOL     OW28798   6.770   5.099   4.227
 9300SOL    HW128799   6.734   5.164   4.160
 9300SOL    HW228800   6.820   5.026   4.181
 9301SOL     OW28801   4.850   4.966   3.195
 9301SOL    HW128802   4.922   5.035   3.205
 9301SOL    HW228803   4.767   4.998   3.243
 9302SOL     OW28804   2.184   3.047   3.920
 9302SOL    HW128805   2.192   3.146   3.934
 9302SOL    HW228806   2.235   2.999   3.992
 9303SOL     OW28807   3.730   5.959   0.661
 9303SOL    HW128808   3.778   6.045   0.641
 9303SOL    HW228809   3.642   5.958   0.613
 9304SOL     OW28810   4.242   4.260   1.088
 9304SOL    HW128811   4.299   4.314   1.027
 9304SOL    HW228812   4.299   4.193   1.137
 9305SOL     OW28813   4.705   1.279   1.353
 9305SOL    HW128814   4.784   1.254   1.298
 9305SOL    HW228815   4.713   1.375   1.381
 9306SOL     OW28816   0.439   4.975   4.834
 9306SOL    HW128817   0.439   4.997   4.932
 9306SOL    HW228818   0.516   4.916   4.812
 9307SOL     OW28819   1.175   3.299   1.355
 9307SOL    HW128820   1.122   3.377   1.389
 9307SOL    HW228821   1.190   3.309   1.257
 9308SOL     OW28822   0.995   4.089   1.325
 9308SOL    HW128823   0.988   4.188   1.336
 9308SOL    HW228824   1.037   4.067   1.237
 9309SOL     OW28825   3.839   5.233   5.445
 9309SOL    HW128826   3.766   5.273   5.390
 9309SOL    HW228827   3.924   5.228   5.392
 9310SOL     OW28828   4.221   5.835   6.486
 9310SOL    HW128829   4.134   5.830   6.437
 9310SOL    HW228830   4.286   5.890   6.433
 9311SOL     OW28831   6.334   4.598   1.347
 9311SOL    HW128832   6.407   4.564   1.405
 9311SOL    HW228833   6.365   4.679   1.297
 9312SOL     OW28834   1.931   3.950   0.914
 9312SOL    HW128835   1.918   4.048   0.931
 9312SOL    HW228836   1.949   3.935   0.817
 9313SOL     OW28837   0.337   0.847   0.918
 9313SOL    HW128838   0.418   0.897   0.946
 9313SOL    HW228839   0.351   0.749   0.933
 9314SOL     OW28840   4.276   5.353   6.692
 9314SOL    HW128841   4.269   5.439   6.641
 9314SOL    HW228842   4.294   5.373   6.788
 9315SOL     OW28843   6.445   0.664   5.145
 9315SOL    HW128844   6.444   0.743   5.206
 9315SOL    HW228845   6.508   0.680   5.069
 9316SOL     OW28846   4.651   5.920   5.630
 9316SOL    HW128847   4.651   5.987   5.703
 9316SOL    HW228848   4.621   5.831   5.665
 9317SOL     OW28849   6.569   6.074   2.896
 9317SOL    HW128850   6.521   6.030   2.972
 9317SOL    HW228851   6.518   6.058   2.811
 9318SOL     OW28852   6.841   1.209   4.832
 9318SOL    HW128853   6.764   1.152   4.804
 9318SOL    HW228854   6.923   1.183   4.781
 9319SOL     OW28855   0.488   2.749   5.883
 9319SOL    HW128856   0.573   2.765   5.931
 9319SOL    HW228857   0.494   2.785   5.790
 9320SOL     OW28858   4.603   1.730   6.418
 9320SOL    HW128859   4.642   1.787   6.491
 9320SOL    HW228860   4.591   1.637   6.452
 9321SOL     OW28861   6.615   0.016   2.408
 9321SOL    HW128862   6.528   7.021   2.362
 9321SOL    HW228863   6.688   0.023   2.340
 9322SOL     OW28864   0.174   6.277   6.248
 9322SOL    HW128865   0.124   6.267   6.162
 9322SOL    HW228866   0.272   6.283   6.230
 9323SOL     OW28867   1.761   0.235   5.470
 9323SOL    HW128868   1.745   0.162   5.404
 9323SOL    HW228869   1.755   0.199   5.563
 9324SOL     OW28870   1.489   5.033   0.615
 9324SOL    HW128871   1.418   5.099   0.590
 9324SOL    HW228872   1.557   5.077   0.674
 9325SOL     OW28873   4.976   2.090   0.797
 9325SOL    HW128874   5.049   2.075   0.864
 9325SOL    HW228875   4.901   2.026   0.815
 9326SOL     OW28876   3.001   6.972   1.156
 9326SOL    HW128877   2.957   6.991   1.244
 9326SOL    HW228878   2.952   7.020   1.083
 9327SOL     OW28879   5.380   6.447   2.447
 9327SOL    HW128880   5.376   6.545   2.462
 9327SOL    HW228881   5.471   6.422   2.413
 9328SOL     OW28882   4.064   1.645   6.056
 9328SOL    HW128883   3.966   1.663   6.060
 9328SOL    HW228884   4.089   1.577   6.124
 9329SOL     OW28885   0.138   3.917   2.875
 9329SOL    HW128886   0.054   3.952   2.916
 9329SOL    HW228887   0.184   3.857   2.941
 9330SOL     OW28888   0.064   6.171   0.344
 9330SOL    HW128889   0.066   6.195   0.441
 9330SOL    HW228890   0.136   6.221   0.296
 9331SOL     OW28891   0.631   1.385   6.026
 9331SOL    HW128892   0.651   1.305   5.969
 9331SOL    HW228893   0.569   1.446   5.977
 9332SOL     OW28894   3.202   4.001   3.157
 9332SOL    HW128895   3.136   3.926   3.161
 9332SOL    HW228896   3.218   4.026   3.061
 9333SOL     OW28897   5.095   3.748   1.508
 9333SOL    HW128898   4.999   3.758   1.481
 9333SOL    HW228899   5.152   3.748   1.426
 9334SOL     OW28900   3.522   6.830   3.592
 9334SOL    HW128901   3.535   6.914   3.645
 9334SOL    HW228902   3.425   6.806   3.591
 9335SOL     OW28903   1.207   1.149   6.103
 9335SOL    HW128904   1.113   1.176   6.124
 9335SOL    HW228905   1.262   1.149   6.187
 9336SOL     OW28906   3.344   6.035   6.808
 9336SOL    HW128907   3.356   6.124   6.851
 9336SOL    HW228908   3.278   6.041   6.734
 9337SOL     OW28909   5.140   0.682   2.827
 9337SOL    HW128910   5.046   0.686   2.793
 9337SOL    HW228911   5.156   0.757   2.891
 9338SOL     OW28912   4.631   0.675   1.765
 9338SOL    HW128913   4.538   0.640   1.753
 9338SOL    HW228914   4.659   0.727   1.684
 9339SOL     OW28915   5.673   6.987   0.277
 9339SOL    HW128916   5.606   0.040   0.279
 9339SOL    HW228917   5.755   7.014   0.327
 9340SOL     OW28918   5.201   3.889   5.499
 9340SOL    HW128919   5.273   3.855   5.438
 9340SOL    HW228920   5.239   3.905   5.590
 9341SOL     OW28921   0.777   5.847   6.686
 9341SOL    HW128922   0.688   5.859   6.640
 9341SOL    HW228923   0.827   5.772   6.642
 9342SOL     OW28924   2.160   0.942   4.466
 9342SOL    HW128925   2.176   0.888   4.549
 9342SOL    HW228926   2.227   0.916   4.396
 9343SOL     OW28927   6.223   4.422   3.587
 9343SOL    HW128928   6.125   4.443   3.592
 9343SOL    HW228929   6.271   4.473   3.659
 9344SOL     OW28930   4.281   5.807   1.679
 9344SOL    HW128931   4.327   5.718   1.669
 9344SOL    HW228932   4.302   5.864   1.600
 9345SOL     OW28933   6.171   3.177   1.926
 9345SOL    HW128934   6.158   3.217   1.835
 9345SOL    HW228935   6.269   3.161   1.941
 9346SOL     OW28936   6.143   0.608   1.037
 9346SOL    HW128937   6.052   0.566   1.039
 9346SOL    HW228938   6.160   0.647   0.947
 9347SOL     OW28939   1.720   5.432   1.289
 9347SOL    HW128940   1.784   5.355   1.290
 9347SOL    HW228941   1.676   5.438   1.199
 9348SOL     OW28942   4.335   5.436   1.390
 9348SOL    HW128943   4.384   5.418   1.475
 9348SOL    HW228944   4.252   5.380   1.387
 9349SOL     OW28945   0.675   0.190   2.347
 9349SOL    HW128946   0.732   0.126   2.399
 9349SOL    HW228947   0.627   0.251   2.411
 9350SOL     OW28948   0.677   2.396   6.038
 9350SOL    HW128949   0.741   2.319   6.047
 9350SOL    HW228950   0.611   2.376   5.966
 9351SOL     OW28951   3.180   1.397   6.901
 9351SOL    HW128952   3.238   1.355   6.831
 9351SOL    HW228953   3.230   1.401   6.987
 9352SOL     OW28954   2.772   3.444   6.997
 9352SOL    HW128955   2.825   3.364   6.969
 9352SOL    HW228956   2.809   3.479   0.062
 9353SOL     OW28957   0.993   5.124   1.798
 9353SOL    HW128958   0.976   5.035   1.841
 9353SOL    HW228959   1.000   5.194   1.869
 9354SOL     OW28960   6.920   2.546   6.342
 9354SOL    HW128961   6.891   2.455   6.372
 9354SOL    HW228962   6.844   2.610   6.353
 9355SOL     OW28963   0.785   2.091   4.756
 9355SOL    HW128964   0.854   2.018   4.765
 9355SOL    HW228965   0.824   2.168   4.705
 9356SOL     OW28966   4.115   6.911   1.289
 9356SOL    HW128967   4.191   6.916   1.224
 9356SOL    HW228968   4.035   6.957   1.250
 9357SOL     OW28969   1.179   2.275   0.039
 9357SOL    HW128970   1.216   2.338   0.106
 9357SOL    HW228971   1.223   2.289   6.972
 9358SOL     OW28972   0.319   4.471   2.537
 9358SOL    HW128973   0.243   4.405   2.533
 9358SOL    HW228974   0.403   4.423   2.562
 9359SOL     OW28975   1.797   6.020   6.516
 9359SOL    HW128976   1.896   6.020   6.503
 9359SOL    HW228977   1.775   5.975   6.603
 9360SOL     OW28978   1.611   6.663   6.383
 9360SOL    HW128979   1.575   6.671   6.290
 9360SOL    HW228980   1.551   6.605   6.437
 9361SOL     OW28981   1.793   6.581   3.817
 9361SOL    HW128982   1.733   6.650   3.777
 9361SOL    HW228983   1.740   6.501   3.845
 9362SOL     OW28984   1.860   1.253   2.101
 9362SOL    HW128985   1.792   1.185   2.073
 9362SOL    HW228986   1.925   1.267   2.026
 9363SOL     OW28987   3.058   5.386   2.310
 9363SOL    HW128988   3.140   5.424   2.353
 9363SOL    HW228989   3.065   5.286   2.307
 9364SOL     OW28990   2.620   2.564   1.730
 9364SOL    HW128991   2.677   2.491   1.770
 9364SOL    HW228992   2.551   2.592   1.797
 9365SOL     OW28993   2.816   2.011   4.254
 9365SOL    HW128994   2.880   1.947   4.298
 9365SOL    HW228995   2.730   2.012   4.306
 9366SOL     OW28996   3.831   5.574   0.717
 9366SOL    HW128997   3.745   5.563   0.668
 9366SOL    HW228998   3.855   5.489   0.764
 9367SOL     OW28999   5.104   0.071   1.044
 9367SOL    HW129000   5.017   0.056   0.996
 9367SOL    HW229001   5.094   0.150   1.105
 9368SOL     OW29002   3.829   0.147   2.431
 9368SOL    HW129003   3.832   0.136   2.530
 9368SOL    HW229004   3.846   0.058   2.388
 9369SOL     OW29005   0.923   5.525   5.724
 9369SOL    HW129006   1.021   5.545   5.726
 9369SOL    HW229007   0.886   5.530   5.816
 9370SOL     OW29008   4.328   1.534   4.101
 9370SOL    HW129009   4.374   1.575   4.180
 9370SOL    HW229010   4.365   1.573   4.017
 9371SOL     OW29011   3.415   5.509   1.018
 9371SOL    HW129012   3.408   5.415   1.052
 9371SOL    HW229013   3.509   5.526   0.986
 9372SOL     OW29014   4.625   6.592   1.890
 9372SOL    HW129015   4.629   6.553   1.982
 9372SOL    HW229016   4.717   6.603   1.853
 9373SOL     OW29017   5.903   2.595   0.123
 9373SOL    HW129018   5.827   2.647   0.085
 9373SOL    HW229019   5.914   2.510   0.071
 9374SOL     OW29020   0.371   4.463   5.486
 9374SOL    HW129021   0.320   4.431   5.566
 9374SOL    HW229022   0.349   4.405   5.407
 9375SOL     OW29023   6.449   1.886   0.041
 9375SOL    HW129024   6.438   1.852   6.969
 9375SOL    HW229025   6.467   1.810   0.103
 9376SOL     OW29026   2.104   3.324   2.254
 9376SOL    HW129027   2.131   3.342   2.159
 9376SOL    HW229028   2.005   3.334   2.262
 9377SOL     OW29029   1.975   5.175   2.334
 9377SOL    HW129030   2.036   5.209   2.262
 9377SOL    HW229031   1.994   5.079   2.352
 9378SOL     OW29032   3.876   0.811   3.987
 9378SOL    HW129033   3.897   0.729   3.934
 9378SOL    HW229034   3.806   0.864   3.939
 9379SOL     OW29035   3.661   6.852   4.714
 9379SOL    HW129036   3.602   6.925   4.750
 9379SOL    HW229037   3.694   6.877   4.624
 9380SOL     OW29038   4.144   5.554   6.196
 9380SOL    HW129039   4.141   5.642   6.148
 9380SOL    HW229040   4.193   5.487   6.141
 9381SOL     OW29041   5.387   1.333   4.525
 9381SOL    HW129042   5.321   1.258   4.513
 9381SOL    HW229043   5.357   1.390   4.602
 9382SOL     OW29044   3.539   0.831   4.332
 9382SOL    HW129045   3.529   0.911   4.273
 9382SOL    HW229046   3.465   0.830   4.399
 9383SOL     OW29047   4.860   3.744   3.445
 9383SOL    HW129048   4.836   3.674   3.512
 9383SOL    HW229049   4.870   3.832   3.490
 9384SOL     OW29050   1.941   0.106   1.932
 9384SOL    HW129051   1.941   0.172   1.858
 9384SOL    HW229052   1.963   0.152   2.018
 9385SOL     OW29053   4.212   1.649   3.670
 9385SOL    HW129054   4.125   1.655   3.719
 9385SOL    HW229055   4.279   1.600   3.726
 9386SOL     OW29056   4.104   5.543   5.316
 9386SOL    HW129057   4.172   5.616   5.313
 9386SOL    HW229058   4.016   5.581   5.345
 9387SOL     OW29059   3.916   1.771   6.721
 9387SOL    HW129060   3.946   1.686   6.765
 9387SOL    HW229061   3.954   1.775   6.629
 9388SOL     OW29062   2.188   0.094   4.079
 9388SOL    HW129063   2.222   0.016   4.130
 9388SOL    HW229064   2.200   0.077   3.981
 9389SOL     OW29065   3.634   5.219   2.296
 9389SOL    HW129066   3.547   5.265   2.314
 9389SOL    HW229067   3.645   5.207   2.197
 9390SOL     OW29068   5.250   4.510   5.714
 9390SOL    HW129069   5.243   4.412   5.695
 9390SOL    HW229070   5.255   4.561   5.628
 9391SOL     OW29071   1.491   6.700   4.593
 9391SOL    HW129072   1.564   6.765   4.575
 9391SOL    HW229073   1.455   6.714   4.686
 9392SOL     OW29074   5.112   3.943   2.716
 9392SOL    HW129075   5.123   3.916   2.811
 9392SOL    HW229076   5.015   3.938   2.691
 9393SOL     OW29077   3.274   6.307   6.220
 9393SOL    HW129078   3.233   6.340   6.306
 9393SOL    HW229079   3.249   6.211   6.206
 9394SOL     OW29080   5.057   0.319   1.212
 9394SOL    HW129081   5.091   0.374   1.137
 9394SOL    HW229082   4.957   0.318   1.210
 9395SOL     OW29083   2.950   1.541   0.523
 9395SOL    HW129084   3.037   1.573   0.486
 9395SOL    HW229085   2.944   1.442   0.512
 9396SOL     OW29086   1.944   5.783   6.904
 9396SOL    HW129087   2.003   5.778   6.824
 9396SOL    HW229088   1.939   5.694   6.949
 9397SOL     OW29089   4.049   0.434   6.474
 9397SOL    HW129090   3.979   0.383   6.424
 9397SOL    HW229091   4.016   0.527   6.491
 9398SOL     OW29092   6.876   1.709   6.687
 9398SOL    HW129093   6.971   1.678   6.679
 9398SOL    HW229094   6.869   1.779   6.757
 9399SOL     OW29095   1.929   3.095   3.794
 9399SOL    HW129096   1.898   3.130   3.706
 9399SOL    HW229097   2.028   3.079   3.791
 9400SOL     OW29098   5.389   1.016   0.576
 9400SOL    HW129099   5.330   0.963   0.637
 9400SOL    HW229100   5.424   0.956   0.504
 9401SOL     OW29101   1.203   1.776   2.830
 9401SOL    HW129102   1.160   1.865   2.850
 9401SOL    HW229103   1.244   1.740   2.914
 9402SOL     OW29104   1.341   5.786   3.466
 9402SOL    HW129105   1.312   5.700   3.509
 9402SOL    HW229106   1.387   5.767   3.379
 9403SOL     OW29107   6.471   2.033   2.011
 9403SOL    HW129108   6.508   2.091   2.083
 9403SOL    HW229109   6.534   1.958   1.993
 9404SOL     OW29110   2.130   3.313   0.913
 9404SOL    HW129111   2.062   3.368   0.866
 9404SOL    HW229112   2.137   3.223   0.869
 9405SOL     OW29113   0.200   4.808   5.130
 9405SOL    HW129114   0.134   4.879   5.105
 9405SOL    HW229115   0.201   4.796   5.229
 9406SOL     OW29116   0.096   2.776   6.506
 9406SOL    HW129117   0.001   2.761   6.534
 9406SOL    HW229118   0.155   2.712   6.554
 9407SOL     OW29119   1.807   4.786   5.072
 9407SOL    HW129120   1.813   4.867   5.014
 9407SOL    HW229121   1.891   4.732   5.063
 9408SOL     OW29122   6.686   4.375   4.725
 9408SOL    HW129123   6.673   4.474   4.720
 9408SOL    HW229124   6.712   4.340   4.636
 9409SOL     OW29125   6.640   5.039   2.491
 9409SOL    HW129126   6.643   5.118   2.431
 9409SOL    HW229127   6.713   4.975   2.466
 9410SOL     OW29128   3.944   0.624   1.714
 9410SOL    HW129129   3.952   0.540   1.767
 9410SOL    HW229130   3.856   0.625   1.666
 9411SOL     OW29131   4.088   3.299   3.357
 9411SOL    HW129132   4.088   3.226   3.289
 9411SOL    HW229133   3.994   3.327   3.376
 9412SOL     OW29134   0.223   0.671   1.212
 9412SOL    HW129135   0.160   0.747   1.194
 9412SOL    HW229136   0.241   0.623   1.127
 9413SOL     OW29137   3.904   4.913   3.884
 9413SOL    HW129138   3.989   4.864   3.904
 9413SOL    HW229139   3.910   5.005   3.923
 9414SOL     OW29140   2.182   2.223   5.233
 9414SOL    HW129141   2.256   2.257   5.291
 9414SOL    HW229142   2.182   2.123   5.234
 9415SOL     OW29143   3.726   0.597   2.213
 9415SOL    HW129144   3.643   0.542   2.224
 9415SOL    HW229145   3.733   0.662   2.288
 9416SOL     OW29146   0.042   5.697   6.189
 9416SOL    HW129147   0.018   5.637   6.112
 9416SOL    HW229148   7.017   5.665   6.272
 9417SOL     OW29149   2.985   6.019   1.306
 9417SOL    HW129150   2.948   6.063   1.225
 9417SOL    HW229151   3.073   5.977   1.284
 9418SOL     OW29152   3.115   1.853   4.688
 9418SOL    HW129153   3.187   1.878   4.623
 9418SOL    HW229154   3.102   1.927   4.754
 9419SOL     OW29155   3.124   2.716   0.082
 9419SOL    HW129156   3.166   2.749   7.019
 9419SOL    HW229157   3.143   2.618   0.092
 9420SOL     OW29158   5.487   3.183   6.975
 9420SOL    HW129159   5.563   3.135   6.929
 9420SOL    HW229160   5.405   3.126   6.970
 9421SOL     OW29161   3.759   6.550   5.611
 9421SOL    HW129162   3.768   6.486   5.687
 9421SOL    HW229163   3.845   6.600   5.599
 9422SOL     OW29164   2.542   6.135   4.400
 9422SOL    HW129165   2.608   6.184   4.343
 9422SOL    HW229166   2.591   6.071   4.459
 9423SOL     OW29167   4.272   5.836   3.241
 9423SOL    HW129168   4.246   5.875   3.153
 9423SOL    HW229169   4.205   5.767   3.268
 9424SOL     OW29170   5.539   0.391   4.497
 9424SOL    HW129171   5.603   0.331   4.448
 9424SOL    HW229172   5.504   0.461   4.435
 9425SOL     OW29173   6.919   5.052   0.802
 9425SOL    HW129174   6.998   5.111   0.785
 9425SOL    HW229175   6.840   5.085   0.750
 9426SOL     OW29176   0.136   2.337   6.641
 9426SOL    HW129177   0.154   2.427   6.602
 9426SOL    HW229178   0.144   2.342   6.741
 9427SOL     OW29179   3.222   5.913   2.967
 9427SOL    HW129180   3.148   5.850   2.991
 9427SOL    HW229181   3.242   5.972   3.046
 9428SOL     OW29182   6.563   0.360   6.427
 9428SOL    HW129183   6.633   0.377   6.497
 9428SOL    HW229184   6.473   0.356   6.470
 9429SOL     OW29185   1.862   2.601   4.392
 9429SOL    HW129186   1.792   2.552   4.443
 9429SOL    HW229187   1.907   2.667   4.453
 9430SOL     OW29188   0.694   2.148   4.140
 9430SOL    HW129189   0.682   2.247   4.150
 9430SOL    HW229190   0.656   2.101   4.220
 9431SOL     OW29191   0.225   4.924   6.234
 9431SOL    HW129192   0.159   4.987   6.275
 9431SOL    HW229193   0.186   4.832   6.233
 9432SOL     OW29194   6.795   1.973   3.321
 9432SOL    HW129195   6.737   2.000   3.398
 9432SOL    HW229196   6.825   2.055   3.272
 9433SOL     OW29197   3.716   6.346   2.994
 9433SOL    HW129198   3.748   6.391   2.910
 9433SOL    HW229199   3.774   6.266   3.012
 9434SOL     OW29200   5.513   5.396   4.016
 9434SOL    HW129201   5.601   5.353   3.995
 9434SOL    HW229202   5.517   5.438   4.107
 9435SOL     OW29203   0.908   3.292   1.907
 9435SOL    HW129204   0.944   3.335   1.989
 9435SOL    HW229205   0.984   3.252   1.855
 9436SOL     OW29206   1.220   0.445   3.718
 9436SOL    HW129207   1.185   0.441   3.812
 9436SOL    HW229208   1.147   0.422   3.654
 9437SOL     OW29209   6.961   5.173   4.438
 9437SOL    HW129210   6.913   5.191   4.352
 9437SOL    HW229211   0.011   5.242   4.451
 9438SOL     OW29212   2.496   6.468   1.677
 9438SOL    HW129213   2.528   6.457   1.772
 9438SOL    HW229214   2.425   6.400   1.658
 9439SOL     OW29215   1.202   2.874   0.156
 9439SOL    HW129216   1.125   2.934   0.134
 9439SOL    HW229217   1.169   2.796   0.210
 9440SOL     OW29218   3.138   5.116   2.981
 9440SOL    HW129219   3.136   5.026   2.939
 9440SOL    HW229220   3.231   5.152   2.980
 9441SOL     OW29221   6.689   6.301   4.551
 9441SOL    HW129222   6.620   6.331   4.616
 9441SOL    HW229223   6.697   6.201   4.553
 9442SOL     OW29224   4.657   3.884   0.237
 9442SOL    HW129225   4.619   3.895   0.145
 9442SOL    HW229226   4.583   3.866   0.301
 9443SOL     OW29227   2.343   4.586   3.045
 9443SOL    HW129228   2.340   4.550   3.138
 9443SOL    HW229229   2.337   4.511   2.980
 9444SOL     OW29230   1.172   4.012   0.158
 9444SOL    HW129231   1.266   3.993   0.187
 9444SOL    HW229232   1.123   3.926   0.144
 9445SOL     OW29233   0.237   2.102   3.997
 9445SOL    HW129234   0.213   2.020   3.945
 9445SOL    HW229235   0.333   2.125   3.980
 9446SOL     OW29236   6.365   5.237   3.153
 9446SOL    HW129237   6.455   5.196   3.140
 9446SOL    HW229238   6.300   5.195   3.090
 9447SOL     OW29239   5.755   4.975   1.966
 9447SOL    HW129240   5.798   4.969   1.876
 9447SOL    HW229241   5.750   4.884   2.007
 9448SOL     OW29242   5.477   0.160   6.057
 9448SOL    HW129243   5.534   0.119   6.129
 9448SOL    HW229244   5.533   0.222   6.002
 9449SOL     OW29245   6.291   0.071   1.925
 9449SOL    HW129246   6.383   0.099   1.951
 9449SOL    HW229247   6.296   0.005   1.850
 9450SOL     OW29248   1.828   6.085   4.319
 9450SOL    HW129249   1.924   6.077   4.346
 9450SOL    HW229250   1.802   6.005   4.265
 9451SOL     OW29251   3.372   5.785   6.953
 9451SOL    HW129252   3.365   5.861   6.890
 9451SOL    HW229253   3.355   5.699   6.904
 9452SOL     OW29254   6.946   4.103   1.069
 9452SOL    HW129255   6.986   4.051   1.144
 9452SOL    HW229256   6.952   4.050   0.984
 9453SOL     OW29257   3.913   5.633   3.595
 9453SOL    HW129258   3.989   5.569   3.578
 9453SOL    HW229259   3.828   5.593   3.562
 9454SOL     OW29260   4.652   4.306   0.840
 9454SOL    HW129261   4.744   4.298   0.802
 9454SOL    HW229262   4.609   4.216   0.843
 9455SOL     OW29263   2.725   2.130   2.188
 9455SOL    HW129264   2.760   2.088   2.272
 9455SOL    HW229265   2.791   2.198   2.155
 9456SOL     OW29266   6.110   2.725   2.418
 9456SOL    HW129267   6.104   2.825   2.412
 9456SOL    HW229268   6.022   2.688   2.446
 9457SOL     OW29269   0.392   5.155   3.715
 9457SOL    HW129270   0.364   5.094   3.641
 9457SOL    HW229271   0.320   5.158   3.784
 9458SOL     OW29272   6.530   3.800   6.731
 9458SOL    HW129273   6.592   3.864   6.776
 9458SOL    HW229274   6.498   3.839   6.645
 9459SOL     OW29275   5.122   5.130   4.772
 9459SOL    HW129276   5.164   5.121   4.862
 9459SOL    HW229277   5.123   5.041   4.726
 9460SOL     OW29278   0.917   2.417   3.240
 9460SOL    HW129279   1.000   2.410   3.294
 9460SOL    HW229280   0.906   2.334   3.184
 9461SOL     OW29281   1.601   2.501   2.067
 9461SOL    HW129282   1.616   2.402   2.065
 9461SOL    HW229283   1.503   2.520   2.059
 9462SOL     OW29284   1.710   1.651   4.748
 9462SOL    HW129285   1.794   1.704   4.761
 9462SOL    HW229286   1.695   1.637   4.650
 9463SOL     OW29287   5.686   5.838   0.905
 9463SOL    HW129288   5.617   5.769   0.926
 9463SOL    HW229289   5.644   5.929   0.906
 9464SOL     OW29290   0.510   1.297   1.277
 9464SOL    HW129291   0.454   1.378   1.298
 9464SOL    HW229292   0.460   1.214   1.301
 9465SOL     OW29293   0.290   3.914   1.423
 9465SOL    HW129294   0.354   3.973   1.473
 9465SOL    HW229295   0.200   3.918   1.466
 9466SOL     OW29296   3.801   5.344   0.019
 9466SOL    HW129297   3.764   5.350   0.111
 9466SOL    HW229298   3.735   5.299   6.980
 9467SOL     OW29299   2.461   3.151   1.040
 9467SOL    HW129300   2.518   3.214   0.987
 9467SOL    HW229301   2.493   3.148   1.134
 9468SOL     OW29302   6.316   3.191   0.629
 9468SOL    HW129303   6.245   3.240   0.679
 9468SOL    HW229304   6.350   3.249   0.554
 9469SOL     OW29305   0.477   6.410   0.968
 9469SOL    HW129306   0.494   6.422   1.066
 9469SOL    HW229307   0.380   6.426   0.950
 9470SOL     OW29308   3.902   4.128   0.811
 9470SOL    HW129309   3.919   4.030   0.806
 9470SOL    HW229310   3.988   4.178   0.798
 9471SOL     OW29311   6.251   2.609   4.991
 9471SOL    HW129312   6.229   2.546   5.065
 9471SOL    HW229313   6.211   2.576   4.906
 9472SOL     OW29314   1.698   3.577   6.452
 9472SOL    HW129315   1.750   3.623   6.524
 9472SOL    HW229316   1.606   3.616   6.447
 9473SOL     OW29317   2.903   4.481   0.252
 9473SOL    HW129318   2.817   4.447   0.290
 9473SOL    HW229319   2.914   4.447   0.159
 9474SOL     OW29320   5.624   3.340   1.735
 9474SOL    HW129321   5.611   3.267   1.802
 9474SOL    HW229322   5.564   3.325   1.656
 9475SOL     OW29323   4.436   3.701   5.950
 9475SOL    HW129324   4.501   3.663   6.017
 9475SOL    HW229325   4.442   3.649   5.865
 9476SOL     OW29326   3.569   3.813   6.101
 9476SOL    HW129327   3.564   3.776   6.194
 9476SOL    HW229328   3.505   3.890   6.093
 9477SOL     OW29329   1.878   3.856   1.523
 9477SOL    HW129330   1.904   3.867   1.427
 9477SOL    HW229331   1.957   3.874   1.582
 9478SOL     OW29332   5.475   2.584   0.257
 9478SOL    HW129333   5.512   2.575   0.164
 9478SOL    HW229334   5.375   2.593   0.252
 9479SOL     OW29335   4.185   0.726   1.774
 9479SOL    HW129336   4.162   0.809   1.825
 9479SOL    HW229337   4.101   0.676   1.751
 9480SOL     OW29338   6.145   6.630   6.717
 9480SOL    HW129339   6.139   6.572   6.635
 9480SOL    HW229340   6.133   6.726   6.691
 9481SOL     OW29341   4.238   1.755   2.622
 9481SOL    HW129342   4.216   1.790   2.713
 9481SOL    HW229343   4.171   1.684   2.597
 9482SOL     OW29344   6.202   0.221   0.996
 9482SOL    HW129345   6.163   0.274   1.071
 9482SOL    HW229346   6.128   0.185   0.938
 9483SOL     OW29347   0.079   0.861   0.914
 9483SOL    HW129348   0.178   0.847   0.911
 9483SOL    HW229349   0.050   0.876   1.009
 9484SOL     OW29350   3.342   6.024   4.465
 9484SOL    HW129351   3.399   6.067   4.395
 9484SOL    HW229352   3.245   6.032   4.439
 9485SOL     OW29353   6.670   1.377   6.993
 9485SOL    HW129354   6.652   1.434   6.913
 9485SOL    HW229355   6.760   1.398   0.009
 9486SOL     OW29356   4.816   5.665   0.166
 9486SOL    HW129357   4.727   5.635   0.202
 9486SOL    HW229358   4.875   5.585   0.153
 9487SOL     OW29359   3.636   3.082   3.906
 9487SOL    HW129360   3.604   3.129   3.823
 9487SOL    HW229361   3.571   3.010   3.930
 9488SOL     OW29362   1.566   1.633   0.968
 9488SOL    HW129363   1.482   1.637   0.914
 9488SOL    HW229364   1.544   1.651   1.064
 9489SOL     OW29365   4.710   4.464   0.407
 9489SOL    HW129366   4.720   4.364   0.403
 9489SOL    HW229367   4.616   4.489   0.385
 9490SOL     OW29368   5.799   3.782   3.366
 9490SOL    HW129369   5.719   3.754   3.312
 9490SOL    HW229370   5.768   3.825   3.451
 9491SOL     OW29371   5.093   6.550   2.796
 9491SOL    HW129372   5.073   6.469   2.740
 9491SOL    HW229373   5.020   6.563   2.863
 9492SOL     OW29374   4.811   2.478   4.599
 9492SOL    HW129375   4.724   2.484   4.552
 9492SOL    HW229376   4.822   2.558   4.659
 9493SOL     OW29377   4.252   6.753   3.159
 9493SOL    HW129378   4.288   6.676   3.213
 9493SOL    HW229379   4.184   6.802   3.213
 9494SOL     OW29380   5.163   2.497   1.863
 9494SOL    HW129381   5.162   2.572   1.798
 9494SOL    HW229382   5.224   2.425   1.830
 9495SOL     OW29383   0.741   0.681   2.786
 9495SOL    HW129384   0.800   0.621   2.732
 9495SOL    HW229385   0.796   0.739   2.844
 9496SOL     OW29386   4.096   2.103   2.398
 9496SOL    HW129387   4.177   2.060   2.359
 9496SOL    HW229388   4.026   2.114   2.327
 9497SOL     OW29389   5.824   4.717   4.302
 9497SOL    HW129390   5.890   4.680   4.368
 9497SOL    HW229391   5.732   4.688   4.328
 9498SOL     OW29392   6.433   5.013   4.005
 9498SOL    HW129393   6.396   5.043   3.917
 9498SOL    HW229394   6.442   4.913   4.005
 9499SOL     OW29395   5.651   5.751   5.494
 9499SOL    HW129396   5.657   5.665   5.443
 9499SOL    HW229397   5.698   5.823   5.442
 9500SOL     OW29398   4.208   0.980   0.956
 9500SOL    HW129399   4.201   1.069   0.912
 9500SOL    HW229400   4.218   0.909   0.886
 9501SOL     OW29401   1.601   2.638   4.754
 9501SOL    HW129402   1.620   2.616   4.850
 9501SOL    HW229403   1.547   2.722   4.750
 9502SOL     OW29404   6.025   4.397   5.612
 9502SOL    HW129405   6.004   4.327   5.544
 9502SOL    HW229406   6.079   4.470   5.570
 9503SOL     OW29407   0.500   2.547   6.658
 9503SOL    HW129408   0.484   2.551   6.756
 9503SOL    HW229409   0.544   2.632   6.628
 9504SOL     OW29410   6.008   5.203   1.948
 9504SOL    HW129411   5.919   5.205   1.995
 9504SOL    HW229412   6.061   5.283   1.974
 9505SOL     OW29413   4.458   4.869   5.259
 9505SOL    HW129414   4.525   4.926   5.306
 9505SOL    HW229415   4.380   4.925   5.232
 9506SOL     OW29416   3.242   2.076   1.111
 9506SOL    HW129417   3.227   2.034   1.022
 9506SOL    HW229418   3.238   2.175   1.102
 9507SOL     OW29419   5.925   0.305   1.977
 9507SOL    HW129420   5.875   0.224   1.947
 9507SOL    HW229421   6.007   0.276   2.027
 9508SOL     OW29422   5.063   1.450   3.175
 9508SOL    HW129423   5.083   1.390   3.098
 9508SOL    HW229424   5.136   1.443   3.242
 9509SOL     OW29425   6.730   0.155   2.602
 9509SOL    HW129426   6.693   0.102   2.526
 9509SOL    HW229427   6.694   0.119   2.688
 9510SOL     OW29428   0.514   2.960   3.598
 9510SOL    HW129429   0.477   2.996   3.684
 9510SOL    HW229430   0.439   2.932   3.538
 9511SOL     OW29431   1.241   1.241   0.444
 9511SOL    HW129432   1.322   1.299   0.454
 9511SOL    HW229433   1.159   1.296   0.452
 9512SOL     OW29434   6.171   2.245   1.204
 9512SOL    HW129435   6.220   2.264   1.119
 9512SOL    HW229436   6.095   2.309   1.213
 9513SOL     OW29437   3.988   5.089   7.009
 9513SOL    HW129438   3.985   5.185   6.979
 9513SOL    HW229439   3.896   5.055   0.002
 9514SOL     OW29440   3.377   3.211   6.751
 9514SOL    HW129441   3.381   3.299   6.704
 9514SOL    HW229442   3.299   3.159   6.717
 9515SOL     OW29443   2.621   4.996   3.946
 9515SOL    HW129444   2.595   5.080   3.993
 9515SOL    HW229445   2.554   4.976   3.874
 9516SOL     OW29446   6.789   3.858   0.335
 9516SOL    HW129447   6.859   3.877   0.266
 9516SOL    HW229448   6.766   3.761   0.333
 9517SOL     OW29449   0.702   4.664   1.108
 9517SOL    HW129450   0.687   4.646   1.205
 9517SOL    HW229451   0.732   4.580   1.063
 9518SOL     OW29452   2.355   1.437   0.301
 9518SOL    HW129453   2.437   1.386   0.326
 9518SOL    HW229454   2.274   1.391   0.337
 9519SOL     OW29455   0.795   2.970   5.312
 9519SOL    HW129456   0.847   3.038   5.260
 9519SOL    HW229457   0.849   2.886   5.320
 9520SOL     OW29458   1.968   6.737   2.797
 9520SOL    HW129459   1.961   6.730   2.698
 9520SOL    HW229460   1.909   6.668   2.840
 9521SOL     OW29461   5.541   5.628   4.200
 9521SOL    HW129462   5.520   5.622   4.298
 9521SOL    HW229463   5.594   5.711   4.182
 9522SOL     OW29464   3.346   6.097   1.114
 9522SOL    HW129465   3.444   6.113   1.102
 9522SOL    HW229466   3.301   6.183   1.141
 9523SOL     OW29467   3.712   5.118   4.831
 9523SOL    HW129468   3.732   5.084   4.739
 9523SOL    HW229469   3.614   5.111   4.848
 9524SOL     OW29470   4.031   3.478   1.096
 9524SOL    HW129471   4.126   3.489   1.067
 9524SOL    HW229472   4.029   3.434   1.186
 9525SOL     OW29473   2.456   0.849   6.300
 9525SOL    HW129474   2.481   0.791   6.378
 9525SOL    HW229475   2.379   0.907   6.326
 9526SOL     OW29476   4.910   5.646   2.831
 9526SOL    HW129477   4.992   5.678   2.784
 9526SOL    HW229478   4.896   5.699   2.915
 9527SOL     OW29479   0.567   1.159   2.330
 9527SOL    HW129480   0.601   1.183   2.239
 9527SOL    HW229481   0.619   1.209   2.400
 9528SOL     OW29482   6.728   0.624   2.319
 9528SOL    HW129483   6.755   0.683   2.242
 9528SOL    HW229484   6.733   0.677   2.404
 9529SOL     OW29485   0.737   2.789   6.008
 9529SOL    HW129486   0.751   2.888   6.013
 9529SOL    HW229487   0.826   2.743   6.018
 9530SOL     OW29488   1.470   2.546   3.484
 9530SOL    HW129489   1.565   2.575   3.494
 9530SOL    HW229490   1.448   2.539   3.386
 9531SOL     OW29491   3.534   0.297   3.332
 9531SOL    HW129492   3.530   0.260   3.240
 9531SOL    HW229493   3.630   0.317   3.356
 9532SOL     OW29494   2.143   6.924   2.064
 9532SOL    HW129495   2.096   6.993   2.008
 9532SOL    HW229496   2.242   6.931   2.049
 9533SOL     OW29497   1.573   1.124   5.932
 9533SOL    HW129498   1.529   1.035   5.942
 9533SOL    HW229499   1.551   1.181   6.011
 9534SOL     OW29500   5.740   2.286   5.159
 9534SOL    HW129501   5.698   2.195   5.166
 9534SOL    HW229502   5.701   2.335   5.082
 9535SOL     OW29503   2.544   1.114   5.396
 9535SOL    HW129504   2.550   1.133   5.494
 9535SOL    HW229505   2.550   1.200   5.345
 9536SOL     OW29506   1.543   5.834   5.733
 9536SOL    HW129507   1.614   5.904   5.742
 9536SOL    HW229508   1.582   5.751   5.694
 9537SOL     OW29509   2.726   0.401   1.837
 9537SOL    HW129510   2.699   0.347   1.758
 9537SOL    HW229511   2.665   0.382   1.914
 9538SOL     OW29512   6.748   2.370   4.689
 9538SOL    HW129513   6.779   2.392   4.597
 9538SOL    HW229514   6.826   2.367   4.751
 9539SOL     OW29515   0.514   5.764   0.282
 9539SOL    HW129516   0.613   5.754   0.272
 9539SOL    HW229517   0.481   5.698   0.350
 9540SOL     OW29518   4.668   4.799   4.367
 9540SOL    HW129519   4.656   4.714   4.315
 9540SOL    HW229520   4.686   4.874   4.304
 9541SOL     OW29521   2.007   2.795   4.127
 9541SOL    HW129522   1.956   2.881   4.128
 9541SOL    HW229523   2.105   2.815   4.134
 9542SOL     OW29524   4.897   3.537   4.597
 9542SOL    HW129525   4.869   3.547   4.502
 9542SOL    HW229526   4.947   3.619   4.626
 9543SOL     OW29527   5.400   1.366   3.069
 9543SOL    HW129528   5.374   1.445   3.013
 9543SOL    HW229529   5.499   1.359   3.073
 9544SOL     OW29530   4.930   1.576   2.723
 9544SOL    HW129531   4.932   1.476   2.715
 9544SOL    HW229532   4.987   1.617   2.652
 9545SOL     OW29533   6.764   1.169   3.562
 9545SOL    HW129534   6.740   1.203   3.472
 9545SOL    HW229535   6.771   1.069   3.560
 9546SOL     OW29536   2.780   5.231   0.275
 9546SOL    HW129537   2.762   5.186   0.188
 9546SOL    HW229538   2.839   5.310   0.260
 9547SOL     OW29539   0.583   6.609   4.111
 9547SOL    HW129540   0.591   6.680   4.181
 9547SOL    HW229541   0.520   6.539   4.143
 9548SOL     OW29542   4.921   5.767   4.188
 9548SOL    HW129543   4.889   5.795   4.279
 9548SOL    HW229544   4.847   5.781   4.122
 9549SOL     OW29545   2.685   6.016   0.602
 9549SOL    HW129546   2.622   6.093   0.590
 9549SOL    HW229547   2.642   5.947   0.661
 9550SOL     OW29548   1.225   1.497   0.178
 9550SOL    HW129549   1.232   1.397   0.172
 9550SOL    HW229550   1.297   1.538   0.123
 9551SOL     OW29551   1.099   6.687   4.838
 9551SOL    HW129552   1.037   6.658   4.764
 9551SOL    HW229553   1.047   6.696   4.923
 9552SOL     OW29554   1.779   6.120   3.112
 9552SOL    HW129555   1.856   6.152   3.167
 9552SOL    HW229556   1.805   6.035   3.066
 9553SOL     OW29557   5.786   4.174   5.678
 9553SOL    HW129558   5.696   4.137   5.655
 9553SOL    HW229559   5.793   4.268   5.644
 9554SOL     OW29560   2.344   1.397   1.917
 9554SOL    HW129561   2.398   1.462   1.863
 9554SOL    HW229562   2.319   1.438   2.005
 9555SOL     OW29563   6.817   2.543   0.646
 9555SOL    HW129564   6.727   2.562   0.606
 9555SOL    HW229565   6.865   2.477   0.588
 9556SOL     OW29566   1.935   1.692   1.575
 9556SOL    HW129567   1.949   1.616   1.639
 9556SOL    HW229568   2.020   1.745   1.568
 9557SOL     OW29569   5.231   0.470   2.215
 9557SOL    HW129570   5.295   0.543   2.238
 9557SOL    HW229571   5.274   0.407   2.150
 9558SOL     OW29572   6.271   5.003   2.556
 9558SOL    HW129573   6.190   4.951   2.585
 9558SOL    HW229574   6.339   4.940   2.519
 9559SOL     OW29575   6.846   3.352   1.701
 9559SOL    HW129576   6.936   3.379   1.736
 9559SOL    HW229577   6.800   3.294   1.769
 9560SOL     OW29578   2.970   1.693   3.698
 9560SOL    HW129579   2.988   1.791   3.707
 9560SOL    HW229580   2.971   1.651   3.788
 9561SOL     OW29581   4.473   6.327   0.710
 9561SOL    HW129582   4.456   6.268   0.631
 9561SOL    HW229583   4.488   6.270   0.791
 9562SOL     OW29584   5.106   4.965   2.455
 9562SOL    HW129585   5.139   5.031   2.521
 9562SOL    HW229586   5.109   4.873   2.494
 9563SOL     OW29587   6.349   5.929   0.037
 9563SOL    HW129588   6.312   5.877   0.114
 9563SOL    HW229589   6.305   6.019   0.033
 9564SOL     OW29590   2.861   6.528   0.218
 9564SOL    HW129591   2.842   6.593   0.291
 9564SOL    HW229592   2.945   6.553   0.171
 9565SOL     OW29593   3.632   5.655   4.762
 9565SOL    HW129594   3.694   5.726   4.797
 9565SOL    HW229595   3.563   5.697   4.703
 9566SOL     OW29596   2.788   4.351   5.333
 9566SOL    HW129597   2.799   4.259   5.296
 9566SOL    HW229598   2.842   4.416   5.278
 9567SOL     OW29599   5.862   5.393   5.518
 9567SOL    HW129600   5.832   5.411   5.612
 9567SOL    HW229601   5.959   5.416   5.508
 9568SOL     OW29602   4.612   3.595   6.212
 9568SOL    HW129603   4.558   3.583   6.295
 9568SOL    HW229604   4.688   3.530   6.212
 9569SOL     OW29605   6.240   0.764   0.186
 9569SOL    HW129606   6.244   0.671   0.150
 9569SOL    HW229607   6.240   0.829   0.110
 9570SOL     OW29608   0.974   1.158   0.174
 9570SOL    HW129609   0.967   1.233   0.239
 9570SOL    HW229610   1.062   1.112   0.186
 9571SOL     OW29611   1.832   3.812   0.176
 9571SOL    HW129612   1.878   3.723   0.170
 9571SOL    HW229613   1.778   3.827   0.093
 9572SOL     OW29614   1.724   4.448   1.381
 9572SOL    HW129615   1.800   4.394   1.346
 9572SOL    HW229616   1.752   4.544   1.389
 9573SOL     OW29617   1.868   1.587   0.813
 9573SOL    HW129618   1.928   1.511   0.834
 9573SOL    HW229619   1.814   1.610   0.893
 9574SOL     OW29620   2.578   2.659   5.922
 9574SOL    HW129621   2.661   2.608   5.898
 9574SOL    HW229622   2.602   2.755   5.935
 9575SOL     OW29623   5.713   0.952   2.398
 9575SOL    HW129624   5.662   0.867   2.412
 9575SOL    HW229625   5.775   0.966   2.475
 9576SOL     OW29626   3.314   1.559   5.292
 9576SOL    HW129627   3.243   1.609   5.243
 9576SOL    HW229628   3.271   1.490   5.351
 9577SOL     OW29629   0.920   6.566   3.426
 9577SOL    HW129630   0.844   6.588   3.487
 9577SOL    HW229631   0.905   6.476   3.385
 9578SOL     OW29632   6.163   3.034   2.410
 9578SOL    HW129633   6.208   3.003   2.327
 9578SOL    HW229634   6.233   3.062   2.477
 9579SOL     OW29635   1.107   6.518   2.555
 9579SOL    HW129636   1.169   6.550   2.627
 9579SOL    HW229637   1.150   6.528   2.466
 9580SOL     OW29638   4.185   3.090   5.858
 9580SOL    HW129639   4.102   3.092   5.802
 9580SOL    HW229640   4.252   3.153   5.820
 9581SOL     OW29641   0.904   4.443   5.808
 9581SOL    HW129642   0.916   4.413   5.902
 9581SOL    HW229643   0.888   4.363   5.749
 9582SOL     OW29644   4.133   4.937   4.643
 9582SOL    HW129645   4.127   4.897   4.551
 9582SOL    HW229646   4.179   4.873   4.704
 9583SOL     OW29647   1.938   4.278   1.562
 9583SOL    HW129648   1.936   4.362   1.617
 9583SOL    HW229649   1.945   4.303   1.465
 9584SOL     OW29650   5.994   5.762   6.108
 9584SOL    HW129651   6.021   5.673   6.146
 9584SOL    HW229652   6.057   5.787   6.035
 9585SOL     OW29653   5.889   0.318   4.830
 9585SOL    HW129654   5.862   0.260   4.754
 9585SOL    HW229655   5.955   0.386   4.799
 9586SOL     OW29656   5.834   3.637   3.060
 9586SOL    HW129657   5.776   3.598   2.989
 9586SOL    HW229658   5.780   3.650   3.144
 9587SOL     OW29659   4.732   6.759   2.536
 9587SOL    HW129660   4.776   6.705   2.465
 9587SOL    HW229661   4.797   6.828   2.570
 9588SOL     OW29662   0.855   0.525   1.776
 9588SOL    HW129663   0.910   0.569   1.705
 9588SOL    HW229664   0.894   0.436   1.798
 9589SOL     OW29665   2.536   1.264   6.444
 9589SOL    HW129666   2.460   1.310   6.398
 9589SOL    HW229667   2.616   1.325   6.445
 9590SOL     OW29668   6.541   4.076   4.356
 9590SOL    HW129669   6.640   4.090   4.362
 9590SOL    HW229670   6.516   4.059   4.260
 9591SOL     OW29671   1.427   5.155   1.597
 9591SOL    HW129672   1.447   5.232   1.536
 9591SOL    HW229673   1.489   5.158   1.676
 9592SOL     OW29674   4.844   5.182   1.861
 9592SOL    HW129675   4.866   5.136   1.775
 9592SOL    HW229676   4.752   5.156   1.889
 9593SOL     OW29677   0.684   2.944   4.408
 9593SOL    HW129678   0.752   2.877   4.380
 9593SOL    HW229679   0.719   3.036   4.391
 9594SOL     OW29680   6.350   6.967   2.388
 9594SOL    HW129681   6.275   7.017   2.432
 9594SOL    HW229682   6.314   6.909   2.316
 9595SOL     OW29683   1.036   5.373   4.000
 9595SOL    HW129684   1.017   5.397   4.095
 9595SOL    HW229685   1.100   5.438   3.961
 9596SOL     OW29686   5.526   6.127   4.926
 9596SOL    HW129687   5.595   6.168   4.868
 9596SOL    HW229688   5.519   6.029   4.907
 9597SOL     OW29689   2.019   3.694   0.982
 9597SOL    HW129690   2.060   3.678   1.072
 9597SOL    HW229691   2.012   3.792   0.966
 9598SOL     OW29692   0.048   5.317   5.779
 9598SOL    HW129693   0.126   5.380   5.773
 9598SOL    HW229694   0.029   5.279   5.689
 9599SOL     OW29695   4.793   1.437   4.851
 9599SOL    HW129696   4.693   1.434   4.843
 9599SOL    HW229697   4.825   1.358   4.902
 9600SOL     OW29698   1.352   6.948   6.824
 9600SOL    HW129699   1.334   6.961   6.922
 9600SOL    HW229700   1.347   0.015   6.777
 9601SOL     OW29701   0.390   5.262   5.434
 9601SOL    HW129702   0.448   5.193   5.477
 9601SOL    HW229703   0.405   5.261   5.335
 9602SOL     OW29704   1.144   5.613   0.426
 9602SOL    HW129705   1.151   5.604   0.525
 9602SOL    HW229706   1.090   5.694   0.403
 9603SOL     OW29707   1.754   5.871   4.180
 9603SOL    HW129708   1.744   5.796   4.245
 9603SOL    HW229709   1.838   5.858   4.127
 9604SOL     OW29710   6.198   1.408   6.759
 9604SOL    HW129711   6.159   1.406   6.667
 9604SOL    HW229712   6.297   1.402   6.754
 9605SOL     OW29713   2.135   6.253   6.720
 9605SOL    HW129714   2.122   6.317   6.796
 9605SOL    HW229715   2.190   6.175   6.750
 9606SOL     OW29716   6.094   6.492   4.049
 9606SOL    HW129717   6.178   6.492   4.104
 9606SOL    HW229718   6.117   6.515   3.954
 9607SOL     OW29719   0.920   2.124   1.824
 9607SOL    HW129720   0.827   2.159   1.836
 9607SOL    HW229721   0.922   2.060   1.748
 9608SOL     OW29722   0.457   6.622   2.123
 9608SOL    HW129723   0.447   6.682   2.043
 9608SOL    HW229724   0.460   6.677   2.206
 9609SOL     OW29725   1.244   3.377   4.398
 9609SOL    HW129726   1.205   3.468   4.396
 9609SOL    HW229727   1.292   3.363   4.485
 9610SOL     OW29728   2.750   1.773   6.576
 9610SOL    HW129729   2.666   1.738   6.619
 9610SOL    HW229730   2.785   1.850   6.629
 9611SOL     OW29731   6.672   0.002   1.479
 9611SOL    HW129732   6.728   6.943   1.457
 9611SOL    HW229733   6.682   0.071   1.408
 9612SOL     OW29734   5.429   2.585   1.634
 9612SOL    HW129735   5.454   2.488   1.632
 9612SOL    HW229736   5.469   2.628   1.715
 9613SOL     OW29737   5.650   6.185   5.310
 9613SOL    HW129738   5.685   6.093   5.329
 9613SOL    HW229739   5.592   6.215   5.385
 9614SOL     OW29740   3.825   3.244   2.350
 9614SOL    HW129741   3.891   3.183   2.394
 9614SOL    HW229742   3.856   3.267   2.258
 9615SOL     OW29743   0.911   6.287   3.427
 9615SOL    HW129744   0.962   6.219   3.374
 9615SOL    HW229745   0.813   6.271   3.415
 9616SOL     OW29746   3.116   3.198   0.613
 9616SOL    HW129747   3.066   3.253   0.546
 9616SOL    HW229748   3.148   3.257   0.687
 9617SOL     OW29749   0.754   4.633   3.715
 9617SOL    HW129750   0.795   4.710   3.666
 9617SOL    HW229751   0.672   4.665   3.763
 9618SOL     OW29752   4.619   6.313   6.790
 9618SOL    HW129753   4.614   6.264   6.877
 9618SOL    HW229754   4.692   6.274   6.734
 9619SOL     OW29755   2.729   6.857   0.227
 9619SOL    HW129756   2.630   6.870   0.219
 9619SOL    HW229757   2.752   6.830   0.321
 9620SOL     OW29758   3.552   1.235   6.290
 9620SOL    HW129759   3.613   1.228   6.211
 9620SOL    HW229760   3.480   1.301   6.271
 9621SOL     OW29761   1.317   1.314   0.882
 9621SOL    HW129762   1.297   1.299   0.979
 9621SOL    HW229763   1.415   1.334   0.871
 9622SOL     OW29764   6.414   0.357   6.017
 9622SOL    HW129765   6.493   0.298   6.003
 9622SOL    HW229766   6.440   0.452   5.999
 9623SOL     OW29767   4.018   6.325   6.734
 9623SOL    HW129768   4.014   6.228   6.761
 9623SOL    HW229769   4.016   6.382   6.815
 9624SOL     OW29770   4.343   5.355   4.711
 9624SOL    HW129771   4.434   5.325   4.737
 9624SOL    HW229772   4.288   5.277   4.682
 9625SOL     OW29773   4.695   3.882   6.081
 9625SOL    HW129774   4.641   3.958   6.118
 9625SOL    HW229775   4.662   3.796   6.120
 9626SOL     OW29776   2.213   3.617   6.338
 9626SOL    HW129777   2.118   3.589   6.332
 9626SOL    HW229778   2.263   3.585   6.257
 9627SOL     OW29779   0.878   5.369   0.166
 9627SOL    HW129780   0.944   5.412   0.103
 9627SOL    HW229781   0.791   5.417   0.161
 9628SOL     OW29782   5.911   2.066   6.608
 9628SOL    HW129783   5.972   2.139   6.640
 9628SOL    HW229784   5.862   2.028   6.686
 9629SOL     OW29785   6.596   5.861   3.593
 9629SOL    HW129786   6.612   5.763   3.583
 9629SOL    HW229787   6.612   5.888   3.688
 9630SOL     OW29788   6.047   5.973   6.391
 9630SOL    HW129789   5.957   5.934   6.368
 9630SOL    HW229790   6.035   6.068   6.418
 9631SOL     OW29791   4.568   1.137   0.248
 9631SOL    HW129792   4.568   1.049   0.296
 9631SOL    HW229793   4.619   1.128   0.163
 9632SOL     OW29794   3.462   6.093   2.045
 9632SOL    HW129795   3.520   6.128   2.119
 9632SOL    HW229796   3.499   6.123   1.957
 9633SOL     OW29797   3.028   3.061   2.226
 9633SOL    HW129798   3.000   3.092   2.135
 9633SOL    HW229799   2.984   2.975   2.247
 9634SOL     OW29800   5.374   4.295   2.452
 9634SOL    HW129801   5.443   4.265   2.518
 9634SOL    HW229802   5.360   4.393   2.459
 9635SOL     OW29803   0.405   4.446   4.040
 9635SOL    HW129804   0.328   4.481   4.095
 9635SOL    HW229805   0.462   4.387   4.098
 9636SOL     OW29806   4.675   2.771   4.963
 9636SOL    HW129807   4.682   2.849   5.026
 9636SOL    HW229808   4.704   2.688   5.010
 9637SOL     OW29809   2.486   2.806   0.574
 9637SOL    HW129810   2.500   2.865   0.654
 9637SOL    HW229811   2.444   2.720   0.603
 9638SOL     OW29812   6.511   4.707   5.635
 9638SOL    HW129813   6.562   4.710   5.721
 9638SOL    HW229814   6.565   4.660   5.565
 9639SOL     OW29815   3.831   1.353   2.748
 9639SOL    HW129816   3.783   1.427   2.701
 9639SOL    HW229817   3.912   1.391   2.794
 9640SOL     OW29818   4.418   0.506   3.342
 9640SOL    HW129819   4.447   0.445   3.416
 9640SOL    HW229820   4.457   0.475   3.256
 9641SOL     OW29821   5.984   3.703   2.851
 9641SOL    HW129822   5.910   3.730   2.790
 9641SOL    HW229823   5.946   3.664   2.935
 9642SOL     OW29824   1.639   0.371   3.887
 9642SOL    HW129825   1.573   0.297   3.870
 9642SOL    HW229826   1.728   0.331   3.908
 9643SOL     OW29827   4.825   4.808   3.966
 9643SOL    HW129828   4.828   4.837   3.871
 9643SOL    HW229829   4.911   4.764   3.991
 9644SOL     OW29830   1.378   6.044   5.068
 9644SOL    HW129831   1.396   5.956   5.024
 9644SOL    HW229832   1.281   6.068   5.056
 9645SOL     OW29833   0.321   5.335   0.200
 9645SOL    HW129834   0.286   5.276   0.273
 9645SOL    HW229835   0.287   5.428   0.214
 9646SOL     OW29836   3.581   6.127   6.161
 9646SOL    HW129837   3.565   6.034   6.193
 9646SOL    HW229838   3.493   6.174   6.151
 9647SOL     OW29839   6.178   6.773   3.173
 9647SOL    HW129840   6.240   6.699   3.148
 9647SOL    HW229841   6.171   6.779   3.273
 9648SOL     OW29842   3.996   2.452   1.404
 9648SOL    HW129843   4.061   2.377   1.413
 9648SOL    HW229844   4.039   2.527   1.353
 9649SOL     OW29845   1.538   5.125   6.947
 9649SOL    HW129846   1.449   5.081   6.936
 9649SOL    HW229847   1.553   5.146   0.022
 9650SOL     OW29848   0.047   5.490   4.731
 9650SOL    HW129849   0.053   5.434   4.648
 9650SOL    HW229850   0.062   5.433   4.811
 9651SOL     OW29851   3.904   1.353   0.180
 9651SOL    HW129852   3.841   1.420   0.141
 9651SOL    HW229853   3.998   1.385   0.170
 9652SOL     OW29854   0.075   3.704   0.096
 9652SOL    HW129855   0.095   3.751   0.011
 9652SOL    HW229856   0.005   3.634   0.080
 9653SOL     OW29857   3.661   4.357   6.142
 9653SOL    HW129858   3.688   4.280   6.083
 9653SOL    HW229859   3.648   4.324   6.235
 9654SOL     OW29860   3.819   3.415   3.355
 9654SOL    HW129861   3.776   3.389   3.269
 9654SOL    HW229862   3.795   3.510   3.377
 9655SOL     OW29863   4.139   1.376   1.881
 9655SOL    HW129864   4.074   1.409   1.814
 9655SOL    HW229865   4.223   1.346   1.835
 9656SOL     OW29866   5.689   4.030   0.646
 9656SOL    HW129867   5.656   4.089   0.720
 9656SOL    HW229868   5.786   4.048   0.630
 9657SOL     OW29869   5.708   3.382   3.405
 9657SOL    HW129870   5.736   3.367   3.310
 9657SOL    HW229871   5.769   3.331   3.466
 9658SOL     OW29872   5.387   2.077   2.262
 9658SOL    HW129873   5.393   1.996   2.319
 9658SOL    HW229874   5.354   2.154   2.317
 9659SOL     OW29875   2.785   3.082   0.697
 9659SOL    HW129876   2.701   3.031   0.710
 9659SOL    HW229877   2.799   3.100   0.599
 9660SOL     OW29878   0.482   5.971   1.581
 9660SOL    HW129879   0.525   6.020   1.505
 9660SOL    HW229880   0.552   5.928   1.638
 9661SOL     OW29881   5.408   4.796   0.798
 9661SOL    HW129882   5.397   4.699   0.781
 9661SOL    HW229883   5.318   4.841   0.797
 9662SOL     OW29884   5.348   4.891   6.250
 9662SOL    HW129885   5.278   4.960   6.229
 9662SOL    HW229886   5.435   4.918   6.208
 9663SOL     OW29887   0.694   5.196   3.072
 9663SOL    HW129888   0.683   5.281   3.125
 9663SOL    HW229889   0.694   5.118   3.134
 9664SOL     OW29890   5.033   3.858   2.972
 9664SOL    HW129891   5.092   3.783   2.999
 9664SOL    HW229892   4.952   3.859   3.031
 9665SOL     OW29893   5.545   5.685   6.534
 9665SOL    HW129894   5.620   5.736   6.491
 9665SOL    HW229895   5.582   5.624   6.603
 9666SOL     OW29896   5.574   3.578   0.231
 9666SOL    HW129897   5.478   3.603   0.245
 9666SOL    HW229898   5.584   3.530   0.144
 9667SOL     OW29899   5.944   6.035   6.858
 9667SOL    HW129900   5.983   6.118   6.818
 9667SOL    HW229901   6.017   5.978   6.896
 9668SOL     OW29902   0.065   6.986   5.704
 9668SOL    HW129903   0.087   0.002   5.794
 9668SOL    HW229904   0.019   6.897   5.715
 9669SOL     OW29905   3.972   0.334   0.272
 9669SOL    HW129906   3.916   0.314   0.352
 9669SOL    HW229907   3.920   0.391   0.207
 9670SOL     OW29908   0.358   7.007   6.457
 9670SOL    HW129909   0.400   6.955   6.382
 9670SOL    HW229910   0.391   6.972   6.545
 9671SOL     OW29911   1.340   5.318   6.301
 9671SOL    HW129912   1.298   5.288   6.386
 9671SOL    HW229913   1.271   5.360   6.242
 9672SOL     OW29914   0.645   3.511   4.822
 9672SOL    HW129915   0.712   3.579   4.789
 9672SOL    HW229916   0.556   3.555   4.832
 9673SOL     OW29917   2.423   3.962   1.266
 9673SOL    HW129918   2.461   3.915   1.347
 9673SOL    HW229919   2.338   4.008   1.292
 9674SOL     OW29920   2.688   6.526   4.134
 9674SOL    HW129921   2.594   6.517   4.100
 9674SOL    HW229922   2.742   6.582   4.070
 9675SOL     OW29923   4.820   3.985   1.358
 9675SOL    HW129924   4.727   4.010   1.331
 9675SOL    HW229925   4.824   3.887   1.380
 9676SOL     OW29926   1.001   2.893   6.066
 9676SOL    HW129927   1.030   2.988   6.062
 9676SOL    HW229928   1.039   2.843   5.988
 9677SOL     OW29929   6.677   5.596   0.827
 9677SOL    HW129930   6.674   5.529   0.901
 9677SOL    HW229931   6.623   5.562   0.750
 9678SOL     OW29932   3.620   3.295   5.010
 9678SOL    HW129933   3.682   3.374   5.003
 9678SOL    HW229934   3.674   3.212   5.023
 9679SOL     OW29935   2.132   1.564   4.879
 9679SOL    HW129936   2.183   1.514   4.809
 9679SOL    HW229937   2.047   1.515   4.900
 9680SOL     OW29938   4.367   5.541   2.872
 9680SOL    HW129939   4.385   5.443   2.876
 9680SOL    HW229940   4.366   5.578   2.965
 9681SOL     OW29941   1.751   1.870   2.597
 9681SOL    HW129942   1.757   1.783   2.549
 9681SOL    HW229943   1.716   1.940   2.535
 9682SOL     OW29944   4.981   5.359   5.124
 9682SOL    HW129945   5.041   5.392   5.051
 9682SOL    HW229946   4.889   5.395   5.112
 9683SOL     OW29947   2.617   6.207   1.708
 9683SOL    HW129948   2.631   6.261   1.625
 9683SOL    HW229949   2.563   6.126   1.687
 9684SOL     OW29950   1.228   4.181   5.557
 9684SOL    HW129951   1.222   4.094   5.605
 9684SOL    HW229952   1.261   4.252   5.619
 9685SOL     OW29953   3.956   5.045   1.690
 9685SOL    HW129954   4.043   5.091   1.706
 9685SOL    HW229955   3.941   5.033   1.592
 9686SOL     OW29956   0.378   1.723   5.940
 9686SOL    HW129957   0.321   1.662   5.997
 9686SOL    HW229958   0.321   1.794   5.900
 9687SOL     OW29959   5.623   0.790   2.037
 9687SOL    HW129960   5.613   0.879   2.081
 9687SOL    HW229961   5.555   0.782   1.964
 9688SOL     OW29962   0.541   4.347   1.178
 9688SOL    HW129963   0.525   4.379   1.271
 9688SOL    HW229964   0.592   4.261   1.180
 9689SOL     OW29965   1.049   6.730   1.059
 9689SOL    HW129966   1.105   6.811   1.077
 9689SOL    HW229967   0.957   6.758   1.033
 9690SOL     OW29968   5.937   5.159   5.102
 9690SOL    HW129969   5.861   5.139   5.040
 9690SOL    HW229970   5.901   5.189   5.190
 9691SOL     OW29971   3.141   3.805   1.650
 9691SOL    HW129972   3.096   3.716   1.657
 9691SOL    HW229973   3.100   3.868   1.716
 9692SOL     OW29974   5.152   4.940   0.797
 9692SOL    HW129975   5.106   4.933   0.885
 9692SOL    HW229976   5.100   4.892   0.727
 9693SOL     OW29977   5.237   3.684   4.058
 9693SOL    HW129978   5.182   3.635   3.989
 9693SOL    HW229979   5.206   3.779   4.064
 9694SOL     OW29980   3.463   6.735   2.473
 9694SOL    HW129981   3.481   6.670   2.399
 9694SOL    HW229982   3.512   6.820   2.454
 9695SOL     OW29983   1.034   2.733   3.757
 9695SOL    HW129984   1.028   2.755   3.659
 9695SOL    HW229985   1.046   2.634   3.768
 9696SOL     OW29986   5.454   1.823   2.415
 9696SOL    HW129987   5.371   1.789   2.370
 9696SOL    HW229988   5.466   1.777   2.503
 9697SOL     OW29989   0.494   6.253   0.094
 9697SOL    HW129990   0.544   6.192   0.156
 9697SOL    HW229991   0.433   6.312   0.147
 9698SOL     OW29992   5.942   3.736   0.042
 9698SOL    HW129993   5.854   3.776   0.068
 9698SOL    HW229994   5.987   3.698   0.123
 9699SOL     OW29995   1.011   5.027   0.932
 9699SOL    HW129996   0.991   5.110   0.983
 9699SOL    HW229997   0.962   5.029   0.845
 9700SOL     OW29998   5.822   6.752   4.928
 9700SOL    HW129999   5.787   6.771   4.836
 9700SOL    HW230000   5.846   6.838   4.973
 9701SOL     OW30001   4.653   3.155   6.294
 9701SOL    HW130002   4.582   3.151   6.224
 9701SOL    HW230003   4.645   3.242   6.344
 9702SOL     OW30004   3.713   3.232   1.316
 9702SOL    HW130005   3.635   3.230   1.378
 9702SOL    HW230006   3.790   3.183   1.358
 9703SOL     OW30007   6.302   3.884   5.008
 9703SOL    HW130008   6.287   3.847   5.100
 9703SOL    HW230009   6.238   3.959   4.991
 9704SOL     OW30010   2.142   4.210   3.142
 9704SOL    HW130011   2.112   4.165   3.058
 9704SOL    HW230012   2.170   4.141   3.208
 9705SOL     OW30013   6.075   3.611   5.639
 9705SOL    HW130014   6.055   3.584   5.545
 9705SOL    HW230015   6.052   3.708   5.651
 9706SOL     OW30016   1.505   1.853   2.207
 9706SOL    HW130017   1.587   1.833   2.261
 9706SOL    HW230018   1.523   1.834   2.111
 9707SOL     OW30019   6.439   5.280   2.623
 9707SOL    HW130020   6.465   5.226   2.542
 9707SOL    HW230021   6.521   5.314   2.668
 9708SOL     OW30022   2.155   0.664   2.104
 9708SOL    HW130023   2.244   0.641   2.064
 9708SOL    HW230024   2.168   0.688   2.201
 9709SOL     OW30025   5.594   2.019   2.563
 9709SOL    HW130026   5.541   1.965   2.498
 9709SOL    HW230027   5.613   2.109   2.524
 9710SOL     OW30028   6.066   5.596   4.348
 9710SOL    HW130029   6.142   5.585   4.284
 9710SOL    HW230030   6.028   5.688   4.338
 9711SOL     OW30031   3.933   0.101   6.832
 9711SOL    HW130032   3.914   0.088   6.929
 9711SOL    HW230033   3.982   0.187   6.818
 9712SOL     OW30034   5.829   2.371   7.012
 9712SOL    HW130035   5.807   2.302   0.059
 9712SOL    HW230036   5.749   2.428   6.995
 9713SOL     OW30037   1.308   6.299   3.910
 9713SOL    HW130038   1.332   6.391   3.880
 9713SOL    HW230039   1.294   6.240   3.830
 9714SOL     OW30040   2.876   4.820   4.858
 9714SOL    HW130041   2.878   4.904   4.913
 9714SOL    HW230042   2.836   4.746   4.913
 9715SOL     OW30043   6.429   3.899   0.462
 9715SOL    HW130044   6.496   3.825   0.466
 9715SOL    HW230045   6.474   3.986   0.482
 9716SOL     OW30046   2.899   5.107   0.061
 9716SOL    HW130047   2.873   5.041   7.012
 9716SOL    HW230048   2.924   5.058   0.145
 9717SOL     OW30049   4.488   0.980   5.498
 9717SOL    HW130050   4.518   1.076   5.494
 9717SOL    HW230051   4.460   0.959   5.592
 9718SOL     OW30052   2.602   1.851   0.468
 9718SOL    HW130053   2.702   1.858   0.469
 9718SOL    HW230054   2.561   1.940   0.490
 9719SOL     OW30055   4.850   6.379   5.003
 9719SOL    HW130056   4.765   6.386   5.054
 9719SOL    HW230057   4.843   6.306   4.935
 9720SOL     OW30058   2.107   3.782   2.906
 9720SOL    HW130059   2.033   3.718   2.927
 9720SOL    HW230060   2.124   3.782   2.808
 9721SOL     OW30061   0.639   2.001   0.780
 9721SOL    HW130062   0.582   2.051   0.844
 9721SOL    HW230063   0.617   2.027   0.686
 9722SOL     OW30064   3.852   3.116   5.001
 9722SOL    HW130065   3.871   3.069   4.914
 9722SOL    HW230066   3.871   3.054   5.077
 9723SOL     OW30067   6.377   5.660   4.309
 9723SOL    HW130068   6.318   5.738   4.331
 9723SOL    HW230069   6.464   5.694   4.272
 9724SOL     OW30070   0.673   5.452   0.487
 9724SOL    HW130071   0.625   5.511   0.423
 9724SOL    HW230072   0.703   5.505   0.566
 9725SOL     OW30073   3.317   5.419   5.682
 9725SOL    HW130074   3.338   5.348   5.616
 9725SOL    HW230075   3.366   5.401   5.767
 9726SOL     OW30076   5.938   1.242   4.444
 9726SOL    HW130077   5.952   1.176   4.518
 9726SOL    HW230078   5.844   1.277   4.449
 9727SOL     OW30079   1.257   1.291   6.835
 9727SOL    HW130080   1.175   1.260   6.787
 9727SOL    HW230081   1.251   1.267   6.932
 9728SOL     OW30082   5.220   0.140   6.199
 9728SOL    HW130083   5.215   0.175   6.293
 9728SOL    HW230084   5.313   0.154   6.164
 9729SOL     OW30085   0.263   5.083   3.131
 9729SOL    HW130086   0.345   5.062   3.077
 9729SOL    HW230087   0.221   4.997   3.162
 9730SOL     OW30088   0.219   4.392   3.299
 9730SOL    HW130089   0.173   4.304   3.316
 9730SOL    HW230090   0.171   4.464   3.349
 9731SOL     OW30091   5.362   3.691   2.519
 9731SOL    HW130092   5.269   3.661   2.499
 9731SOL    HW230093   5.361   3.750   2.600
 9732SOL     OW30094   1.113   3.256   2.273
 9732SOL    HW130095   1.015   3.276   2.265
 9732SOL    HW230096   1.166   3.331   2.233
 9733SOL     OW30097   6.117   5.307   2.626
 9733SOL    HW130098   6.018   5.311   2.621
 9733SOL    HW230099   6.155   5.397   2.606
 9734SOL     OW30100   6.077   6.730   5.787
 9734SOL    HW130101   6.008   6.717   5.716
 9734SOL    HW230102   6.091   6.828   5.802
 9735SOL     OW30103   1.430   2.287   2.298
 9735SOL    HW130104   1.354   2.352   2.301
 9735SOL    HW230105   1.475   2.284   2.388
 9736SOL     OW30106   4.759   2.555   5.144
 9736SOL    HW130107   4.786   2.543   5.239
 9736SOL    HW230108   4.659   2.550   5.137
 9737SOL     OW30109   6.078   1.973   2.593
 9737SOL    HW130110   5.980   1.954   2.602
 9737SOL    HW230111   6.097   2.002   2.499
 9738SOL     OW30112   1.607   6.033   2.172
 9738SOL    HW130113   1.600   5.933   2.165
 9738SOL    HW230114   1.521   6.075   2.143
 9739SOL     OW30115   5.749   0.047   0.003
 9739SOL    HW130116   5.700   7.010   0.068
 9739SOL    HW230117   5.845   0.055   0.031
 9740SOL     OW30118   6.664   1.079   2.434
 9740SOL    HW130119   6.642   1.139   2.357
 9740SOL    HW230120   6.734   1.122   2.490
 9741SOL     OW30121   3.106   1.068   4.682
 9741SOL    HW130122   3.113   1.153   4.630
 9741SOL    HW230123   3.022   1.020   4.656
 9742SOL     OW30124   4.128   2.397   5.919
 9742SOL    HW130125   4.106   2.488   5.884
 9742SOL    HW230126   4.197   2.354   5.860
 9743SOL     OW30127   6.216   3.133   3.526
 9743SOL    HW130128   6.225   3.165   3.431
 9743SOL    HW230129   6.213   3.212   3.587
 9744SOL     OW30130   2.024   0.224   3.740
 9744SOL    HW130131   2.028   0.309   3.793
 9744SOL    HW230132   1.941   0.173   3.763
 9745SOL     OW30133   6.366   0.598   5.780
 9745SOL    HW130134   6.354   0.648   5.866
 9745SOL    HW230135   6.458   0.560   5.777
 9746SOL     OW30136   4.388   5.399   6.046
 9746SOL    HW130137   4.389   5.300   6.030
 9746SOL    HW230138   4.436   5.419   6.131
 9747SOL     OW30139   2.573   2.337   2.303
 9747SOL    HW130140   2.506   2.292   2.362
 9747SOL    HW230141   2.655   2.279   2.297
 9748SOL     OW30142   1.139   0.865   3.192
 9748SOL    HW130143   1.192   0.781   3.197
 9748SOL    HW230144   1.097   0.884   3.281
 9749SOL     OW30145   6.835   1.951   2.103
 9749SOL    HW130146   6.764   1.890   2.068
 9749SOL    HW230147   6.904   1.898   2.153
 9750SOL     OW30148   6.410   4.355   3.899
 9750SOL    HW130149   6.432   4.444   3.861
 9750SOL    HW230150   6.495   4.308   3.925
 9751SOL     OW30151   2.829   1.062   1.970
 9751SOL    HW130152   2.805   1.130   1.900
 9751SOL    HW230153   2.750   1.048   2.030
 9752SOL     OW30154   3.766   3.017   0.376
 9752SOL    HW130155   3.808   2.926   0.372
 9752SOL    HW230156   3.812   3.072   0.446
 9753SOL     OW30157   6.067   6.002   5.017
 9753SOL    HW130158   5.988   5.957   4.976
 9753SOL    HW230159   6.151   5.963   4.980
 9754SOL     OW30160   3.983   0.346   1.423
 9754SOL    HW130161   3.992   0.421   1.357
 9754SOL    HW230162   3.905   0.364   1.483
 9755SOL     OW30163   3.371   4.284   6.666
 9755SOL    HW130164   3.455   4.311   6.713
 9755SOL    HW230165   3.292   4.318   6.717
 9756SOL     OW30166   5.939   0.776   6.462
 9756SOL    HW130167   5.855   0.804   6.414
 9756SOL    HW230168   5.975   0.853   6.513
 9757SOL     OW30169   4.900   3.571   3.655
 9757SOL    HW130170   4.993   3.536   3.642
 9757SOL    HW230171   4.838   3.495   3.675
 9758SOL     OW30172   1.942   0.512   0.997
 9758SOL    HW130173   1.989   0.424   1.007
 9758SOL    HW230174   1.957   0.547   0.904
 9759SOL     OW30175   1.188   1.601   0.436
 9759SOL    HW130176   1.224   1.541   0.364
 9759SOL    HW230177   1.238   1.687   0.434
 9760SOL     OW30178   4.479   2.050   0.610
 9760SOL    HW130179   4.452   2.124   0.672
 9760SOL    HW230180   4.427   1.968   0.632
 9761SOL     OW30181   2.009   1.481   1.749
 9761SOL    HW130182   2.045   1.430   1.827
 9761SOL    HW230183   2.005   1.420   1.669
 9762SOL     OW30184   2.542   1.951   5.993
 9762SOL    HW130185   2.457   2.004   5.998
 9762SOL    HW230186   2.602   1.977   6.068
 9763SOL     OW30187   6.432   1.654   1.474
 9763SOL    HW130188   6.467   1.718   1.405
 9763SOL    HW230189   6.333   1.660   1.478
 9764SOL     OW30190   5.718   1.414   2.173
 9764SOL    HW130191   5.622   1.386   2.176
 9764SOL    HW230192   5.768   1.354   2.110
 9765SOL     OW30193   6.696   1.436   1.526
 9765SOL    HW130194   6.657   1.461   1.615
 9765SOL    HW230195   6.663   1.346   1.499
 9766SOL     OW30196   2.007   1.183   4.423
 9766SOL    HW130197   1.919   1.169   4.470
 9766SOL    HW230198   2.068   1.106   4.444
 9767SOL     OW30199   2.422   3.403   5.791
 9767SOL    HW130200   2.425   3.323   5.850
 9767SOL    HW230201   2.335   3.452   5.805
 9768SOL     OW30202   6.142   2.729   0.805
 9768SOL    HW130203   6.222   2.681   0.840
 9768SOL    HW230204   6.061   2.671   0.813
 9769SOL     OW30205   2.878   1.866   4.867
 9769SOL    HW130206   2.928   1.946   4.901
 9769SOL    HW230207   2.943   1.793   4.845
 9770SOL     OW30208   3.144   2.336   6.675
 9770SOL    HW130209   3.172   2.248   6.715
 9770SOL    HW230210   3.217   2.369   6.615
 9771SOL     OW30211   2.689   6.347   2.927
 9771SOL    HW130212   2.780   6.314   2.901
 9771SOL    HW230213   2.671   6.434   2.882
 9772SOL     OW30214   0.874   6.296   1.688
 9772SOL    HW130215   0.794   6.293   1.748
 9772SOL    HW230216   0.884   6.208   1.641
 9773SOL     OW30217   4.750   5.472   2.120
 9773SOL    HW130218   4.775   5.377   2.139
 9773SOL    HW230219   4.652   5.484   2.138
 9774SOL     OW30220   0.956   5.921   4.398
 9774SOL    HW130221   0.961   5.856   4.474
 9774SOL    HW230222   0.878   5.899   4.340
 9775SOL     OW30223   2.286   0.913   4.220
 9775SOL    HW130224   2.249   0.839   4.165
 9775SOL    HW230225   2.295   0.996   4.165
 9776SOL     OW30226   1.667   5.755   6.381
 9776SOL    HW130227   1.731   5.684   6.353
 9776SOL    HW230228   1.718   5.839   6.402
 9777SOL     OW30229   5.031   6.978   6.110
 9777SOL    HW130230   5.119   0.005   6.116
 9777SOL    HW230231   5.026   6.929   6.024
 9778SOL     OW30232   0.660   2.358   4.405
 9778SOL    HW130233   0.577   2.350   4.351
 9778SOL    HW230234   0.650   2.304   4.489
 9779SOL     OW30235   0.939   1.944   3.747
 9779SOL    HW130236   0.909   1.970   3.839
 9779SOL    HW230237   0.913   1.849   3.729
 9780SOL     OW30238   2.004   1.825   1.250
 9780SOL    HW130239   1.906   1.828   1.232
 9780SOL    HW230240   2.032   1.907   1.299
 9781SOL     OW30241   1.524   3.229   3.758
 9781SOL    HW130242   1.610   3.277   3.776
 9781SOL    HW230243   1.448   3.294   3.760
 9782SOL     OW30244   6.984   2.531   1.111
 9782SOL    HW130245   6.949   2.546   1.019
 9782SOL    HW230246   0.061   2.545   1.112
 9783SOL     OW30247   3.520   1.568   3.199
 9783SOL    HW130248   3.572   1.507   3.260
 9783SOL    HW230249   3.434   1.524   3.175
 9784SOL     OW30250   2.142   1.355   0.456
 9784SOL    HW130251   2.138   1.265   0.499
 9784SOL    HW230252   2.049   1.390   0.441
 9785SOL     OW30253   7.009   2.081   4.635
 9785SOL    HW130254   0.085   2.058   4.639
 9785SOL    HW230255   6.994   2.150   4.565
 9786SOL     OW30256   2.220   4.443   1.165
 9786SOL    HW130257   2.164   4.526   1.161
 9786SOL    HW230258   2.259   4.426   1.075
 9787SOL     OW30259   3.959   3.062   2.821
 9787SOL    HW130260   3.989   2.981   2.872
 9787SOL    HW230261   3.879   3.039   2.766
 9788SOL     OW30262   0.102   6.535   1.776
 9788SOL    HW130263   0.088   6.479   1.858
 9788SOL    HW230264   0.017   6.582   1.753
 9789SOL     OW30265   3.536   0.148   6.623
 9789SOL    HW130266   3.502   0.074   6.681
 9789SOL    HW230267   3.465   0.216   6.610
 9790SOL     OW30268   6.767   4.291   4.368
 9790SOL    HW130269   6.674   4.327   4.370
 9790SOL    HW230270   6.827   4.347   4.426
 9791SOL     OW30271   1.224   6.404   1.018
 9791SOL    HW130272   1.132   6.367   1.006
 9791SOL    HW230273   1.228   6.458   1.102
 9792SOL     OW30274   4.130   5.885   0.936
 9792SOL    HW130275   4.124   5.808   0.874
 9792SOL    HW230276   4.103   5.856   1.028
 9793SOL     OW30277   4.863   1.855   2.491
 9793SOL    HW130278   4.781   1.901   2.456
 9793SOL    HW230279   4.842   1.758   2.507
 9794SOL     OW30280   4.907   4.362   4.941
 9794SOL    HW130281   4.901   4.459   4.918
 9794SOL    HW230282   4.824   4.316   4.909
 9795SOL     OW30283   1.003   3.741   3.736
 9795SOL    HW130284   1.049   3.741   3.825
 9795SOL    HW230285   1.041   3.668   3.679
 9796SOL     OW30286   3.399   3.813   3.695
 9796SOL    HW130287   3.487   3.837   3.655
 9796SOL    HW230288   3.413   3.762   3.780
 9797SOL     OW30289   3.136   6.615   6.572
 9797SOL    HW130290   3.179   6.659   6.650
 9797SOL    HW230291   3.117   6.684   6.501
 9798SOL     OW30292   1.444   3.049   0.797
 9798SOL    HW130293   1.404   3.106   0.726
 9798SOL    HW230294   1.513   2.989   0.758
 9799SOL     OW30295   2.950   6.354   6.165
 9799SOL    HW130296   3.019   6.306   6.219
 9799SOL    HW230297   2.936   6.446   6.203
 9800SOL     OW30298   5.825   3.313   4.296
 9800SOL    HW130299   5.803   3.216   4.304
 9800SOL    HW230300   5.898   3.325   4.228
 9801SOL     OW30301   5.893   5.012   6.131
 9801SOL    HW130302   5.840   4.984   6.211
 9801SOL    HW230303   5.979   4.961   6.129
 9802SOL     OW30304   4.541   4.951   1.460
 9802SOL    HW130305   4.458   4.899   1.478
 9802SOL    HW230306   4.585   4.915   1.377
 9803SOL     OW30307   0.800   3.841   6.223
 9803SOL    HW130308   0.798   3.891   6.309
 9803SOL    HW230309   0.895   3.814   6.202
 9804SOL     OW30310   6.399   5.799   2.782
 9804SOL    HW130311   6.415   5.847   2.869
 9804SOL    HW230312   6.306   5.763   2.781
 9805SOL     OW30313   0.143   6.906   3.904
 9805SOL    HW130314   0.174   6.982   3.847
 9805SOL    HW230315   0.223   6.854   3.937
 9806SOL     OW30316   3.207   2.735   6.243
 9806SOL    HW130317   3.189   2.761   6.148
 9806SOL    HW230318   3.220   2.637   6.248
 9807SOL     OW30319   2.933   3.600   1.947
 9807SOL    HW130320   2.833   3.606   1.954
 9807SOL    HW230321   2.960   3.611   1.851
 9808SOL     OW30322   4.138   6.564   3.586
 9808SOL    HW130323   4.184   6.575   3.674
 9808SOL    HW230324   4.044   6.533   3.602
 9809SOL     OW30325   0.039   2.665   0.734
 9809SOL    HW130326   0.043   2.764   0.719
 9809SOL    HW230327   6.970   2.631   0.708
 9810SOL     OW30328   1.891   1.552   6.452
 9810SOL    HW130329   1.934   1.564   6.362
 9810SOL    HW230330   1.955   1.577   6.524
 9811SOL     OW30331   6.087   3.763   4.020
 9811SOL    HW130332   6.165   3.755   3.958
 9811SOL    HW230333   6.119   3.785   4.111
 9812SOL     OW30334   2.598   6.967   4.684
 9812SOL    HW130335   2.545   6.917   4.753
 9812SOL    HW230336   2.539   0.010   4.636
 9813SOL     OW30337   5.151   2.220   0.629
 9813SOL    HW130338   5.096   2.173   0.699
 9813SOL    HW230339   5.091   2.254   0.557
 9814SOL     OW30340   5.779   1.867   0.271
 9814SOL    HW130341   5.861   1.810   0.266
 9814SOL    HW230342   5.798   1.946   0.329
 9815SOL     OW30343   4.571   2.664   4.720
 9815SOL    HW130344   4.475   2.685   4.737
 9815SOL    HW230345   4.629   2.716   4.783
 9816SOL     OW30346   1.375   0.530   0.656
 9816SOL    HW130347   1.464   0.566   0.627
 9816SOL    HW230348   1.384   0.434   0.680
 9817SOL     OW30349   0.581   0.117   3.479
 9817SOL    HW130350   0.571   0.202   3.531
 9817SOL    HW230351   0.611   0.138   3.386
 9818SOL     OW30352   6.217   2.131   4.662
 9818SOL    HW130353   6.310   2.154   4.691
 9818SOL    HW230354   6.155   2.138   4.741
 9819SOL     OW30355   3.602   1.763   3.417
 9819SOL    HW130356   3.547   1.724   3.343
 9819SOL    HW230357   3.591   1.862   3.418
 9820SOL     OW30358   3.574   4.582   5.702
 9820SOL    HW130359   3.551   4.487   5.682
 9820SOL    HW230360   3.610   4.588   5.795
 9821SOL     OW30361   5.144   5.772   6.908
 9821SOL    HW130362   5.213   5.828   6.862
 9821SOL    HW230363   5.080   5.735   6.841
 9822SOL     OW30364   0.479   6.974   2.535
 9822SOL    HW130365   0.531   0.034   2.507
 9822SOL    HW230366   0.390   7.002   2.570
 9823SOL     OW30367   3.463   0.761   2.871
 9823SOL    HW130368   3.530   0.693   2.898
 9823SOL    HW230369   3.480   0.847   2.920
 9824SOL     OW30370   1.010   4.359   5.505
 9824SOL    HW130371   1.096   4.319   5.473
 9824SOL    HW230372   0.964   4.294   5.565
 9825SOL     OW30373   3.631   5.160   5.719
 9825SOL    HW130374   3.580   5.093   5.772
 9825SOL    HW230375   3.607   5.152   5.622
 9826SOL     OW30376   4.288   6.166   6.241
 9826SOL    HW130377   4.345   6.084   6.249
 9826SOL    HW230378   4.323   6.237   6.302
 9827SOL     OW30379   1.863   4.145   4.891
 9827SOL    HW130380   1.870   4.085   4.971
 9827SOL    HW230381   1.898   4.236   4.915
 9828SOL     OW30382   3.904   2.514   6.782
 9828SOL    HW130383   3.886   2.594   6.838
 9828SOL    HW230384   3.996   2.479   6.803
 9829SOL     OW30385   3.071   6.319   0.246
 9829SOL    HW130386   3.004   6.394   0.245
 9829SOL    HW230387   3.038   6.244   0.189
 9830SOL     OW30388   5.499   1.484   0.822
 9830SOL    HW130389   5.448   1.398   0.819
 9830SOL    HW230390   5.490   1.530   0.733
 9831SOL     OW30391   1.230   6.236   1.359
 9831SOL    HW130392   1.178   6.283   1.289
 9831SOL    HW230393   1.272   6.303   1.421
 9832SOL     OW30394   4.509   5.533   2.232
 9832SOL    HW130395   4.486   5.555   2.326
 9832SOL    HW230396   4.433   5.560   2.172
 9833SOL     OW30397   3.386   3.944   4.747
 9833SOL    HW130398   3.403   3.920   4.843
 9833SOL    HW230399   3.344   3.866   4.700
 9834SOL     OW30400   2.564   4.015   5.926
 9834SOL    HW130401   2.651   4.063   5.936
 9834SOL    HW230402   2.556   3.978   5.834
 9835SOL     OW30403   4.923   1.468   4.388
 9835SOL    HW130404   4.949   1.544   4.447
 9835SOL    HW230405   4.851   1.414   4.431
 9836SOL     OW30406   5.629   3.618   3.235
 9836SOL    HW130407   5.530   3.623   3.249
 9836SOL    HW230408   5.658   3.522   3.233
 9837SOL     OW30409   2.325   0.279   4.248
 9837SOL    HW130410   2.282   0.201   4.202
 9837SOL    HW230411   2.420   0.257   4.269
 9838SOL     OW30412   1.347   6.708   6.093
 9838SOL    HW130413   1.258   6.664   6.083
 9838SOL    HW230414   1.418   6.638   6.102
 9839SOL     OW30415   0.067   1.808   1.896
 9839SOL    HW130416   0.097   1.893   1.939
 9839SOL    HW230417   0.015   1.754   1.963
 9840SOL     OW30418   0.325   0.913   0.613
 9840SOL    HW130419   0.253   0.972   0.648
 9840SOL    HW230420   0.341   0.838   0.677
 9841SOL     OW30421   1.248   3.967   4.936
 9841SOL    HW130422   1.169   3.964   4.998
 9841SOL    HW230423   1.259   3.878   4.893
 9842SOL     OW30424   3.537   3.229   3.708
 9842SOL    HW130425   3.609   3.295   3.689
 9842SOL    HW230426   3.453   3.256   3.661
 9843SOL     OW30427   6.125   1.980   1.311
 9843SOL    HW130428   6.169   2.069   1.299
 9843SOL    HW230429   6.125   1.956   1.408
 9844SOL     OW30430   4.270   6.923   2.927
 9844SOL    HW130431   4.204   6.916   2.852
 9844SOL    HW230432   4.224   6.906   3.014
 9845SOL     OW30433   2.622   1.750   4.896
 9845SOL    HW130434   2.636   1.708   4.985
 9845SOL    HW230435   2.706   1.797   4.867
 9846SOL     OW30436   3.059   3.740   3.263
 9846SOL    HW130437   2.983   3.682   3.292
 9846SOL    HW230438   3.120   3.756   3.340
 9847SOL     OW30439   3.090   3.196   6.287
 9847SOL    HW130440   3.000   3.230   6.313
 9847SOL    HW230441   3.160   3.261   6.315
 9848SOL     OW30442   4.338   2.619   6.275
 9848SOL    HW130443   4.423   2.634   6.224
 9848SOL    HW230444   4.357   2.561   6.354
 9849SOL     OW30445   6.387   0.476   6.616
 9849SOL    HW130446   6.411   0.565   6.576
 9849SOL    HW230447   6.350   0.490   6.707
 9850SOL     OW30448   4.083   6.472   2.707
 9850SOL    HW130449   3.986   6.460   2.727
 9850SOL    HW230450   4.127   6.383   2.697
 9851SOL     OW30451   4.242   1.723   5.095
 9851SOL    HW130452   4.259   1.720   5.194
 9851SOL    HW230453   4.144   1.714   5.078
 9852SOL     OW30454   4.438   1.597   3.432
 9852SOL    HW130455   4.537   1.613   3.433
 9852SOL    HW230456   4.391   1.680   3.401
 9853SOL     OW30457   5.161   3.923   2.360
 9853SOL    HW130458   5.234   3.951   2.422
 9853SOL    HW230459   5.084   3.888   2.412
 9854SOL     OW30460   6.068   4.914   4.874
 9854SOL    HW130461   6.057   4.844   4.804
 9854SOL    HW230462   6.085   5.003   4.831
 9855SOL     OW30463   0.752   4.576   1.372
 9855SOL    HW130464   0.714   4.649   1.429
 9855SOL    HW230465   0.850   4.566   1.390
 9856SOL     OW30466   4.063   4.164   0.503
 9856SOL    HW130467   3.987   4.102   0.523
 9856SOL    HW230468   4.134   4.114   0.454
 9857SOL     OW30469   5.090   1.657   2.963
 9857SOL    HW130470   5.051   1.671   3.054
 9857SOL    HW230471   5.017   1.631   2.899
 9858SOL     OW30472   5.117   0.678   1.894
 9858SOL    HW130473   5.082   0.712   1.981
 9858SOL    HW230474   5.157   0.754   1.842
 9859SOL     OW30475   6.492   0.049   1.673
 9859SOL    HW130476   6.556   0.038   1.597
 9859SOL    HW230477   6.445   6.984   1.690
 9860SOL     OW30478   0.352   1.187   1.722
 9860SOL    HW130479   0.263   1.174   1.678
 9860SOL    HW230480   0.383   1.282   1.707
 9861SOL     OW30481   3.614   6.680   4.907
 9861SOL    HW130482   3.616   6.735   4.823
 9861SOL    HW230483   3.532   6.701   4.959
 9862SOL     OW30484   2.287   3.284   0.587
 9862SOL    HW130485   2.370   3.304   0.640
 9862SOL    HW230486   2.311   3.229   0.507
 9863SOL     OW30487   2.987   6.973   2.984
 9863SOL    HW130488   3.000   6.957   2.886
 9863SOL    HW230489   2.944   0.041   2.997
 9864SOL     OW30490   4.335   6.266   3.613
 9864SOL    HW130491   4.300   6.197   3.550
 9864SOL    HW230492   4.263   6.331   3.635
 9865SOL     OW30493   0.619   0.699   3.218
 9865SOL    HW130494   0.601   0.693   3.119
 9865SOL    HW230495   0.695   0.761   3.234
 9866SOL     OW30496   5.038   4.352   4.540
 9866SOL    HW130497   5.053   4.306   4.628
 9866SOL    HW230498   5.099   4.313   4.471
 9867SOL     OW30499   4.045   0.859   0.438
 9867SOL    HW130500   4.020   0.772   0.481
 9867SOL    HW230501   4.145   0.864   0.429
 9868SOL     OW30502   0.980   4.899   6.618
 9868SOL    HW130503   0.950   4.982   6.667
 9868SOL    HW230504   1.062   4.863   6.662
 9869SOL     OW30505   1.924   4.007   3.581
 9869SOL    HW130506   2.013   3.991   3.623
 9869SOL    HW230507   1.867   3.926   3.591
 9870SOL     OW30508   4.593   5.828   2.342
 9870SOL    HW130509   4.673   5.769   2.332
 9870SOL    HW230510   4.621   5.918   2.375
 9871SOL     OW30511   1.351   0.101   6.077
 9871SOL    HW130512   1.321   0.176   6.135
 9871SOL    HW230513   1.357   0.017   6.130
 9872SOL     OW30514   2.574   5.319   2.926
 9872SOL    HW130515   2.564   5.220   2.935
 9872SOL    HW230516   2.554   5.346   2.832
 9873SOL     OW30517   2.385   2.635   0.884
 9873SOL    HW130518   2.351   2.723   0.914
 9873SOL    HW230519   2.331   2.603   0.805
 9874SOL     OW30520   0.734   1.798   4.168
 9874SOL    HW130521   0.790   1.828   4.245
 9874SOL    HW230522   0.637   1.814   4.189
 9875SOL     OW30523   0.527   0.508   2.050
 9875SOL    HW130524   0.486   0.417   2.041
 9875SOL    HW230525   0.498   0.549   2.137
 9876SOL     OW30526   6.820   0.847   2.462
 9876SOL    HW130527   6.912   0.878   2.437
 9876SOL    HW230528   6.758   0.925   2.468
 9877SOL     OW30529   1.993   6.192   2.647
 9877SOL    HW130530   1.931   6.138   2.589
 9877SOL    HW230531   2.086   6.185   2.611
 9878SOL     OW30532   2.179   5.349   5.864
 9878SOL    HW130533   2.221   5.439   5.854
 9878SOL    HW230534   2.084   5.352   5.833
 9879SOL     OW30535   5.662   5.116   4.432
 9879SOL    HW130536   5.617   5.160   4.510
 9879SOL    HW230537   5.710   5.184   4.378
 9880SOL     OW30538   1.794   3.115   5.227
 9880SOL    HW130539   1.777   3.159   5.138
 9880SOL    HW230540   1.854   3.037   5.215
 9881SOL     OW30541   1.680   2.585   5.002
 9881SOL    HW130542   1.780   2.583   4.997
 9881SOL    HW230543   1.645   2.492   4.998
 9882SOL     OW30544   1.564   2.142   3.623
 9882SOL    HW130545   1.608   2.136   3.534
 9882SOL    HW230546   1.621   2.095   3.691
 9883SOL     OW30547   0.823   5.847   1.088
 9883SOL    HW130548   0.910   5.799   1.075
 9883SOL    HW230549   0.807   5.909   1.011
 9884SOL     OW30550   4.098   1.626   3.421
 9884SOL    HW130551   4.151   1.677   3.353
 9884SOL    HW230552   4.131   1.648   3.513
 9885SOL     OW30553   0.145   3.553   5.483
 9885SOL    HW130554   0.190   3.464   5.489
 9885SOL    HW230555   0.046   3.541   5.483
 9886SOL     OW30556   0.645   4.876   2.621
 9886SOL    HW130557   0.646   4.959   2.678
 9886SOL    HW230558   0.724   4.878   2.559
 9887SOL     OW30559   3.766   1.624   6.027
 9887SOL    HW130560   3.743   1.543   6.081
 9887SOL    HW230561   3.752   1.706   6.082
 9888SOL     OW30562   0.369   4.093   1.049
 9888SOL    HW130563   0.442   4.114   1.115
 9888SOL    HW230564   0.280   4.099   1.095
 9889SOL     OW30565   6.794   5.275   0.956
 9889SOL    HW130566   6.742   5.257   0.872
 9889SOL    HW230567   6.891   5.275   0.936
 9890SOL     OW30568   1.866   1.966   0.169
 9890SOL    HW130569   1.769   1.950   0.155
 9890SOL    HW230570   1.913   1.964   0.081
 9891SOL     OW30571   5.996   3.036   0.390
 9891SOL    HW130572   5.947   3.035   0.478
 9891SOL    HW230573   6.094   3.034   0.406
 9892SOL     OW30574   6.589   6.029   0.022
 9892SOL    HW130575   6.603   6.069   6.953
 9892SOL    HW230576   6.498   5.986   0.026
 9893SOL     OW30577   1.665   0.513   0.963
 9893SOL    HW130578   1.759   0.520   0.997
 9893SOL    HW230579   1.608   0.582   1.008
 9894SOL     OW30580   2.054   2.384   1.482
 9894SOL    HW130581   2.140   2.426   1.510
 9894SOL    HW230582   2.035   2.404   1.386
 9895SOL     OW30583   5.230   3.345   5.278
 9895SOL    HW130584   5.174   3.391   5.347
 9895SOL    HW230585   5.271   3.413   5.218
 9896SOL     OW30586   6.183   6.886   6.191
 9896SOL    HW130587   6.231   6.858   6.274
 9896SOL    HW230588   6.212   6.978   6.165
 9897SOL     OW30589   5.526   5.686   2.911
 9897SOL    HW130590   5.567   5.761   2.963
 9897SOL    HW230591   5.461   5.637   2.970
 9898SOL     OW30592   2.286   5.850   6.522
 9898SOL    HW130593   2.297   5.777   6.455
 9898SOL    HW230594   2.330   5.934   6.489
 9899SOL     OW30595   0.015   5.795   0.790
 9899SOL    HW130596   0.083   5.860   0.756
 9899SOL    HW230597   6.954   5.801   0.735
 9900SOL     OW30598   1.596   3.898   3.789
 9900SOL    HW130599   1.564   3.823   3.731
 9900SOL    HW230600   1.547   3.982   3.764
 9901SOL     OW30601   3.023   1.452   6.099
 9901SOL    HW130602   2.942   1.409   6.138
 9901SOL    HW230603   2.999   1.541   6.061
 9902SOL     OW30604   2.656   5.149   6.864
 9902SOL    HW130605   2.564   5.128   6.897
 9902SOL    HW230606   2.717   5.072   6.884
 9903SOL     OW30607   5.078   1.131   2.127
 9903SOL    HW130608   5.155   1.108   2.186
 9903SOL    HW230609   4.992   1.113   2.175
 9904SOL     OW30610   1.247   2.877   6.796
 9904SOL    HW130611   1.147   2.880   6.805
 9904SOL    HW230612   1.287   2.960   6.834
 9905SOL     OW30613   3.487   0.994   6.995
 9905SOL    HW130614   3.485   1.083   6.948
 9905SOL    HW230615   3.580   0.976   0.005
 9906SOL     OW30616   2.999   3.586   1.692
 9906SOL    HW130617   2.962   3.526   1.621
 9906SOL    HW230618   3.095   3.561   1.709
 9907SOL     OW30619   6.315   0.987   0.013
 9907SOL    HW130620   6.261   1.061   6.994
 9907SOL    HW230621   6.401   1.024   0.049
 9908SOL     OW30622   5.180   1.622   3.599
 9908SOL    HW130623   5.132   1.534   3.600
 9908SOL    HW230624   5.240   1.628   3.679
 9909SOL     OW30625   3.995   6.959   4.169
 9909SOL    HW130626   4.064   0.008   4.162
 9909SOL    HW230627   3.905   7.001   4.184
 9910SOL     OW30628   0.668   3.657   2.206
 9910SOL    HW130629   0.619   3.742   2.225
 9910SOL    HW230630   0.603   3.587   2.178
 9911SOL     OW30631   3.349   6.849   2.223
 9911SOL    HW130632   3.281   6.891   2.283
 9911SOL    HW230633   3.439   6.852   2.266
 9912SOL     OW30634   4.096   1.904   1.802
 9912SOL    HW130635   4.030   1.976   1.825
 9912SOL    HW230636   4.048   1.819   1.780
 9913SOL     OW30637   6.575   4.128   0.571
 9913SOL    HW130638   6.554   4.093   0.663
 9913SOL    HW230639   6.577   4.228   0.573
 9914SOL     OW30640   5.794   2.921   5.066
 9914SOL    HW130641   5.826   2.904   5.159
 9914SOL    HW230642   5.718   2.858   5.045
 9915SOL     OW30643   4.795   0.746   3.476
 9915SOL    HW130644   4.709   0.747   3.527
 9915SOL    HW230645   4.787   0.807   3.396
 9916SOL     OW30646   2.127   3.248   2.915
 9916SOL    HW130647   2.131   3.267   3.013
 9916SOL    HW230648   2.151   3.152   2.899
 9917SOL     OW30649   6.008   3.701   6.801
 9917SOL    HW130650   5.996   3.720   6.898
 9917SOL    HW230651   5.942   3.756   6.748
 9918SOL     OW30652   3.274   1.457   3.132
 9918SOL    HW130653   3.219   1.429   3.211
 9918SOL    HW230654   3.214   1.496   3.062
 9919SOL     OW30655   5.939   5.740   1.462
 9919SOL    HW130656   5.911   5.835   1.475
 9919SOL    HW230657   6.030   5.738   1.419
 9920SOL     OW30658   4.537   1.896   1.760
 9920SOL    HW130659   4.534   1.993   1.782
 9920SOL    HW230660   4.449   1.868   1.720
 9921SOL     OW30661   4.651   5.782   6.187
 9921SOL    HW130662   4.743   5.817   6.202
 9921SOL    HW230663   4.650   5.683   6.198
 9922SOL     OW30664   1.647   4.781   0.751
 9922SOL    HW130665   1.728   4.834   0.775
 9922SOL    HW230666   1.576   4.796   0.820
 9923SOL     OW30667   4.728   4.482   6.922
 9923SOL    HW130668   4.655   4.546   6.898
 9923SOL    HW230669   4.789   4.471   6.844
 9924SOL     OW30670   6.977   2.322   4.811
 9924SOL    HW130671   6.975   2.247   4.745
 9924SOL    HW230672   0.019   2.300   4.885
 9925SOL     OW30673   6.360   3.778   4.187
 9925SOL    HW130674   6.401   3.744   4.272
 9925SOL    HW230675   6.400   3.728   4.110
 9926SOL     OW30676   2.805   3.161   0.432
 9926SOL    HW130677   2.722   3.148   0.379
 9926SOL    HW230678   2.804   3.253   0.473
 9927SOL     OW30679   6.953   0.307   1.363
 9927SOL    HW130680   0.005   0.374   1.372
 9927SOL    HW230681   6.992   0.215   1.354
 9928SOL     OW30682   4.842   6.093   1.670
 9928SOL    HW130683   4.851   6.092   1.769
 9928SOL    HW230684   4.763   6.038   1.643
 9929SOL     OW30685   2.055   5.301   5.212
 9929SOL    HW130686   2.004   5.216   5.198
 9929SOL    HW230687   2.132   5.304   5.149
 9930SOL     OW30688   6.234   0.087   5.208
 9930SOL    HW130689   6.228   0.144   5.291
 9930SOL    HW230690   6.327   0.090   5.173
 9931SOL     OW30691   1.037   4.673   4.566
 9931SOL    HW130692   1.114   4.699   4.508
 9931SOL    HW230693   1.068   4.606   4.634
 9932SOL     OW30694   1.952   5.091   6.793
 9932SOL    HW130695   1.882   5.046   6.848
 9932SOL    HW230696   1.996   5.162   6.847
 9933SOL     OW30697   1.609   4.879   2.770
 9933SOL    HW130698   1.664   4.897   2.851
 9933SOL    HW230699   1.532   4.820   2.793
 9934SOL     OW30700   6.095   1.503   5.354
 9934SOL    HW130701   6.046   1.421   5.324
 9934SOL    HW230702   6.073   1.522   5.449
 9935SOL     OW30703   3.310   0.324   6.890
 9935SOL    HW130704   3.310   0.231   6.925
 9935SOL    HW230705   3.400   0.345   6.853
 9936SOL     OW30706   6.672   5.031   5.836
 9936SOL    HW130707   6.743   5.022   5.905
 9936SOL    HW230708   6.595   4.972   5.858
 9937SOL     OW30709   6.853   1.844   5.975
 9937SOL    HW130710   6.833   1.898   6.057
 9937SOL    HW230711   6.791   1.766   5.971
 9938SOL     OW30712   6.398   5.521   3.184
 9938SOL    HW130713   6.497   5.536   3.184
 9938SOL    HW230714   6.380   5.423   3.170
 9939SOL     OW30715   3.816   2.118   0.183
 9939SOL    HW130716   3.911   2.100   0.209
 9939SOL    HW230717   3.813   2.150   0.089
 9940SOL     OW30718   0.946   0.856   0.707
 9940SOL    HW130719   0.855   0.884   0.736
 9940SOL    HW230720   0.991   0.933   0.661
 9941SOL     OW30721   3.158   3.811   5.065
 9941SOL    HW130722   3.062   3.832   5.042
 9941SOL    HW230723   3.212   3.895   5.062
 9942SOL     OW30724   2.143   5.346   2.737
 9942SOL    HW130725   2.111   5.309   2.825
 9942SOL    HW230726   2.130   5.277   2.666
 9943SOL     OW30727   6.892   5.666   5.364
 9943SOL    HW130728   6.969   5.604   5.353
 9943SOL    HW230729   6.875   5.681   5.462
 9944SOL     OW30730   2.109   4.426   5.977
 9944SOL    HW130731   2.134   4.509   5.928
 9944SOL    HW230732   2.121   4.347   5.916
 9945SOL     OW30733   6.308   5.539   0.126
 9945SOL    HW130734   6.366   5.506   0.052
 9945SOL    HW230735   6.212   5.527   0.101
 9946SOL     OW30736   4.944   0.897   4.634
 9946SOL    HW130737   4.965   0.922   4.539
 9946SOL    HW230738   4.848   0.872   4.642
 9947SOL     OW30739   1.212   3.893   5.568
 9947SOL    HW130740   1.163   3.811   5.597
 9947SOL    HW230741   1.173   3.926   5.482
 9948SOL     OW30742   5.043   4.597   3.996
 9948SOL    HW130743   5.068   4.521   3.936
 9948SOL    HW230744   5.029   4.563   4.089
 9949SOL     OW30745   5.017   5.186   3.264
 9949SOL    HW130746   4.992   5.270   3.217
 9949SOL    HW230747   5.116   5.183   3.278
 9950SOL     OW30748   5.815   5.960   5.394
 9950SOL    HW130749   5.860   6.036   5.441
 9950SOL    HW230750   5.884   5.897   5.357
 9951SOL     OW30751   6.033   1.654   4.275
 9951SOL    HW130752   6.010   1.605   4.191
 9951SOL    HW230753   6.074   1.742   4.252
 9952SOL     OW30754   0.185   3.485   0.810
 9952SOL    HW130755   0.143   3.525   0.892
 9952SOL    HW230756   0.231   3.557   0.759
 9953SOL     OW30757   6.097   2.758   3.746
 9953SOL    HW130758   6.045   2.834   3.707
 9953SOL    HW230759   6.034   2.684   3.769
 9954SOL     OW30760   5.919   6.049   6.094
 9954SOL    HW130761   5.925   5.950   6.091
 9954SOL    HW230762   6.011   6.089   6.097
 9955SOL     OW30763   6.421   3.317   4.818
 9955SOL    HW130764   6.425   3.319   4.918
 9955SOL    HW230765   6.514   3.307   4.781
 9956SOL     OW30766   2.627   6.900   1.769
 9956SOL    HW130767   2.694   6.833   1.800
 9956SOL    HW230768   2.561   6.855   1.709
 9957SOL     OW30769   5.161   5.152   2.647
 9957SOL    HW130770   5.243   5.180   2.697
 9957SOL    HW230771   5.087   5.216   2.667
 9958SOL     OW30772   3.187   5.113   0.431
 9958SOL    HW130773   3.136   5.053   0.370
 9958SOL    HW230774   3.264   5.064   0.471
 9959SOL     OW30775   4.132   3.561   5.732
 9959SOL    HW130776   4.152   3.632   5.799
 9959SOL    HW230777   4.155   3.594   5.641
 9960SOL     OW30778   0.203   0.527   1.845
 9960SOL    HW130779   0.272   0.591   1.880
 9960SOL    HW230780   0.159   0.482   1.923
 9961SOL     OW30781   1.885   6.434   4.209
 9961SOL    HW130782   1.955   6.455   4.277
 9961SOL    HW230783   1.812   6.503   4.213
 9962SOL     OW30784   6.726   6.745   3.171
 9962SOL    HW130785   6.755   6.706   3.084
 9962SOL    HW230786   6.628   6.766   3.167
 9963SOL     OW30787   3.151   3.071   6.725
 9963SOL    HW130788   3.120   3.051   6.632
 9963SOL    HW230789   3.097   3.146   6.763
 9964SOL     OW30790   4.535   5.127   4.970
 9964SOL    HW130791   4.538   5.205   5.032
 9964SOL    HW230792   4.439   5.104   4.950
 9965SOL     OW30793   3.665   6.609   6.667
 9965SOL    HW130794   3.704   6.589   6.577
 9965SOL    HW230795   3.692   6.702   6.695
 9966SOL     OW30796   1.138   5.162   1.578
 9966SOL    HW130797   1.216   5.100   1.586
 9966SOL    HW230798   1.075   5.147   1.655
 9967SOL     OW30799   0.085   5.702   2.756
 9967SOL    HW130800   0.116   5.607   2.749
 9967SOL    HW230801   0.061   5.722   2.851
 9968SOL     OW30802   3.703   4.331   1.611
 9968SOL    HW130803   3.796   4.356   1.637
 9968SOL    HW230804   3.705   4.253   1.549
 9969SOL     OW30805   2.103   3.838   2.384
 9969SOL    HW130806   2.119   3.863   2.289
 9969SOL    HW230807   2.102   3.739   2.393
 9970SOL     OW30808   5.201   4.318   1.965
 9970SOL    HW130809   5.141   4.251   1.923
 9970SOL    HW230810   5.149   4.400   1.988
 9971SOL     OW30811   1.680   5.025   1.164
 9971SOL    HW130812   1.653   5.038   1.260
 9971SOL    HW230813   1.611   5.064   1.104
 9972SOL     OW30814   5.740   4.638   1.240
 9972SOL    HW130815   5.825   4.648   1.190
 9972SOL    HW230816   5.758   4.632   1.338
 9973SOL     OW30817   5.701   1.824   3.435
 9973SOL    HW130818   5.801   1.833   3.433
 9973SOL    HW230819   5.669   1.831   3.529
 9974SOL     OW30820   0.511   2.362   2.665
 9974SOL    HW130821   0.412   2.360   2.679
 9974SOL    HW230822   0.555   2.296   2.726
 9975SOL     OW30823   6.068   3.430   0.394
 9975SOL    HW130824   6.035   3.356   0.336
 9975SOL    HW230825   6.006   3.440   0.472
 9976SOL     OW30826   1.021   5.981   5.316
 9976SOL    HW130827   1.011   5.954   5.412
 9976SOL    HW230828   1.119   5.985   5.293
 9977SOL     OW30829   6.006   5.795   5.283
 9977SOL    HW130830   6.049   5.789   5.193
 9977SOL    HW230831   6.076   5.786   5.354
 9978SOL     OW30832   0.943   2.704   4.854
 9978SOL    HW130833   0.902   2.621   4.817
 9978SOL    HW230834   0.978   2.760   4.779
 9979SOL     OW30835   5.996   4.524   5.227
 9979SOL    HW130836   5.967   4.429   5.216
 9979SOL    HW230837   6.057   4.550   5.152
 9980SOL     OW30838   2.889   6.871   0.011
 9980SOL    HW130839   2.838   6.869   0.096
 9980SOL    HW230840   2.944   6.955   0.007
 9981SOL     OW30841   2.762   1.696   2.950
 9981SOL    HW130842   2.799   1.606   2.929
 9981SOL    HW230843   2.672   1.686   2.992
 9982SOL     OW30844   6.268   5.515   3.780
 9982SOL    HW130845   6.337   5.561   3.836
 9982SOL    HW230846   6.256   5.564   3.694
 9983SOL     OW30847   7.012   1.657   2.902
 9983SOL    HW130848   0.087   1.644   2.876
 9983SOL    HW230849   6.953   1.638   2.823
 9984SOL     OW30850   2.413   1.879   6.844
 9984SOL    HW130851   2.423   1.787   6.805
 9984SOL    HW230852   2.441   1.946   6.775
 9985SOL     OW30853   2.302   0.780   1.173
 9985SOL    HW130854   2.224   0.728   1.210
 9985SOL    HW230855   2.336   0.842   1.243
 9986SOL     OW30856   6.144   4.103   5.600
 9986SOL    HW130857   6.071   4.145   5.547
 9986SOL    HW230858   6.209   4.058   5.538
 9987SOL     OW30859   5.424   3.244   5.814
 9987SOL    HW130860   5.405   3.162   5.868
 9987SOL    HW230861   5.343   3.303   5.812
 9988SOL     OW30862   0.026   6.789   4.818
 9988SOL    HW130863   0.081   6.851   4.762
 9988SOL    HW230864   0.069   6.698   4.819
 9989SOL     OW30865   6.760   3.047   3.844
 9989SOL    HW130866   6.726   3.094   3.763
 9989SOL    HW230867   6.832   3.102   3.886
 9990SOL     OW30868   1.622   5.513   3.624
 9990SOL    HW130869   1.617   5.610   3.649
 9990SOL    HW230870   1.535   5.469   3.647
 9991SOL     OW30871   3.094   2.087   4.850
 9991SOL    HW130872   3.159   2.134   4.790
 9991SOL    HW230873   3.064   2.150   4.921
 9992SOL     OW30874   5.947   5.200   6.551
 9992SOL    HW130875   5.975   5.118   6.502
 9992SOL    HW230876   5.919   5.176   6.644
 9993SOL     OW30877   2.554   1.571   0.990
 9993SOL    HW130878   2.602   1.591   1.075
 9993SOL    HW230879   2.618   1.535   0.923
 9994SOL     OW30880   5.982   4.348   2.905
 9994SOL    HW130881   5.987   4.340   3.005
 9994SOL    HW230882   6.039   4.278   2.863
 9995SOL     OW30883   4.642   1.595   3.691
 9995SOL    HW130884   4.694   1.517   3.725
 9995SOL    HW230885   4.631   1.587   3.592
 9996SOL     OW30886   2.904   4.120   0.138
 9996SOL    HW130887   2.827   4.159   0.087
 9996SOL    HW230888   2.952   4.193   0.186
 9997SOL     OW30889   3.224   1.365   5.884
 9997SOL    HW130890   3.156   1.370   5.956
 9997SOL    HW230891   3.252   1.270   5.871
 9998SOL     OW30892   6.092   5.174   4.775
 9998SOL    HW130893   6.004   5.144   4.739
 9998SOL    HW230894   6.078   5.252   4.836
 9999SOL     OW30895   6.281   2.929   5.846
 9999SOL    HW130896   6.210   2.904   5.911
 9999SOL    HW230897   6.263   3.021   5.809
10000SOL     OW30898   6.642   3.072   0.140
10000SOL    HW130899   6.630   3.028   0.051
10000SOL    HW230900   6.687   3.161   0.126
10001SOL     OW30901   4.597   0.792   2.021
10001SOL    HW130902   4.634   0.752   1.938
10001SOL    HW230903   4.512   0.745   2.046
10002SOL     OW30904   1.389   6.633   2.103
10002SOL    HW130905   1.317   6.661   2.166
10002SOL    HW230906   1.469   6.602   2.154
10003SOL     OW30907   3.309   2.116   3.963
10003SOL    HW130908   3.380   2.081   3.902
10003SOL    HW230909   3.278   2.205   3.930
10004SOL     OW30910   6.572   2.623   3.759
10004SOL    HW130911   6.617   2.553   3.814
10004SOL    HW230912   6.473   2.611   3.765
10005SOL     OW30913   5.300   0.398   3.211
10005SOL    HW130914   5.241   0.317   3.211
10005SOL    HW230915   5.277   0.456   3.290
10006SOL     OW30916   4.168   0.137   4.148
10006SOL    HW130917   4.096   0.206   4.135
10006SOL    HW230918   4.256   0.183   4.158
10007SOL     OW30919   0.261   3.941   4.607
10007SOL    HW130920   0.258   4.017   4.542
10007SOL    HW230921   0.185   3.948   4.671
10008SOL     OW30922   3.622   0.599   4.470
10008SOL    HW130923   3.610   0.687   4.424
10008SOL    HW230924   3.684   0.609   4.547
10009SOL     OW30925   1.716   4.244   2.178
10009SOL    HW130926   1.654   4.178   2.135
10009SOL    HW230927   1.736   4.213   2.271
10010SOL     OW30928   2.241   1.091   6.888
10010SOL    HW130929   2.169   1.029   6.919
10010SOL    HW230930   2.328   1.063   6.930
10011SOL     OW30931   6.777   0.636   5.254
10011SOL    HW130932   6.765   0.705   5.183
10011SOL    HW230933   6.701   0.570   5.249
10012SOL     OW30934   6.114   1.052   3.169
10012SOL    HW130935   6.037   0.993   3.194
10012SOL    HW230936   6.126   1.122   3.239
10013SOL     OW30937   0.574   1.150   2.804
10013SOL    HW130938   0.585   1.074   2.740
10013SOL    HW230939   0.597   1.120   2.896
10014SOL     OW30940   0.981   4.147   6.222
10014SOL    HW130941   0.983   4.130   6.123
10014SOL    HW230942   0.888   4.134   6.256
10015SOL     OW30943   1.774   5.112   0.375
10015SOL    HW130944   1.842   5.054   0.420
10015SOL    HW230945   1.757   5.080   0.282
10016SOL     OW30946   1.626   1.105   6.406
10016SOL    HW130947   1.546   1.085   6.461
10016SOL    HW230948   1.704   1.050   6.438
10017SOL     OW30949   2.778   2.306   4.763
10017SOL    HW130950   2.742   2.355   4.842
10017SOL    HW230951   2.812   2.372   4.696
10018SOL     OW30952   5.491   6.935   6.390
10018SOL    HW130953   5.547   7.008   6.349
10018SOL    HW230954   5.434   6.974   6.463
10019SOL     OW30955   1.188   1.460   3.087
10019SOL    HW130956   1.211   1.557   3.088
10019SOL    HW230957   1.258   1.410   3.035
10020SOL     OW30958   1.332   2.679   1.797
10020SOL    HW130959   1.340   2.634   1.886
10020SOL    HW230960   1.377   2.768   1.801
10021SOL     OW30961   6.985   3.363   0.696
10021SOL    HW130962   0.039   3.403   0.748
10021SOL    HW230963   6.914   3.432   0.682
10022SOL     OW30964   1.931   1.234   6.352
10022SOL    HW130965   1.870   1.157   6.332
10022SOL    HW230966   1.950   1.237   6.449
10023SOL     OW30967   6.625   3.737   0.647
10023SOL    HW130968   6.548   3.673   0.647
10023SOL    HW230969   6.614   3.804   0.719
10024SOL     OW30970   1.243   5.526   3.959
10024SOL    HW130971   1.303   5.540   4.038
10024SOL    HW230972   1.295   5.483   3.885
10025SOL     OW30973   2.249   0.419   1.325
10025SOL    HW130974   2.278   0.373   1.242
10025SOL    HW230975   2.191   0.498   1.301
10026SOL     OW30976   5.866   0.403   3.249
10026SOL    HW130977   5.923   0.449   3.181
10026SOL    HW230978   5.801   0.343   3.203
10027SOL     OW30979   5.542   3.395   4.357
10027SOL    HW130980   5.624   3.354   4.315
10027SOL    HW230981   5.508   3.468   4.299
10028SOL     OW30982   1.900   0.740   0.428
10028SOL    HW130983   1.860   0.661   0.382
10028SOL    HW230984   1.828   0.798   0.465
10029SOL     OW30985   5.515   1.608   3.347
10029SOL    HW130986   5.530   1.510   3.358
10029SOL    HW230987   5.589   1.658   3.393
10030SOL     OW30988   2.199   0.708   4.049
10030SOL    HW130989   2.261   0.669   3.980
10030SOL    HW230990   2.107   0.714   4.011
10031SOL     OW30991   5.186   4.479   3.119
10031SOL    HW130992   5.172   4.559   3.060
10031SOL    HW230993   5.168   4.395   3.067
10032SOL     OW30994   2.631   1.901   5.354
10032SOL    HW130995   2.632   1.815   5.405
10032SOL    HW230996   2.615   1.976   5.418
10033SOL     OW30997   5.656   3.079   4.324
10033SOL    HW130998   5.577   3.048   4.377
10033SOL    HW230999   5.626   3.106   4.232
10034SOL     OW31000   3.870   0.258   5.499
10034SOL    HW131001   3.855   0.354   5.521
10034SOL    HW231002   3.807   0.231   5.426
10035SOL     OW31003   6.822   4.828   1.413
10035SOL    HW131004   6.722   4.831   1.424
10035SOL    HW231005   6.862   4.909   1.456
10036SOL     OW31006   6.548   1.655   0.133
10036SOL    HW131007   6.515   1.565   0.162
10036SOL    HW231008   6.642   1.668   0.166
10037SOL     OW31009   0.145   0.379   6.197
10037SOL    HW131010   0.148   0.313   6.271
10037SOL    HW231011   0.169   0.334   6.111
10038SOL     OW31012   6.503   6.579   1.341
10038SOL    HW131013   6.501   6.671   1.302
10038SOL    HW231014   6.535   6.514   1.271
10039SOL     OW31015   2.975   0.822   3.874
10039SOL    HW131016   2.925   0.781   3.798
10039SOL    HW231017   3.041   0.756   3.910
10040SOL     OW31018   6.706   3.173   0.791
10040SOL    HW131019   6.630   3.116   0.760
10040SOL    HW231020   6.763   3.198   0.713
10041SOL     OW31021   3.322   6.611   0.436
10041SOL    HW131022   3.388   6.624   0.362
10041SOL    HW231023   3.321   6.514   0.462
10042SOL     OW31024   6.879   2.283   2.595
10042SOL    HW131025   6.789   2.306   2.557
10042SOL    HW231026   6.866   2.222   2.673
10043SOL     OW31027   0.188   1.565   6.081
10043SOL    HW131028   0.213   1.468   6.077
10043SOL    HW231029   0.091   1.573   6.104
10044SOL     OW31030   2.400   2.289   5.381
10044SOL    HW131031   2.400   2.369   5.441
10044SOL    HW231032   2.456   2.217   5.422
10045SOL     OW31033   4.291   1.108   0.186
10045SOL    HW131034   4.259   1.055   0.264
10045SOL    HW231035   4.388   1.130   0.198
10046SOL     OW31036   1.314   5.294   1.207
10046SOL    HW131037   1.224   5.272   1.245
10046SOL    HW231038   1.379   5.307   1.282
10047SOL     OW31039   0.699   3.285   6.935
10047SOL    HW131040   0.736   3.215   6.874
10047SOL    HW231041   0.771   3.350   6.958
10048SOL     OW31042   6.042   6.676   2.459
10048SOL    HW131043   6.079   6.657   2.368
10048SOL    HW231044   6.080   6.611   2.525
10049SOL     OW31045   6.861   1.664   5.106
10049SOL    HW131046   6.854   1.724   5.027
10049SOL    HW231047   6.819   1.576   5.086
10050SOL     OW31048   5.611   3.389   5.376
10050SOL    HW131049   5.679   3.374   5.305
10050SOL    HW231050   5.645   3.354   5.463
10051SOL     OW31051   0.719   4.321   4.233
10051SOL    HW131052   0.803   4.276   4.263
10051SOL    HW231053   0.741   4.394   4.169
10052SOL     OW31054   1.439   0.308   3.622
10052SOL    HW131055   1.360   0.367   3.635
10052SOL    HW231056   1.522   0.364   3.619
10053SOL     OW31057   4.865   5.667   4.692
10053SOL    HW131058   4.814   5.593   4.647
10053SOL    HW231059   4.819   5.754   4.676
10054SOL     OW31060   5.426   3.967   4.377
10054SOL    HW131061   5.361   3.898   4.346
10054SOL    HW231062   5.415   4.050   4.323
10055SOL     OW31063   6.839   1.827   6.930
10055SOL    HW131064   6.887   1.912   6.908
10055SOL    HW231065   6.805   1.831   0.003
10056SOL     OW31066   5.292   2.944   3.171
10056SOL    HW131067   5.240   2.880   3.115
10056SOL    HW231068   5.380   2.904   3.195
10057SOL     OW31069   5.760   4.731   6.282
10057SOL    HW131070   5.741   4.690   6.193
10057SOL    HW231071   5.673   4.750   6.329
10058SOL     OW31072   6.420   3.637   4.860
10058SOL    HW131073   6.384   3.712   4.916
10058SOL    HW231074   6.373   3.552   4.883
10059SOL     OW31075   0.207   1.058   6.710
10059SOL    HW131076   0.248   1.132   6.656
10059SOL    HW231077   0.280   1.006   6.755
10060SOL     OW31078   2.595   2.139   2.784
10060SOL    HW131079   2.676   2.188   2.816
10060SOL    HW231080   2.617   2.090   2.700
10061SOL     OW31081   3.706   6.908   2.921
10061SOL    HW131082   3.671   6.837   2.984
10061SOL    HW231083   3.634   6.975   2.904
10062SOL     OW31084   6.796   0.356   4.076
10062SOL    HW131085   6.776   0.446   4.114
10062SOL    HW231086   6.857   0.307   4.137
10063SOL     OW31087   1.573   3.099   4.989
10063SOL    HW131088   1.628   3.181   5.007
10063SOL    HW231089   1.516   3.079   5.069
10064SOL     OW31090   2.928   6.411   0.579
10064SOL    HW131091   2.892   6.427   0.670
10064SOL    HW231092   2.858   6.370   0.521
10065SOL     OW31093   0.593   1.375   1.888
10065SOL    HW131094   0.504   1.372   1.934
10065SOL    HW231095   0.628   1.282   1.876
10066SOL     OW31096   6.505   3.618   4.023
10066SOL    HW131097   6.460   3.578   3.943
10066SOL    HW231098   6.538   3.545   4.083
10067SOL     OW31099   6.788   1.997   4.771
10067SOL    HW131100   6.785   2.034   4.863
10067SOL    HW231101   6.863   2.039   4.720
10068SOL     OW31102   2.372   2.324   2.833
10068SOL    HW131103   2.402   2.418   2.846
10068SOL    HW231104   2.451   2.267   2.809
10069SOL     OW31105   3.109   5.234   1.466
10069SOL    HW131106   3.123   5.329   1.437
10069SOL    HW231107   3.051   5.187   1.400
10070SOL     OW31108   3.621   5.619   5.472
10070SOL    HW131109   3.636   5.522   5.451
10070SOL    HW231110   3.654   5.675   5.396
10071SOL     OW31111   6.273   0.147   3.249
10071SOL    HW131112   6.360   0.098   3.246
10071SOL    HW231113   6.220   0.126   3.167
10072SOL     OW31114   6.699   2.445   2.001
10072SOL    HW131115   6.775   2.423   2.062
10072SOL    HW231116   6.723   2.523   1.944
10073SOL     OW31117   6.453   4.295   4.838
10073SOL    HW131118   6.454   4.195   4.844
10073SOL    HW231119   6.541   4.327   4.804
10074SOL     OW31120   1.061   4.649   0.368
10074SOL    HW131121   0.995   4.724   0.378
10074SOL    HW231122   1.132   4.677   0.303
10075SOL     OW31123   1.877   3.220   1.748
10075SOL    HW131124   1.918   3.217   1.839
10075SOL    HW231125   1.901   3.307   1.704
10076SOL     OW31126   5.170   5.681   4.133
10076SOL    HW131127   5.150   5.583   4.127
10076SOL    HW231128   5.084   5.731   4.142
10077SOL     OW31129   6.032   2.846   5.963
10077SOL    HW131130   5.949   2.900   5.977
10077SOL    HW231131   6.008   2.758   5.923
10078SOL     OW31132   6.745   6.576   4.816
10078SOL    HW131133   6.666   6.518   4.836
10078SOL    HW231134   6.829   6.527   4.842
10079SOL     OW31135   4.828   2.372   2.671
10079SOL    HW131136   4.806   2.276   2.687
10079SOL    HW231137   4.865   2.383   2.578
10080SOL     OW31138   5.266   0.240   6.469
10080SOL    HW131139   5.178   0.284   6.485
10080SOL    HW231140   5.337   0.310   6.457
10081SOL     OW31141   2.216   3.008   0.845
10081SOL    HW131142   2.162   2.925   0.859
10081SOL    HW231143   2.206   3.037   0.750
10082SOL     OW31144   1.328   4.266   1.294
10082SOL    HW131145   1.325   4.224   1.203
10082SOL    HW231146   1.337   4.365   1.285
10083SOL     OW31147   3.241   4.995   3.665
10083SOL    HW131148   3.226   5.094   3.676
10083SOL    HW231149   3.173   4.945   3.718
10084SOL     OW31150   0.851   0.811   4.704
10084SOL    HW131151   0.807   0.871   4.637
10084SOL    HW231152   0.916   0.750   4.658
10085SOL     OW31153   4.700   0.005   0.498
10085SOL    HW131154   4.638   0.051   0.435
10085SOL    HW231155   4.661   0.007   0.590
10086SOL     OW31156   0.136   6.803   2.445
10086SOL    HW131157   0.040   6.776   2.455
10086SOL    HW231158   0.146   6.862   2.365
10087SOL     OW31159   1.749   6.651   4.947
10087SOL    HW131160   1.788   6.653   5.039
10087SOL    HW231161   1.693   6.732   4.933
10088SOL     OW31162   0.136   2.384   0.137
10088SOL    HW131163   0.130   2.460   0.202
10088SOL    HW231164   0.228   2.381   0.097
10089SOL     OW31165   3.901   1.782   2.109
10089SOL    HW131166   3.883   1.688   2.080
10089SOL    HW231167   3.910   1.785   2.209
10090SOL     OW31168   2.358   6.023   2.254
10090SOL    HW131169   2.299   5.945   2.233
10090SOL    HW231170   2.411   6.003   2.336
10091SOL     OW31171   6.461   3.827   5.277
10091SOL    HW131172   6.538   3.817   5.340
10091SOL    HW231173   6.420   3.737   5.260
10092SOL     OW31174   0.510   1.463   4.204
10092SOL    HW131175   0.525   1.522   4.283
10092SOL    HW231176   0.428   1.408   4.218
10093SOL     OW31177   5.192   4.239   5.694
10093SOL    HW131178   5.118   4.172   5.683
10093SOL    HW231179   5.228   4.233   5.787
10094SOL     OW31180   3.510   1.289   1.038
10094SOL    HW131181   3.419   1.279   0.996
10094SOL    HW231182   3.516   1.232   1.119
10095SOL     OW31183   5.091   2.856   5.358
10095SOL    HW131184   5.084   2.800   5.276
10095SOL    HW231185   5.001   2.894   5.380
10096SOL     OW31186   5.350   1.612   2.905
10096SOL    HW131187   5.373   1.651   2.816
10096SOL    HW231188   5.257   1.639   2.930
10097SOL     OW31189   0.878   1.925   6.889
10097SOL    HW131190   0.791   1.926   6.840
10097SOL    HW231191   0.927   1.840   6.870
10098SOL     OW31192   3.473   5.672   3.779
10098SOL    HW131193   3.463   5.748   3.843
10098SOL    HW231194   3.389   5.617   3.779
10099SOL     OW31195   6.895   4.594   1.227
10099SOL    HW131196   6.866   4.506   1.266
10099SOL    HW231197   6.872   4.596   1.130
10100SOL     OW31198   4.454   4.966   4.226
10100SOL    HW131199   4.479   4.935   4.317
10100SOL    HW231200   4.405   5.053   4.232
10101SOL     OW31201   0.901   2.044   1.537
10101SOL    HW131202   0.991   2.010   1.510
10101SOL    HW231203   0.832   1.974   1.519
10102SOL     OW31204   6.772   6.288   2.696
10102SOL    HW131205   6.817   6.351   2.759
10102SOL    HW231206   6.674   6.287   2.713
10103SOL     OW31207   6.556   5.963   6.505
10103SOL    HW131208   6.633   6.027   6.501
10103SOL    HW231209   6.591   5.869   6.513
10104SOL     OW31210   2.080   0.313   4.769
10104SOL    HW131211   2.012   0.241   4.755
10104SOL    HW231212   2.042   0.383   4.829
10105SOL     OW31213   2.863   0.788   6.208
10105SOL    HW131214   2.838   0.772   6.304
10105SOL    HW231215   2.808   0.863   6.172
10106SOL     OW31216   5.269   5.725   1.494
10106SOL    HW131217   5.197   5.663   1.525
10106SOL    HW231218   5.345   5.723   1.558
10107SOL     OW31219   4.821   4.492   6.649
10107SOL    HW131220   4.734   4.487   6.599
10107SOL    HW231221   4.869   4.577   6.624
10108SOL     OW31222   2.148   2.850   6.592
10108SOL    HW131223   2.091   2.838   6.511
10108SOL    HW231224   2.105   2.916   6.654
10109SOL     OW31225   1.540   2.165   1.345
10109SOL    HW131226   1.454   2.211   1.366
10109SOL    HW231227   1.540   2.135   1.250
10110SOL     OW31228   5.261   6.225   2.647
10110SOL    HW131229   5.181   6.283   2.630
10110SOL    HW231230   5.333   6.249   2.583
10111SOL     OW31231   1.648   1.861   1.957
10111SOL    HW131232   1.695   1.932   2.009
10111SOL    HW231233   1.597   1.903   1.882
10112SOL     OW31234   6.958   2.194   3.485
10112SOL    HW131235   6.899   2.226   3.558
10112SOL    HW231236   6.947   2.095   3.473
10113SOL     OW31237   6.711   0.869   5.948
10113SOL    HW131238   6.788   0.934   5.951
10113SOL    HW231239   6.724   0.806   5.872
10114SOL     OW31240   4.737   1.762   1.959
10114SOL    HW131241   4.721   1.694   2.031
10114SOL    HW231242   4.655   1.771   1.903
10115SOL     OW31243   3.511   2.740   6.235
10115SOL    HW131244   3.438   2.804   6.261
10115SOL    HW231245   3.551   2.701   6.318
10116SOL     OW31246   6.805   0.850   4.818
10116SOL    HW131247   6.850   0.792   4.751
10116SOL    HW231248   6.874   0.899   4.871
10117SOL     OW31249   6.190   4.178   3.878
10117SOL    HW131250   6.222   4.136   3.793
10117SOL    HW231251   6.252   4.252   3.905
10118SOL     OW31252   4.329   5.750   4.465
10118SOL    HW131253   4.303   5.782   4.556
10118SOL    HW231254   4.345   5.828   4.405
10119SOL     OW31255   0.133   5.293   5.482
10119SOL    HW131256   0.077   5.229   5.430
10119SOL    HW231257   0.228   5.287   5.451
10120SOL     OW31258   2.178   3.207   2.550
10120SOL    HW131259   2.124   3.275   2.599
10120SOL    HW231260   2.180   3.230   2.453
10121SOL     OW31261   6.600   3.912   0.870
10121SOL    HW131262   6.580   4.010   0.869
10121SOL    HW231263   6.622   3.883   0.963
10122SOL     OW31264   1.090   0.442   3.974
10122SOL    HW131265   1.144   0.458   4.056
10122SOL    HW231266   1.031   0.362   3.989
10123SOL     OW31267   6.304   5.195   6.741
10123SOL    HW131268   6.254   5.129   6.796
10123SOL    HW231269   6.373   5.148   6.687
10124SOL     OW31270   1.435   5.217   2.981
10124SOL    HW131271   1.428   5.300   2.926
10124SOL    HW231272   1.456   5.241   3.075
10125SOL     OW31273   1.937   1.432   5.543
10125SOL    HW131274   1.981   1.354   5.499
10125SOL    HW231275   1.850   1.452   5.498
10126SOL     OW31276   6.293   6.804   6.862
10126SOL    HW131277   6.327   6.793   6.955
10126SOL    HW231278   6.267   6.714   6.825
10127SOL     OW31279   2.256   6.221   6.414
10127SOL    HW131280   2.177   6.162   6.399
10127SOL    HW231281   2.245   6.272   6.499
10128SOL     OW31282   2.758   2.020   6.719
10128SOL    HW131283   2.670   2.068   6.716
10128SOL    HW231284   2.802   2.039   6.806
10129SOL     OW31285   6.074   1.453   4.709
10129SOL    HW131286   6.091   1.545   4.744
10129SOL    HW231287   6.094   1.451   4.611
10130SOL     OW31288   1.328   1.633   2.578
10130SOL    HW131289   1.369   1.697   2.643
10130SOL    HW231290   1.233   1.616   2.604
10131SOL     OW31291   1.490   6.461   4.108
10131SOL    HW131292   1.565   6.425   4.052
10131SOL    HW231293   1.451   6.388   4.164
10132SOL     OW31294   6.879   1.007   1.590
10132SOL    HW131295   6.859   0.910   1.583
10132SOL    HW231296   6.975   1.023   1.568
10133SOL     OW31297   6.170   6.340   0.242
10133SOL    HW131298   6.112   6.419   0.224
10133SOL    HW231299   6.262   6.371   0.265
10134SOL     OW31300   6.285   6.857   2.149
10134SOL    HW131301   6.311   6.785   2.084
10134SOL    HW231302   6.251   6.936   2.099
10135SOL     OW31303   6.124   0.100   2.438
10135SOL    HW131304   6.104   0.197   2.452
10135SOL    HW231305   6.063   0.045   2.495
10136SOL     OW31306   5.239   1.484   2.188
10136SOL    HW131307   5.140   1.475   2.201
10136SOL    HW231308   5.267   1.578   2.206
10137SOL     OW31309   6.400   5.495   5.467
10137SOL    HW131310   6.370   5.576   5.416
10137SOL    HW231311   6.330   5.470   5.534
10138SOL     OW31312   0.497   2.043   0.350
10138SOL    HW131313   0.577   2.084   0.393
10138SOL    HW231314   0.427   2.027   0.419
10139SOL     OW31315   3.179   2.743   6.608
10139SOL    HW131316   3.177   2.823   6.548
10139SOL    HW231317   3.121   2.672   6.570
10140SOL     OW31318   0.868   6.467   5.502
10140SOL    HW131319   0.866   6.431   5.408
10140SOL    HW231320   0.828   6.559   5.503
10141SOL     OW31321   1.970   2.800   4.534
10141SOL    HW131322   2.060   2.765   4.511
10141SOL    HW231323   1.941   2.762   4.622
10142SOL     OW31324   3.883   6.548   3.945
10142SOL    HW131325   3.819   6.520   4.017
10142SOL    HW231326   3.832   6.577   3.864
10143SOL     OW31327   4.894   3.070   6.726
10143SOL    HW131328   4.898   3.143   6.657
10143SOL    HW231329   4.880   2.982   6.682
10144SOL     OW31330   3.849   6.828   6.504
10144SOL    HW131331   3.877   6.743   6.461
10144SOL    HW231332   3.876   6.827   6.600
10145SOL     OW31333   5.358   6.293   6.306
10145SOL    HW131334   5.407   6.207   6.297
10145SOL    HW231335   5.423   6.368   6.318
10146SOL     OW31336   0.255   2.726   4.454
10146SOL    HW131337   0.292   2.767   4.537
10146SOL    HW231338   0.318   2.742   4.378
10147SOL     OW31339   4.766   4.884   5.779
10147SOL    HW131340   4.738   4.979   5.765
10147SOL    HW231341   4.834   4.881   5.852
10148SOL     OW31342   0.873   4.568   0.662
10148SOL    HW131343   0.820   4.633   0.717
10148SOL    HW231344   0.970   4.587   0.672
10149SOL     OW31345   3.384   4.581   0.293
10149SOL    HW131346   3.374   4.680   0.282
10149SOL    HW231347   3.480   4.555   0.279
10150SOL     OW31348   4.072   4.475   0.846
10150SOL    HW131349   4.136   4.552   0.842
10150SOL    HW231350   3.985   4.506   0.885
10151SOL     OW31351   6.070   7.017   5.835
10151SOL    HW131352   6.164   0.024   5.855
10151SOL    HW231353   6.015   0.001   5.918
10152SOL     OW31354   3.977   6.539   2.412
10152SOL    HW131355   4.060   6.549   2.358
10152SOL    HW231356   3.994   6.478   2.489
10153SOL     OW31357   4.714   4.336   2.778
10153SOL    HW131358   4.739   4.253   2.827
10153SOL    HW231359   4.615   4.349   2.781
10154SOL     OW31360   4.877   5.046   5.514
10154SOL    HW131361   4.904   5.140   5.495
10154SOL    HW231362   4.781   5.042   5.539
10155SOL     OW31363   3.967   1.838   4.824
10155SOL    HW131364   4.020   1.882   4.752
10155SOL    HW231365   3.928   1.752   4.789
10156SOL     OW31366   5.178   2.328   0.199
10156SOL    HW131367   5.261   2.277   0.218
10156SOL    HW231368   5.187   2.422   0.233
10157SOL     OW31369   0.358   3.371   1.498
10157SOL    HW131370   0.445   3.322   1.497
10157SOL    HW231371   0.283   3.307   1.478
10158SOL     OW31372   6.113   4.910   0.289
10158SOL    HW131373   6.031   4.866   0.251
10158SOL    HW231374   6.169   4.947   0.216
10159SOL     OW31375   2.990   3.153   1.652
10159SOL    HW131376   2.899   3.155   1.696
10159SOL    HW231377   2.993   3.079   1.586
10160SOL     OW31378   1.255   5.029   2.955
10160SOL    HW131379   1.300   4.955   2.905
10160SOL    HW231380   1.309   5.113   2.946
10161SOL     OW31381   5.372   3.195   5.530
10161SOL    HW131382   5.303   3.262   5.502
10161SOL    HW231383   5.412   3.222   5.617
10162SOL     OW31384   1.581   2.919   2.461
10162SOL    HW131385   1.572   2.954   2.368
10162SOL    HW231386   1.577   2.819   2.460
10163SOL     OW31387   1.779   6.375   5.604
10163SOL    HW131388   1.875   6.389   5.629
10163SOL    HW231389   1.748   6.286   5.640
10164SOL     OW31390   1.170   2.653   3.228
10164SOL    HW131391   1.268   2.635   3.238
10164SOL    HW231392   1.132   2.592   3.159
10165SOL     OW31393   0.014   3.630   4.090
10165SOL    HW131394   0.060   3.579   4.017
10165SOL    HW231395   0.082   3.672   4.149
10166SOL     OW31396   2.669   0.600   1.594
10166SOL    HW131397   2.751   0.553   1.627
10166SOL    HW231398   2.614   0.536   1.539
10167SOL     OW31399   2.421   0.798   6.593
10167SOL    HW131400   2.481   0.777   6.670
10167SOL    HW231401   2.367   0.717   6.571
10168SOL     OW31402   6.779   0.684   6.645
10168SOL    HW131403   6.696   0.641   6.611
10168SOL    HW231404   6.769   0.783   6.642
10169SOL     OW31405   5.745   2.997   3.509
10169SOL    HW131406   5.690   2.963   3.585
10169SOL    HW231407   5.748   3.097   3.513
10170SOL     OW31408   5.811   5.381   6.396
10170SOL    HW131409   5.858   5.305   6.440
10170SOL    HW231410   5.877   5.437   6.346
10171SOL     OW31411   2.385   3.523   6.174
10171SOL    HW131412   2.381   3.448   6.108
10171SOL    HW231413   2.471   3.573   6.163
10172SOL     OW31414   6.106   0.423   2.838
10172SOL    HW131415   6.173   0.454   2.770
10172SOL    HW231416   6.093   0.324   2.830
10173SOL     OW31417   3.218   4.111   5.046
10173SOL    HW131418   3.204   4.180   5.117
10173SOL    HW231419   3.312   4.115   5.013
10174SOL     OW31420   4.073   5.655   3.219
10174SOL    HW131421   4.128   5.573   3.234
10174SOL    HW231422   4.056   5.666   3.121
10175SOL     OW31423   0.254   1.575   3.222
10175SOL    HW131424   0.335   1.590   3.166
10175SOL    HW231425   0.267   1.495   3.280
10176SOL     OW31426   6.587   1.409   5.807
10176SOL    HW131427   6.652   1.339   5.776
10176SOL    HW231428   6.535   1.443   5.729
10177SOL     OW31429   2.523   1.007   4.010
10177SOL    HW131430   2.457   0.978   3.941
10177SOL    HW231431   2.594   1.062   3.967
10178SOL     OW31432   1.315   2.197   0.755
10178SOL    HW131433   1.409   2.178   0.727
10178SOL    HW231434   1.259   2.114   0.744
10179SOL     OW31435   0.115   4.299   1.032
10179SOL    HW131436   0.052   4.224   1.052
10179SOL    HW231437   0.074   4.360   0.965
10180SOL     OW31438   4.632   6.739   5.353
10180SOL    HW131439   4.683   6.823   5.369
10180SOL    HW231440   4.691   6.672   5.310
10181SOL     OW31441   6.471   3.352   2.237
10181SOL    HW131442   6.521   3.338   2.151
10181SOL    HW231443   6.373   3.341   2.221
10182SOL     OW31444   5.550   2.349   0.352
10182SOL    HW131445   5.510   2.431   0.311
10182SOL    HW231446   5.567   2.365   0.449
10183SOL     OW31447   5.681   1.720   6.530
10183SOL    HW131448   5.651   1.810   6.563
10183SOL    HW231449   5.663   1.652   6.601
10184SOL     OW31450   5.838   2.324   5.893
10184SOL    HW131451   5.872   2.230   5.887
10184SOL    HW231452   5.745   2.323   5.930
10185SOL     OW31453   3.718   5.775   1.791
10185SOL    HW131454   3.692   5.681   1.774
10185SOL    HW231455   3.676   5.835   1.722
10186SOL     OW31456   3.494   3.677   5.878
10186SOL    HW131457   3.524   3.714   5.965
10186SOL    HW231458   3.420   3.732   5.841
10187SOL     OW31459   1.908   4.489   6.428
10187SOL    HW131460   1.814   4.503   6.398
10187SOL    HW231461   1.970   4.543   6.370
10188SOL     OW31462   3.345   0.713   6.319
10188SOL    HW131463   3.269   0.773   6.296
10188SOL    HW231464   3.358   0.711   6.418
10189SOL     OW31465   0.960   1.889   6.464
10189SOL    HW131466   1.049   1.863   6.428
10189SOL    HW231467   0.918   1.956   6.403
10190SOL     OW31468   3.980   5.566   1.912
10190SOL    HW131469   3.987   5.602   1.819
10190SOL    HW231470   3.981   5.466   1.909
10191SOL     OW31471   5.829   6.352   6.632
10191SOL    HW131472   5.767   6.410   6.580
10191SOL    HW231473   5.878   6.406   6.700
10192SOL     OW31474   1.942   1.955   4.462
10192SOL    HW131475   1.881   1.981   4.537
10192SOL    HW231476   2.036   1.973   4.489
10193SOL     OW31477   3.348   3.525   3.921
10193SOL    HW131478   3.401   3.443   3.944
10193SOL    HW231479   3.284   3.544   3.995
10194SOL     OW31480   2.860   0.448   3.418
10194SOL    HW131481   2.946   0.400   3.404
10194SOL    HW231482   2.878   0.538   3.456
10195SOL     OW31483   3.823   6.395   1.990
10195SOL    HW131484   3.771   6.316   1.958
10195SOL    HW231485   3.779   6.479   1.957
10196SOL     OW31486   6.011   2.029   3.663
10196SOL    HW131487   6.027   2.025   3.761
10196SOL    HW231488   6.001   2.125   3.635
10197SOL     OW31489   5.676   0.135   1.670
10197SOL    HW131490   5.690   0.222   1.717
10197SOL    HW231491   5.590   0.094   1.699
10198SOL     OW31492   2.817   7.007   0.894
10198SOL    HW131493   2.873   6.934   0.856
10198SOL    HW231494   2.846   0.074   0.857
10199SOL     OW31495   0.971   1.322   0.403
10199SOL    HW131496   0.913   1.400   0.426
10199SOL    HW231497   0.943   1.242   0.457
10200SOL     OW31498   5.043   4.122   4.362
10200SOL    HW131499   4.945   4.136   4.349
10200SOL    HW231500   5.058   4.041   4.418
10201SOL     OW31501   1.818   5.009   2.939
10201SOL    HW131502   1.878   5.088   2.945
10201SOL    HW231503   1.756   5.007   3.017
10202SOL     OW31504   0.842   3.305   2.359
10202SOL    HW131505   0.781   3.275   2.286
10202SOL    HW231506   0.856   3.231   2.425
10203SOL     OW31507   1.808   3.351   2.404
10203SOL    HW131508   1.802   3.411   2.485
10203SOL    HW231509   1.794   3.256   2.432
10204SOL     OW31510   3.218   4.723   5.222
10204SOL    HW131511   3.177   4.660   5.288
10204SOL    HW231512   3.225   4.678   5.133
10205SOL     OW31513   4.795   1.425   3.201
10205SOL    HW131514   4.893   1.416   3.186
10205SOL    HW231515   4.745   1.370   3.134
10206SOL     OW31516   5.315   6.709   6.691
10206SOL    HW131517   5.281   6.644   6.759
10206SOL    HW231518   5.238   6.756   6.649
10207SOL     OW31519   4.257   1.012   2.978
10207SOL    HW131520   4.332   1.031   2.915
10207SOL    HW231521   4.190   1.087   2.973
10208SOL     OW31522   5.497   4.135   4.959
10208SOL    HW131523   5.455   4.094   5.039
10208SOL    HW231524   5.572   4.077   4.927
10209SOL     OW31525   5.889   0.486   6.494
10209SOL    HW131526   5.895   0.585   6.501
10209SOL    HW231527   5.847   0.449   6.577
10210SOL     OW31528   4.760   5.709   1.947
10210SOL    HW131529   4.777   5.624   1.997
10210SOL    HW231530   4.845   5.742   1.907
10211SOL     OW31531   4.225   5.397   5.514
10211SOL    HW131532   4.171   5.437   5.440
10211SOL    HW231533   4.210   5.298   5.516
10212SOL     OW31534   0.060   0.444   5.234
10212SOL    HW131535   0.063   0.535   5.275
10212SOL    HW231536   6.987   0.413   5.226
10213SOL     OW31537   6.338   1.067   2.864
10213SOL    HW131538   6.413   1.065   2.797
10213SOL    HW231539   6.336   1.156   2.908
10214SOL     OW31540   0.085   0.792   1.842
10214SOL    HW131541   0.145   0.793   1.761
10214SOL    HW231542   0.069   0.697   1.870
10215SOL     OW31543   4.165   4.212   0.019
10215SOL    HW131544   4.114   4.265   0.087
10215SOL    HW231545   4.119   4.125   0.004
10216SOL     OW31546   5.228   0.034   1.384
10216SOL    HW131547   5.255   0.094   1.459
10216SOL    HW231548   5.133   0.051   1.360
10217SOL     OW31549   2.429   1.923   4.909
10217SOL    HW131550   2.419   1.962   5.001
10217SOL    HW231551   2.506   1.859   4.909
10218SOL     OW31552   2.697   1.575   0.540
10218SOL    HW131553   2.796   1.572   0.527
10218SOL    HW231554   2.663   1.665   0.512
10219SOL     OW31555   0.984   3.464   0.979
10219SOL    HW131556   1.034   3.403   1.041
10219SOL    HW231557   1.022   3.455   0.886
10220SOL     OW31558   4.336   2.201   1.012
10220SOL    HW131559   4.433   2.180   1.004
10220SOL    HW231560   4.301   2.167   1.099
10221SOL     OW31561   3.214   0.163   5.187
10221SOL    HW131562   3.187   0.209   5.102
10221SOL    HW231563   3.134   0.119   5.227
10222SOL     OW31564   1.553   5.352   5.722
10222SOL    HW131565   1.515   5.349   5.814
10222SOL    HW231566   1.575   5.259   5.691
10223SOL     OW31567   0.207   4.387   0.660
10223SOL    HW131568   0.288   4.337   0.687
10223SOL    HW231569   0.160   4.338   0.586
10224SOL     OW31570   1.409   0.266   4.032
10224SOL    HW131571   1.335   0.308   4.084
10224SOL    HW231572   1.496   0.282   4.079
10225SOL     OW31573   6.275   5.894   4.370
10225SOL    HW131574   6.306   5.905   4.464
10225SOL    HW231575   6.304   5.973   4.316
10226SOL     OW31576   1.483   1.364   0.410
10226SOL    HW131577   1.565   1.372   0.467
10226SOL    HW231578   1.490   1.426   0.332
10227SOL     OW31579   5.326   4.710   6.660
10227SOL    HW131580   5.283   4.736   6.746
10227SOL    HW231581   5.354   4.614   6.665
10228SOL     OW31582   0.738   5.547   2.996
10228SOL    HW131583   0.832   5.516   3.005
10228SOL    HW231584   0.708   5.537   2.901
10229SOL     OW31585   1.221   0.183   2.708
10229SOL    HW131586   1.316   0.187   2.674
10229SOL    HW231587   1.158   0.197   2.631
10230SOL     OW31588   6.571   0.947   3.341
10230SOL    HW131589   6.630   0.898   3.404
10230SOL    HW231590   6.545   0.887   3.266
10231SOL     OW31591   5.182   6.904   4.763
10231SOL    HW131592   5.280   6.918   4.766
10231SOL    HW231593   5.154   6.847   4.840
10232SOL     OW31594   3.292   2.074   5.072
10232SOL    HW131595   3.305   2.046   4.977
10232SOL    HW231596   3.232   2.153   5.076
10233SOL     OW31597   4.933   1.523   5.640
10233SOL    HW131598   5.019   1.547   5.686
10233SOL    HW231599   4.866   1.595   5.655
10234SOL     OW31600   4.879   6.379   1.604
10234SOL    HW131601   4.807   6.430   1.651
10234SOL    HW231602   4.863   6.281   1.615
10235SOL     OW31603   5.906   1.122   6.779
10235SOL    HW131604   5.841   1.060   6.824
10235SOL    HW231605   5.999   1.095   6.800
10236SOL     OW31606   2.301   5.503   2.066
10236SOL    HW131607   2.350   5.588   2.085
10236SOL    HW231608   2.367   5.433   2.037
10237SOL     OW31609   5.939   3.055   2.549
10237SOL    HW131610   5.860   3.041   2.490
10237SOL    HW231611   6.023   3.045   2.496
10238SOL     OW31612   5.003   4.646   4.627
10238SOL    HW131613   4.969   4.576   4.564
10238SOL    HW231614   4.966   4.735   4.601
10239SOL     OW31615   0.044   4.312   4.087
10239SOL    HW131616   0.087   4.279   4.003
10239SOL    HW231617   0.102   4.290   4.165
10240SOL     OW31618   6.830   4.160   4.149
10240SOL    HW131619   6.800   4.201   4.235
10240SOL    HW231620   6.908   4.212   4.113
10241SOL     OW31621   1.899   0.901   2.357
10241SOL    HW131622   1.992   0.868   2.372
10241SOL    HW231623   1.899   1.001   2.351
10242SOL     OW31624   6.795   6.888   6.073
10242SOL    HW131625   6.709   6.863   6.117
10242SOL    HW231626   6.783   6.889   5.974
10243SOL     OW31627   1.467   5.638   1.592
10243SOL    HW131628   1.513   5.579   1.525
10243SOL    HW231629   1.428   5.581   1.665
10244SOL     OW31630   1.999   6.119   0.228
10244SOL    HW131631   1.965   6.049   0.291
10244SOL    HW231632   1.922   6.174   0.195
10245SOL     OW31633   2.454   2.474   0.044
10245SOL    HW131634   2.508   2.557   0.030
10245SOL    HW231635   2.357   2.494   0.031
10246SOL     OW31636   3.321   4.079   4.362
10246SOL    HW131637   3.323   4.095   4.460
10246SOL    HW231638   3.405   4.113   4.320
10247SOL     OW31639   0.767   4.297   5.169
10247SOL    HW131640   0.691   4.267   5.227
10247SOL    HW231641   0.818   4.369   5.216
10248SOL     OW31642   3.610   0.312   1.890
10248SOL    HW131643   3.522   0.314   1.844
10248SOL    HW231644   3.665   0.236   1.854
10249SOL     OW31645   5.214   1.117   5.878
10249SOL    HW131646   5.298   1.160   5.913
10249SOL    HW231647   5.136   1.177   5.896
10250SOL     OW31648   6.337   0.531   0.067
10250SOL    HW131649   6.296   0.525   6.997
10250SOL    HW231650   6.429   0.569   0.060
10251SOL     OW31651   2.628   3.591   6.796
10251SOL    HW131652   2.639   3.581   6.895
10251SOL    HW231653   2.566   3.520   6.762
10252SOL     OW31654   6.527   5.055   1.875
10252SOL    HW131655   6.456   5.125   1.886
10252SOL    HW231656   6.589   5.058   1.952
10253SOL     OW31657   4.031   5.470   6.937
10253SOL    HW131658   3.992   5.495   6.849
10253SOL    HW231659   3.961   5.425   6.993
10254SOL     OW31660   1.985   2.354   5.111
10254SOL    HW131661   2.069   2.318   5.151
10254SOL    HW231662   1.954   2.294   5.038
10255SOL     OW31663   3.213   6.098   2.568
10255SOL    HW131664   3.189   6.102   2.470
10255SOL    HW231665   3.160   6.167   2.617
10256SOL     OW31666   6.103   6.870   6.605
10256SOL    HW131667   6.119   6.939   6.676
10256SOL    HW231668   6.008   6.875   6.575
10257SOL     OW31669   1.125   5.703   5.765
10257SOL    HW131670   1.166   5.778   5.818
10257SOL    HW231671   1.187   5.676   5.692
10258SOL     OW31672   4.081   0.149   3.248
10258SOL    HW131673   4.057   0.145   3.151
10258SOL    HW231674   4.177   0.175   3.258
10259SOL     OW31675   6.860   4.070   3.499
10259SOL    HW131676   6.831   4.152   3.448
10259SOL    HW231677   6.793   3.997   3.484
10260SOL     OW31678   1.343   0.042   1.977
10260SOL    HW131679   1.315   0.019   2.070
10260SOL    HW231680   1.406   0.120   1.980
10261SOL     OW31681   1.212   5.527   2.485
10261SOL    HW131682   1.310   5.534   2.504
10261SOL    HW231683   1.168   5.473   2.557
10262SOL     OW31684   1.714   4.436   4.961
10262SOL    HW131685   1.625   4.481   4.957
10262SOL    HW231686   1.771   4.481   5.030
10263SOL     OW31687   6.077   1.573   5.611
10263SOL    HW131688   6.022   1.657   5.621
10263SOL    HW231689   6.022   1.494   5.641
10264SOL     OW31690   0.039   0.776   5.876
10264SOL    HW131691   0.130   0.817   5.881
10264SOL    HW231692   7.014   0.784   5.964
10265SOL     OW31693   3.669   1.444   2.058
10265SOL    HW131694   3.603   1.459   1.984
10265SOL    HW231695   3.631   1.480   2.143
10266SOL     OW31696   2.917   4.287   6.437
10266SOL    HW131697   2.829   4.321   6.469
10266SOL    HW231698   2.989   4.351   6.464
10267SOL     OW31699   6.967   2.244   6.289
10267SOL    HW131700   0.023   2.195   6.329
10267SOL    HW231701   6.960   2.221   6.192
10268SOL     OW31702   5.515   5.961   1.528
10268SOL    HW131703   5.457   6.042   1.537
10268SOL    HW231704   5.485   5.907   1.449
10269SOL     OW31705   2.467   2.550   6.407
10269SOL    HW131706   2.529   2.475   6.384
10269SOL    HW231707   2.391   2.514   6.462
10270SOL     OW31708   1.465   5.718   0.710
10270SOL    HW131709   1.366   5.708   0.701
10270SOL    HW231710   1.486   5.790   0.775
10271SOL     OW31711   4.705   4.491   1.462
10271SOL    HW131712   4.628   4.469   1.403
10271SOL    HW231713   4.676   4.555   1.533
10272SOL     OW31714   0.820   1.123   5.749
10272SOL    HW131715   0.845   1.219   5.737
10272SOL    HW231716   0.761   1.114   5.829
10273SOL     OW31717   4.011   5.566   4.932
10273SOL    HW131718   4.103   5.539   4.960
10273SOL    HW231719   3.970   5.493   4.877
10274SOL     OW31720   0.809   5.101   5.731
10274SOL    HW131721   0.778   5.139   5.818
10274SOL    HW231722   0.898   5.140   5.707
10275SOL     OW31723   1.118   6.653   2.825
10275SOL    HW131724   1.122   6.743   2.869
10275SOL    HW231725   1.034   6.647   2.771
10276SOL     OW31726   6.075   5.602   5.759
10276SOL    HW131727   6.112   5.523   5.709
10276SOL    HW231728   6.118   5.686   5.724
10277SOL     OW31729   2.644   6.554   4.602
10277SOL    HW131730   2.676   6.459   4.595
10277SOL    HW231731   2.703   6.613   4.547
10278SOL     OW31732   6.341   0.699   6.010
10278SOL    HW131733   6.400   0.653   6.077
10278SOL    HW231734   6.260   0.734   6.057
10279SOL     OW31735   3.526   6.856   4.201
10279SOL    HW131736   3.534   6.784   4.132
10279SOL    HW231737   3.433   6.895   4.199
10280SOL     OW31738   1.673   4.484   0.035
10280SOL    HW131739   1.625   4.470   0.121
10280SOL    HW231740   1.663   4.403   6.998
10281SOL     OW31741   4.558   0.642   3.582
10281SOL    HW131742   4.485   0.711   3.588
10281SOL    HW231743   4.553   0.582   3.661
10282SOL     OW31744   1.117   1.939   4.496
10282SOL    HW131745   1.152   1.853   4.534
10282SOL    HW231746   1.137   1.943   4.399
10283SOL     OW31747   1.124   3.762   0.482
10283SOL    HW131748   1.206   3.819   0.472
10283SOL    HW231749   1.092   3.734   0.391
10284SOL     OW31750   5.845   2.838   5.311
10284SOL    HW131751   5.915   2.769   5.329
10284SOL    HW231752   5.756   2.805   5.343
10285SOL     OW31753   6.021   0.010   0.900
10285SOL    HW131754   5.936   0.034   0.946
10285SOL    HW231755   6.030   6.932   0.897
10286SOL     OW31756   4.003   0.200   3.511
10286SOL    HW131757   4.008   0.175   3.414
10286SOL    HW231758   4.093   0.190   3.553
10287SOL     OW31759   1.691   6.559   1.623
10287SOL    HW131760   1.615   6.522   1.677
10287SOL    HW231761   1.658   6.635   1.568
10288SOL     OW31762   5.984   6.470   3.522
10288SOL    HW131763   5.982   6.568   3.501
10288SOL    HW231764   5.934   6.454   3.607
10289SOL     OW31765   3.538   1.065   1.808
10289SOL    HW131766   3.489   1.145   1.775
10289SOL    HW231767   3.610   1.094   1.872
10290SOL     OW31768   4.084   3.625   2.680
10290SOL    HW131769   4.161   3.562   2.671
10290SOL    HW231770   4.078   3.657   2.775
10291SOL     OW31771   3.179   0.810   5.350
10291SOL    HW131772   3.241   0.823   5.272
10291SOL    HW231773   3.114   0.886   5.353
10292SOL     OW31774   0.688   1.040   4.607
10292SOL    HW131775   0.684   1.138   4.625
10292SOL    HW231776   0.677   1.024   4.509
10293SOL     OW31777   2.303   6.113   3.423
10293SOL    HW131778   2.296   6.141   3.327
10293SOL    HW231779   2.336   6.019   3.428
10294SOL     OW31780   5.548   1.349   3.445
10294SOL    HW131781   5.632   1.298   3.459
10294SOL    HW231782   5.470   1.286   3.441
10295SOL     OW31783   0.435   5.682   6.318
10295SOL    HW131784   0.376   5.726   6.250
10295SOL    HW231785   0.470   5.596   6.282
10296SOL     OW31786   6.905   3.155   0.524
10296SOL    HW131787   6.945   3.235   0.570
10296SOL    HW231788   6.813   3.177   0.493
10297SOL     OW31789   1.480   5.292   4.864
10297SOL    HW131790   1.437   5.261   4.949
10297SOL    HW231791   1.468   5.223   4.793
10298SOL     OW31792   4.899   3.298   3.738
10298SOL    HW131793   4.903   3.205   3.703
10298SOL    HW231794   4.875   3.296   3.835
10299SOL     OW31795   5.046   4.115   3.090
10299SOL    HW131796   5.077   4.033   3.042
10299SOL    HW231797   5.056   4.194   3.031
10300SOL     OW31798   0.885   4.396   2.871
10300SOL    HW131799   0.826   4.411   2.792
10300SOL    HW231800   0.970   4.448   2.859
10301SOL     OW31801   5.317   1.501   1.167
10301SOL    HW131802   5.342   1.587   1.123
10301SOL    HW231803   5.240   1.516   1.229
10302SOL     OW31804   1.353   5.913   3.169
10302SOL    HW131805   1.403   5.989   3.211
10302SOL    HW231806   1.417   5.846   3.132
10303SOL     OW31807   3.998   3.859   1.878
10303SOL    HW131808   4.068   3.842   1.809
10303SOL    HW231809   3.955   3.948   1.862
10304SOL     OW31810   6.853   6.794   2.561
10304SOL    HW131811   6.854   6.847   2.646
10304SOL    HW231812   6.778   6.825   2.503
10305SOL     OW31813   1.169   5.486   1.003
10305SOL    HW131814   1.232   5.465   1.078
10305SOL    HW231815   1.143   5.401   0.956
10306SOL     OW31816   4.652   6.307   0.327
10306SOL    HW131817   4.732   6.248   0.329
10306SOL    HW231818   4.678   6.399   0.356
10307SOL     OW31819   1.755   1.573   5.849
10307SOL    HW131820   1.808   1.505   5.899
10307SOL    HW231821   1.661   1.575   5.884
10308SOL     OW31822   3.259   6.085   3.185
10308SOL    HW131823   3.252   6.021   3.261
10308SOL    HW231824   3.188   6.154   3.193
10309SOL     OW31825   6.990   6.424   3.127
10309SOL    HW131826   6.959   6.454   3.037
10309SOL    HW231827   0.047   6.479   3.155
10310SOL     OW31828   3.402   4.135   3.320
10310SOL    HW131829   3.311   4.151   3.280
10310SOL    HW231830   3.469   4.125   3.246
10311SOL     OW31831   6.790   5.574   0.308
10311SOL    HW131832   6.863   5.631   0.345
10311SOL    HW231833   6.711   5.631   0.285
10312SOL     OW31834   2.451   4.615   0.594
10312SOL    HW131835   2.389   4.540   0.570
10312SOL    HW231836   2.467   4.615   0.692
10313SOL     OW31837   5.188   6.990   2.766
10313SOL    HW131838   5.223   6.899   2.790
10313SOL    HW231839   5.147   0.011   2.847
10314SOL     OW31840   6.762   6.457   0.937
10314SOL    HW131841   6.831   6.513   0.893
10314SOL    HW231842   6.787   6.361   0.929
10315SOL     OW31843   6.609   5.067   4.444
10315SOL    HW131844   6.516   5.050   4.410
10315SOL    HW231845   6.671   5.079   4.366
10316SOL     OW31846   0.258   4.226   3.608
10316SOL    HW131847   0.165   4.252   3.586
10316SOL    HW231848   0.306   4.303   3.650
10317SOL     OW31849   3.895   5.021   0.658
10317SOL    HW131850   3.991   5.001   0.678
10317SOL    HW231851   3.877   5.118   0.670
10318SOL     OW31852   5.480   5.288   1.949
10318SOL    HW131853   5.441   5.214   2.004
10318SOL    HW231854   5.458   5.274   1.853
10319SOL     OW31855   5.664   6.111   3.145
10319SOL    HW131856   5.564   6.112   3.148
10319SOL    HW231857   5.698   6.204   3.163
10320SOL     OW31858   0.028   6.479   1.160
10320SOL    HW131859   0.081   6.429   1.092
10320SOL    HW231860   0.026   6.427   1.245
10321SOL     OW31861   4.247   5.416   3.988
10321SOL    HW131862   4.292   5.397   3.901
10321SOL    HW231863   4.290   5.362   4.061
10322SOL     OW31864   6.384   3.576   0.423
10322SOL    HW131865   6.334   3.602   0.340
10322SOL    HW231866   6.344   3.622   0.502
10323SOL     OW31867   5.185   2.626   5.524
10323SOL    HW131868   5.147   2.702   5.471
10323SOL    HW231869   5.284   2.621   5.508
10324SOL     OW31870   3.212   2.945   3.623
10324SOL    HW131871   3.119   2.949   3.585
10324SOL    HW231872   3.209   2.957   3.722
10325SOL     OW31873   0.758   3.097   2.749
10325SOL    HW131874   0.670   3.117   2.706
10325SOL    HW231875   0.767   3.151   2.833
10326SOL     OW31876   5.718   1.924   0.760
10326SOL    HW131877   5.627   1.913   0.799
10326SOL    HW231878   5.756   2.012   0.788
10327SOL     OW31879   0.350   1.241   3.127
10327SOL    HW131880   0.424   1.179   3.101
10327SOL    HW231881   0.349   1.252   3.226
10328SOL     OW31882   5.951   2.387   1.956
10328SOL    HW131883   6.002   2.464   1.994
10328SOL    HW231884   6.003   2.346   1.881
10329SOL     OW31885   3.146   6.752   3.029
10329SOL    HW131886   3.080   6.827   3.040
10329SOL    HW231887   3.098   6.669   3.001
10330SOL     OW31888   3.647   5.206   1.625
10330SOL    HW131889   3.649   5.116   1.668
10330SOL    HW231890   3.552   5.234   1.610
10331SOL     OW31891   6.163   0.643   3.339
10331SOL    HW131892   6.205   0.686   3.258
10331SOL    HW231893   6.205   0.553   3.354
10332SOL     OW31894   0.029   2.569   5.957
10332SOL    HW131895   6.957   2.538   5.974
10332SOL    HW231896   0.081   2.565   6.042
10333SOL     OW31897   5.110   4.767   4.284
10333SOL    HW131898   5.043   4.693   4.278
10333SOL    HW231899   5.165   4.770   4.201
10334SOL     OW31900   1.846   4.938   4.355
10334SOL    HW131901   1.927   4.974   4.310
10334SOL    HW231902   1.772   4.930   4.288
10335SOL     OW31903   1.832   5.208   1.619
10335SOL    HW131904   1.824   5.110   1.633
10335SOL    HW231905   1.917   5.228   1.569
10336SOL     OW31906   3.844   6.697   2.577
10336SOL    HW131907   3.749   6.678   2.604
10336SOL    HW231908   3.886   6.613   2.542
10337SOL     OW31909   0.815   4.673   4.886
10337SOL    HW131910   0.721   4.656   4.916
10337SOL    HW231911   0.828   4.771   4.871
10338SOL     OW31912   2.928   6.194   2.916
10338SOL    HW131913   2.978   6.223   2.997
10338SOL    HW231914   2.984   6.212   2.835
10339SOL     OW31915   2.793   5.917   1.633
10339SOL    HW131916   2.755   5.974   1.560
10339SOL    HW231917   2.719   5.886   1.693
10340SOL     OW31918   1.962   0.007   0.728
10340SOL    HW131919   1.968   6.931   0.749
10340SOL    HW231920   2.054   0.046   0.723
10341SOL     OW31921   2.314   1.574   2.570
10341SOL    HW131922   2.414   1.564   2.565
10341SOL    HW231923   2.271   1.489   2.540
10342SOL     OW31924   2.459   6.767   4.918
10342SOL    HW131925   2.436   6.696   4.985
10342SOL    HW231926   2.556   6.788   4.924
10343SOL     OW31927   2.151   3.324   5.215
10343SOL    HW131928   2.113   3.416   5.210
10343SOL    HW231929   2.174   3.292   5.123
10344SOL     OW31930   3.713   4.956   5.322
10344SOL    HW131931   3.748   4.888   5.386
10344SOL    HW231932   3.789   4.991   5.266
10345SOL     OW31933   2.184   1.268   6.246
10345SOL    HW131934   2.094   1.252   6.288
10345SOL    HW231935   2.176   1.256   6.147
10346SOL     OW31936   5.263   5.783   0.137
10346SOL    HW131937   5.230   5.783   0.042
10346SOL    HW231938   5.236   5.867   0.182
10347SOL     OW31939   5.532   1.435   1.749
10347SOL    HW131940   5.474   1.425   1.668
10347SOL    HW231941   5.600   1.362   1.750
10348SOL     OW31942   0.674   6.225   5.474
10348SOL    HW131943   0.743   6.273   5.529
10348SOL    HW231944   0.699   6.230   5.377
10349SOL     OW31945   0.144   1.703   0.769
10349SOL    HW131946   0.144   1.771   0.842
10349SOL    HW231947   0.060   1.648   0.773
10350SOL     OW31948   2.463   5.171   4.880
10350SOL    HW131949   2.531   5.183   4.952
10350SOL    HW231950   2.505   5.125   4.802
10351SOL     OW31951   5.138   4.296   4.798
10351SOL    HW131952   5.169   4.233   4.869
10351SOL    HW231953   5.057   4.345   4.831
10352SOL     OW31954   5.750   2.207   0.200
10352SOL    HW131955   5.671   2.257   0.234
10352SOL    HW231956   5.818   2.198   0.274
10353SOL     OW31957   6.554   2.881   3.900
10353SOL    HW131958   6.585   2.797   3.857
10353SOL    HW231959   6.629   2.947   3.902
10354SOL     OW31960   0.556   3.512   0.648
10354SOL    HW131961   0.554   3.463   0.560
10354SOL    HW231962   0.648   3.548   0.663
10355SOL     OW31963   1.342   1.617   0.815
10355SOL    HW131964   1.353   1.541   0.751
10355SOL    HW231965   1.259   1.667   0.794
10356SOL     OW31966   6.084   3.758   6.240
10356SOL    HW131967   6.149   3.795   6.174
10356SOL    HW231968   6.125   3.759   6.331
10357SOL     OW31969   1.254   2.609   5.967
10357SOL    HW131970   1.184   2.673   5.935
10357SOL    HW231971   1.342   2.633   5.928
10358SOL     OW31972   0.635   2.428   2.432
10358SOL    HW131973   0.575   2.406   2.509
10358SOL    HW231974   0.729   2.406   2.456
10359SOL     OW31975   5.870   1.821   2.412
10359SOL    HW131976   5.818   1.737   2.427
10359SOL    HW231977   5.962   1.811   2.451
10360SOL     OW31978   5.931   4.018   1.995
10360SOL    HW131979   6.008   4.039   2.056
10360SOL    HW231980   5.940   3.925   1.962
10361SOL     OW31981   0.821   1.562   1.606
10361SOL    HW131982   0.769   1.503   1.544
10361SOL    HW231983   0.909   1.520   1.625
10362SOL     OW31984   1.456   5.359   2.125
10362SOL    HW131985   1.433   5.281   2.182
10362SOL    HW231986   1.386   5.371   2.055
10363SOL     OW31987   4.690   4.801   0.117
10363SOL    HW131988   4.752   4.840   0.186
10363SOL    HW231989   4.712   4.838   0.027
10364SOL     OW31990   6.100   4.295   2.492
10364SOL    HW131991   6.140   4.205   2.508
10364SOL    HW231992   6.167   4.366   2.510
10365SOL     OW31993   6.553   5.806   0.617
10365SOL    HW131994   6.484   5.755   0.668
10365SOL    HW231995   6.531   5.904   0.620
10366SOL     OW31996   2.520   6.195   3.572
10366SOL    HW131997   2.426   6.188   3.538
10366SOL    HW231998   2.520   6.238   3.662
10367SOL     OW31999   5.759   1.765   1.135
10367SOL    HW132000   5.691   1.825   1.179
10367SOL    HW232001   5.712   1.697   1.079
10368SOL     OW32002   2.045   5.987   2.380
10368SOL    HW132003   1.973   5.966   2.445
10368SOL    HW232004   2.025   6.073   2.333
10369SOL     OW32005   3.228   0.328   5.977
10369SOL    HW132006   3.171   0.364   5.904
10369SOL    HW232007   3.292   0.260   5.940
10370SOL     OW32008   1.225   0.984   5.321
10370SOL    HW132009   1.144   0.926   5.322
10370SOL    HW232010   1.218   1.053   5.393
10371SOL     OW32011   3.539   5.443   3.036
10371SOL    HW132012   3.460   5.476   2.985
10371SOL    HW232013   3.605   5.518   3.047
10372SOL     OW32014   2.885   6.441   1.727
10372SOL    HW132015   2.898   6.377   1.802
10372SOL    HW232016   2.894   6.393   1.640
10373SOL     OW32017   0.549   1.907   5.515
10373SOL    HW132018   0.583   1.996   5.546
10373SOL    HW232019   0.619   1.862   5.461
10374SOL     OW32020   3.358   6.092   4.729
10374SOL    HW132021   3.339   6.076   4.633
10374SOL    HW232022   3.274   6.076   4.783
10375SOL     OW32023   2.345   3.832   0.401
10375SOL    HW132024   2.356   3.749   0.456
10375SOL    HW232025   2.361   3.810   0.305
10376SOL     OW32026   1.932   4.706   3.043
10376SOL    HW132027   1.909   4.795   3.003
10376SOL    HW232028   1.881   4.634   2.996
10377SOL     OW32029   1.217   0.877   2.925
10377SOL    HW132030   1.180   0.898   3.015
10377SOL    HW232031   1.293   0.813   2.934
10378SOL     OW32032   0.157   4.574   4.153
10378SOL    HW132033   0.127   4.501   4.091
10378SOL    HW232034   0.104   4.656   4.134
10379SOL     OW32035   1.766   6.283   4.547
10379SOL    HW132036   1.794   6.259   4.454
10379SOL    HW232037   1.667   6.274   4.557
10380SOL     OW32038   2.172   3.006   4.547
10380SOL    HW132039   2.123   2.919   4.555
10380SOL    HW232040   2.170   3.037   4.452
10381SOL     OW32041   4.466   4.598   2.408
10381SOL    HW132042   4.514   4.673   2.363
10381SOL    HW232043   4.445   4.527   2.340
10382SOL     OW32044   3.336   5.591   1.771
10382SOL    HW132045   3.281   5.653   1.827
10382SOL    HW232046   3.280   5.553   1.698
10383SOL     OW32047   2.180   4.466   0.540
10383SOL    HW132048   2.131   4.529   0.599
10383SOL    HW232049   2.120   4.391   0.513
10384SOL     OW32050   6.006   6.471   1.612
10384SOL    HW132051   5.986   6.526   1.531
10384SOL    HW232052   6.057   6.388   1.585
10385SOL     OW32053   4.168   4.461   6.877
10385SOL    HW132054   4.195   4.376   6.833
10385SOL    HW232055   4.140   4.527   6.807
10386SOL     OW32056   0.020   0.979   0.444
10386SOL    HW132057   6.942   0.980   0.432
10386SOL    HW232058   0.043   1.015   0.535
10387SOL     OW32059   4.835   2.995   2.241
10387SOL    HW132060   4.825   3.037   2.151
10387SOL    HW232061   4.850   2.897   2.230
10388SOL     OW32062   2.965   0.709   5.963
10388SOL    HW132063   3.063   0.722   5.977
10388SOL    HW232064   2.918   0.715   6.051
10389SOL     OW32065   0.843   3.109   1.067
10389SOL    HW132066   0.844   3.175   1.143
10389SOL    HW232067   0.749   3.098   1.034
10390SOL     OW32068   3.185   2.491   1.291
10390SOL    HW132069   3.199   2.438   1.207
10390SOL    HW232070   3.092   2.527   1.293
10391SOL     OW32071   5.695   6.536   4.216
10391SOL    HW132072   5.712   6.599   4.139
10391SOL    HW232073   5.746   6.452   4.201
10392SOL     OW32074   6.633   4.881   3.718
10392SOL    HW132075   6.571   4.816   3.674
10392SOL    HW232076   6.684   4.835   3.790
10393SOL     OW32077   1.844   4.336   3.818
10393SOL    HW132078   1.932   4.295   3.793
10393SOL    HW232079   1.810   4.392   3.743
10394SOL     OW32080   2.897   5.902   4.282
10394SOL    HW132081   2.961   5.826   4.266
10394SOL    HW232082   2.806   5.875   4.252
10395SOL     OW32083   0.360   6.855   0.421
10395SOL    HW132084   0.453   6.877   0.448
10395SOL    HW232085   0.299   6.932   0.440
10396SOL     OW32086   2.668   1.625   4.429
10396SOL    HW132087   2.626   1.617   4.339
10396SOL    HW232088   2.761   1.588   4.426
10397SOL     OW32089   3.173   2.165   2.720
10397SOL    HW132090   3.227   2.208   2.647
10397SOL    HW232091   3.079   2.199   2.716
10398SOL     OW32092   0.162   2.976   1.958
10398SOL    HW132093   0.250   3.003   1.919
10398SOL    HW232094   0.100   2.950   1.885
10399SOL     OW32095   6.605   3.339   2.008
10399SOL    HW132096   6.644   3.429   1.987
10399SOL    HW232097   6.661   3.267   1.968
10400SOL     OW32098   4.115   6.741   0.466
10400SOL    HW132099   4.045   6.669   0.471
10400SOL    HW232100   4.142   6.754   0.370
10401SOL     OW32101   6.522   0.833   4.172
10401SOL    HW132102   6.479   0.750   4.208
10401SOL    HW232103   6.576   0.876   4.245
10402SOL     OW32104   6.626   2.777   4.373
10402SOL    HW132105   6.563   2.837   4.421
10402SOL    HW232106   6.576   2.716   4.311
10403SOL     OW32107   2.820   0.775   3.653
10403SOL    HW132108   2.888   0.782   3.580
10403SOL    HW232109   2.744   0.717   3.623
10404SOL     OW32110   0.001   0.046   6.064
10404SOL    HW132111   6.942   7.013   6.089
10404SOL    HW232112   6.993   0.130   6.020
10405SOL     OW32113   0.793   1.597   5.627
10405SOL    HW132114   0.837   1.675   5.583
10405SOL    HW232115   0.717   1.628   5.684
10406SOL     OW32116   2.936   4.856   1.632
10406SOL    HW132117   2.974   4.840   1.723
10406SOL    HW232118   2.991   4.805   1.564
10407SOL     OW32119   3.404   6.535   6.331
10407SOL    HW132120   3.401   6.493   6.422
10407SOL    HW232121   3.366   6.472   6.264
10408SOL     OW32122   5.205   1.094   0.395
10408SOL    HW132123   5.200   1.022   0.326
10408SOL    HW232124   5.223   1.053   0.484
10409SOL     OW32125   6.653   4.913   0.520
10409SOL    HW132126   6.592   4.940   0.445
10409SOL    HW232127   6.748   4.920   0.489
10410SOL     OW32128   5.488   1.877   0.180
10410SOL    HW132129   5.461   1.791   0.136
10410SOL    HW232130   5.585   1.872   0.205
10411SOL     OW32131   2.795   5.615   3.021
10411SOL    HW132132   2.781   5.668   3.105
10411SOL    HW232133   2.804   5.518   3.045
10412SOL     OW32134   6.227   1.259   0.489
10412SOL    HW132135   6.267   1.273   0.399
10412SOL    HW232136   6.271   1.181   0.533
10413SOL     OW32137   0.267   1.823   1.350
10413SOL    HW132138   0.343   1.878   1.316
10413SOL    HW232139   0.285   1.799   1.446
10414SOL     OW32140   4.974   3.684   5.697
10414SOL    HW132141   4.906   3.618   5.731
10414SOL    HW232142   4.961   3.772   5.744
10415SOL     OW32143   0.394   5.545   5.995
10415SOL    HW132144   0.357   5.538   5.902
10415SOL    HW232145   0.418   5.640   6.014
10416SOL     OW32146   5.865   2.028   3.932
10416SOL    HW132147   5.874   2.100   4.002
10416SOL    HW232148   5.802   2.059   3.861
10417SOL     OW32149   3.297   4.875   4.394
10417SOL    HW132150   3.271   4.971   4.403
10417SOL    HW232151   3.218   4.817   4.412
10418SOL     OW32152   6.957   4.559   5.758
10418SOL    HW132153   6.960   4.522   5.851
10418SOL    HW232154   6.872   4.611   5.746
10419SOL     OW32155   1.186   0.680   6.752
10419SOL    HW132156   1.181   0.772   6.791
10419SOL    HW232157   1.248   0.624   6.806
10420SOL     OW32158   0.170   3.176   2.392
10420SOL    HW132159   0.112   3.256   2.405
10420SOL    HW232160   0.266   3.204   2.388
10421SOL     OW32161   1.640   1.093   3.330
10421SOL    HW132162   1.654   1.175   3.385
10421SOL    HW232163   1.624   1.119   3.235
10422SOL     OW32164   6.683   2.344   5.459
10422SOL    HW132165   6.776   2.356   5.425
10422SOL    HW232166   6.662   2.246   5.464
10423SOL     OW32167   4.905   4.874   4.521
10423SOL    HW132168   4.824   4.831   4.482
10423SOL    HW232169   4.954   4.925   4.450
10424SOL     OW32170   5.270   1.662   6.908
10424SOL    HW132171   5.207   1.737   6.927
10424SOL    HW232172   5.346   1.695   6.852
10425SOL     OW32173   1.492   0.170   2.627
10425SOL    HW132174   1.557   0.245   2.618
10425SOL    HW232175   1.540   0.087   2.655
10426SOL     OW32176   6.955   4.006   0.821
10426SOL    HW132177   6.928   4.020   0.726
10426SOL    HW232178   0.010   3.942   0.825
10427SOL     OW32179   4.562   1.937   0.081
10427SOL    HW132180   4.614   1.922   0.165
10427SOL    HW232181   4.473   1.978   0.103
10428SOL     OW32182   3.722   0.865   4.586
10428SOL    HW132183   3.789   0.807   4.631
10428SOL    HW232184   3.766   0.949   4.555
10429SOL     OW32185   6.859   5.524   1.480
10429SOL    HW132186   6.787   5.554   1.417
10429SOL    HW232187   6.862   5.424   1.482
10430SOL     OW32188   4.565   0.411   3.144
10430SOL    HW132189   4.648   0.433   3.093
10430SOL    HW232190   4.504   0.356   3.087
10431SOL     OW32191   3.159   0.097   5.619
10431SOL    HW132192   3.065   0.131   5.628
10431SOL    HW232193   3.159   7.019   5.624
10432SOL     OW32194   6.255   0.867   3.763
10432SOL    HW132195   6.206   0.954   3.754
10432SOL    HW232196   6.303   0.847   3.677
10433SOL     OW32197   1.957   6.568   1.653
10433SOL    HW132198   1.977   6.593   1.748
10433SOL    HW232199   1.859   6.577   1.636
10434SOL     OW32200   3.414   0.144   3.554
10434SOL    HW132201   3.508   0.174   3.536
10434SOL    HW232202   3.363   0.142   3.468
10435SOL     OW32203   6.441   6.832   4.929
10435SOL    HW132204   6.501   6.912   4.941
10435SOL    HW232205   6.397   6.811   5.016
10436SOL     OW32206   0.826   5.193   4.682
10436SOL    HW132207   0.824   5.181   4.583
10436SOL    HW232208   0.849   5.288   4.704
10437SOL     OW32209   6.334   4.895   5.562
10437SOL    HW132210   6.423   4.854   5.582
10437SOL    HW232211   6.308   4.873   5.468
10438SOL     OW32212   5.389   6.407   0.097
10438SOL    HW132213   5.482   6.433   0.070
10438SOL    HW232214   5.389   6.314   0.133
10439SOL     OW32215   3.585   1.209   5.735
10439SOL    HW132216   3.606   1.303   5.762
10439SOL    HW232217   3.502   1.209   5.679
10440SOL     OW32218   0.553   6.805   1.162
10440SOL    HW132219   0.542   6.822   1.065
10440SOL    HW232220   0.483   6.740   1.193
10441SOL     OW32221   5.349   1.438   6.638
10441SOL    HW132222   5.342   1.525   6.590
10441SOL    HW232223   5.317   1.450   6.733
10442SOL     OW32224   3.412   5.399   5.966
10442SOL    HW132225   3.493   5.398   6.025
10442SOL    HW232226   3.374   5.491   5.962
10443SOL     OW32227   5.437   3.460   4.604
10443SOL    HW132228   5.493   3.414   4.535
10443SOL    HW232229   5.411   3.551   4.571
10444SOL     OW32230   3.835   5.429   4.734
10444SOL    HW132231   3.748   5.477   4.738
10444SOL    HW232232   3.832   5.359   4.663
10445SOL     OW32233   0.360   5.103   4.320
10445SOL    HW132234   0.381   5.195   4.353
10445SOL    HW232235   0.423   5.038   4.361
10446SOL     OW32236   0.633   4.361   6.552
10446SOL    HW132237   0.629   4.366   6.651
10446SOL    HW232238   0.703   4.424   6.518
10447SOL     OW32239   6.899   1.758   1.684
10447SOL    HW132240   6.962   1.796   1.751
10447SOL    HW232241   6.819   1.818   1.676
10448SOL     OW32242   4.206   3.647   1.364
10448SOL    HW132243   4.233   3.551   1.375
10448SOL    HW232244   4.113   3.660   1.397
10449SOL     OW32245   2.684   5.694   4.440
10449SOL    HW132246   2.698   5.596   4.454
10449SOL    HW232247   2.674   5.713   4.342
10450SOL     OW32248   6.932   2.640   6.889
10450SOL    HW132249   6.873   2.708   6.846
10450SOL    HW232250   7.021   2.683   6.911
10451SOL     OW32251   2.666   4.762   2.874
10451SOL    HW132252   2.760   4.787   2.896
10451SOL    HW232253   2.606   4.790   2.949
10452SOL     OW32254   0.443   3.588   3.493
10452SOL    HW132255   0.538   3.617   3.503
10452SOL    HW232256   0.438   3.488   3.494
10453SOL     OW32257   5.864   6.001   1.523
10453SOL    HW132258   5.817   6.030   1.607
10453SOL    HW232259   5.818   6.041   1.444
10454SOL     OW32260   5.330   3.206   1.684
10454SOL    HW132261   5.406   3.142   1.668
10454SOL    HW232262   5.248   3.155   1.707
10455SOL     OW32263   0.587   5.556   3.701
10455SOL    HW132264   0.686   5.561   3.696
10455SOL    HW232265   0.552   5.498   3.627
10456SOL     OW32266   3.044   6.021   1.578
10456SOL    HW132267   3.045   6.012   1.479
10456SOL    HW232268   2.962   5.977   1.615
10457SOL     OW32269   3.914   3.945   3.670
10457SOL    HW132270   3.895   3.974   3.763
10457SOL    HW232271   3.958   3.855   3.671
10458SOL     OW32272   0.761   0.481   0.315
10458SOL    HW132273   0.746   0.383   0.305
10458SOL    HW232274   0.681   0.530   0.281
10459SOL     OW32275   5.755   5.534   2.166
10459SOL    HW132276   5.845   5.493   2.152
10459SOL    HW232277   5.704   5.531   2.081
10460SOL     OW32278   2.634   5.765   1.820
10460SOL    HW132279   2.545   5.721   1.811
10460SOL    HW232280   2.705   5.706   1.781
10461SOL     OW32281   2.114   6.664   6.709
10461SOL    HW132282   2.108   6.738   6.643
10461SOL    HW232283   2.158   6.696   6.792
10462SOL     OW32284   6.036   0.364   0.796
10462SOL    HW132285   5.965   0.299   0.769
10462SOL    HW232286   6.002   0.424   0.869
10463SOL     OW32287   2.799   4.594   6.579
10463SOL    HW132288   2.729   4.665   6.586
10463SOL    HW232289   2.756   4.504   6.575
10464SOL     OW32290   4.468   0.491   1.321
10464SOL    HW132291   4.444   0.430   1.396
10464SOL    HW232292   4.393   0.554   1.302
10465SOL     OW32293   0.380   5.855   5.832
10465SOL    HW132294   0.330   5.915   5.894
10465SOL    HW232295   0.464   5.824   5.876
10466SOL     OW32296   4.728   5.494   5.072
10466SOL    HW132297   4.752   5.539   5.159
10466SOL    HW232298   4.693   5.561   5.008
10467SOL     OW32299   1.959   1.783   5.868
10467SOL    HW132300   1.973   1.786   5.769
10467SOL    HW232301   1.894   1.711   5.890
10468SOL     OW32302   3.483   6.391   4.407
10468SOL    HW132303   3.489   6.486   4.436
10468SOL    HW232304   3.402   6.378   4.350
10469SOL     OW32305   2.240   4.119   0.748
10469SOL    HW132306   2.160   4.061   0.732
10469SOL    HW232307   2.284   4.141   0.661
10470SOL     OW32308   2.292   1.512   4.176
10470SOL    HW132309   2.310   1.542   4.270
10470SOL    HW232310   2.232   1.577   4.130
10471SOL     OW32311   2.818   3.788   1.600
10471SOL    HW132312   2.870   3.864   1.563
10471SOL    HW232313   2.865   3.702   1.578
10472SOL     OW32314   3.832   6.907   2.381
10472SOL    HW132315   3.854   6.836   2.448
10472SOL    HW232316   3.877   6.886   2.294
10473SOL     OW32317   5.974   6.425   6.889
10473SOL    HW132318   6.027   6.509   6.874
10473SOL    HW232319   5.927   6.431   6.977
10474SOL     OW32320   4.037   0.834   4.441
10474SOL    HW132321   3.977   0.846   4.362
10474SOL    HW232322   4.036   0.738   4.469
10475SOL     OW32323   4.124   6.691   1.510
10475SOL    HW132324   4.185   6.633   1.456
10475SOL    HW232325   4.080   6.758   1.449
10476SOL     OW32326   6.437   4.907   6.349
10476SOL    HW132327   6.476   4.960   6.425
10476SOL    HW232328   6.357   4.955   6.313
10477SOL     OW32329   5.464   3.888   4.628
10477SOL    HW132330   5.454   3.907   4.530
10477SOL    HW232331   5.560   3.892   4.653
10478SOL     OW32332   0.543   6.670   0.682
10478SOL    HW132333   0.611   6.726   0.635
10478SOL    HW232334   0.498   6.610   0.616
10479SOL     OW32335   1.840   3.542   2.208
10479SOL    HW132336   1.757   3.571   2.162
10479SOL    HW232337   1.820   3.465   2.268
10480SOL     OW32338   5.467   7.002   2.047
10480SOL    HW132339   5.378   6.962   2.066
10480SOL    HW232340   5.533   6.973   2.117
10481SOL     OW32341   2.372   0.934   5.360
10481SOL    HW132342   2.285   0.984   5.360
10481SOL    HW232343   2.446   0.996   5.386
10482SOL     OW32344   0.613   5.967   4.762
10482SOL    HW132345   0.562   6.041   4.717
10482SOL    HW232346   0.657   5.910   4.694
10483SOL     OW32347   6.265   5.891   6.797
10483SOL    HW132348   6.265   5.896   6.897
10483SOL    HW232349   6.267   5.984   6.760
10484SOL     OW32350   0.308   1.078   1.340
10484SOL    HW132351   0.290   1.082   1.242
10484SOL    HW232352   0.373   1.005   1.359
10485SOL     OW32353   3.271   3.393   3.252
10485SOL    HW132354   3.347   3.457   3.262
10485SOL    HW232355   3.251   3.380   3.155
10486SOL     OW32356   6.600   6.577   5.288
10486SOL    HW132357   6.554   6.649   5.340
10486SOL    HW232358   6.539   6.498   5.280
10487SOL     OW32359   4.514   2.144   1.895
10487SOL    HW132360   4.433   2.095   1.928
10487SOL    HW232361   4.587   2.137   1.963
10488SOL     OW32362   0.166   2.135   5.668
10488SOL    HW132363   0.103   2.074   5.717
10488SOL    HW232364   0.190   2.212   5.727
10489SOL     OW32365   5.539   4.856   3.471
10489SOL    HW132366   5.616   4.866   3.534
10489SOL    HW232367   5.454   4.878   3.518
10490SOL     OW32368   6.145   0.200   0.525
10490SOL    HW132369   6.175   0.197   0.429
10490SOL    HW232370   6.092   0.283   0.540
10491SOL     OW32371   0.983   3.052   6.616
10491SOL    HW132372   1.064   3.077   6.564
10491SOL    HW232373   0.987   2.954   6.639
10492SOL     OW32374   4.444   0.669   0.660
10492SOL    HW132375   4.473   0.610   0.584
10492SOL    HW232376   4.519   0.677   0.726
10493SOL     OW32377   4.484   5.436   0.870
10493SOL    HW132378   4.582   5.450   0.860
10493SOL    HW232379   4.441   5.434   0.780
10494SOL     OW32380   0.513   4.424   5.831
10494SOL    HW132381   0.514   4.334   5.874
10494SOL    HW232382   0.420   4.446   5.802
10495SOL     OW32383   1.037   6.262   5.851
10495SOL    HW132384   1.092   6.342   5.829
10495SOL    HW232385   0.940   6.283   5.838
10496SOL     OW32386   6.907   3.594   5.452
10496SOL    HW132387   6.858   3.509   5.472
10496SOL    HW232388   6.932   3.596   5.355
10497SOL     OW32389   2.463   0.073   1.436
10497SOL    HW132390   2.452   0.106   1.342
10497SOL    HW232391   2.383   0.098   1.490
10498SOL     OW32392   4.754   5.532   0.818
10498SOL    HW132393   4.821   5.521   0.891
10498SOL    HW232394   4.799   5.572   0.738
10499SOL     OW32395   5.421   5.561   1.882
10499SOL    HW132396   5.456   5.576   1.790
10499SOL    HW232397   5.481   5.498   1.930
10500SOL     OW32398   6.710   4.021   5.467
10500SOL    HW132399   6.643   4.094   5.450
10500SOL    HW232400   6.772   4.049   5.540
10501SOL     OW32401   2.629   5.692   2.629
10501SOL    HW132402   2.649   5.624   2.700
10501SOL    HW232403   2.713   5.741   2.605
10502SOL     OW32404   2.923   3.727   2.591
10502SOL    HW132405   2.896   3.689   2.503
10502SOL    HW232406   2.930   3.653   2.658
10503SOL     OW32407   6.510   3.112   6.465
10503SOL    HW132408   6.427   3.072   6.506
10503SOL    HW232409   6.487   3.199   6.422
10504SOL     OW32410   1.641   2.764   6.291
10504SOL    HW132411   1.702   2.727   6.222
10504SOL    HW232412   1.546   2.745   6.266
10505SOL     OW32413   6.244   6.286   1.757
10505SOL    HW132414   6.214   6.220   1.826
10505SOL    HW232415   6.219   6.252   1.666
10506SOL     OW32416   1.073   2.659   0.308
10506SOL    HW132417   0.973   2.655   0.310
10506SOL    HW232418   1.106   2.693   0.397
10507SOL     OW32419   1.757   4.912   6.891
10507SOL    HW132420   1.776   4.825   6.845
10507SOL    HW232421   1.661   4.937   6.877
10508SOL     OW32422   1.152   5.074   4.939
10508SOL    HW132423   1.106   5.161   4.926
10508SOL    HW232424   1.158   5.025   4.852
10509SOL     OW32425   5.191   2.973   3.426
10509SOL    HW132426   5.130   3.050   3.409
10509SOL    HW232427   5.240   2.949   3.342
10510SOL     OW32428   4.595   5.241   4.736
10510SOL    HW132429   4.687   5.209   4.714
10510SOL    HW232430   4.569   5.210   4.827
10511SOL     OW32431   3.267   2.074   2.362
10511SOL    HW132432   3.328   2.075   2.284
10511SOL    HW232433   3.319   2.058   2.446
10512SOL     OW32434   4.556   0.795   5.062
10512SOL    HW132435   4.532   0.699   5.046
10512SOL    HW232436   4.507   0.829   5.143
10513SOL     OW32437   5.363   3.468   1.612
10513SOL    HW132438   5.336   3.539   1.677
10513SOL    HW232439   5.324   3.380   1.640
10514SOL     OW32440   1.075   3.113   1.729
10514SOL    HW132441   1.080   3.032   1.670
10514SOL    HW232442   1.153   3.172   1.713
10515SOL     OW32443   2.020   3.254   4.532
10515SOL    HW132444   2.085   3.179   4.544
10515SOL    HW232445   1.930   3.217   4.509
10516SOL     OW32446   3.730   2.745   0.551
10516SOL    HW132447   3.746   2.675   0.621
10516SOL    HW232448   3.633   2.743   0.524
10517SOL     OW32449   0.805   3.407   3.619
10517SOL    HW132450   0.791   3.339   3.547
10517SOL    HW232451   0.788   3.498   3.582
10518SOL     OW32452   0.743   5.114   2.363
10518SOL    HW132453   0.772   5.210   2.370
10518SOL    HW232454   0.645   5.108   2.383
10519SOL     OW32455   2.282   6.506   1.020
10519SOL    HW132456   2.185   6.514   0.998
10519SOL    HW232457   2.306   6.573   1.089
10520SOL     OW32458   0.171   1.664   5.481
10520SOL    HW132459   0.236   1.591   5.498
10520SOL    HW232460   0.204   1.749   5.521
10521SOL     OW32461   6.138   3.377   0.706
10521SOL    HW132462   6.062   3.363   0.643
10521SOL    HW232463   6.149   3.474   0.724
10522SOL     OW32464   5.141   2.678   3.310
10522SOL    HW132465   5.144   2.699   3.212
10522SOL    HW232466   5.124   2.761   3.362
10523SOL     OW32467   6.951   4.682   3.657
10523SOL    HW132468   6.858   4.709   3.681
10523SOL    HW232469   7.015   4.753   3.685
10524SOL     OW32470   6.276   6.509   3.826
10524SOL    HW132471   6.368   6.518   3.863
10524SOL    HW232472   6.279   6.458   3.740
10525SOL     OW32473   4.555   1.422   5.142
10525SOL    HW132474   4.584   1.460   5.230
10525SOL    HW232475   4.575   1.324   5.140
10526SOL     OW32476   1.068   5.192   0.585
10526SOL    HW132477   1.089   5.099   0.554
10526SOL    HW232478   1.081   5.256   0.509
10527SOL     OW32479   0.609   0.967   4.881
10527SOL    HW132480   0.656   0.997   4.798
10527SOL    HW232481   0.675   0.924   4.943
10528SOL     OW32482   0.992   4.398   6.059
10528SOL    HW132483   0.985   4.389   6.158
10528SOL    HW232484   1.088   4.410   6.033
10529SOL     OW32485   1.173   6.460   6.522
10529SOL    HW132486   1.120   6.545   6.513
10529SOL    HW232487   1.191   6.443   6.619
10530SOL     OW32488   0.760   6.595   0.387
10530SOL    HW132489   0.812   6.677   0.363
10530SOL    HW232490   0.793   6.559   0.474
10531SOL     OW32491   2.908   2.858   5.392
10531SOL    HW132492   2.823   2.910   5.385
10531SOL    HW232493   2.897   2.786   5.460
10532SOL     OW32494   5.703   5.985   6.624
10532SOL    HW132495   5.626   5.997   6.687
10532SOL    HW232496   5.787   6.016   6.668
10533SOL     OW32497   2.727   5.753   3.244
10533SOL    HW132498   2.781   5.707   3.315
10533SOL    HW232499   2.706   5.846   3.274
10534SOL     OW32500   1.618   5.911   2.854
10534SOL    HW132501   1.615   5.888   2.952
10534SOL    HW232502   1.632   6.009   2.844
10535SOL     OW32503   2.947   1.913   3.305
10535SOL    HW132504   2.899   1.849   3.365
10535SOL    HW232505   2.985   1.988   3.359
10536SOL     OW32506   5.284   1.416   4.134
10536SOL    HW132507   5.268   1.322   4.103
10536SOL    HW232508   5.197   1.457   4.162
10537SOL     OW32509   4.747   0.027   2.857
10537SOL    HW132510   4.648   0.010   2.853
10537SOL    HW232511   4.780   0.007   2.949
10538SOL     OW32512   6.465   2.787   2.484
10538SOL    HW132513   6.407   2.808   2.406
10538SOL    HW232514   6.433   2.836   2.565
10539SOL     OW32515   6.455   6.819   3.078
10539SOL    HW132516   6.406   6.876   3.013
10539SOL    HW232517   6.464   6.867   3.165
10540SOL     OW32518   2.809   3.737   5.976
10540SOL    HW132519   2.801   3.770   5.882
10540SOL    HW232520   2.832   3.639   5.976
10541SOL     OW32521   2.899   3.172   5.083
10541SOL    HW132522   2.995   3.156   5.108
10541SOL    HW232523   2.842   3.103   5.127
10542SOL     OW32524   5.735   6.978   4.376
10542SOL    HW132525   5.721   6.890   4.421
10542SOL    HW232526   5.682   6.981   4.291
10543SOL     OW32527   0.004   2.980   5.344
10543SOL    HW132528   0.064   2.931   5.406
10543SOL    HW232529   0.021   3.078   5.351
10544SOL     OW32530   1.344   0.986   3.791
10544SOL    HW132531   1.359   1.005   3.694
10544SOL    HW232532   1.398   1.051   3.845
10545SOL     OW32533   2.100   2.362   2.890
10545SOL    HW132534   2.063   2.338   2.800
10545SOL    HW232535   2.196   2.335   2.894
10546SOL     OW32536   3.248   6.919   1.271
10546SOL    HW132537   3.237   6.891   1.366
10546SOL    HW232538   3.158   6.935   1.230
10547SOL     OW32539   4.255   6.848   4.959
10547SOL    HW132540   4.217   6.822   4.870
10547SOL    HW232541   4.352   6.866   4.950
10548SOL     OW32542   1.251   4.688   4.111
10548SOL    HW132543   1.275   4.773   4.064
10548SOL    HW232544   1.330   4.627   4.114
10549SOL     OW32545   0.149   1.326   0.747
10549SOL    HW132546   0.203   1.351   0.828
10549SOL    HW232547   0.052   1.337   0.768
10550SOL     OW32548   3.574   6.267   3.258
10550SOL    HW132549   3.645   6.302   3.198
10550SOL    HW232550   3.489   6.316   3.241
10551SOL     OW32551   3.185   2.107   6.085
10551SOL    HW132552   3.235   2.128   6.169
10551SOL    HW232553   3.239   2.043   6.029
10552SOL     OW32554   3.432   0.956   4.691
10552SOL    HW132555   3.518   0.957   4.641
10552SOL    HW232556   3.415   1.046   4.731
10553SOL     OW32557   0.119   5.192   0.696
10553SOL    HW132558   0.155   5.099   0.690
10553SOL    HW232559   0.121   5.234   0.605
10554SOL     OW32560   5.895   5.025   2.853
10554SOL    HW132561   5.970   4.985   2.801
10554SOL    HW232562   5.812   4.971   2.841
10555SOL     OW32563   3.413   2.112   0.446
10555SOL    HW132564   3.374   2.133   0.535
10555SOL    HW232565   3.371   2.170   0.376
10556SOL     OW32566   2.043   2.089   3.010
10556SOL    HW132567   2.059   2.165   2.948
10556SOL    HW232568   2.073   2.113   3.102
10557SOL     OW32569   2.432   4.412   3.662
10557SOL    HW132570   2.377   4.489   3.631
10557SOL    HW232571   2.412   4.331   3.607
10558SOL     OW32572   2.843   5.738   5.968
10558SOL    HW132573   2.838   5.696   5.877
10558SOL    HW232574   2.872   5.668   6.034
10559SOL     OW32575   3.855   0.056   6.163
10559SOL    HW132576   3.825   0.083   6.071
10559SOL    HW232577   3.776   0.050   6.224
10560SOL     OW32578   5.129   6.755   1.784
10560SOL    HW132579   5.106   6.802   1.699
10560SOL    HW232580   5.151   6.659   1.765
10561SOL     OW32581   5.683   4.195   0.252
10561SOL    HW132582   5.587   4.185   0.276
10561SOL    HW232583   5.692   4.198   0.152
10562SOL     OW32584   3.213   6.145   1.729
10562SOL    HW132585   3.176   6.237   1.737
10562SOL    HW232586   3.144   6.084   1.690
10563SOL     OW32587   0.448   0.536   0.426
10563SOL    HW132588   0.528   0.595   0.431
10563SOL    HW232589   0.477   0.442   0.406
10564SOL     OW32590   5.785   5.818   3.730
10564SOL    HW132591   5.835   5.770   3.802
10564SOL    HW232592   5.849   5.867   3.671
10565SOL     OW32593   7.016   0.054   5.207
10565SOL    HW132594   0.094   0.066   5.211
10565SOL    HW232595   6.995   6.978   5.196
10566SOL     OW32596   2.718   2.608   0.237
10566SOL    HW132597   2.811   2.605   0.272
10566SOL    HW232598   2.662   2.668   0.295
10567SOL     OW32599   1.223   1.874   6.390
10567SOL    HW132600   1.304   1.898   6.443
10567SOL    HW232601   1.216   1.774   6.383
10568SOL     OW32602   5.573   2.359   6.031
10568SOL    HW132603   5.614   2.296   6.097
10568SOL    HW232604   5.476   2.338   6.022
10569SOL     OW32605   5.379   6.813   1.420
10569SOL    HW132606   5.383   6.751   1.341
10569SOL    HW232607   5.313   6.886   1.403
10570SOL     OW32608   0.832   5.183   4.439
10570SOL    HW132609   0.929   5.184   4.413
10570SOL    HW232610   0.780   5.133   4.369
10571SOL     OW32611   0.321   4.135   5.755
10571SOL    HW132612   0.316   4.054   5.814
10571SOL    HW232613   0.252   4.128   5.683
10572SOL     OW32614   6.444   4.226   1.492
10572SOL    HW132615   6.409   4.186   1.407
10572SOL    HW232616   6.423   4.324   1.493
10573SOL     OW32617   5.449   0.691   3.320
10573SOL    HW132618   5.388   0.627   3.367
10573SOL    HW232619   5.425   0.785   3.347
10574SOL     OW32620   0.470   1.833   3.842
10574SOL    HW132621   0.495   1.874   3.754
10574SOL    HW232622   0.482   1.900   3.914
10575SOL     OW32623   6.137   0.843   1.506
10575SOL    HW132624   6.110   0.747   1.501
10575SOL    HW232625   6.183   0.870   1.421
10576SOL     OW32626   2.424   4.710   3.861
10576SOL    HW132627   2.373   4.750   3.937
10576SOL    HW232628   2.518   4.692   3.890
10577SOL     OW32629   4.169   6.339   0.592
10577SOL    HW132630   4.257   6.379   0.619
10577SOL    HW232631   4.182   6.244   0.565
10578SOL     OW32632   6.873   2.653   4.057
10578SOL    HW132633   6.834   2.628   3.969
10578SOL    HW232634   6.935   2.582   4.089
10579SOL     OW32635   1.861   3.531   1.306
10579SOL    HW132636   1.805   3.594   1.253
10579SOL    HW232637   1.957   3.552   1.293
10580SOL     OW32638   6.605   6.735   6.232
10580SOL    HW132639   6.563   6.680   6.159
10580SOL    HW232640   6.559   6.824   6.237
10581SOL     OW32641   5.509   0.079   2.742
10581SOL    HW132642   5.508   0.176   2.767
10581SOL    HW232643   5.417   0.050   2.717
10582SOL     OW32644   5.723   4.400   6.654
10582SOL    HW132645   5.819   4.419   6.635
10582SOL    HW232646   5.711   4.302   6.674
10583SOL     OW32647   2.694   0.766   4.663
10583SOL    HW132648   2.705   0.725   4.754
10583SOL    HW232649   2.721   0.700   4.593
10584SOL     OW32650   0.267   0.113   5.231
10584SOL    HW132651   0.245   0.188   5.294
10584SOL    HW232652   0.344   0.061   5.268
10585SOL     OW32653   0.621   0.739   5.652
10585SOL    HW132654   0.703   0.686   5.629
10585SOL    HW232655   0.541   0.696   5.609
10586SOL     OW32656   4.441   4.528   5.350
10586SOL    HW132657   4.518   4.476   5.385
10586SOL    HW232658   4.392   4.475   5.281
10587SOL     OW32659   0.906   5.757   5.555
10587SOL    HW132660   0.934   5.687   5.621
10587SOL    HW232661   0.969   5.835   5.560
10588SOL     OW32662   1.351   4.542   4.508
10588SOL    HW132663   1.331   4.624   4.454
10588SOL    HW232664   1.415   4.565   4.581
10589SOL     OW32665   5.272   6.552   3.499
10589SOL    HW132666   5.209   6.478   3.474
10589SOL    HW232667   5.365   6.516   3.502
10590SOL     OW32668   0.427   5.444   2.863
10590SOL    HW132669   0.498   5.496   2.816
10590SOL    HW232670   0.371   5.506   2.919
10591SOL     OW32671   1.325   1.789   1.822
10591SOL    HW132672   1.290   1.854   1.888
10591SOL    HW232673   1.381   1.836   1.754
10592SOL     OW32674   5.800   2.280   5.616
10592SOL    HW132675   5.825   2.298   5.711
10592SOL    HW232676   5.778   2.366   5.570
10593SOL     OW32677   2.941   6.267   1.939
10593SOL    HW132678   2.891   6.325   2.003
10593SOL    HW232679   3.025   6.233   1.983
10594SOL     OW32680   3.088   0.346   3.691
10594SOL    HW132681   3.014   0.288   3.726
10594SOL    HW232682   3.076   0.359   3.593
10595SOL     OW32683   6.573   6.998   1.077
10595SOL    HW132684   6.552   6.924   1.140
10595SOL    HW232685   6.571   0.064   1.126
10596SOL     OW32686   4.987   1.477   6.843
10596SOL    HW132687   4.953   1.421   6.768
10596SOL    HW232688   4.975   1.574   6.821
10597SOL     OW32689   2.530   0.418   6.153
10597SOL    HW132690   2.437   0.414   6.189
10597SOL    HW232691   2.556   0.513   6.140
10598SOL     OW32692   2.610   1.622   6.056
10598SOL    HW132693   2.531   1.683   6.045
10598SOL    HW232694   2.653   1.639   6.144
10599SOL     OW32695   6.835   3.682   6.233
10599SOL    HW132696   6.912   3.624   6.259
10599SOL    HW232697   6.819   3.675   6.135
10600SOL     OW32698   2.958   2.181   1.364
10600SOL    HW132699   3.035   2.154   1.306
10600SOL    HW232700   2.921   2.101   1.410
10601SOL     OW32701   0.352   6.353   5.690
10601SOL    HW132702   0.397   6.283   5.745
10601SOL    HW232703   0.401   6.439   5.699
10602SOL     OW32704   0.543   0.306   0.166
10602SOL    HW132705   0.494   0.245   0.228
10602SOL    HW232706   0.478   0.369   0.123
10603SOL     OW32707   4.881   6.747   2.064
10603SOL    HW132708   4.961   6.807   2.059
10603SOL    HW232709   4.871   6.712   2.157
10604SOL     OW32710   6.844   0.094   4.659
10604SOL    HW132711   6.868   0.109   4.755
10604SOL    HW232712   6.923   0.117   4.601
10605SOL     OW32713   2.412   1.342   1.133
10605SOL    HW132714   2.391   1.425   1.080
10605SOL    HW232715   2.465   1.367   1.214
10606SOL     OW32716   6.608   0.995   0.893
10606SOL    HW132717   6.525   1.041   0.925
10606SOL    HW232718   6.584   0.909   0.848
10607SOL     OW32719   3.984   4.264   6.187
10607SOL    HW132720   4.018   4.351   6.150
10607SOL    HW232721   3.974   4.272   6.286
10608SOL     OW32722   6.142   3.436   2.771
10608SOL    HW132723   6.074   3.369   2.739
10608SOL    HW232724   6.101   3.527   2.773
10609SOL     OW32725   4.676   1.100   7.019
10609SOL    HW132726   4.612   1.027   6.995
10609SOL    HW232727   4.760   1.091   6.966
10610SOL     OW32728   0.685   1.277   4.155
10610SOL    HW132729   0.631   1.360   4.172
10610SOL    HW232730   0.666   1.243   4.063
10611SOL     OW32731   3.144   5.376   5.409
10611SOL    HW132732   3.174   5.289   5.448
10611SOL    HW232733   3.068   5.412   5.463
10612SOL     OW32734   5.425   1.442   3.761
10612SOL    HW132735   5.387   1.350   3.774
10612SOL    HW232736   5.431   1.463   3.664
10613SOL     OW32737   6.260   6.849   4.286
10613SOL    HW132738   6.200   6.782   4.243
10613SOL    HW232739   6.309   6.805   4.362
10614SOL     OW32740   4.931   0.295   6.495
10614SOL    HW132741   4.876   0.376   6.473
10614SOL    HW232742   4.871   0.215   6.502
10615SOL     OW32743   2.239   2.219   6.312
10615SOL    HW132744   2.189   2.232   6.397
10615SOL    HW232745   2.204   2.281   6.242
10616SOL     OW32746   2.497   6.511   6.531
10616SOL    HW132747   2.405   6.475   6.519
10616SOL    HW232748   2.563   6.451   6.485
10617SOL     OW32749   2.447   3.127   1.316
10617SOL    HW132750   2.359   3.169   1.294
10617SOL    HW232751   2.438   3.028   1.314
10618SOL     OW32752   0.591   5.364   4.933
10618SOL    HW132753   0.594   5.321   4.842
10618SOL    HW232754   0.666   5.429   4.941
10619SOL     OW32755   1.197   1.726   3.110
10619SOL    HW132756   1.238   1.810   3.145
10619SOL    HW232757   1.110   1.709   3.156
10620SOL     OW32758   2.798   0.456   6.795
10620SOL    HW132759   2.849   0.383   6.747
10620SOL    HW232760   2.806   0.541   6.743
10621SOL     OW32761   1.061   3.660   3.158
10621SOL    HW132762   0.994   3.608   3.105
10621SOL    HW232763   1.056   3.756   3.132
10622SOL     OW32764   4.288   3.357   0.229
10622SOL    HW132765   4.261   3.378   0.323
10622SOL    HW232766   4.387   3.353   0.223
10623SOL     OW32767   5.656   6.026   6.932
10623SOL    HW132768   5.621   5.936   6.960
10623SOL    HW232769   5.747   6.015   6.892
10624SOL     OW32770   0.306   2.350   5.266
10624SOL    HW132771   0.224   2.317   5.313
10624SOL    HW232772   0.364   2.272   5.242
10625SOL     OW32773   6.503   3.917   6.498
10625SOL    HW132774   6.556   3.969   6.430
10625SOL    HW232775   6.411   3.901   6.463
10626SOL     OW32776   4.646   3.466   1.052
10626SOL    HW132777   4.602   3.386   1.013
10626SOL    HW232778   4.619   3.475   1.148
10627SOL     OW32779   5.483   6.266   5.960
10627SOL    HW132780   5.442   6.188   5.911
10627SOL    HW232781   5.545   6.232   6.030
10628SOL     OW32782   4.651   0.777   0.811
10628SOL    HW132783   4.692   0.698   0.857
10628SOL    HW232784   4.721   0.824   0.756
10629SOL     OW32785   3.424   5.398   4.949
10629SOL    HW132786   3.400   5.471   4.885
10629SOL    HW232787   3.493   5.431   5.014
10630SOL     OW32788   4.347   0.204   2.967
10630SOL    HW132789   4.252   0.183   2.943
10630SOL    HW232790   4.376   0.143   3.041
10631SOL     OW32791   4.674   6.010   0.160
10631SOL    HW132792   4.667   5.929   0.101
10631SOL    HW232793   4.662   5.982   0.255
10632SOL     OW32794   4.646   5.432   3.084
10632SOL    HW132795   4.645   5.341   3.043
10632SOL    HW232796   4.726   5.440   3.145
10633SOL     OW32797   1.998   2.831   2.094
10633SOL    HW132798   1.931   2.767   2.132
10633SOL    HW232799   1.984   2.922   2.133
10634SOL     OW32800   0.574   4.384   6.837
10634SOL    HW132801   0.570   4.475   6.877
10634SOL    HW232802   0.482   4.348   6.826
10635SOL     OW32803   2.388   3.473   6.997
10635SOL    HW132804   2.296   3.453   0.011
10635SOL    HW232805   2.433   3.388   6.971
10636SOL     OW32806   6.810   1.990   6.193
10636SOL    HW132807   6.724   2.020   6.235
10636SOL    HW232808   6.886   2.015   6.253
10637SOL     OW32809   3.448   0.015   6.857
10637SOL    HW132810   3.458   6.960   6.793
10637SOL    HW232811   3.496   7.014   6.942
10638SOL     OW32812   0.098   4.937   1.697
10638SOL    HW132813   0.161   4.936   1.620
10638SOL    HW232814   0.023   5.000   1.678
10639SOL     OW32815   1.937   3.957   1.234
10639SOL    HW132816   1.899   4.020   1.166
10639SOL    HW232817   1.906   3.864   1.215
10640SOL     OW32818   4.502   6.923   3.264
10640SOL    HW132819   4.590   6.900   3.306
10640SOL    HW232820   4.474   6.849   3.203
10641SOL     OW32821   0.815   0.479   3.432
10641SOL    HW132822   0.784   0.485   3.337
10641SOL    HW232823   0.741   0.442   3.489
10642SOL     OW32824   5.573   1.971   6.651
10642SOL    HW132825   5.610   2.032   6.721
10642SOL    HW232826   5.532   2.025   6.578
10643SOL     OW32827   1.836   5.063   5.458
10643SOL    HW132828   1.856   5.110   5.544
10643SOL    HW232829   1.853   4.966   5.468
10644SOL     OW32830   0.041   2.395   2.431
10644SOL    HW132831   0.099   2.452   2.489
10644SOL    HW232832   6.999   2.342   2.487
10645SOL     OW32833   2.223   2.994   2.920
10645SOL    HW132834   2.188   2.901   2.909
10645SOL    HW232835   2.236   3.013   3.018
10646SOL     OW32836   5.159   0.870   4.120
10646SOL    HW132837   5.158   0.836   4.214
10646SOL    HW232838   5.164   0.792   4.057
10647SOL     OW32839   3.890   4.902   4.958
10647SOL    HW132840   3.901   4.806   4.933
10647SOL    HW232841   3.825   4.946   4.896
10648SOL     OW32842   5.725   5.043   4.946
10648SOL    HW132843   5.758   5.030   4.852
10648SOL    HW232844   5.658   4.971   4.967
10649SOL     OW32845   0.393   3.335   2.812
10649SOL    HW132846   0.355   3.252   2.852
10649SOL    HW232847   0.389   3.409   2.879
10650SOL     OW32848   6.458   0.586   4.245
10650SOL    HW132849   6.508   0.529   4.310
10650SOL    HW232850   6.363   0.553   4.239
10651SOL     OW32851   5.123   6.155   5.875
10651SOL    HW132852   5.208   6.107   5.852
10651SOL    HW232853   5.045   6.098   5.851
10652SOL     OW32854   1.790   6.897   6.394
10652SOL    HW132855   1.715   6.833   6.377
10652SOL    HW232856   1.800   6.957   6.314
10653SOL     OW32857   3.638   6.176   4.316
10653SOL    HW132858   3.667   6.125   4.397
10653SOL    HW232859   3.596   6.263   4.344
10654SOL     OW32860   5.584   0.862   4.641
10654SOL    HW132861   5.592   0.961   4.631
10654SOL    HW232862   5.607   0.817   4.555
10655SOL     OW32863   1.348   4.595   1.523
10655SOL    HW132864   1.283   4.666   1.551
10655SOL    HW232865   1.344   4.583   1.424
10656SOL     OW32866   6.551   1.735   1.728
10656SOL    HW132867   6.477   1.727   1.661
10656SOL    HW232868   6.594   1.645   1.739
10657SOL     OW32869   5.841   0.573   3.906
10657SOL    HW132870   5.833   0.552   3.809
10657SOL    HW232871   5.804   0.498   3.960
10658SOL     OW32872   6.181   3.808   4.546
10658SOL    HW132873   6.269   3.767   4.569
10658SOL    HW232874   6.193   3.906   4.529
10659SOL     OW32875   0.835   5.070   1.306
10659SOL    HW132876   0.878   5.006   1.242
10659SOL    HW232877   0.740   5.086   1.279
10660SOL     OW32878   6.310   3.370   5.357
10660SOL    HW132879   6.274   3.277   5.343
10660SOL    HW232880   6.319   3.387   5.455
10661SOL     OW32881   1.245   3.941   6.827
10661SOL    HW132882   1.264   4.038   6.815
10661SOL    HW232883   1.285   3.909   6.913
10662SOL     OW32884   2.745   1.451   3.349
10662SOL    HW132885   2.705   1.542   3.346
10662SOL    HW232886   2.779   1.432   3.441
10663SOL     OW32887   1.944   1.309   3.617
10663SOL    HW132888   1.860   1.342   3.573
10663SOL    HW232889   1.930   1.214   3.647
10664SOL     OW32890   1.305   5.720   4.567
10664SOL    HW132891   1.336   5.813   4.546
10664SOL    HW232892   1.246   5.722   4.648
10665SOL     OW32893   2.142   3.137   6.285
10665SOL    HW132894   2.168   3.185   6.201
10665SOL    HW232895   2.138   3.039   6.267
10666SOL     OW32896   3.844   3.529   2.177
10666SOL    HW132897   3.940   3.555   2.183
10666SOL    HW232898   3.834   3.454   2.111
10667SOL     OW32899   5.796   2.059   2.926
10667SOL    HW132900   5.709   2.060   2.975
10667SOL    HW232901   5.860   2.122   2.969
10668SOL     OW32902   3.198   2.142   5.342
10668SOL    HW132903   3.293   2.110   5.343
10668SOL    HW232904   3.194   2.233   5.300
10669SOL     OW32905   5.562   1.150   1.344
10669SOL    HW132906   5.571   1.224   1.278
10669SOL    HW232907   5.645   1.094   1.344
10670SOL     OW32908   4.943   3.564   4.284
10670SOL    HW132909   4.949   3.585   4.187
10670SOL    HW232910   4.969   3.469   4.300
10671SOL     OW32911   1.185   1.770   4.017
10671SOL    HW132912   1.231   1.825   3.948
10671SOL    HW232913   1.171   1.825   4.100
10672SOL     OW32914   6.075   3.975   1.358
10672SOL    HW132915   6.099   3.891   1.310
10672SOL    HW232916   5.977   3.977   1.374
10673SOL     OW32917   1.847   0.800   1.165
10673SOL    HW132918   1.865   0.895   1.189
10673SOL    HW232919   1.760   0.793   1.116
10674SOL     OW32920   3.912   3.033   4.438
10674SOL    HW132921   3.835   3.095   4.454
10674SOL    HW232922   3.945   3.045   4.345
10675SOL     OW32923   3.760   0.959   6.095
10675SOL    HW132924   3.671   0.958   6.140
10675SOL    HW232925   3.828   0.913   6.154
10676SOL     OW32926   1.060   5.978   5.588
10676SOL    HW132927   1.045   6.076   5.577
10676SOL    HW232928   1.146   5.963   5.637
10677SOL     OW32929   0.675   2.181   0.551
10677SOL    HW132930   0.774   2.171   0.544
10677SOL    HW232931   0.652   2.238   0.629
10678SOL     OW32932   4.289   5.229   3.736
10678SOL    HW132933   4.260   5.164   3.807
10678SOL    HW232934   4.208   5.270   3.695
10679SOL     OW32935   4.029   4.744   0.188
10679SOL    HW132936   4.020   4.837   0.153
10679SOL    HW232937   3.980   4.737   0.275
10680SOL     OW32938   3.529   1.820   4.100
10680SOL    HW132939   3.556   1.748   4.036
10680SOL    HW232940   3.566   1.800   4.190
10681SOL     OW32941   6.269   3.444   6.216
10681SOL    HW132942   6.321   3.445   6.302
10681SOL    HW232943   6.206   3.367   6.216
10682SOL     OW32944   5.960   3.165   4.801
10682SOL    HW132945   5.895   3.159   4.876
10682SOL    HW232946   5.917   3.211   4.723
10683SOL     OW32947   4.274   0.166   3.637
10683SOL    HW132948   4.265   0.154   3.736
10683SOL    HW232949   4.279   0.076   3.593
10684SOL     OW32950   5.196   4.587   0.968
10684SOL    HW132951   5.280   4.640   0.959
10684SOL    HW232952   5.219   4.491   0.986
10685SOL     OW32953   0.204   5.193   2.056
10685SOL    HW132954   0.214   5.122   2.126
10685SOL    HW232955   0.236   5.158   1.968
10686SOL     OW32956   2.375   3.967   6.987
10686SOL    HW132957   2.316   3.974   6.907
10686SOL    HW232958   2.335   3.902   0.030
10687SOL     OW32959   6.537   4.411   3.051
10687SOL    HW132960   6.633   4.417   3.026
10687SOL    HW232961   6.483   4.385   2.971
10688SOL     OW32962   5.450   1.169   1.880
10688SOL    HW132963   5.527   1.221   1.844
10688SOL    HW232964   5.456   1.074   1.850
10689SOL     OW32965   0.626   0.358   1.819
10689SOL    HW132966   0.663   0.418   1.748
10689SOL    HW232967   0.586   0.414   1.892
10690SOL     OW32968   6.691   5.573   3.515
10690SOL    HW132969   6.594   5.552   3.506
10690SOL    HW232970   6.729   5.595   3.425
10691SOL     OW32971   2.983   1.826   2.418
10691SOL    HW132972   2.905   1.808   2.358
10691SOL    HW232973   3.044   1.892   2.374
10692SOL     OW32974   2.733   0.680   4.904
10692SOL    HW132975   2.789   0.762   4.919
10692SOL    HW232976   2.773   0.603   4.952
10693SOL     OW32977   0.993   5.936   1.491
10693SOL    HW132978   1.063   5.865   1.494
10693SOL    HW232979   0.913   5.905   1.543
10694SOL     OW32980   4.914   6.215   6.298
10694SOL    HW132981   4.819   6.199   6.273
10694SOL    HW232982   4.974   6.159   6.241
10695SOL     OW32983   1.238   3.035   1.334
10695SOL    HW132984   1.213   3.132   1.336
10695SOL    HW232985   1.237   3.003   1.239
10696SOL     OW32986   6.133   3.730   4.828
10696SOL    HW132987   6.138   3.746   4.729
10696SOL    HW232988   6.113   3.816   4.875
10697SOL     OW32989   0.834   6.333   5.262
10697SOL    HW132990   0.816   6.391   5.182
10697SOL    HW232991   0.827   6.237   5.235
10698SOL     OW32992   4.577   4.158   7.007
10698SOL    HW132993   4.611   4.172   6.914
10698SOL    HW232994   4.543   4.244   0.023
10699SOL     OW32995   3.598   4.698   0.624
10699SOL    HW132996   3.514   4.662   0.664
10699SOL    HW232997   3.663   4.623   0.612
10700SOL     OW32998   6.305   6.596   0.489
10700SOL    HW132999   6.337   6.531   0.420
10700SOL    HW233000   6.377   6.663   0.506
10701SOL     OW33001   3.206   0.238   6.629
10701SOL    HW133002   3.227   0.298   6.706
10701SOL    HW233003   3.114   0.257   6.595
10702SOL     OW33004   5.124   3.111   2.752
10702SOL    HW133005   5.027   3.133   2.739
10702SOL    HW233006   5.153   3.047   2.680
10703SOL     OW33007   2.232   2.801   5.466
10703SOL    HW133008   2.232   2.898   5.490
10703SOL    HW233009   2.206   2.789   5.371
10704SOL     OW33010   6.602   5.459   2.873
10704SOL    HW133011   6.652   5.380   2.836
10704SOL    HW233012   6.634   5.542   2.829
10705SOL     OW33013   5.928   4.644   0.817
10705SOL    HW133014   5.877   4.729   0.804
10705SOL    HW233015   6.026   4.662   0.811
10706SOL     OW33016   4.680   0.014   1.812
10706SOL    HW133017   4.685   0.014   1.712
10706SOL    HW233018   4.589   7.003   1.840
10707SOL     OW33019   6.700   6.647   4.272
10707SOL    HW133020   6.671   6.680   4.182
10707SOL    HW233021   6.675   6.714   4.342
10708SOL     OW33022   4.944   1.368   2.098
10708SOL    HW133023   4.862   1.353   2.152
10708SOL    HW233024   5.002   1.287   2.103
10709SOL     OW33025   5.764   5.357   3.726
10709SOL    HW133026   5.854   5.397   3.711
10709SOL    HW233027   5.698   5.400   3.665
10710SOL     OW33028   5.721   0.254   3.582
10710SOL    HW133029   5.807   0.248   3.531
10710SOL    HW233030   5.695   0.163   3.615
10711SOL     OW33031   2.512   0.116   3.532
10711SOL    HW133032   2.563   0.041   3.574
10711SOL    HW233033   2.566   0.200   3.536
10712SOL     OW33034   4.033   0.482   2.976
10712SOL    HW133035   3.994   0.475   2.884
10712SOL    HW233036   4.121   0.529   2.971
10713SOL     OW33037   1.153   2.756   0.540
10713SOL    HW133038   1.114   2.830   0.595
10713SOL    HW233039   1.127   2.668   0.580
10714SOL     OW33040   4.313   3.074   5.363
10714SOL    HW133041   4.280   3.049   5.454
10714SOL    HW233042   4.304   3.173   5.349
10715SOL     OW33043   4.648   0.004   2.357
10715SOL    HW133044   4.595   6.985   2.432
10715SOL    HW233045   4.726   0.054   2.395
10716SOL     OW33046   6.541   2.501   3.195
10716SOL    HW133047   6.605   2.534   3.265
10716SOL    HW233048   6.508   2.411   3.221
10717SOL     OW33049   1.706   3.117   0.942
10717SOL    HW133050   1.609   3.143   0.933
10717SOL    HW233051   1.759   3.163   0.871
10718SOL     OW33052   0.886   4.400   6.415
10718SOL    HW133053   0.845   4.317   6.376
10718SOL    HW233054   0.984   4.385   6.430
10719SOL     OW33055   6.003   6.043   3.265
10719SOL    HW133056   5.980   5.988   3.185
10719SOL    HW233057   5.919   6.075   3.309
10720SOL     OW33058   6.021   5.043   3.995
10720SOL    HW133059   6.000   5.041   3.897
10720SOL    HW233060   6.058   5.132   4.019
10721SOL     OW33061   5.067   4.119   5.230
10721SOL    HW133062   5.130   4.183   5.275
10721SOL    HW233063   5.014   4.167   5.161
10722SOL     OW33064   6.086   4.190   0.159
10722SOL    HW133065   6.142   4.271   0.141
10722SOL    HW233066   6.033   4.204   0.242
10723SOL     OW33067   6.589   2.067   6.680
10723SOL    HW133068   6.684   2.045   6.701
10723SOL    HW233069   6.571   2.163   6.702
10724SOL     OW33070   0.288   6.587   6.254
10724SOL    HW133071   0.305   6.580   6.155
10724SOL    HW233072   0.202   6.542   6.276
10725SOL     OW33073   2.308   6.045   5.343
10725SOL    HW133074   2.290   6.144   5.342
10725SOL    HW233075   2.233   5.997   5.297
10726SOL     OW33076   4.863   0.447   4.002
10726SOL    HW133077   4.845   0.543   4.024
10726SOL    HW233078   4.917   0.405   4.075
10727SOL     OW33079   0.296   5.299   5.972
10727SOL    HW133080   0.334   5.223   6.024
10727SOL    HW233081   0.327   5.386   6.011
10728SOL     OW33082   0.677   5.184   6.936
10728SOL    HW133083   0.607   5.135   6.884
10728SOL    HW233084   0.639   5.268   6.973
10729SOL     OW33085   6.485   1.454   2.090
10729SOL    HW133086   6.498   1.357   2.112
10729SOL    HW233087   6.433   1.461   2.005
10730SOL     OW33088   3.188   6.807   0.959
10730SOL    HW133089   3.275   6.832   0.916
10730SOL    HW233090   3.155   6.883   1.015
10731SOL     OW33091   3.505   0.548   0.950
10731SOL    HW133092   3.478   0.544   0.854
10731SOL    HW233093   3.461   0.626   0.995
10732SOL     OW33094   0.602   4.816   5.851
10732SOL    HW133095   0.677   4.877   5.879
10732SOL    HW233096   0.640   4.737   5.804
10733SOL     OW33097   6.061   1.597   6.528
10733SOL    HW133098   6.153   1.627   6.553
10733SOL    HW233099   5.998   1.622   6.601
10734SOL     OW33100   1.503   1.086   0.357
10734SOL    HW133101   1.477   1.180   0.376
10734SOL    HW233102   1.602   1.080   0.348
10735SOL     OW33103   0.891   3.078   2.483
10735SOL    HW133104   0.986   3.059   2.458
10735SOL    HW233105   0.889   3.117   2.575
10736SOL     OW33106   1.494   0.713   3.451
10736SOL    HW133107   1.422   0.712   3.522
10736SOL    HW233108   1.506   0.621   3.414
10737SOL     OW33109   1.022   2.142   1.027
10737SOL    HW133110   1.045   2.238   1.042
10737SOL    HW233111   1.017   2.124   0.929
10738SOL     OW33112   2.969   6.310   2.389
10738SOL    HW133113   2.870   6.316   2.376
10738SOL    HW233114   3.010   6.400   2.374
10739SOL     OW33115   1.930   1.325   1.544
10739SOL    HW133116   2.002   1.304   1.478
10739SOL    HW233117   1.841   1.323   1.498
10740SOL     OW33118   7.002   4.910   5.500
10740SOL    HW133119   0.012   4.829   5.452
10740SOL    HW233120   0.037   4.924   5.582
10741SOL     OW33121   4.273   0.957   1.597
10741SOL    HW133122   4.282   0.884   1.664
10741SOL    HW233123   4.207   1.024   1.630
10742SOL     OW33124   6.256   6.992   1.349
10742SOL    HW133125   6.309   0.042   1.304
10742SOL    HW233126   6.233   7.021   1.442
10743SOL     OW33127   1.563   2.351   5.650
10743SOL    HW133128   1.584   2.354   5.552
10743SOL    HW233129   1.610   2.426   5.696
10744SOL     OW33130   3.779   1.409   0.773
10744SOL    HW133131   3.782   1.317   0.813
10744SOL    HW233132   3.743   1.473   0.841
10745SOL     OW33133   6.729   5.803   5.863
10745SOL    HW133134   6.763   5.897   5.858
10745SOL    HW233135   6.803   5.742   5.890
10746SOL     OW33136   1.431   4.165   0.740
10746SOL    HW133137   1.420   4.067   0.724
10746SOL    HW233138   1.342   4.205   0.766
10747SOL     OW33139   3.521   1.516   4.941
10747SOL    HW133140   3.599   1.514   5.004
10747SOL    HW233141   3.482   1.608   4.939
10748SOL     OW33142   5.253   0.651   1.264
10748SOL    HW133143   5.314   0.716   1.309
10748SOL    HW233144   5.203   0.598   1.334
10749SOL     OW33145   0.029   6.003   4.079
10749SOL    HW133146   6.987   6.066   4.123
10749SOL    HW233147   6.998   5.931   4.033
10750SOL     OW33148   3.896   6.880   4.879
10750SOL    HW133149   3.956   6.800   4.879
10750SOL    HW233150   3.823   6.866   4.811
10751SOL     OW33151   1.959   4.530   4.139
10751SOL    HW133152   1.873   4.480   4.127
10751SOL    HW233153   1.995   4.513   4.231
10752SOL     OW33154   6.153   4.598   5.013
10752SOL    HW133155   6.088   4.554   4.950
10752SOL    HW233156   6.123   4.691   5.032
10753SOL     OW33157   6.360   4.411   4.208
10753SOL    HW133158   6.316   4.325   4.236
10753SOL    HW233159   6.326   4.438   4.118
10754SOL     OW33160   0.846   6.992   3.312
10754SOL    HW133161   0.924   6.931   3.323
10754SOL    HW233162   0.814   0.001   3.402
10755SOL     OW33163   6.892   0.249   0.667
10755SOL    HW133164   6.943   0.173   0.708
10755SOL    HW233165   6.887   0.325   0.732
10756SOL     OW33166   6.829   5.348   5.917
10756SOL    HW133167   6.917   5.332   5.872
10756SOL    HW233168   6.844   5.381   6.010
10757SOL     OW33169   1.894   2.466   6.864
10757SOL    HW133170   1.822   2.404   6.834
10757SOL    HW233171   1.884   2.483   6.962
10758SOL     OW33172   0.758   6.132   4.156
10758SOL    HW133173   0.832   6.186   4.196
10758SOL    HW233174   0.704   6.188   4.093
10759SOL     OW33175   2.031   3.740   0.514
10759SOL    HW133176   2.115   3.698   0.479
10759SOL    HW233177   1.953   3.680   0.496
10760SOL     OW33178   5.864   0.647   3.369
10760SOL    HW133179   5.831   0.563   3.326
10760SOL    HW233180   5.943   0.626   3.426
10761SOL     OW33181   0.522   5.585   5.531
10761SOL    HW133182   0.559   5.562   5.621
10761SOL    HW233183   0.425   5.609   5.540
10762SOL     OW33184   2.908   1.229   4.852
10762SOL    HW133185   2.963   1.168   4.794
10762SOL    HW233186   2.818   1.188   4.867
10763SOL     OW33187   3.617   6.599   2.687
10763SOL    HW133188   3.561   6.617   2.768
10763SOL    HW233189   3.563   6.617   2.605
10764SOL     OW33190   5.024   1.858   5.326
10764SOL    HW133191   5.026   1.803   5.409
10764SOL    HW233192   5.118   1.877   5.296
10765SOL     OW33193   4.397   2.978   0.408
10765SOL    HW133194   4.480   2.925   0.425
10765SOL    HW233195   4.404   3.067   0.454
10766SOL     OW33196   4.404   4.667   0.923
10766SOL    HW133197   4.446   4.639   0.836
10766SOL    HW233198   4.382   4.764   0.919
10767SOL     OW33199   2.909   1.059   1.367
10767SOL    HW133200   2.815   1.081   1.342
10767SOL    HW233201   2.914   1.046   1.466
10768SOL     OW33202   5.320   5.256   1.288
10768SOL    HW133203   5.352   5.184   1.350
10768SOL    HW233204   5.378   5.258   1.206
10769SOL     OW33205   1.870   3.820   6.121
10769SOL    HW133206   1.949   3.849   6.175
10769SOL    HW233207   1.804   3.895   6.116
10770SOL     OW33208   4.697   6.334   3.714
10770SOL    HW133209   4.663   6.335   3.620
10770SOL    HW233210   4.774   6.272   3.721
10771SOL     OW33211   4.302   0.705   3.892
10771SOL    HW133212   4.369   0.655   3.945
10771SOL    HW233213   4.253   0.769   3.952
10772SOL     OW33214   6.097   6.398   4.722
10772SOL    HW133215   6.071   6.433   4.812
10772SOL    HW233216   6.021   6.344   4.685
10773SOL     OW33217   5.928   4.821   6.588
10773SOL    HW133218   5.843   4.769   6.592
10773SOL    HW233219   5.965   4.832   6.681
10774SOL     OW33220   1.921   1.203   5.359
10774SOL    HW133221   1.910   1.117   5.309
10774SOL    HW233222   1.834   1.252   5.361
10775SOL     OW33223   0.541   4.768   2.842
10775SOL    HW133224   0.568   4.806   2.754
10775SOL    HW233225   0.566   4.671   2.846
10776SOL     OW33226   0.836   1.316   6.997
10776SOL    HW133227   0.747   1.358   7.014
10776SOL    HW233228   0.867   1.268   0.058
10777SOL     OW33229   3.835   5.435   1.262
10777SOL    HW133230   3.917   5.480   1.226
10777SOL    HW233231   3.756   5.458   1.206
10778SOL     OW33232   5.100   6.793   3.856
10778SOL    HW133233   5.092   6.889   3.884
10778SOL    HW233234   5.031   6.773   3.787
10779SOL     OW33235   5.676   2.840   2.700
10779SOL    HW133236   5.689   2.743   2.720
10779SOL    HW233237   5.586   2.855   2.660
10780SOL     OW33238   1.434   0.623   4.308
10780SOL    HW133239   1.493   0.656   4.382
10780SOL    HW233240   1.490   0.578   4.238
10781SOL     OW33241   3.862   0.976   3.500
10781SOL    HW133242   3.863   1.068   3.539
10781SOL    HW233243   3.775   0.932   3.522
10782SOL     OW33244   0.195   1.029   3.293
10782SOL    HW133245   0.238   1.120   3.298
10782SOL    HW233246   0.137   1.024   3.211
10783SOL     OW33247   0.414   2.530   3.070
10783SOL    HW133248   0.348   2.490   3.133
10783SOL    HW233249   0.501   2.481   3.077
10784SOL     OW33250   3.565   1.025   4.115
10784SOL    HW133251   3.523   1.116   4.103
10784SOL    HW233252   3.616   1.000   4.033
10785SOL     OW33253   1.055   3.720   1.022
10785SOL    HW133254   1.000   3.640   0.999
10785SOL    HW233255   1.107   3.702   1.105
10786SOL     OW33256   5.642   4.929   2.826
10786SOL    HW133257   5.587   4.990   2.882
10786SOL    HW233258   5.596   4.913   2.739
10787SOL     OW33259   1.074   0.728   5.577
10787SOL    HW133260   1.148   0.662   5.592
10787SOL    HW233261   0.997   0.682   5.534
10788SOL     OW33262   0.620   3.973   0.592
10788SOL    HW133263   0.581   3.964   0.684
10788SOL    HW233264   0.710   3.928   0.590
10789SOL     OW33265   6.753   3.603   6.594
10789SOL    HW133266   6.831   3.559   6.549
10789SOL    HW233267   6.685   3.628   6.525
10790SOL     OW33268   0.520   6.847   1.944
10790SOL    HW133269   0.612   6.814   1.927
10790SOL    HW233270   0.458   6.812   1.874
10791SOL     OW33271   0.284   5.819   2.248
10791SOL    HW133272   0.360   5.877   2.278
10791SOL    HW233273   0.231   5.868   2.179
10792SOL     OW33274   3.156   3.144   5.092
10792SOL    HW133275   3.229   3.212   5.088
10792SOL    HW233276   3.173   3.080   5.167
10793SOL     OW33277   6.174   4.075   5.868
10793SOL    HW133278   6.082   4.095   5.903
10793SOL    HW233279   6.180   4.105   5.773
10794SOL     OW33280   4.105   3.655   4.338
10794SOL    HW133281   4.188   3.607   4.368
10794SOL    HW233282   4.118   3.688   4.245
10795SOL     OW33283   6.985   5.280   2.856
10795SOL    HW133284   6.976   5.339   2.937
10795SOL    HW233285   0.038   5.315   2.798
10796SOL     OW33286   6.597   0.350   5.085
10796SOL    HW133287   6.543   0.343   5.001
10796SOL    HW233288   6.686   0.390   5.063
10797SOL     OW33289   3.602   3.179   1.580
10797SOL    HW133290   3.540   3.231   1.638
10797SOL    HW233291   3.561   3.090   1.559
10798SOL     OW33292   2.677   1.236   0.367
10798SOL    HW133293   2.765   1.251   0.412
10798SOL    HW233294   2.644   1.322   0.328
10799SOL     OW33295   4.249   0.579   2.209
10799SOL    HW133296   4.251   0.673   2.177
10799SOL    HW233297   4.156   0.554   2.234
10800SOL     OW33298   1.135   6.057   6.024
10800SOL    HW133299   1.112   6.132   5.962
10800SOL    HW233300   1.122   6.087   6.119
10801SOL     OW33301   1.124   7.020   0.220
10801SOL    HW133302   1.137   6.957   0.296
10801SOL    HW233303   1.040   0.051   0.234
10802SOL     OW33304   0.212   7.012   2.596
10802SOL    HW133305   0.196   6.948   2.520
10802SOL    HW233306   0.134   0.054   2.603
10803SOL     OW33307   1.619   5.351   6.303
10803SOL    HW133308   1.521   5.348   6.318
10803SOL    HW233309   1.653   5.259   6.285
10804SOL     OW33310   6.536   2.579   3.500
10804SOL    HW133311   6.589   2.636   3.437
10804SOL    HW233312   6.562   2.602   3.594
10805SOL     OW33313   5.676   0.565   5.237
10805SOL    HW133314   5.600   0.629   5.248
10805SOL    HW233315   5.696   0.553   5.140
10806SOL     OW33316   3.698   4.762   6.605
10806SOL    HW133317   3.760   4.719   6.670
10806SOL    HW233318   3.712   4.722   6.514
10807SOL     OW33319   1.193   5.947   3.640
10807SOL    HW133320   1.248   5.896   3.573
10807SOL    HW233321   1.182   5.891   3.722
10808SOL     OW33322   0.401   2.793   6.168
10808SOL    HW133323   0.408   2.775   6.070
10808SOL    HW233324   0.478   2.849   6.197
10809SOL     OW33325   2.233   4.477   4.371
10809SOL    HW133326   2.146   4.499   4.415
10809SOL    HW233327   2.218   4.456   4.275
10810SOL     OW33328   6.910   0.256   3.603
10810SOL    HW133329   6.972   0.185   3.569
10810SOL    HW233330   6.957   0.344   3.601
10811SOL     OW33331   4.648   5.032   5.366
10811SOL    HW133332   4.724   5.079   5.322
10811SOL    HW233333   4.584   5.099   5.403
10812SOL     OW33334   6.624   4.074   6.322
10812SOL    HW133335   6.637   4.169   6.295
10812SOL    HW233336   6.648   4.014   6.245
10813SOL     OW33337   0.621   3.300   6.232
10813SOL    HW133338   0.684   3.235   6.274
10813SOL    HW233339   0.640   3.392   6.267
10814SOL     OW33340   2.463   6.887   0.199
10814SOL    HW133341   2.449   6.868   0.102
10814SOL    HW233342   2.397   6.954   0.230
10815SOL     OW33343   5.256   2.218   2.919
10815SOL    HW133344   5.205   2.133   2.931
10815SOL    HW233345   5.298   2.244   3.006
10816SOL     OW33346   3.606   3.132   3.046
10816SOL    HW133347   3.567   3.209   2.997
10816SOL    HW233348   3.546   3.107   3.122
10817SOL     OW33349   3.257   0.723   3.442
10817SOL    HW133350   3.318   0.707   3.520
10817SOL    HW233351   3.247   0.821   3.428
10818SOL     OW33352   4.682   4.723   5.551
10818SOL    HW133353   4.740   4.787   5.602
10818SOL    HW233354   4.673   4.756   5.457
10819SOL     OW33355   5.868   5.263   6.010
10819SOL    HW133356   5.857   5.197   6.084
10819SOL    HW233357   5.855   5.218   5.922
10820SOL     OW33358   0.421   5.620   4.503
10820SOL    HW133359   0.478   5.612   4.585
10820SOL    HW233360   0.466   5.680   4.437
10821SOL     OW33361   4.181   6.323   2.953
10821SOL    HW133362   4.202   6.317   3.051
10821SOL    HW233363   4.140   6.412   2.934
10822SOL     OW33364   5.805   2.074   1.339
10822SOL    HW133365   5.876   2.041   1.276
10822SOL    HW233366   5.746   1.998   1.365
10823SOL     OW33367   0.553   0.385   3.607
10823SOL    HW133368   0.579   0.455   3.673
10823SOL    HW233369   0.455   0.392   3.588
10824SOL     OW33370   1.063   1.659   2.292
10824SOL    HW133371   1.151   1.620   2.318
10824SOL    HW233372   1.078   1.736   2.229
10825SOL     OW33373   1.417   2.306   0.428
10825SOL    HW133374   1.448   2.372   0.496
10825SOL    HW233375   1.495   2.258   0.389
10826SOL     OW33376   0.894   2.350   2.374
10826SOL    HW133377   0.934   2.279   2.316
10826SOL    HW233378   0.958   2.372   2.448
10827SOL     OW33379   6.489   3.213   4.489
10827SOL    HW133380   6.531   3.274   4.422
10827SOL    HW233381   6.431   3.266   4.551
10828SOL     OW33382   6.970   4.067   0.135
10828SOL    HW133383   6.920   4.073   0.048
10828SOL    HW233384   6.937   4.138   0.197
10829SOL     OW33385   4.178   3.952   0.368
10829SOL    HW133386   4.246   4.013   0.326
10829SOL    HW233387   4.142   3.890   0.299
10830SOL     OW33388   4.755   1.830   3.787
10830SOL    HW133389   4.707   1.761   3.733
10830SOL    HW233390   4.853   1.823   3.770
10831SOL     OW33391   3.302   0.026   1.959
10831SOL    HW133392   3.349   7.010   1.879
10831SOL    HW233393   3.361   0.020   2.039
10832SOL     OW33394   6.414   3.398   6.445
10832SOL    HW133395   6.462   3.374   6.530
10832SOL    HW233396   6.460   3.477   6.403
10833SOL     OW33397   0.178   2.495   0.884
10833SOL    HW133398   0.124   2.545   0.817
10833SOL    HW233399   0.257   2.453   0.839
10834SOL     OW33400   6.566   1.197   0.304
10834SOL    HW133401   6.508   1.254   0.245
10834SOL    HW233402   6.509   1.154   0.374
10835SOL     OW33403   5.135   3.524   7.019
10835SOL    HW133404   5.068   3.598   7.009
10835SOL    HW233405   5.152   3.482   6.930
10836SOL     OW33406   1.344   1.281   2.931
10836SOL    HW133407   1.422   1.292   2.869
10836SOL    HW233408   1.271   1.232   2.884
10837SOL     OW33409   6.327   4.456   2.491
10837SOL    HW133410   6.347   4.518   2.567
10837SOL    HW233411   6.412   4.414   2.460
10838SOL     OW33412   5.439   6.302   3.741
10838SOL    HW133413   5.392   6.364   3.804
10838SOL    HW233414   5.384   6.219   3.728
10839SOL     OW33415   4.498   3.305   0.895
10839SOL    HW133416   4.526   3.348   0.809
10839SOL    HW233417   4.443   3.224   0.875
10840SOL     OW33418   3.609   0.505   2.880
10840SOL    HW133419   3.625   0.408   2.860
10840SOL    HW233420   3.638   0.525   2.973
10841SOL     OW33421   6.503   4.854   4.904
10841SOL    HW133422   6.539   4.860   4.997
10841SOL    HW233423   6.430   4.921   4.893
10842SOL     OW33424   4.623   2.726   1.309
10842SOL    HW133425   4.546   2.759   1.364
10842SOL    HW233426   4.685   2.673   1.367
10843SOL     OW33427   1.887   1.364   1.096
10843SOL    HW133428   1.968   1.396   1.144
10843SOL    HW233429   1.914   1.310   1.016
10844SOL     OW33430   0.045   4.947   3.579
10844SOL    HW133431   7.000   4.988   3.641
10844SOL    HW233432   0.137   4.957   3.617
10845SOL     OW33433   4.398   6.144   4.847
10845SOL    HW133434   4.467   6.075   4.829
10845SOL    HW233435   4.368   6.137   4.942
10846SOL     OW33436   5.968   6.727   6.892
10846SOL    HW133437   6.017   6.682   6.817
10846SOL    HW233438   6.032   6.784   6.944
10847SOL     OW33439   2.808   2.044   0.116
10847SOL    HW133440   2.737   1.988   0.075
10847SOL    HW233441   2.768   2.103   0.186
10848SOL     OW33442   0.522   3.938   0.860
10848SOL    HW133443   0.471   4.021   0.881
10848SOL    HW233444   0.492   3.864   0.920
10849SOL     OW33445   3.000   4.904   4.244
10849SOL    HW133446   2.934   4.850   4.192
10849SOL    HW233447   2.982   4.894   4.342
10850SOL     OW33448   4.110   6.448   0.200
10850SOL    HW133449   4.206   6.467   0.219
10850SOL    HW233450   4.054   6.477   0.278
10851SOL     OW33451   3.224   4.112   1.211
10851SOL    HW133452   3.190   4.184   1.272
10851SOL    HW233453   3.254   4.034   1.266
10852SOL     OW33454   2.124   1.339   6.909
10852SOL    HW133455   2.165   1.252   6.883
10852SOL    HW233456   2.189   1.391   6.965
10853SOL     OW33457   2.741   3.305   6.031
10853SOL    HW133458   2.658   3.249   6.025
10853SOL    HW233459   2.792   3.298   5.945
10854SOL     OW33460   4.862   5.118   5.200
10854SOL    HW133461   4.933   5.188   5.198
10854SOL    HW233462   4.850   5.080   5.109
10855SOL     OW33463   3.794   0.574   0.812
10855SOL    HW133464   3.716   0.546   0.869
10855SOL    HW233465   3.761   0.633   0.739
10856SOL     OW33466   6.977   1.115   6.616
10856SOL    HW133467   6.990   1.143   6.521
10856SOL    HW233468   0.041   1.080   6.653
10857SOL     OW33469   0.271   1.702   2.560
10857SOL    HW133470   0.261   1.791   2.515
10857SOL    HW233471   0.305   1.635   2.495
10858SOL     OW33472   2.029   6.806   1.023
10858SOL    HW133473   1.977   6.888   1.046
10858SOL    HW233474   2.121   6.812   1.064
10859SOL     OW33475   6.885   4.822   4.323
10859SOL    HW133476   6.790   4.790   4.321
10859SOL    HW233477   6.922   4.813   4.415
10860SOL     OW33478   0.143   3.547   3.869
10860SOL    HW133479   0.165   3.604   3.790
10860SOL    HW233480   0.159   3.451   3.846
10861SOL     OW33481   3.020   3.138   3.448
10861SOL    HW133482   3.007   3.202   3.373
10861SOL    HW233483   3.018   3.187   3.535
10862SOL     OW33484   2.352   1.127   5.716
10862SOL    HW133485   2.438   1.173   5.698
10862SOL    HW233486   2.285   1.151   5.646
10863SOL     OW33487   2.286   0.541   4.754
10863SOL    HW133488   2.372   0.506   4.791
10863SOL    HW233489   2.213   0.474   4.771
10864SOL     OW33490   2.380   6.277   1.136
10864SOL    HW133491   2.362   6.277   1.234
10864SOL    HW233492   2.333   6.354   1.092
10865SOL     OW33493   6.432   1.343   0.129
10865SOL    HW133494   6.517   1.348   0.075
10865SOL    HW233495   6.354   1.343   0.067
10866SOL     OW33496   5.475   5.102   0.194
10866SOL    HW133497   5.568   5.067   0.191
10866SOL    HW233498   5.436   5.102   0.102
10867SOL     OW33499   2.898   4.132   0.590
10867SOL    HW133500   2.900   4.124   0.689
10867SOL    HW233501   2.981   4.178   0.558
10868SOL     OW33502   5.028   1.857   3.687
10868SOL    HW133503   5.083   1.775   3.676
10868SOL    HW233504   5.078   1.936   3.652
10869NA      NA33505   6.526   2.520   5.469
10870NA      NA33506   4.476   4.640   5.130
10871NA      NA33507   1.853   3.047   1.602
10872NA      NA33508   5.039   3.884   5.303
10873NA      NA33509   4.261   2.324   4.805
10874NA      NA33510   3.833   4.887   1.825
10875NA      NA33511   6.605   5.255   5.826
10876NA      NA33512   3.395   3.384   4.554
10877NA      NA33513   4.869   6.078   0.021
10878NA      NA33514   3.590   6.488   5.422
10879NA      NA33515   6.270   5.160   2.727
10880NA      NA33516   2.586   0.554   3.869
10881NA      NA33517   3.764   5.305   1.455
10882NA      NA33518   3.731   3.486   2.395
   7.02134   7.02134   7.02134
