Generated by trjconv : CNT in water t= 562.00000
33518
    1C        C    1   2.840   2.769   4.749
    1C        C    2   2.893   2.713   4.867
    1C        C    3   2.842   2.774   4.983
    1C        C    4   2.845   2.770   4.258
    1C        C    5   2.899   2.728   4.382
    1C        C    6   2.844   2.773   4.504
    1C        C    7   3.013   2.647   4.627
    1C        C    8   2.895   2.725   4.627
    1C        C    9   3.074   2.603   4.746
    1C        C   10   3.005   2.627   4.867
    1C        C   11   3.178   2.488   4.973
    1C        C   12   3.056   2.557   4.977
    1C        C   13   2.849   2.768   3.771
    1C        C   14   2.900   2.719   3.893
    1C        C   15   2.848   2.771   4.014
    1C        C   16   3.019   2.648   4.140
    1C        C   17   2.902   2.726   4.137
    1C        C   18   3.079   2.614   4.263
    1C        C   19   3.016   2.649   4.385
    1C        C   20   3.208   2.557   4.503
    1C        C   21   3.078   2.613   4.506
    1C        C   22   3.277   2.540   4.626
    1C        C   23   3.207   2.552   4.748
    1C        C   24   3.412   2.480   4.865
    1C        C   25   3.271   2.504   4.865
    1C        C   26   3.491   2.481   4.981
    1C        C   27   2.848   2.767   3.280
    1C        C   28   2.903   2.721   3.402
    1C        C   29   2.851   2.769   3.524
    1C        C   30   3.019   2.646   3.650
    1C        C   31   2.899   2.720   3.648
    1C        C   32   3.079   2.609   3.772
    1C        C   33   3.017   2.640   3.895
    1C        C   34   3.208   2.553   4.016
    1C        C   35   3.078   2.608   4.018
    1C        C   36   3.277   2.537   4.139
    1C        C   37   3.210   2.561   4.261
    1C        C   38   3.418   2.512   4.382
    1C        C   39   3.280   2.543   4.383
    1C        C   40   3.487   2.501   4.505
    1C        C   41   3.415   2.511   4.626
    1C        C   42   3.629   2.486   4.743
    1C        C   43   3.487   2.485   4.745
    1C        C   44   3.704   2.488   4.863
    1C        C   45   3.630   2.484   4.982
    1C        C   46   2.832   2.748   2.792
    1C        C   47   2.886   2.702   2.914
    1C        C   48   2.838   2.755   3.036
    1C        C   49   3.016   2.637   3.160
    1C        C   50   2.899   2.716   3.158
    1C        C   51   3.079   2.606   3.282
    1C        C   52   3.019   2.641   3.405
    1C        C   53   3.212   2.555   3.525
    1C        C   54   3.082   2.611   3.528
    1C        C   55   3.278   2.531   3.648
    1C        C   56   3.209   2.551   3.769
    1C        C   57   3.414   2.515   3.896
    1C        C   58   3.274   2.535   3.893
    1C        C   59   3.487   2.506   4.016
    1C        C   60   3.416   2.510   4.138
    1C        C   61   3.629   2.501   4.257
    1C        C   62   3.488   2.504   4.260
    1C        C   63   3.699   2.502   4.379
    1C        C   64   3.628   2.499   4.501
    1C        C   65   3.836   2.543   4.621
    1C        C   66   3.700   2.505   4.623
    1C        C   67   3.905   2.561   4.743
    1C        C   68   3.841   2.522   4.863
    1C        C   69   4.049   2.587   4.978
    1C        C   70   3.922   2.526   4.977
    1C        C   71   2.823   2.736   2.309
    1C        C   72   2.881   2.690   2.430
    1C        C   73   2.826   2.742   2.550
    1C        C   74   3.005   2.624   2.670
    1C        C   75   2.888   2.703   2.670
    1C        C   76   3.070   2.598   2.793
    1C        C   77   3.009   2.632   2.916
    1C        C   78   3.206   2.549   3.035
    1C        C   79   3.075   2.602   3.037
    1C        C   80   3.274   2.528   3.157
    1C        C   81   3.209   2.550   3.281
    1C        C   82   3.414   2.497   3.401
    1C        C   83   3.276   2.527   3.403
    1C        C   84   3.485   2.492   3.523
    1C        C   85   3.418   2.506   3.647
    1C        C   86   3.623   2.502   3.769
    1C        C   87   3.482   2.502   3.773
    1C        C   88   3.695   2.513   3.890
    1C        C   89   3.628   2.507   4.014
    1C        C   90   3.837   2.550   4.137
    1C        C   91   3.700   2.514   4.136
    1C        C   92   3.904   2.572   4.259
    1C        C   93   3.835   2.542   4.379
    1C        C   94   4.029   2.632   4.498
    1C        C   95   3.904   2.567   4.500
    1C        C   96   4.093   2.666   4.619
    1C        C   97   4.033   2.623   4.740
    1C        C   98   4.182   2.771   4.863
    1C        C   99   4.096   2.657   4.863
    1C        C  100   4.208   2.846   4.978
    1C        C  101   2.827   2.728   2.070
    1C        C  102   2.989   2.591   2.191
    1C        C  103   2.875   2.678   2.191
    1C        C  104   3.062   2.572   2.312
    1C        C  105   3.001   2.617   2.431
    1C        C  106   3.200   2.530   2.552
    1C        C  107   3.069   2.584   2.551
    1C        C  108   3.270   2.512   2.674
    1C        C  109   3.198   2.539   2.793
    1C        C  110   3.410   2.495   2.913
    1C        C  111   3.271   2.522   2.912
    1C        C  112   3.483   2.490   3.034
    1C        C  113   3.412   2.499   3.156
    1C        C  114   3.624   2.502   3.279
    1C        C  115   3.484   2.491   3.278
    1C        C  116   3.694   2.508   3.402
    1C        C  117   3.626   2.497   3.525
    1C        C  118   3.832   2.542   3.646
    1C        C  119   3.695   2.507   3.648
    1C        C  120   3.899   2.566   3.768
    1C        C  121   3.834   2.542   3.891
    1C        C  122   4.027   2.633   4.014
    1C        C  123   3.902   2.567   4.013
    1C        C  124   4.091   2.670   4.135
    1C        C  125   4.033   2.630   4.257
    1C        C  126   4.200   2.764   4.378
    1C        C  127   4.093   2.671   4.378
    1C        C  128   4.250   2.814   4.500
    1C        C  129   4.198   2.760   4.620
    1C        C  130   4.319   2.936   4.741
    1C        C  131   4.241   2.817   4.742
    1C        C  132   4.350   3.005   4.860
    1C        C  133   4.287   2.961   4.977
    1C        C  134   3.171   2.461   2.084
    1C        C  135   3.039   2.508   2.085
    1C        C  136   3.259   2.476   2.192
    1C        C  137   3.193   2.516   2.310
    1C        C  138   3.404   2.484   2.427
    1C        C  139   3.264   2.498   2.430
    1C        C  140   3.479   2.486   2.547
    1C        C  141   3.408   2.487   2.669
    1C        C  142   3.621   2.493   2.789
    1C        C  143   3.480   2.486   2.791
    1C        C  144   3.693   2.503   2.910
    1C        C  145   3.624   2.494   3.033
    1C        C  146   3.830   2.539   3.155
    1C        C  147   3.693   2.507   3.155
    1C        C  148   3.896   2.562   3.277
    1C        C  149   3.832   2.541   3.401
    1C        C  150   4.026   2.624   3.523
    1C        C  151   3.898   2.564   3.524
    1C        C  152   4.086   2.662   3.645
    1C        C  153   4.024   2.631   3.768
    1C        C  154   4.192   2.761   3.888
    1C        C  155   4.081   2.673   3.890
    1C        C  156   4.244   2.810   4.010
    1C        C  157   4.200   2.760   4.135
    1C        C  158   4.341   2.921   4.253
    1C        C  159   4.250   2.812   4.256
    1C        C  160   4.373   2.986   4.375
    1C        C  161   4.330   2.931   4.498
    1C        C  162   4.432   3.117   4.616
    1C        C  163   4.363   2.993   4.620
    1C        C  164   4.462   3.185   4.736
    1C        C  165   4.429   3.123   4.859
    1C        C  166   4.509   3.321   4.973
    1C        C  167   4.472   3.187   4.975
    1C        C  168   3.473   2.432   2.071
    1C        C  169   3.399   2.457   2.187
    1C        C  170   3.617   2.468   2.307
    1C        C  171   3.475   2.467   2.306
    1C        C  172   3.693   2.486   2.425
    1C        C  173   3.621   2.488   2.546
    1C        C  174   3.829   2.536   2.663
    1C        C  175   3.693   2.501   2.667
    1C        C  176   3.895   2.562   2.785
    1C        C  177   3.830   2.537   2.909
    1C        C  178   4.022   2.624   3.031
    1C        C  179   3.897   2.558   3.032
    1C        C  180   4.083   2.661   3.153
    1C        C  181   4.025   2.621   3.275
    1C        C  182   4.191   2.750   3.395
    1C        C  183   4.085   2.657   3.398
    1C        C  184   4.241   2.803   3.516
    1C        C  185   4.194   2.753   3.640
    1C        C  186   4.329   2.915   3.764
    1C        C  187   4.241   2.805   3.763
    1C        C  188   4.370   2.977   3.884
    1C        C  189   4.333   2.919   4.008
    1C        C  190   4.436   3.105   4.129
    1C        C  191   4.375   2.978   4.129
    1C        C  192   4.463   3.174   4.249
    1C        C  193   4.432   3.114   4.373
    1C        C  194   4.498   3.318   4.490
    1C        C  195   4.459   3.182   4.494
    1C        C  196   4.518   3.387   4.612
    1C        C  197   4.512   3.318   4.735
    1C        C  198   4.553   3.534   4.850
    1C        C  199   4.532   3.392   4.855
    1C        C  200   4.582   3.617   4.963
    1C        C  201   3.612   2.422   2.073
    1C        C  202   3.830   2.501   2.179
    1C        C  203   3.691   2.465   2.185
    1C        C  204   3.899   2.533   2.299
    1C        C  205   3.831   2.515   2.421
    1C        C  206   4.024   2.614   2.541
    1C        C  207   3.898   2.550   2.540
    1C        C  208   4.084   2.654   2.663
    1C        C  209   4.022   2.623   2.787
    1C        C  210   4.193   2.748   2.906
    1C        C  211   4.082   2.660   2.909
    1C        C  212   4.245   2.797   3.028
    1C        C  213   4.192   2.751   3.150
    1C        C  214   4.328   2.913   3.273
    1C        C  215   4.240   2.802   3.273
    1C        C  216   4.368   2.971   3.396
    1C        C  217   4.331   2.912   3.519
    1C        C  218   4.428   3.100   3.637
    1C        C  219   4.371   2.971   3.641
    1C        C  220   4.453   3.168   3.758
    1C        C  221   4.432   3.104   3.882
    1C        C  222   4.497   3.305   4.003
    1C        C  223   4.461   3.168   4.005
    1C        C  224   4.516   3.377   4.123
    1C        C  225   4.505   3.309   4.246
    1C        C  226   4.523   3.524   4.364
    1C        C  227   4.515   3.383   4.366
    1C        C  228   4.516   3.595   4.486
    1C        C  229   4.528   3.528   4.610
    1C        C  230   4.507   3.743   4.725
    1C        C  231   4.541   3.605   4.728
    1C        C  232   4.500   3.820   4.842
    1C        C  233   4.538   3.750   4.957
    1C        C  234   4.017   2.608   2.063
    1C        C  235   3.900   2.534   2.062
    1C        C  236   4.085   2.646   2.180
    1C        C  237   4.024   2.602   2.299
    1C        C  238   4.200   2.731   2.419
    1C        C  239   4.085   2.646   2.418
    1C        C  240   4.254   2.781   2.539
    1C        C  241   4.197   2.738   2.661
    1C        C  242   4.333   2.903   2.783
    1C        C  243   4.246   2.792   2.783
    1C        C  244   4.372   2.964   2.904
    1C        C  245   4.334   2.907   3.028
    1C        C  246   4.435   3.093   3.148
    1C        C  247   4.371   2.968   3.150
    1C        C  248   4.457   3.161   3.270
    1C        C  249   4.428   3.098   3.393
    1C        C  250   4.493   3.302   3.513
    1C        C  251   4.455   3.166   3.514
    1C        C  252   4.505   3.372   3.635
    1C        C  253   4.491   3.304   3.758
    1C        C  254   4.518   3.514   3.877
    1C        C  255   4.508   3.373   3.880
    1C        C  256   4.521   3.587   3.998
    1C        C  257   4.520   3.518   4.122
    1C        C  258   4.495   3.733   4.241
    1C        C  259   4.513   3.593   4.241
    1C        C  260   4.476   3.804   4.361
    1C        C  261   4.484   3.732   4.483
    1C        C  262   4.424   3.938   4.605
    1C        C  263   4.473   3.806   4.603
    1C        C  264   4.399   4.009   4.724
    1C        C  265   4.436   3.946   4.845
    1C        C  266   4.312   4.125   4.960
    1C        C  267   4.387   4.008   4.961
    1C        C  268   4.266   2.771   2.065
    1C        C  269   4.204   2.723   2.181
    1C        C  270   4.350   2.886   2.297
    1C        C  271   4.257   2.778   2.299
    1C        C  272   4.381   2.953   2.418
    1C        C  273   4.339   2.894   2.539
    1C        C  274   4.439   3.084   2.659
    1C        C  275   4.374   2.959   2.660
    1C        C  276   4.464   3.154   2.779
    1C        C  277   4.437   3.090   2.902
    1C        C  278   4.504   3.291   3.024
    1C        C  279   4.464   3.155   3.024
    1C        C  280   4.514   3.363   3.145
    1C        C  281   4.496   3.297   3.269
    1C        C  282   4.518   3.510   3.388
    1C        C  283   4.502   3.370   3.389
    1C        C  284   4.514   3.581   3.510
    1C        C  285   4.514   3.513   3.634
    1C        C  286   4.496   3.726   3.752
    1C        C  287   4.512   3.585   3.755
    1C        C  288   4.481   3.795   3.875
    1C        C  289   4.498   3.727   3.998
    1C        C  290   4.427   3.930   4.117
    1C        C  291   4.483   3.800   4.117
    1C        C  292   4.402   4.001   4.237
    1C        C  293   4.426   3.936   4.360
    1C        C  294   4.328   4.126   4.477
    1C        C  295   4.390   3.999   4.481
    1C        C  296   4.287   4.185   4.598
    1C        C  297   4.324   4.130   4.722
    1C        C  298   4.199   4.309   4.838
    1C        C  299   4.286   4.196   4.842
    1C        C  300   4.169   4.397   4.947
    1C        C  301   4.350   2.882   2.059
    1C        C  302   4.470   3.067   2.177
    1C        C  303   4.395   2.945   2.176
    1C        C  304   4.482   3.142   2.297
    1C        C  305   4.445   3.078   2.418
    1C        C  306   4.506   3.286   2.535
    1C        C  307   4.474   3.148   2.538
    1C        C  308   4.513   3.360   2.655
    1C        C  309   4.499   3.291   2.778
    1C        C  310   4.521   3.500   2.899
    1C        C  311   4.516   3.359   2.901
    1C        C  312   4.512   3.574   3.020
    1C        C  313   4.510   3.504   3.142
    1C        C  314   4.486   3.716   3.265
    1C        C  315   4.510   3.577   3.264
    1C        C  316   4.472   3.787   3.386
    1C        C  317   4.493   3.721   3.510
    1C        C  318   4.429   3.926   3.629
    1C        C  319   4.480   3.794   3.630
    1C        C  320   4.392   3.987   3.751
    1C        C  321   4.429   3.926   3.873
    1C        C  322   4.323   4.113   3.991
    1C        C  323   4.396   3.992   3.994
    1C        C  324   4.282   4.174   4.112
    1C        C  325   4.327   4.121   4.235
    1C        C  326   4.185   4.282   4.353
    1C        C  327   4.287   4.184   4.355
    1C        C  328   4.134   4.333   4.474
    1C        C  329   4.191   4.289   4.596
    1C        C  330   4.027   4.433   4.712
    1C        C  331   4.139   4.345   4.714
    1C        C  332   3.970   4.489   4.829
    1C        C  333   4.051   4.474   4.942
    1C        C  334   4.549   3.267   2.062
    1C        C  335   4.531   3.128   2.063
    1C        C  336   4.539   3.351   2.174
    1C        C  337   4.520   3.279   2.294
    1C        C  338   4.518   3.497   2.410
    1C        C  339   4.515   3.356   2.412
    1C        C  340   4.520   3.568   2.531
    1C        C  341   4.518   3.501   2.655
    1C        C  342   4.493   3.711   2.775
    1C        C  343   4.518   3.572   2.778
    1C        C  344   4.473   3.781   2.896
    1C        C  345   4.490   3.713   3.018
    1C        C  346   4.429   3.916   3.138
    1C        C  347   4.473   3.782   3.141
    1C        C  348   4.402   3.984   3.259
    1C        C  349   4.431   3.922   3.383
    1C        C  350   4.320   4.103   3.502
    1C        C  351   4.401   3.987   3.504
    1C        C  352   4.274   4.160   3.623
    1C        C  353   4.314   4.104   3.746
    1C        C  354   4.177   4.265   3.866
    1C        C  355   4.272   4.161   3.869
    1C        C  356   4.124   4.315   3.987
    1C        C  357   4.179   4.270   4.109
    1C        C  358   4.010   4.400   4.230
    1C        C  359   4.127   4.321   4.230
    1C        C  360   3.950   4.443   4.351
    1C        C  361   4.017   4.411   4.471
    1C        C  362   3.828   4.512   4.591
    1C        C  363   3.959   4.460   4.591
    1C        C  364   3.761   4.541   4.712
    1C        C  365   3.838   4.537   4.830
    1C        C  366   3.628   4.590   4.948
    1C        C  367   3.766   4.574   4.945
    1C        C  368   4.515   3.567   2.051
    1C        C  369   4.527   3.491   2.168
    1C        C  370   4.505   3.708   2.285
    1C        C  371   4.517   3.567   2.287
    1C        C  372   4.488   3.778   2.407
    1C        C  373   4.501   3.708   2.529
    1C        C  374   4.434   3.911   2.647
    1C        C  375   4.479   3.777   2.651
    1C        C  376   4.404   3.978   2.768
    1C        C  377   4.428   3.915   2.892
    1C        C  378   4.323   4.097   3.011
    1C        C  379   4.399   3.978   3.015
    1C        C  380   4.279   4.156   3.132
    1C        C  381   4.320   4.099   3.254
    1C        C  382   4.178   4.254   3.378
    1C        C  383   4.278   4.154   3.378
    1C        C  384   4.120   4.302   3.497
    1C        C  385   4.175   4.261   3.621
    1C        C  386   4.004   4.385   3.743
    1C        C  387   4.122   4.307   3.743
    1C        C  388   3.942   4.424   3.864
    1C        C  389   4.004   4.390   3.986
    1C        C  390   3.815   4.486   4.108
    1C        C  391   3.946   4.431   4.108
    1C        C  392   3.748   4.508   4.231
    1C        C  393   3.821   4.501   4.351
    1C        C  394   3.614   4.547   4.475
    1C        C  395   3.753   4.525   4.472
    1C        C  396   3.543   4.562   4.596
    1C        C  397   3.621   4.559   4.714
    1C        C  398   3.409   4.544   4.842
    1C        C  399   3.548   4.568   4.835
    1C        C  400   3.337   4.522   4.961
    1C        C  401   4.504   3.706   2.050
    1C        C  402   4.460   3.919   2.165
    1C        C  403   4.497   3.783   2.166
    1C        C  404   4.417   3.981   2.285
    1C        C  405   4.441   3.911   2.405
    1C        C  406   4.335   4.098   2.524
    1C        C  407   4.408   3.978   2.525
    1C        C  408   4.283   4.152   2.644
    1C        C  409   4.323   4.094   2.767
    1C        C  410   4.179   4.250   2.886
    1C        C  411   4.278   4.150   2.888
    1C        C  412   4.125   4.296   3.008
    1C        C  413   4.175   4.252   3.133
    1C        C  414   4.003   4.373   3.252
    1C        C  415   4.123   4.299   3.255
    1C        C  416   3.938   4.405   3.373
    1C        C  417   4.001   4.378   3.497
    1C        C  418   3.810   4.467   3.617
    1C        C  419   3.942   4.416   3.620
    1C        C  420   3.745   4.493   3.740
    1C        C  421   3.811   4.477   3.864
    1C        C  422   3.606   4.524   3.987
    1C        C  423   3.746   4.502   3.986
    1C        C  424   3.538   4.535   4.110
    1C        C  425   3.609   4.534   4.231
    1C        C  426   3.399   4.552   4.358
    1C        C  427   3.540   4.548   4.354
    1C        C  428   3.328   4.551   4.480
    1C        C  429   3.403   4.552   4.600
    1C        C  430   3.193   4.520   4.722
    1C        C  431   3.334   4.538   4.723
    1C        C  432   3.126   4.493   4.844
    1C        C  433   3.203   4.488   4.961
    1C        C  434   4.385   4.124   2.049
    1C        C  435   4.452   4.000   2.051
    1C        C  436   4.304   4.165   2.160
    1C        C  437   4.337   4.098   2.281
    1C        C  438   4.184   4.246   2.401
    1C        C  439   4.290   4.153   2.402
    1C        C  440   4.127   4.296   2.520
    1C        C  441   4.183   4.251   2.642
    1C        C  442   4.006   4.371   2.764
    1C        C  443   4.123   4.292   2.763
    1C        C  444   3.942   4.404   2.886
    1C        C  445   4.006   4.373   3.008
    1C        C  446   3.810   4.458   3.129
    1C        C  447   3.942   4.406   3.129
    1C        C  448   3.743   4.484   3.250
    1C        C  449   3.809   4.464   3.373
    1C        C  450   3.605   4.520   3.496
    1C        C  451   3.744   4.493   3.495
    1C        C  452   3.536   4.530   3.618
    1C        C  453   3.607   4.521   3.740
    1C        C  454   3.397   4.540   3.864
    1C        C  455   3.538   4.530   3.863
    1C        C  456   3.329   4.532   3.987
    1C        C  457   3.396   4.535   4.111
    1C        C  458   3.193   4.503   4.235
    1C        C  459   3.330   4.537   4.236
    1C        C  460   3.125   4.493   4.359
    1C        C  461   3.189   4.524   4.480
    1C        C  462   2.996   4.436   4.603
    1C        C  463   3.121   4.501   4.602
    1C        C  464   2.931   4.403   4.724
    1C        C  465   2.992   4.443   4.847
    1C        C  466   2.798   4.340   4.958
    1C        C  467   2.907   4.428   4.961
    1C        C  468   4.120   4.279   2.040
    1C        C  469   4.187   4.247   2.159
    1C        C  470   4.003   4.363   2.279
    1C        C  471   4.125   4.289   2.280
    1C        C  472   3.943   4.403   2.400
    1C        C  473   4.010   4.374   2.521
    1C        C  474   3.812   4.457   2.642
    1C        C  475   3.944   4.407   2.642
    1C        C  476   3.744   4.483   2.764
    1C        C  477   3.812   4.459   2.885
    1C        C  478   3.606   4.515   3.008
    1C        C  479   3.742   4.478   3.006
    1C        C  480   3.534   4.526   3.129
    1C        C  481   3.604   4.510   3.251
    1C        C  482   3.393   4.532   3.375
    1C        C  483   3.534   4.522   3.373
    1C        C  484   3.324   4.533   3.498
    1C        C  485   3.394   4.537   3.621
    1C        C  486   3.186   4.510   3.746
    1C        C  487   3.324   4.538   3.743
    1C        C  488   3.120   4.484   3.868
    1C        C  489   3.190   4.507   3.989
    1C        C  490   2.999   4.420   4.117
    1C        C  491   3.125   4.484   4.113
    1C        C  492   2.936   4.389   4.239
    1C        C  493   2.998   4.431   4.359
    1C        C  494   2.827   4.305   4.482
    1C        C  495   2.938   4.393   4.481
    1C        C  496   2.774   4.257   4.604
    1C        C  497   2.821   4.312   4.725
    1C        C  498   2.666   4.165   4.843
    1C        C  499   2.750   4.278   4.842
    1C        C  500   2.598   4.116   4.955
    1C        C  501   4.002   4.352   2.040
    1C        C  502   3.815   4.461   2.154
    1C        C  503   3.939   4.394   2.158
    1C        C  504   3.744   4.476   2.276
    1C        C  505   3.810   4.452   2.398
    1C        C  506   3.605   4.504   2.518
    1C        C  507   3.743   4.476   2.520
    1C        C  508   3.535   4.510   2.641
    1C        C  509   3.605   4.508   2.763
    1C        C  510   3.394   4.525   2.885
    1C        C  511   3.535   4.519   2.885
    1C        C  512   3.323   4.520   3.007
    1C        C  513   3.393   4.530   3.129
    1C        C  514   3.186   4.497   3.255
    1C        C  515   3.324   4.528   3.253
    1C        C  516   3.119   4.475   3.377
    1C        C  517   3.187   4.496   3.499
    1C        C  518   2.996   4.416   3.624
    1C        C  519   3.121   4.483   3.623
    1C        C  520   2.940   4.378   3.748
    1C        C  521   2.997   4.416   3.872
    1C        C  522   2.833   4.286   3.994
    1C        C  523   2.940   4.378   3.995
    1C        C  524   2.785   4.239   4.119
    1C        C  525   2.830   4.296   4.240
    1C        C  526   2.696   4.134   4.362
    1C        C  527   2.775   4.251   4.363
    1C        C  528   2.664   4.073   4.485
    1C        C  529   2.696   4.139   4.606
    1C        C  530   2.586   3.959   4.730
    1C        C  531   2.642   4.090   4.726
    1C        C  532   2.546   3.902   4.854
    1C        C  533   2.523   3.997   4.958
    1C        C  534   3.620   4.557   2.041
    1C        C  535   3.748   4.499   2.037
    1C        C  536   3.537   4.532   2.154
    1C        C  537   3.606   4.508   2.276
    1C        C  538   3.392   4.511   2.400
    1C        C  539   3.533   4.515   2.397
    1C        C  540   3.321   4.509   2.522
    1C        C  541   3.393   4.512   2.643
    1C        C  542   3.182   4.487   2.764
    1C        C  543   3.321   4.512   2.765
    1C        C  544   3.117   4.469   2.888
    1C        C  545   3.186   4.486   3.010
    1C        C  546   2.994   4.405   3.132
    1C        C  547   3.119   4.469   3.133
    1C        C  548   2.935   4.372   3.256
    1C        C  549   2.992   4.414   3.379
    1C        C  550   2.829   4.284   3.505
    1C        C  551   2.935   4.377   3.503
    1C        C  552   2.783   4.232   3.628
    1C        C  553   2.832   4.286   3.748
    1C        C  554   2.703   4.120   3.874
    1C        C  555   2.790   4.232   3.871
    1C        C  556   2.662   4.065   3.997
    1C        C  557   2.703   4.124   4.119
    1C        C  558   2.597   3.943   4.244
    1C        C  559   2.658   4.071   4.241
    1C        C  560   2.571   3.879   4.368
    1C        C  561   2.596   3.949   4.488
    1C        C  562   2.530   3.750   4.614
    1C        C  563   2.563   3.887   4.610
    1C        C  564   2.524   3.682   4.737
    1C        C  565   2.530   3.760   4.856
    1C        C  566   2.531   3.545   4.978
    1C        C  567   2.525   3.684   4.974
    1C        C  568   3.322   4.483   2.041
    1C        C  569   3.397   4.507   2.157
    1C        C  570   3.182   4.475   2.279
    1C        C  571   3.321   4.502   2.278
    1C        C  572   3.113   4.460   2.402
    1C        C  573   3.182   4.483   2.523
    1C        C  574   2.984   4.404   2.646
    1C        C  575   3.112   4.463   2.644
    1C        C  576   2.928   4.365   2.770
    1C        C  577   2.994   4.398   2.890
    1C        C  578   2.823   4.273   3.018
    1C        C  579   2.932   4.363   3.012
    1C        C  580   2.778   4.221   3.141
    1C        C  581   2.831   4.277   3.259
    1C        C  582   2.699   4.115   3.385
    1C        C  583   2.780   4.231   3.383
    1C        C  584   2.664   4.056   3.509
    1C        C  585   2.700   4.118   3.631
    1C        C  586   2.597   3.933   3.752
    1C        C  587   2.660   4.059   3.754
    1C        C  588   2.578   3.871   3.878
    1C        C  589   2.601   3.938   4.000
    1C        C  590   2.539   3.737   4.127
    1C        C  591   2.574   3.874   4.123
    1C        C  592   2.526   3.670   4.251
    1C        C  593   2.535   3.743   4.372
    1C        C  594   2.514   3.533   4.497
    1C        C  595   2.520   3.674   4.495
    1C        C  596   2.524   3.465   4.620
    1C        C  597   2.525   3.540   4.740
    1C        C  598   2.537   3.326   4.860
    1C        C  599   2.528   3.467   4.861
    1C        C  600   2.532   3.251   4.978
    1C        C  601   3.189   4.446   2.038
    1C        C  602   2.982   4.391   2.158
    1C        C  603   3.118   4.436   2.159
    1C        C  604   2.924   4.358   2.283
    1C        C  605   2.986   4.400   2.403
    1C        C  606   2.818   4.271   2.529
    1C        C  607   2.924   4.364   2.525
    1C        C  608   2.770   4.220   2.652
    1C        C  609   2.820   4.274   2.773
    1C        C  610   2.684   4.113   2.897
    1C        C  611   2.774   4.222   2.896
    1C        C  612   2.646   4.056   3.020
    1C        C  613   2.689   4.111   3.143
    1C        C  614   2.588   3.927   3.265
    1C        C  615   2.653   4.053   3.267
    1C        C  616   2.567   3.864   3.390
    1C        C  617   2.601   3.930   3.511
    1C        C  618   2.534   3.728   3.637
    1C        C  619   2.570   3.864   3.632
    1C        C  620   2.523   3.662   3.761
    1C        C  621   2.536   3.736   3.881
    1C        C  622   2.512   3.527   4.009
    1C        C  623   2.529   3.668   4.004
    1C        C  624   2.519   3.458   4.131
    1C        C  625   2.521   3.529   4.254
    1C        C  626   2.539   3.320   4.376
    1C        C  627   2.517   3.460   4.377
    1C        C  628   2.553   3.253   4.499
    1C        C  629   2.532   3.324   4.620
    1C        C  630   2.590   3.116   4.743
    1C        C  631   2.549   3.252   4.741
    1C        C  632   2.618   3.048   4.865
    1C        C  633   2.567   3.115   4.981
    1C        C  634   2.777   4.304   2.053
    1C        C  635   2.891   4.385   2.047
    1C        C  636   2.750   4.227   2.167
    1C        C  637   2.812   4.270   2.286
    1C        C  638   2.679   4.108   2.409
    1C        C  639   2.762   4.222   2.409
    1C        C  640   2.644   4.047   2.532
    1C        C  641   2.687   4.106   2.653
    1C        C  642   2.591   3.920   2.776
    1C        C  643   2.650   4.048   2.776
    1C        C  644   2.560   3.861   2.900
    1C        C  645   2.585   3.929   3.022
    1C        C  646   2.530   3.723   3.146
    1C        C  647   2.564   3.860   3.144
    1C        C  648   2.515   3.656   3.270
    1C        C  649   2.532   3.728   3.390
    1C        C  650   2.514   3.518   3.518
    1C        C  651   2.525   3.659   3.513
    1C        C  652   2.515   3.451   3.642
    1C        C  653   2.518   3.521   3.765
    1C        C  654   2.534   3.313   3.888
    1C        C  655   2.513   3.453   3.889
    1C        C  656   2.556   3.247   4.011
    1C        C  657   2.542   3.319   4.132
    1C        C  658   2.598   3.116   4.258
    1C        C  659   2.551   3.249   4.254
    1C        C  660   2.636   3.055   4.379
    1C        C  661   2.603   3.121   4.500
    1C        C  662   2.705   2.936   4.624
    1C        C  663   2.625   3.053   4.622
    1C        C  664   2.749   2.878   4.744
    1C        C  665   2.696   2.929   4.867
    1C        C  666   2.740   2.868   4.985
    1C        C  667   2.684   4.022   2.052
    1C        C  668   2.681   4.104   2.166
    1C        C  669   2.589   3.913   2.289
    1C        C  670   2.644   4.044   2.288
    1C        C  671   2.563   3.849   2.412
    1C        C  672   2.583   3.920   2.533
    1C        C  673   2.529   3.715   2.657
    1C        C  674   2.563   3.852   2.655
    1C        C  675   2.511   3.651   2.782
    1C        C  676   2.525   3.724   2.902
    1C        C  677   2.513   3.512   3.030
    1C        C  678   2.516   3.653   3.024
    1C        C  679   2.514   3.441   3.152
    1C        C  680   2.510   3.515   3.273
    1C        C  681   2.533   3.306   3.399
    1C        C  682   2.513   3.446   3.397
    1C        C  683   2.557   3.241   3.522
    1C        C  684   2.540   3.312   3.644
    1C        C  685   2.602   3.111   3.768
    1C        C  686   2.550   3.242   3.766
    1C        C  687   2.637   3.051   3.891
    1C        C  688   2.609   3.116   4.013
    1C        C  689   2.708   2.932   4.136
    1C        C  690   2.633   3.052   4.137
    1C        C  691   2.751   2.876   4.258
    1C        C  692   2.712   2.936   4.380
    1C        C  693   2.751   2.878   4.503
    1C        C  694   2.632   3.892   2.054
    1C        C  695   2.526   3.706   2.175
    1C        C  696   2.576   3.837   2.170
    1C        C  697   2.506   3.638   2.298
    1C        C  698   2.522   3.714   2.416
    1C        C  699   2.495   3.503   2.540
    1C        C  700   2.507   3.643   2.538
    1C        C  701   2.502   3.436   2.664
    1C        C  702   2.504   3.510   2.785
    1C        C  703   2.532   3.301   2.910
    1C        C  704   2.515   3.441   2.908
    1C        C  705   2.551   3.232   3.032
    1C        C  706   2.537   3.302   3.154
    1C        C  707   2.596   3.102   3.276
    1C        C  708   2.547   3.235   3.279
    1C        C  709   2.627   3.042   3.400
    1C        C  710   2.602   3.107   3.523
    1C        C  711   2.710   2.927   3.647
    1C        C  712   2.632   3.045   3.646
    1C        C  713   2.757   2.875   3.770
    1C        C  714   2.713   2.932   3.891
    1C        C  715   2.756   2.878   4.015
    1C        C  716   2.455   3.499   2.061
    1C        C  717   2.486   3.636   2.060
    1C        C  718   2.471   3.420   2.178
    1C        C  719   2.486   3.497   2.297
    1C        C  720   2.519   3.290   2.421
    1C        C  721   2.490   3.428   2.420
    1C        C  722   2.539   3.224   2.545
    1C        C  723   2.523   3.297   2.664
    1C        C  724   2.594   3.099   2.789
    1C        C  725   2.545   3.231   2.788
    1C        C  726   2.622   3.033   2.910
    1C        C  727   2.595   3.098   3.033
    1C        C  728   2.707   2.920   3.156
    1C        C  729   2.628   3.036   3.155
    1C        C  730   2.755   2.874   3.281
    1C        C  731   2.709   2.927   3.403
    1C        C  732   2.752   2.870   3.525
    1C        C  733   2.491   3.194   2.070
    1C        C  734   2.487   3.277   2.183
    1C        C  735   2.582   3.082   2.303
    1C        C  736   2.528   3.214   2.303
    1C        C  737   2.610   3.018   2.426
    1C        C  738   2.585   3.090   2.545
    1C        C  739   2.692   2.909   2.670
    1C        C  740   2.623   3.032   2.668
    1C        C  741   2.737   2.852   2.792
    1C        C  742   2.692   2.910   2.912
    1C        C  743   2.743   2.859   3.033
    1C        C  744   2.553   3.069   2.069
    1C        C  745   2.683   2.893   2.181
    1C        C  746   2.614   3.016   2.183
    1C        C  747   2.725   2.839   2.304
    1C        C  748   2.688   2.901   2.426
    1C        C  749   2.732   2.848   2.549
    1C        C  750   2.736   2.834   2.065
    1C        C  751   3.662   2.347   1.956
    1C        O  752   3.673   2.222   1.967
    1C        O  753   3.632   2.390   1.826
    1C        C  754   4.623   3.048   1.978
    1C        O  755   4.584   3.042   1.859
    1C        O  756   4.762   3.070   1.974
    1C        C  757   4.436   4.214   1.943
    1C        O  758   4.551   4.263   1.958
    1C        O  759   4.376   4.230   1.818
    1C        C  760   3.602   4.665   1.942
    1C        O  761   3.592   4.787   1.974
    1C        O  762   3.652   4.654   1.812
    1C        C  763   2.867   4.503   1.961
    1C        O  764   2.882   4.480   1.838
    1C        O  765   2.763   4.595   1.980
    1C        C  766   2.356   3.457   1.960
    1C        O  767   2.395   3.431   1.843
    1C        O  768   2.234   3.521   1.933
    1C        C  769   4.711   3.603   5.035
    1C        O  770   4.729   3.660   5.146
    1C        O  771   4.832   3.588   4.967
    1C        C  772   4.276   4.445   5.037
    1C        O  773   4.252   4.459   5.160
    1C        O  774   4.366   4.543   4.995
    1C        C  775   4.137   2.544   5.089
    1C        O  776   4.160   2.423   5.112
    1C        O  777   4.126   2.611   5.212
    1C        C  778   2.887   4.539   5.058
    1C        O  779   2.829   4.645   5.020
    1C        O  780   2.874   4.526   5.196
    1C        C  781   2.509   3.040   5.094
    1C        O  782   2.398   2.979   5.088
    1C        O  783   2.553   3.058   5.225
    1C        C  784   2.400   4.008   5.039
    1C        O  785   2.282   4.009   4.995
    1C        O  786   2.415   3.971   5.173
    1C        C  787   2.956   2.452   1.976
    1C        O  788   2.978   2.495   1.859
    1C        O  789   2.916   2.319   1.981
    1C        C  790   3.181   2.376   5.070
    1C        O  791   3.192   2.258   5.028
    1C        O  792   3.198   2.386   5.209
    1C        H  793   4.284   3.026   5.061
    1C        H  794   4.169   2.812   5.072
    1C        H  795   4.521   3.124   5.047
    1C        H  796   4.584   3.335   5.048
    1C        H  797   4.566   3.814   5.039
    1C        H  798   4.457   4.007   5.042
    1C        H  799   4.251   4.141   5.047
    1C        H  800   4.034   4.547   5.018
    1C        H  801   3.814   4.565   5.041
    1C        H  802   3.591   4.657   5.022
    1C        H  803   3.380   4.549   5.056
    1C        H  804   3.163   4.447   5.052
    1C        H  805   3.883   2.495   5.071
    1C        H  806   3.676   2.517   5.073
    1C        H  807   2.992   2.536   5.060
    1C        H  808   3.442   2.452   5.072
    1C        H  809   2.904   2.775   5.071
    1C        H  810   2.682   2.868   5.075
    1C        H  811   2.452   3.276   5.045
    1C        H  812   2.561   3.499   5.069
    1C        H  813   2.543   3.734   5.067
    1C        H  814   2.607   4.168   5.049
    1C        H  815   2.740   4.324   5.047
    1C        H  816   2.712   2.871   1.967
    1C        H  817   2.880   2.709   1.979
    1C        H  818   3.208   2.412   1.997
    1C        H  819   3.420   2.421   1.978
    1C        H  820   3.901   2.465   1.981
    1C        H  821   4.075   2.613   1.974
    1C        H  822   4.254   2.719   1.972
    1C        H  823   4.375   2.923   1.964
    1C        H  824   4.557   3.306   1.963
    1C        H  825   4.547   3.529   1.956
    1C        H  826   4.493   3.754   1.955
    1C        H  827   3.777   4.461   1.941
    1C        H  828   3.985   4.404   1.948
    1C        H  829   4.164   4.256   1.945
    1C        H  830   4.506   3.968   1.965
    1C        H  831   2.642   3.830   1.968
    1C        H  832   2.755   4.050   1.977
    1C        H  833   2.698   4.325   1.983
    1C        H  834   3.371   4.484   1.946
    1C        H  835   3.136   4.444   1.946
    1C        H  836   2.543   3.013   1.978
    1C        H  837   2.496   3.238   1.973
    1C        H  838   2.463   3.690   1.971
    2V3OU   H29  839   2.799   3.553   6.180
    2V3OU   C27  840   2.775   3.505   6.278
    2V3OU   H27  841   2.718   3.567   6.352
    2V3OU   H28  842   2.729   3.405   6.258
    2V3OU   O11  843   2.905   3.472   6.326
    2V3OU   C15  844   2.918   3.394   6.440
    2V3OU   C13  845   3.048   3.374   6.489
    2V3OU   C14  846   3.074   3.261   6.568
    2V3OU   C16  847   2.966   3.188   6.616
    2V3OU    H6  848   2.989   3.101   6.680
    2V3OU   C12  849   3.216   3.231   6.599
    2V3OU    O2  850   3.242   3.122   6.654
    2V3OU   C10  851   3.325   3.308   6.538
    2V3OU    C8  852   3.458   3.270   6.555
    2V3OU   O10  853   3.486   3.146   6.602
    2V3OU   H26  854   3.398   3.111   6.625
    2V3OU    C6  855   3.565   3.350   6.504
    2V3OU    C5  856   3.533   3.468   6.439
    2V3OU    C4  857   3.703   3.292   6.497
    2V3OU    H4  858   3.720   3.225   6.586
    2V3OU    H5  859   3.710   3.227   6.405
    2V3OU    C2  860   3.816   3.396   6.498
    2V3OU    O6  861   3.811   3.472   6.618
    2V3OU   H21  862   3.762   3.551   6.591
    2V3OU    C3  863   3.782   3.491   6.383
    2V3OU    H2  864   3.866   3.564   6.370
    2V3OU    H3  865   3.781   3.431   6.288
    2V3OU   C25  866   3.949   3.323   6.481
    2V3OU    O7  867   3.997   3.297   6.371
    2V3OU   C26  868   4.030   3.288   6.605
    2V3OU   H22  869   4.061   3.387   6.648
    2V3OU   H23  870   4.118   3.224   6.580
    2V3OU    O8  871   3.959   3.212   6.701
    2V3OU   H24  872   3.928   3.268   6.774
    2V3OU    C1  873   3.647   3.558   6.401
    2V3OU    H1  874   3.625   3.616   6.306
    2V3OU    O3  875   3.654   3.653   6.508
    2V3OU   C19  876   3.620   3.791   6.493
    2V3OU    H9  877   3.519   3.808   6.445
    2V3OU    O4  878   3.714   3.842   6.402
    2V3OU   C20  879   3.843   3.873   6.457
    2V3OU   H10  880   3.898   3.774   6.466
    2V3OU   C24  881   3.611   3.854   6.632
    2V3OU   H16  882   3.542   3.784   6.686
    2V3OU   H17  883   3.565   3.956   6.631
    2V3OU   C23  884   3.752   3.871   6.688
    2V3OU   H15  885   3.798   3.768   6.702
    2V3OU    N1  886   3.740   3.952   6.808
    2V3OU   H19  887   3.807   3.923   6.876
    2V3OU   H20  888   3.651   3.943   6.851
    2V3OU   C21  889   3.849   3.946   6.591
    2V3OU   H11  890   3.949   3.929   6.641
    2V3OU    O5  891   3.826   4.086   6.598
    2V3OU   H18  892   3.781   4.096   6.683
    2V3OU   C22  893   3.911   3.954   6.347
    2V3OU   H12  894   3.857   4.052   6.341
    2V3OU   H13  895   3.908   3.895   6.252
    2V3OU   H14  896   4.019   3.966   6.372
    2V3OU   C11  897   3.156   3.471   6.468
    2V3OU    O1  898   3.135   3.587   6.425
    2V3OU    C9  899   3.296   3.424   6.462
    2V3OU    C7  900   3.398   3.504   6.410
    2V3OU    O9  901   3.382   3.616   6.332
    2V3OU   H25  902   3.286   3.625   6.321
    2V3OU   C17  903   2.814   3.315   6.493
    2V3OU    H7  904   2.711   3.340   6.466
    2V3OU   C18  905   2.834   3.210   6.582
    2V3OU    H8  906   2.753   3.150   6.625
    3SOL     OW  907   3.110   3.482   4.500
    3SOL    HW1  908   3.064   3.566   4.531
    3SOL    HW2  909   3.209   3.495   4.507
    4SOL     OW  910   0.964   0.108   0.769
    4SOL    HW1  911   1.006   0.198   0.754
    4SOL    HW2  912   0.865   0.120   0.779
    5SOL     OW  913   4.220   2.120   0.717
    5SOL    HW1  914   4.237   2.208   0.761
    5SOL    HW2  915   4.126   2.091   0.734
    6SOL     OW  916   3.656   1.800   2.475
    6SOL    HW1  917   3.679   1.895   2.454
    6SOL    HW2  918   3.602   1.761   2.401
    7SOL     OW  919   2.362   2.734   4.712
    7SOL    HW1  920   2.309   2.652   4.732
    7SOL    HW2  921   2.359   2.752   4.614
    8SOL     OW  922   1.109   2.240   5.986
    8SOL    HW1  923   1.147   2.224   5.895
    8SOL    HW2  924   1.103   2.153   6.036
    9SOL     OW  925   2.090   2.148   5.811
    9SOL    HW1  926   2.172   2.092   5.821
    9SOL    HW2  927   2.055   2.138   5.718
   10SOL     OW  928   5.475   5.197   1.117
   10SOL    HW1  929   5.465   5.295   1.105
   10SOL    HW2  930   5.573   5.173   1.118
   11SOL     OW  931   3.383   1.416   0.225
   11SOL    HW1  932   3.304   1.383   0.174
   11SOL    HW2  933   3.426   1.340   0.274
   12SOL     OW  934   5.270   4.800   1.284
   12SOL    HW1  935   5.347   4.829   1.340
   12SOL    HW2  936   5.202   4.874   1.279
   13SOL     OW  937   4.899   5.708   1.822
   13SOL    HW1  938   4.847   5.663   1.750
   13SOL    HW2  939   4.964   5.642   1.861
   14SOL     OW  940   4.142   5.878   1.069
   14SOL    HW1  941   4.181   5.789   1.044
   14SOL    HW2  942   4.171   5.947   1.002
   15SOL     OW  943   0.877   6.958   6.633
   15SOL    HW1  944   0.877   7.009   6.547
   15SOL    HW2  945   0.954   6.894   6.634
   16SOL     OW  946   1.942   5.483   5.272
   16SOL    HW1  947   2.029   5.453   5.312
   16SOL    HW2  948   1.877   5.407   5.272
   17SOL     OW  949   0.102   2.153   3.814
   17SOL    HW1  950   0.182   2.116   3.861
   17SOL    HW2  951   0.098   2.115   3.721
   18SOL     OW  952   2.775   0.866   5.646
   18SOL    HW1  953   2.772   0.964   5.624
   18SOL    HW2  954   2.869   0.832   5.634
   19SOL     OW  955   3.168   5.586   3.275
   19SOL    HW1  956   3.196   5.577   3.370
   19SOL    HW2  957   3.230   5.532   3.217
   20SOL     OW  958   6.911   1.539   4.958
   20SOL    HW1  959   6.862   1.480   4.895
   20SOL    HW2  960   6.923   1.630   4.917
   21SOL     OW  961   1.145   3.381   1.923
   21SOL    HW1  962   1.137   3.477   1.952
   21SOL    HW2  963   1.058   3.351   1.884
   22SOL     OW  964   0.444   1.323   0.450
   22SOL    HW1  965   0.449   1.229   0.415
   22SOL    HW2  966   0.355   1.337   0.494
   23SOL     OW  967   6.967   5.102   6.989
   23SOL    HW1  968   6.875   5.134   7.013
   23SOL    HW2  969   0.008   5.179   6.988
   24SOL     OW  970   4.966   0.816   0.186
   24SOL    HW1  971   4.906   0.785   0.112
   24SOL    HW2  972   4.943   0.910   0.210
   25SOL     OW  973   1.160   0.813   4.766
   25SOL    HW1  974   1.176   0.818   4.865
   25SOL    HW2  975   1.248   0.821   4.718
   26SOL     OW  976   2.092   6.907   5.843
   26SOL    HW1  977   2.092   6.961   5.927
   26SOL    HW2  978   2.077   6.810   5.866
   27SOL     OW  979   0.158   6.805   2.925
   27SOL    HW1  980   0.073   6.807   2.873
   27SOL    HW2  981   0.137   6.807   3.023
   28SOL     OW  982   1.524   0.687   5.590
   28SOL    HW1  983   1.565   0.603   5.625
   28SOL    HW2  984   1.557   0.704   5.497
   29SOL     OW  985   5.867   0.941   1.272
   29SOL    HW1  986   5.918   1.005   1.330
   29SOL    HW2  987   5.913   0.933   1.183
   30SOL     OW  988   4.493   0.130   4.519
   30SOL    HW1  989   4.495   0.175   4.608
   30SOL    HW2  990   4.582   0.141   4.475
   31SOL     OW  991   6.104   4.695   4.733
   31SOL    HW1  992   6.020   4.748   4.736
   31SOL    HW2  993   6.091   4.614   4.676
   32SOL     OW  994   3.093   1.317   0.933
   32SOL    HW1  995   3.046   1.303   0.846
   32SOL    HW2  996   3.026   1.325   1.007
   33SOL     OW  997   1.613   4.422   5.929
   33SOL    HW1  998   1.665   4.455   5.851
   33SOL    HW2  999   1.675   4.388   5.999
   34SOL     OW 1000   2.729   6.508   5.437
   34SOL    HW1 1001   2.663   6.436   5.417
   34SOL    HW2 1002   2.682   6.584   5.482
   35SOL     OW 1003   1.894   2.647   4.587
   35SOL    HW1 1004   1.806   2.625   4.545
   35SOL    HW2 1005   1.887   2.734   4.636
   36SOL     OW 1006   5.493   1.378   4.360
   36SOL    HW1 1007   5.550   1.366   4.442
   36SOL    HW2 1008   5.417   1.313   4.363
   37SOL     OW 1009   1.904   6.644   4.459
   37SOL    HW1 1010   1.840   6.573   4.432
   37SOL    HW2 1011   1.854   6.720   4.501
   38SOL     OW 1012   0.927   3.403   1.198
   38SOL    HW1 1013   0.951   3.315   1.241
   38SOL    HW2 1014   0.910   3.388   1.101
   39SOL     OW 1015   6.532   5.232   1.441
   39SOL    HW1 1016   6.621   5.193   1.417
   39SOL    HW2 1017   6.523   5.322   1.397
   40SOL     OW 1018   4.227   0.796   7.017
   40SOL    HW1 1019   4.259   0.710   0.035
   40SOL    HW2 1020   4.144   0.826   0.043
   41SOL     OW 1021   5.971   3.857   1.719
   41SOL    HW1 1022   5.895   3.796   1.697
   41SOL    HW2 1023   5.959   3.944   1.670
   42SOL     OW 1024   2.423   3.728   0.496
   42SOL    HW1 1025   2.419   3.824   0.468
   42SOL    HW2 1026   2.513   3.709   0.536
   43SOL     OW 1027   5.030   0.582   3.727
   43SOL    HW1 1028   5.020   0.483   3.735
   43SOL    HW2 1029   5.125   0.607   3.741
   44SOL     OW 1030   6.920   0.640   0.152
   44SOL    HW1 1031   6.832   0.614   0.193
   44SOL    HW2 1032   6.988   0.570   0.174
   45SOL     OW 1033   2.392   3.919   5.920
   45SOL    HW1 1034   2.450   3.974   5.980
   45SOL    HW2 1035   2.434   3.829   5.906
   46SOL     OW 1036   1.432   4.563   4.619
   46SOL    HW1 1037   1.466   4.582   4.711
   46SOL    HW2 1038   1.502   4.516   4.566
   47SOL     OW 1039   6.650   4.196   6.831
   47SOL    HW1 1040   6.654   4.097   6.841
   47SOL    HW2 1041   6.714   4.225   6.759
   48SOL     OW 1042   0.525   4.163   0.186
   48SOL    HW1 1043   0.619   4.142   0.160
   48SOL    HW2 1044   0.482   4.216   0.113
   49SOL     OW 1045   3.141   1.129   6.919
   49SOL    HW1 1046   3.137   1.165   7.012
   49SOL    HW2 1047   3.165   1.032   6.921
   50SOL     OW 1048   5.044   2.338   5.914
   50SOL    HW1 1049   5.102   2.270   5.870
   50SOL    HW2 1050   4.980   2.293   5.977
   51SOL     OW 1051   1.631   6.450   2.050
   51SOL    HW1 1052   1.669   6.410   1.967
   51SOL    HW2 1053   1.559   6.390   2.086
   52SOL     OW 1054   5.664   2.829   2.791
   52SOL    HW1 1055   5.698   2.875   2.709
   52SOL    HW2 1056   5.668   2.892   2.869
   53SOL     OW 1057   4.438   0.076   0.663
   53SOL    HW1 1058   4.502   0.150   0.684
   53SOL    HW2 1059   4.346   0.102   0.691
   54SOL     OW 1060   0.221   1.049   6.095
   54SOL    HW1 1061   0.226   1.068   6.193
   54SOL    HW2 1062   0.297   1.093   6.048
   55SOL     OW 1063   1.967   3.150   6.764
   55SOL    HW1 1064   2.010   3.220   6.821
   55SOL    HW2 1065   2.034   3.112   6.701
   56SOL     OW 1066   0.983   2.260   6.395
   56SOL    HW1 1067   0.967   2.161   6.397
   56SOL    HW2 1068   0.909   2.306   6.444
   57SOL     OW 1069   3.963   5.195   1.392
   57SOL    HW1 1070   3.977   5.294   1.390
   57SOL    HW2 1071   3.992   5.156   1.305
   58SOL     OW 1072   0.414   1.237   0.101
   58SOL    HW1 1073   0.508   1.264   0.080
   58SOL    HW2 1074   0.408   1.211   0.197
   59SOL     OW 1075   4.051   2.797   6.983
   59SOL    HW1 1076   4.061   2.736   6.905
   59SOL    HW2 1077   4.138   2.846   6.998
   60SOL     OW 1078   6.463   2.832   2.659
   60SOL    HW1 1079   6.497   2.738   2.671
   60SOL    HW2 1080   6.381   2.830   2.601
   61SOL     OW 1081   1.841   5.539   2.868
   61SOL    HW1 1082   1.761   5.586   2.904
   61SOL    HW2 1083   1.812   5.466   2.806
   62SOL     OW 1084   4.868   3.047   3.669
   62SOL    HW1 1085   4.945   3.107   3.649
   62SOL    HW2 1086   4.831   3.009   3.584
   63SOL     OW 1087   4.019   0.104   6.487
   63SOL    HW1 1088   3.924   0.133   6.500
   63SOL    HW2 1089   4.070   0.117   6.572
   64SOL     OW 1090   2.080   2.257   6.629
   64SOL    HW1 1091   2.055   2.221   6.539
   64SOL    HW2 1092   2.165   2.309   6.622
   65SOL     OW 1093   0.650   5.227   5.259
   65SOL    HW1 1094   0.593   5.202   5.181
   65SOL    HW2 1095   0.667   5.326   5.258
   66SOL     OW 1096   4.197   0.953   1.225
   66SOL    HW1 1097   4.295   0.961   1.239
   66SOL    HW2 1098   4.172   0.997   1.139
   67SOL     OW 1099   7.001   3.421   1.788
   67SOL    HW1 1100   6.921   3.363   1.774
   67SOL    HW2 1101   0.009   3.412   1.883
   68SOL     OW 1102   1.085   1.126   6.522
   68SOL    HW1 1103   1.137   1.210   6.535
   68SOL    HW2 1104   1.002   1.146   6.470
   69SOL     OW 1105   1.818   0.371   6.301
   69SOL    HW1 1106   1.718   0.380   6.308
   69SOL    HW2 1107   1.851   0.427   6.225
   70SOL     OW 1108   4.630   5.166   3.363
   70SOL    HW1 1109   4.590   5.192   3.275
   70SOL    HW2 1110   4.563   5.114   3.417
   71SOL     OW 1111   5.488   1.011   5.293
   71SOL    HW1 1112   5.568   1.049   5.339
   71SOL    HW2 1113   5.468   1.064   5.211
   72SOL     OW 1114   6.844   1.183   2.601
   72SOL    HW1 1115   6.848   1.173   2.701
   72SOL    HW2 1116   6.882   1.101   2.558
   73SOL     OW 1117   3.033   0.981   0.899
   73SOL    HW1 1118   3.113   0.981   0.960
   73SOL    HW2 1119   2.991   0.891   0.899
   74SOL     OW 1120   2.592   0.709   0.539
   74SOL    HW1 1121   2.567   0.639   0.472
   74SOL    HW2 1122   2.540   0.792   0.521
   75SOL     OW 1123   2.624   2.744   1.638
   75SOL    HW1 1124   2.532   2.740   1.599
   75SOL    HW2 1125   2.659   2.837   1.632
   76SOL     OW 1126   3.478   5.016   6.616
   76SOL    HW1 1127   3.522   5.051   6.699
   76SOL    HW2 1128   3.378   5.025   6.625
   77SOL     OW 1129   6.944   5.131   4.756
   77SOL    HW1 1130   6.935   5.047   4.702
   77SOL    HW2 1131   0.007   5.128   4.808
   78SOL     OW 1132   5.287   1.452   1.435
   78SOL    HW1 1133   5.234   1.504   1.368
   78SOL    HW2 1134   5.289   1.356   1.407
   79SOL     OW 1135   1.720   4.072   4.222
   79SOL    HW1 1136   1.790   4.075   4.150
   79SOL    HW2 1137   1.706   4.164   4.259
   80SOL     OW 1138   3.840   2.405   5.362
   80SOL    HW1 1139   3.809   2.501   5.355
   80SOL    HW2 1140   3.760   2.345   5.365
   81SOL     OW 1141   2.836   4.807   3.440
   81SOL    HW1 1142   2.932   4.809   3.466
   81SOL    HW2 1143   2.786   4.747   3.502
   82SOL     OW 1144   3.048   0.865   1.655
   82SOL    HW1 1145   3.133   0.879   1.706
   82SOL    HW2 1146   2.990   0.946   1.665
   83SOL     OW 1147   5.945   1.995   3.817
   83SOL    HW1 1148   5.965   1.962   3.724
   83SOL    HW2 1149   5.884   1.931   3.863
   84SOL     OW 1150   5.149   2.131   2.840
   84SOL    HW1 1151   5.184   2.060   2.779
   84SOL    HW2 1152   5.225   2.170   2.892
   85SOL     OW 1153   2.674   5.320   3.820
   85SOL    HW1 1154   2.708   5.353   3.732
   85SOL    HW2 1155   2.640   5.397   3.873
   86SOL     OW 1156   4.828   1.071   0.253
   86SOL    HW1 1157   4.779   1.132   0.191
   86SOL    HW2 1158   4.775   0.986   0.264
   87SOL     OW 1159   2.865   2.735   0.198
   87SOL    HW1 1160   2.766   2.727   0.187
   87SOL    HW2 1161   2.890   2.832   0.201
   88SOL     OW 1162   1.572   2.125   1.113
   88SOL    HW1 1163   1.492   2.125   1.173
   88SOL    HW2 1164   1.544   2.104   1.020
   89SOL     OW 1165   3.900   3.537   4.912
   89SOL    HW1 1166   3.822   3.496   4.961
   89SOL    HW2 1167   3.978   3.545   4.974
   90SOL     OW 1168   6.861   3.738   2.554
   90SOL    HW1 1169   6.843   3.649   2.512
   90SOL    HW2 1170   6.826   3.810   2.495
   91SOL     OW 1171   4.653   5.279   0.455
   91SOL    HW1 1172   4.719   5.205   0.441
   91SOL    HW2 1173   4.580   5.246   0.514
   92SOL     OW 1174   5.955   5.890   6.495
   92SOL    HW1 1175   6.031   5.943   6.533
   92SOL    HW2 1176   5.872   5.946   6.493
   93SOL     OW 1177   3.145   3.921   1.651
   93SOL    HW1 1178   3.088   3.839   1.659
   93SOL    HW2 1179   3.193   3.919   1.564
   94SOL     OW 1180   3.204   1.167   4.135
   94SOL    HW1 1181   3.236   1.262   4.130
   94SOL    HW2 1182   3.283   1.106   4.144
   95SOL     OW 1183   1.130   6.243   4.774
   95SOL    HW1 1184   1.214   6.294   4.754
   95SOL    HW2 1185   1.145   6.146   4.758
   96SOL     OW 1186   6.832   6.488   6.976
   96SOL    HW1 1187   6.820   6.588   6.974
   96SOL    HW2 1188   6.811   6.450   6.886
   97SOL     OW 1189   4.054   5.072   4.811
   97SOL    HW1 1190   4.151   5.080   4.787
   97SOL    HW2 1191   4.005   5.029   4.735
   98SOL     OW 1192   0.509   2.556   4.946
   98SOL    HW1 1193   0.423   2.561   4.895
   98SOL    HW2 1194   0.529   2.645   4.986
   99SOL     OW 1195   4.336   4.639   4.606
   99SOL    HW1 1196   4.385   4.588   4.536
   99SOL    HW2 1197   4.276   4.707   4.562
  100SOL     OW 1198   1.243   1.875   5.091
  100SOL    HW1 1199   1.240   1.895   4.993
  100SOL    HW2 1200   1.329   1.907   5.129
  101SOL     OW 1201   5.089   2.852   2.343
  101SOL    HW1 1202   5.181   2.815   2.325
  101SOL    HW2 1203   5.062   2.912   2.267
  102SOL     OW 1204   4.085   6.312   0.599
  102SOL    HW1 1205   4.002   6.368   0.606
  102SOL    HW2 1206   4.165   6.372   0.599
  103SOL     OW 1207   1.813   2.491   1.353
  103SOL    HW1 1208   1.889   2.433   1.322
  103SOL    HW2 1209   1.792   2.470   1.448
  104SOL     OW 1210   0.569   4.379   1.564
  104SOL    HW1 1211   0.655   4.402   1.609
  104SOL    HW2 1212   0.583   4.381   1.465
  105SOL     OW 1213   6.738   1.957   4.903
  105SOL    HW1 1214   6.810   2.027   4.902
  105SOL    HW2 1215   6.681   1.969   4.984
  106SOL     OW 1216   4.822   3.457   1.459
  106SOL    HW1 1217   4.909   3.418   1.491
  106SOL    HW2 1218   4.757   3.383   1.442
  107SOL     OW 1219   4.337   6.989   2.101
  107SOL    HW1 1220   4.350   0.050   2.048
  107SOL    HW2 1221   4.319   7.013   2.196
  108SOL     OW 1222   3.245   1.376   4.564
  108SOL    HW1 1223   3.278   1.295   4.516
  108SOL    HW2 1224   3.146   1.370   4.576
  109SOL     OW 1225   2.264   1.894   5.295
  109SOL    HW1 1226   2.175   1.919   5.258
  109SOL    HW2 1227   2.257   1.886   5.395
  110SOL     OW 1228   4.290   4.615   5.474
  110SOL    HW1 1229   4.256   4.569   5.557
  110SOL    HW2 1230   4.284   4.714   5.486
  111SOL     OW 1231   6.614   3.551   1.313
  111SOL    HW1 1232   6.678   3.521   1.384
  111SOL    HW2 1233   6.523   3.563   1.353
  112SOL     OW 1234   4.021   6.394   4.944
  112SOL    HW1 1235   3.984   6.476   4.899
  112SOL    HW2 1236   3.964   6.372   5.023
  113SOL     OW 1237   1.002   5.463   1.946
  113SOL    HW1 1238   0.994   5.470   2.046
  113SOL    HW2 1239   0.932   5.400   1.912
  114SOL     OW 1240   0.226   1.863   1.589
  114SOL    HW1 1241   0.199   1.790   1.526
  114SOL    HW2 1242   0.151   1.883   1.651
  115SOL     OW 1243   4.284   1.328   3.112
  115SOL    HW1 1244   4.380   1.331   3.084
  115SOL    HW2 1245   4.278   1.350   3.210
  116SOL     OW 1246   5.766   5.837   0.065
  116SOL    HW1 1247   5.693   5.815   0.001
  116SOL    HW2 1248   5.766   5.771   0.140
  117SOL     OW 1249   2.617   1.338   0.964
  117SOL    HW1 1250   2.682   1.358   0.892
  117SOL    HW2 1251   2.607   1.238   0.973
  118SOL     OW 1252   0.801   2.350   2.087
  118SOL    HW1 1253   0.765   2.354   1.993
  118SOL    HW2 1254   0.872   2.280   2.092
  119SOL     OW 1255   5.426   5.413   5.215
  119SOL    HW1 1256   5.376   5.436   5.132
  119SOL    HW2 1257   5.465   5.496   5.255
  120SOL     OW 1258   4.568   1.858   4.830
  120SOL    HW1 1259   4.560   1.759   4.815
  120SOL    HW2 1260   4.664   1.884   4.834
  121SOL     OW 1261   0.063   5.385   5.755
  121SOL    HW1 1262   0.008   5.433   5.824
  121SOL    HW2 1263   0.022   5.399   5.665
  122SOL     OW 1264   0.334   4.810   5.639
  122SOL    HW1 1265   0.400   4.884   5.624
  122SOL    HW2 1266   0.244   4.839   5.608
  123SOL     OW 1267   0.788   2.557   0.854
  123SOL    HW1 1268   0.839   2.582   0.936
  123SOL    HW2 1269   0.691   2.573   0.868
  124SOL     OW 1270   2.041   3.816   0.135
  124SOL    HW1 1271   1.998   3.751   0.073
  124SOL    HW2 1272   2.138   3.793   0.146
  125SOL     OW 1273   4.292   2.386   0.353
  125SOL    HW1 1274   4.220   2.316   0.361
  125SOL    HW2 1275   4.257   2.463   0.299
  126SOL     OW 1276   3.664   3.341   4.754
  126SOL    HW1 1277   3.732   3.401   4.711
  126SOL    HW2 1278   3.700   3.248   4.758
  127SOL     OW 1279   0.009   5.090   5.799
  127SOL    HW1 1280   0.045   5.180   5.774
  127SOL    HW2 1281   6.932   5.097   5.815
  128SOL     OW 1282   4.959   4.387   5.734
  128SOL    HW1 1283   4.949   4.419   5.828
  128SOL    HW2 1284   4.876   4.339   5.706
  129SOL     OW 1285   0.984   5.698   1.792
  129SOL    HW1 1286   1.019   5.627   1.854
  129SOL    HW2 1287   0.989   5.787   1.838
  130SOL     OW 1288   6.453   3.457   4.869
  130SOL    HW1 1289   6.496   3.514   4.799
  130SOL    HW2 1290   6.439   3.365   4.832
  131SOL     OW 1291   0.767   3.563   2.703
  131SOL    HW1 1292   0.766   3.496   2.628
  131SOL    HW2 1293   0.768   3.515   2.790
  132SOL     OW 1294   3.933   3.194   1.801
  132SOL    HW1 1295   3.860   3.223   1.862
  132SOL    HW2 1296   3.893   3.151   1.720
  133SOL     OW 1297   4.172   4.474   5.687
  133SOL    HW1 1298   4.132   4.398   5.738
  133SOL    HW2 1299   4.235   4.524   5.745
  134SOL     OW 1300   6.514   1.623   6.835
  134SOL    HW1 1301   6.444   1.562   6.874
  134SOL    HW2 1302   6.584   1.642   6.904
  135SOL     OW 1303   4.660   5.238   3.674
  135SOL    HW1 1304   4.720   5.191   3.609
  135SOL    HW2 1305   4.578   5.269   3.626
  136SOL     OW 1306   4.017   6.416   5.906
  136SOL    HW1 1307   3.938   6.392   5.962
  136SOL    HW2 1308   3.987   6.449   5.817
  137SOL     OW 1309   2.349   4.752   0.633
  137SOL    HW1 1310   2.384   4.668   0.673
  137SOL    HW2 1311   2.397   4.771   0.547
  138SOL     OW 1312   0.715   5.330   0.966
  138SOL    HW1 1313   0.775   5.272   0.912
  138SOL    HW2 1314   0.647   5.372   0.906
  139SOL     OW 1315   1.077   0.861   1.342
  139SOL    HW1 1316   1.177   0.860   1.348
  139SOL    HW2 1317   1.039   0.891   1.430
  140SOL     OW 1318   2.910   6.883   2.038
  140SOL    HW1 1319   2.908   6.925   1.947
  140SOL    HW2 1320   2.999   6.901   2.081
  141SOL     OW 1321   1.703   2.237   0.047
  141SOL    HW1 1322   1.610   2.218   0.015
  141SOL    HW2 1323   1.748   2.300   7.006
  142SOL     OW 1324   1.798   3.900   6.552
  142SOL    HW1 1325   1.886   3.887   6.598
  142SOL    HW2 1326   1.759   3.811   6.530
  143SOL     OW 1327   5.722   5.904   2.209
  143SOL    HW1 1328   5.751   5.999   2.222
  143SOL    HW2 1329   5.778   5.844   2.266
  144SOL     OW 1330   2.290   5.555   3.159
  144SOL    HW1 1331   2.359   5.548   3.232
  144SOL    HW2 1332   2.205   5.512   3.190
  145SOL     OW 1333   7.000   5.652   2.996
  145SOL    HW1 1334   6.902   5.661   2.982
  145SOL    HW2 1335   0.012   5.574   2.943
  146SOL     OW 1336   0.014   0.186   5.266
  146SOL    HW1 1337   0.063   0.268   5.295
  146SOL    HW2 1338   7.006   0.197   5.172
  147SOL     OW 1339   5.945   0.371   4.799
  147SOL    HW1 1340   5.988   0.288   4.765
  147SOL    HW2 1341   5.853   0.351   4.832
  148SOL     OW 1342   1.485   6.654   2.574
  148SOL    HW1 1343   1.472   6.753   2.563
  148SOL    HW2 1344   1.436   6.623   2.655
  149SOL     OW 1345   1.941   2.300   4.921
  149SOL    HW1 1346   1.999   2.234   4.873
  149SOL    HW2 1347   1.986   2.328   5.006
  150SOL     OW 1348   5.616   3.142   5.581
  150SOL    HW1 1349   5.562   3.062   5.608
  150SOL    HW2 1350   5.555   3.209   5.539
  151SOL     OW 1351   6.106   2.585   2.060
  151SOL    HW1 1352   6.102   2.676   2.103
  151SOL    HW2 1353   6.193   2.576   2.011
  152SOL     OW 1354   6.708   2.678   0.526
  152SOL    HW1 1355   6.638   2.650   0.461
  152SOL    HW2 1356   6.798   2.669   0.484
  153SOL     OW 1357   2.119   1.721   4.049
  153SOL    HW1 1358   2.031   1.682   4.078
  153SOL    HW2 1359   2.137   1.696   3.954
  154SOL     OW 1360   0.105   0.838   4.305
  154SOL    HW1 1361   0.030   0.779   4.277
  154SOL    HW2 1362   0.146   0.803   4.390
  155SOL     OW 1363   5.911   4.950   3.140
  155SOL    HW1 1364   5.962   4.864   3.146
  155SOL    HW2 1365   5.845   4.955   3.215
  156SOL     OW 1366   4.215   7.001   1.387
  156SOL    HW1 1367   4.249   0.034   1.311
  156SOL    HW2 1368   4.291   6.961   1.437
  157SOL     OW 1369   5.449   6.996   0.610
  157SOL    HW1 1370   5.423   6.912   0.562
  157SOL    HW2 1371   5.462   0.047   0.543
  158SOL     OW 1372   0.923   2.859   5.344
  158SOL    HW1 1373   1.015   2.893   5.366
  158SOL    HW2 1374   0.857   2.896   5.410
  159SOL     OW 1375   6.790   4.572   6.505
  159SOL    HW1 1376   6.860   4.616   6.449
  159SOL    HW2 1377   6.744   4.502   6.450
  160SOL     OW 1378   4.025   0.144   1.571
  160SOL    HW1 1379   4.015   0.192   1.484
  160SOL    HW2 1380   4.096   0.074   1.563
  161SOL     OW 1381   6.408   0.020   0.870
  161SOL    HW1 1382   6.312   0.032   0.895
  161SOL    HW2 1383   6.426   0.066   0.782
  162SOL     OW 1384   4.572   0.078   5.088
  162SOL    HW1 1385   4.517   7.017   5.100
  162SOL    HW2 1386   4.667   0.059   5.112
  163SOL     OW 1387   1.182   3.984   2.483
  163SOL    HW1 1388   1.213   3.898   2.443
  163SOL    HW2 1389   1.082   3.985   2.485
  164SOL     OW 1390   2.040   2.294   2.844
  164SOL    HW1 1391   2.062   2.275   2.940
  164SOL    HW2 1392   1.999   2.213   2.802
  165SOL     OW 1393   0.476   6.021   4.628
  165SOL    HW1 1394   0.552   5.970   4.669
  165SOL    HW2 1395   0.390   5.985   4.662
  166SOL     OW 1396   0.697   5.053   4.379
  166SOL    HW1 1397   0.768   5.106   4.426
  166SOL    HW2 1398   0.632   5.116   4.336
  167SOL     OW 1399   0.214   1.137   3.041
  167SOL    HW1 1400   0.193   1.063   2.977
  167SOL    HW2 1401   0.236   1.098   3.131
  168SOL     OW 1402   3.552   3.920   3.902
  168SOL    HW1 1403   3.607   3.853   3.952
  168SOL    HW2 1404   3.605   4.004   3.889
  169SOL     OW 1405   4.949   2.717   5.979
  169SOL    HW1 1406   4.944   2.683   6.073
  169SOL    HW2 1407   4.862   2.700   5.933
  170SOL     OW 1408   0.308   5.070   2.283
  170SOL    HW1 1409   0.338   5.072   2.379
  170SOL    HW2 1410   0.266   5.157   2.259
  171SOL     OW 1411   3.606   2.779   0.992
  171SOL    HW1 1412   3.680   2.805   1.055
  171SOL    HW2 1413   3.519   2.776   1.041
  172SOL     OW 1414   1.654   1.054   0.103
  172SOL    HW1 1415   1.616   1.135   0.148
  172SOL    HW2 1416   1.580   0.992   0.078
  173SOL     OW 1417   5.716   0.760   4.784
  173SOL    HW1 1418   5.652   0.734   4.857
  173SOL    HW2 1419   5.677   0.734   4.696
  174SOL     OW 1420   6.653   3.805   4.938
  174SOL    HW1 1421   6.588   3.823   4.865
  174SOL    HW2 1422   6.647   3.877   5.008
  175SOL     OW 1423   1.215   5.536   3.067
  175SOL    HW1 1424   1.132   5.524   3.121
  175SOL    HW2 1425   1.197   5.597   2.990
  176SOL     OW 1426   6.018   4.403   0.844
  176SOL    HW1 1427   5.965   4.355   0.914
  176SOL    HW2 1428   6.056   4.487   0.883
  177SOL     OW 1429   5.922   2.786   3.733
  177SOL    HW1 1430   5.897   2.875   3.770
  177SOL    HW2 1431   6.021   2.782   3.720
  178SOL     OW 1432   1.584   5.787   4.990
  178SOL    HW1 1433   1.651   5.786   4.916
  178SOL    HW2 1434   1.605   5.715   5.056
  179SOL     OW 1435   3.539   4.151   2.079
  179SOL    HW1 1436   3.548   4.242   2.040
  179SOL    HW2 1437   3.505   4.158   2.173
  180SOL     OW 1438   4.571   1.008   6.339
  180SOL    HW1 1439   4.648   0.956   6.376
  180SOL    HW2 1440   4.602   1.096   6.306
  181SOL     OW 1441   3.245   0.365   5.267
  181SOL    HW1 1442   3.176   0.296   5.286
  181SOL    HW2 1443   3.250   0.430   5.342
  182SOL     OW 1444   3.142   2.815   5.795
  182SOL    HW1 1445   3.182   2.824   5.704
  182SOL    HW2 1446   3.062   2.874   5.803
  183SOL     OW 1447   2.849   0.949   3.389
  183SOL    HW1 1448   2.891   1.037   3.365
  183SOL    HW2 1449   2.780   0.925   3.321
  184SOL     OW 1450   4.950   6.438   3.607
  184SOL    HW1 1451   5.011   6.423   3.529
  184SOL    HW2 1452   4.928   6.350   3.649
  185SOL     OW 1453   0.314   6.300   5.489
  185SOL    HW1 1454   0.318   6.277   5.586
  185SOL    HW2 1455   0.358   6.388   5.472
  186SOL     OW 1456   3.199   5.485   6.559
  186SOL    HW1 1457   3.213   5.478   6.460
  186SOL    HW2 1458   3.277   5.444   6.607
  187SOL     OW 1459   3.351   5.150   0.618
  187SOL    HW1 1460   3.414   5.107   0.553
  187SOL    HW2 1461   3.276   5.194   0.568
  188SOL     OW 1462   1.952   4.218   4.174
  188SOL    HW1 1463   1.891   4.295   4.188
  188SOL    HW2 1464   2.036   4.233   4.227
  189SOL     OW 1465   6.291   4.606   6.002
  189SOL    HW1 1466   6.212   4.637   5.950
  189SOL    HW2 1467   6.276   4.511   6.032
  190SOL     OW 1468   5.938   6.521   0.124
  190SOL    HW1 1469   6.018   6.543   0.069
  190SOL    HW2 1470   5.966   6.494   0.216
  191SOL     OW 1471   2.047   3.224   5.811
  191SOL    HW1 1472   1.974   3.291   5.828
  191SOL    HW2 1473   2.130   3.273   5.784
  192SOL     OW 1474   0.679   0.122   1.374
  192SOL    HW1 1475   0.698   0.217   1.395
  192SOL    HW2 1476   0.626   0.081   1.448
  193SOL     OW 1477   3.084   6.969   1.584
  193SOL    HW1 1478   3.030   6.931   1.509
  193SOL    HW2 1479   3.122   0.035   1.558
  194SOL     OW 1480   3.895   5.911   3.562
  194SOL    HW1 1481   3.864   5.887   3.470
  194SOL    HW2 1482   3.824   5.965   3.608
  195SOL     OW 1483   3.241   0.568   1.262
  195SOL    HW1 1484   3.281   0.586   1.172
  195SOL    HW2 1485   3.176   0.640   1.284
  196SOL     OW 1486   3.968   3.000   0.969
  196SOL    HW1 1487   3.920   3.085   0.990
  196SOL    HW2 1488   3.943   2.930   1.036
  197SOL     OW 1489   1.771   5.682   0.997
  197SOL    HW1 1490   1.839   5.732   1.052
  197SOL    HW2 1491   1.813   5.599   0.960
  198SOL     OW 1492   5.957   6.920   6.121
  198SOL    HW1 1493   5.939   6.829   6.083
  198SOL    HW2 1494   5.996   6.979   6.050
  199SOL     OW 1495   2.096   1.166   3.392
  199SOL    HW1 1496   2.062   1.165   3.298
  199SOL    HW2 1497   2.024   1.199   3.454
  200SOL     OW 1498   1.552   3.877   4.132
  200SOL    HW1 1499   1.538   3.877   4.033
  200SOL    HW2 1500   1.628   3.937   4.155
  201SOL     OW 1501   4.891   1.019   6.892
  201SOL    HW1 1502   4.841   1.089   6.944
  201SOL    HW2 1503   4.913   1.055   6.802
  202SOL     OW 1504   4.448   0.498   2.697
  202SOL    HW1 1505   4.532   0.474   2.744
  202SOL    HW2 1506   4.442   0.449   2.610
  203SOL     OW 1507   6.115   3.077   0.426
  203SOL    HW1 1508   6.182   3.088   0.353
  203SOL    HW2 1509   6.163   3.061   0.513
  204SOL     OW 1510   2.278   5.785   0.473
  204SOL    HW1 1511   2.211   5.843   0.427
  204SOL    HW2 1512   2.370   5.816   0.450
  205SOL     OW 1513   5.397   0.700   1.321
  205SOL    HW1 1514   5.489   0.714   1.285
  205SOL    HW2 1515   5.373   0.603   1.314
  206SOL     OW 1516   7.017   5.920   0.719
  206SOL    HW1 1517   6.974   5.888   0.804
  206SOL    HW2 1518   6.946   5.944   0.653
  207SOL     OW 1519   6.373   2.324   5.900
  207SOL    HW1 1520   6.414   2.394   5.957
  207SOL    HW2 1521   6.440   2.253   5.880
  208SOL     OW 1522   4.305   3.818   0.292
  208SOL    HW1 1523   4.274   3.824   0.197
  208SOL    HW2 1524   4.226   3.807   0.352
  209SOL     OW 1525   6.940   6.919   4.139
  209SOL    HW1 1526   6.993   6.973   4.205
  209SOL    HW2 1527   6.991   6.837   4.115
  210SOL     OW 1528   4.094   1.793   0.630
  210SOL    HW1 1529   4.075   1.891   0.634
  210SOL    HW2 1530   4.190   1.777   0.653
  211SOL     OW 1531   0.326   3.502   2.750
  211SOL    HW1 1532   0.364   3.577   2.804
  211SOL    HW2 1533   0.379   3.419   2.767
  212SOL     OW 1534   1.384   5.087   5.464
  212SOL    HW1 1535   1.468   5.050   5.423
  212SOL    HW2 1536   1.407   5.168   5.519
  213SOL     OW 1537   3.970   2.723   1.386
  213SOL    HW1 1538   3.938   2.680   1.470
  213SOL    HW2 1539   4.017   2.809   1.408
  214SOL     OW 1540   0.742   5.674   3.979
  214SOL    HW1 1541   0.659   5.726   3.959
  214SOL    HW2 1542   0.769   5.621   3.899
  215SOL     OW 1543   3.736   3.928   3.467
  215SOL    HW1 1544   3.740   3.910   3.369
  215SOL    HW2 1545   3.826   3.912   3.508
  216SOL     OW 1546   3.052   0.167   5.673
  216SOL    HW1 1547   3.016   0.246   5.622
  216SOL    HW2 1548   3.086   0.198   5.762
  217SOL     OW 1549   6.579   2.038   5.107
  217SOL    HW1 1550   6.515   2.112   5.087
  217SOL    HW2 1551   6.558   1.998   5.196
  218SOL     OW 1552   3.206   4.441   5.798
  218SOL    HW1 1553   3.130   4.489   5.753
  218SOL    HW2 1554   3.181   4.345   5.812
  219SOL     OW 1555   3.067   5.791   6.602
  219SOL    HW1 1556   3.105   5.700   6.618
  219SOL    HW2 1557   3.103   5.855   6.670
  220SOL     OW 1558   1.065   4.815   0.279
  220SOL    HW1 1559   1.028   4.845   0.191
  220SOL    HW2 1560   1.103   4.723   0.270
  221SOL     OW 1561   6.147   3.344   4.323
  221SOL    HW1 1562   6.060   3.384   4.351
  221SOL    HW2 1563   6.165   3.262   4.378
  222SOL     OW 1564   2.028   6.906   4.424
  222SOL    HW1 1565   2.103   6.950   4.374
  222SOL    HW2 1566   2.036   6.807   4.414
  223SOL     OW 1567   5.675   4.993   2.531
  223SOL    HW1 1568   5.620   5.032   2.604
  223SOL    HW2 1569   5.676   4.893   2.538
  224SOL     OW 1570   4.847   2.957   2.887
  224SOL    HW1 1571   4.849   2.961   2.987
  224SOL    HW2 1572   4.933   2.921   2.853
  225SOL     OW 1573   4.924   6.161   1.712
  225SOL    HW1 1574   4.887   6.189   1.800
  225SOL    HW2 1575   4.874   6.207   1.639
  226SOL     OW 1576   1.253   5.859   2.595
  226SOL    HW1 1577   1.338   5.889   2.638
  226SOL    HW2 1578   1.254   5.884   2.498
  227SOL     OW 1579   1.214   3.971   3.670
  227SOL    HW1 1580   1.278   3.928   3.606
  227SOL    HW2 1581   1.245   4.064   3.690
  228SOL     OW 1582   3.963   5.753   2.874
  228SOL    HW1 1583   3.943   5.806   2.792
  228SOL    HW2 1584   3.904   5.784   2.949
  229SOL     OW 1585   6.223   6.121   2.846
  229SOL    HW1 1586   6.234   6.066   2.763
  229SOL    HW2 1587   6.193   6.062   2.921
  230SOL     OW 1588   0.765   4.895   5.875
  230SOL    HW1 1589   0.831   4.832   5.915
  230SOL    HW2 1590   0.702   4.927   5.947
  231SOL     OW 1591   0.150   1.487   6.418
  231SOL    HW1 1592   0.103   1.405   6.383
  231SOL    HW2 1593   0.223   1.459   6.480
  232SOL     OW 1594   1.643   3.842   5.769
  232SOL    HW1 1595   1.574   3.859   5.840
  232SOL    HW2 1596   1.612   3.766   5.712
  233SOL     OW 1597   3.188   0.203   6.719
  233SOL    HW1 1598   3.145   0.229   6.805
  233SOL    HW2 1599   3.287   0.217   6.726
  234SOL     OW 1600   1.456   4.835   6.759
  234SOL    HW1 1601   1.467   4.742   6.722
  234SOL    HW2 1602   1.368   4.841   6.808
  235SOL     OW 1603   3.780   3.238   6.120
  235SOL    HW1 1604   3.787   3.168   6.190
  235SOL    HW2 1605   3.804   3.200   6.031
  236SOL     OW 1606   6.776   1.103   6.108
  236SOL    HW1 1607   6.767   1.115   6.207
  236SOL    HW2 1608   6.837   1.173   6.071
  237SOL     OW 1609   6.970   6.701   2.201
  237SOL    HW1 1610   0.031   6.755   2.205
  237SOL    HW2 1611   6.966   6.638   2.278
  238SOL     OW 1612   0.652   2.471   2.717
  238SOL    HW1 1613   0.599   2.475   2.633
  238SOL    HW2 1614   0.733   2.530   2.709
  239SOL     OW 1615   6.170   4.800   0.349
  239SOL    HW1 1616   6.120   4.743   0.284
  239SOL    HW2 1617   6.259   4.826   0.310
  240SOL     OW 1618   0.189   1.842   4.412
  240SOL    HW1 1619   0.169   1.931   4.371
  240SOL    HW2 1620   0.211   1.776   4.339
  241SOL     OW 1621   6.128   2.144   4.776
  241SOL    HW1 1622   6.184   2.063   4.756
  241SOL    HW2 1623   6.187   2.224   4.786
  242SOL     OW 1624   2.911   2.259   3.850
  242SOL    HW1 1625   2.970   2.246   3.929
  242SOL    HW2 1626   2.965   2.244   3.766
  243SOL     OW 1627   4.679   1.559   6.554
  243SOL    HW1 1628   4.630   1.481   6.591
  243SOL    HW2 1629   4.772   1.532   6.529
  244SOL     OW 1630   0.620   1.496   6.365
  244SOL    HW1 1631   0.597   1.436   6.441
  244SOL    HW2 1632   0.606   1.448   6.278
  245SOL     OW 1633   5.283   1.851   3.955
  245SOL    HW1 1634   5.321   1.852   3.863
  245SOL    HW2 1635   5.184   1.834   3.950
  246SOL     OW 1636   5.301   3.614   4.246
  246SOL    HW1 1637   5.268   3.652   4.333
  246SOL    HW2 1638   5.396   3.584   4.257
  247SOL     OW 1639   2.820   0.563   2.994
  247SOL    HW1 1640   2.854   0.473   3.024
  247SOL    HW2 1641   2.894   0.630   2.998
  248SOL     OW 1642   0.476   2.530   3.311
  248SOL    HW1 1643   0.431   2.589   3.378
  248SOL    HW2 1644   0.429   2.535   3.224
  249SOL     OW 1645   2.617   5.693   5.321
  249SOL    HW1 1646   2.701   5.677   5.270
  249SOL    HW2 1647   2.621   5.646   5.409
  250SOL     OW 1648   5.040   2.648   6.802
  250SOL    HW1 1649   4.967   2.716   6.788
  250SOL    HW2 1650   5.088   2.667   6.887
  251SOL     OW 1651   1.864   0.547   1.376
  251SOL    HW1 1652   1.777   0.598   1.377
  251SOL    HW2 1653   1.938   0.608   1.404
  252SOL     OW 1654   7.001   2.396   0.406
  252SOL    HW1 1655   6.994   2.495   0.421
  252SOL    HW2 1656   6.929   2.349   0.458
  253SOL     OW 1657   2.067   4.430   5.995
  253SOL    HW1 1658   2.061   4.347   6.051
  253SOL    HW2 1659   2.054   4.406   5.899
  254SOL     OW 1660   5.029   3.595   6.543
  254SOL    HW1 1661   4.951   3.549   6.502
  254SOL    HW2 1662   5.029   3.692   6.517
  255SOL     OW 1663   4.449   2.099   2.626
  255SOL    HW1 1664   4.482   2.111   2.533
  255SOL    HW2 1665   4.372   2.161   2.642
  256SOL     OW 1666   0.194   6.172   1.023
  256SOL    HW1 1667   0.215   6.134   1.113
  256SOL    HW2 1668   0.252   6.253   1.007
  257SOL     OW 1669   3.045   5.946   6.379
  257SOL    HW1 1670   3.040   5.925   6.477
  257SOL    HW2 1671   3.070   5.864   6.328
  258SOL     OW 1672   4.362   5.469   4.186
  258SOL    HW1 1673   4.347   5.542   4.253
  258SOL    HW2 1674   4.455   5.475   4.151
  259SOL     OW 1675   0.798   1.651   1.896
  259SOL    HW1 1676   0.782   1.694   1.985
  259SOL    HW2 1677   0.858   1.572   1.907
  260SOL     OW 1678   6.539   6.712   5.519
  260SOL    HW1 1679   6.523   6.619   5.485
  260SOL    HW2 1680   6.539   6.776   5.442
  261SOL     OW 1681   0.629   0.802   4.074
  261SOL    HW1 1682   0.661   0.794   4.168
  261SOL    HW2 1683   0.542   0.753   4.065
  262SOL     OW 1684   1.922   5.394   1.193
  262SOL    HW1 1685   1.894   5.417   1.100
  262SOL    HW2 1686   1.946   5.297   1.198
  263SOL     OW 1687   0.707   4.486   4.644
  263SOL    HW1 1688   0.634   4.552   4.629
  263SOL    HW2 1689   0.722   4.474   4.742
  264SOL     OW 1690   3.447   3.635   0.670
  264SOL    HW1 1691   3.467   3.722   0.715
  264SOL    HW2 1692   3.477   3.559   0.729
  265SOL     OW 1693   4.280   5.688   3.853
  265SOL    HW1 1694   4.360   5.717   3.800
  265SOL    HW2 1695   4.258   5.593   3.832
  266SOL     OW 1696   4.278   3.670   6.912
  266SOL    HW1 1697   4.377   3.658   6.906
  266SOL    HW2 1698   4.234   3.582   6.929
  267SOL     OW 1699   2.646   2.415   6.179
  267SOL    HW1 1700   2.609   2.416   6.087
  267SOL    HW2 1701   2.602   2.343   6.233
  268SOL     OW 1702   1.473   3.934   3.852
  268SOL    HW1 1703   1.570   3.910   3.861
  268SOL    HW2 1704   1.464   4.011   3.789
  269SOL     OW 1705   3.434   1.739   5.582
  269SOL    HW1 1706   3.522   1.767   5.545
  269SOL    HW2 1707   3.361   1.765   5.519
  270SOL     OW 1708   5.271   5.645   4.867
  270SOL    HW1 1709   5.172   5.650   4.853
  270SOL    HW2 1710   5.301   5.550   4.865
  271SOL     OW 1711   2.609   1.651   0.348
  271SOL    HW1 1712   2.643   1.743   0.326
  271SOL    HW2 1713   2.512   1.645   0.324
  272SOL     OW 1714   5.256   4.892   6.831
  272SOL    HW1 1715   5.214   4.895   6.922
  272SOL    HW2 1716   5.322   4.966   6.822
  273SOL     OW 1717   1.047   6.028   4.217
  273SOL    HW1 1718   1.007   6.022   4.309
  273SOL    HW2 1719   1.003   5.961   4.157
  274SOL     OW 1720   5.375   2.725   2.744
  274SOL    HW1 1721   5.307   2.653   2.753
  274SOL    HW2 1722   5.466   2.685   2.736
  275SOL     OW 1723   5.855   5.419   5.385
  275SOL    HW1 1724   5.776   5.365   5.413
  275SOL    HW2 1725   5.927   5.358   5.350
  276SOL     OW 1726   0.845   0.442   4.865
  276SOL    HW1 1727   0.891   0.467   4.780
  276SOL    HW2 1728   0.772   0.508   4.884
  277SOL     OW 1729   3.860   3.445   5.695
  277SOL    HW1 1730   3.928   3.398   5.639
  277SOL    HW2 1731   3.815   3.379   5.754
  278SOL     OW 1732   5.985   4.452   2.032
  278SOL    HW1 1733   5.992   4.354   2.049
  278SOL    HW2 1734   5.996   4.502   2.118
  279SOL     OW 1735   0.444   3.845   4.313
  279SOL    HW1 1736   0.351   3.878   4.293
  279SOL    HW2 1737   0.469   3.873   4.406
  280SOL     OW 1738   4.725   1.679   3.148
  280SOL    HW1 1739   4.697   1.725   3.063
  280SOL    HW2 1740   4.645   1.638   3.192
  281SOL     OW 1741   4.731   4.943   5.406
  281SOL    HW1 1742   4.757   4.853   5.441
  281SOL    HW2 1743   4.760   5.013   5.471
  282SOL     OW 1744   0.370   2.295   0.071
  282SOL    HW1 1745   0.283   2.320   0.030
  282SOL    HW2 1746   0.376   2.195   0.078
  283SOL     OW 1747   6.088   3.917   2.509
  283SOL    HW1 1748   6.162   3.980   2.533
  283SOL    HW2 1749   6.002   3.951   2.546
  284SOL     OW 1750   5.769   6.792   3.454
  284SOL    HW1 1751   5.753   6.722   3.384
  284SOL    HW2 1752   5.699   6.785   3.525
  285SOL     OW 1753   4.338   6.204   6.597
  285SOL    HW1 1754   4.394   6.204   6.680
  285SOL    HW2 1755   4.355   6.121   6.545
  286SOL     OW 1756   3.421   4.969   5.150
  286SOL    HW1 1757   3.424   5.047   5.213
  286SOL    HW2 1758   3.370   4.894   5.191
  287SOL     OW 1759   3.720   6.007   0.483
  287SOL    HW1 1760   3.666   5.961   0.553
  287SOL    HW2 1761   3.807   6.036   0.523
  288SOL     OW 1762   4.498   1.040   0.012
  288SOL    HW1 1763   4.525   0.954   0.056
  288SOL    HW2 1764   4.490   1.026   6.936
  289SOL     OW 1765   5.119   5.147   4.485
  289SOL    HW1 1766   5.204   5.104   4.516
  289SOL    HW2 1767   5.045   5.080   4.485
  290SOL     OW 1768   3.114   0.455   5.021
  290SOL    HW1 1769   3.183   0.420   5.085
  290SOL    HW2 1770   3.150   0.451   4.928
  291SOL     OW 1771   5.852   0.986   4.684
  291SOL    HW1 1772   5.855   0.999   4.585
  291SOL    HW2 1773   5.798   0.904   4.705
  292SOL     OW 1774   3.108   0.609   3.496
  292SOL    HW1 1775   3.067   0.649   3.415
  292SOL    HW2 1776   3.207   0.621   3.493
  293SOL     OW 1777   4.994   1.076   2.937
  293SOL    HW1 1778   5.011   1.170   2.963
  293SOL    HW2 1779   5.036   1.014   3.003
  294SOL     OW 1780   6.636   1.332   0.068
  294SOL    HW1 1781   6.623   1.429   0.087
  294SOL    HW2 1782   6.575   1.304   7.017
  295SOL     OW 1783   6.938   0.203   4.946
  295SOL    HW1 1784   6.907   0.151   4.867
  295SOL    HW2 1785   6.859   0.228   5.003
  296SOL     OW 1786   0.313   2.012   0.860
  296SOL    HW1 1787   0.381   1.950   0.821
  296SOL    HW2 1788   0.241   1.958   0.905
  297SOL     OW 1789   5.161   3.328   3.391
  297SOL    HW1 1790   5.212   3.410   3.416
  297SOL    HW2 1791   5.214   3.274   3.326
  298SOL     OW 1792   4.262   0.218   5.325
  298SOL    HW1 1793   4.177   0.175   5.294
  298SOL    HW2 1794   4.300   0.166   5.401
  299SOL     OW 1795   0.628   1.218   6.225
  299SOL    HW1 1796   0.563   1.144   6.243
  299SOL    HW2 1797   0.607   1.259   6.136
  300SOL     OW 1798   4.420   6.159   4.029
  300SOL    HW1 1799   4.407   6.148   3.930
  300SOL    HW2 1800   4.355   6.101   4.078
  301SOL     OW 1801   6.708   6.161   4.916
  301SOL    HW1 1802   6.774   6.138   4.845
  301SOL    HW2 1803   6.651   6.237   4.885
  302SOL     OW 1804   0.430   6.429   1.839
  302SOL    HW1 1805   0.366   6.474   1.901
  302SOL    HW2 1806   0.458   6.493   1.768
  303SOL     OW 1807   5.424   5.225   2.443
  303SOL    HW1 1808   5.407   5.198   2.348
  303SOL    HW2 1809   5.448   5.145   2.497
  304SOL     OW 1810   1.588   0.485   3.849
  304SOL    HW1 1811   1.496   0.472   3.885
  304SOL    HW2 1812   1.583   0.515   3.754
  305SOL     OW 1813   2.443   2.067   1.594
  305SOL    HW1 1814   2.451   1.982   1.645
  305SOL    HW2 1815   2.507   2.135   1.630
  306SOL     OW 1816   0.405   6.903   2.692
  306SOL    HW1 1817   0.329   6.967   2.695
  306SOL    HW2 1818   0.372   6.812   2.668
  307SOL     OW 1819   4.091   3.775   4.002
  307SOL    HW1 1820   4.084   3.829   4.086
  307SOL    HW2 1821   4.042   3.688   4.014
  308SOL     OW 1822   6.308   2.151   1.856
  308SOL    HW1 1823   6.398   2.111   1.874
  308SOL    HW2 1824   6.243   2.119   1.925
  309SOL     OW 1825   1.709   4.772   0.040
  309SOL    HW1 1826   1.739   4.681   0.010
  309SOL    HW2 1827   1.760   4.842   7.012
  310SOL     OW 1828   4.819   6.452   4.887
  310SOL    HW1 1829   4.889   6.521   4.870
  310SOL    HW2 1830   4.858   6.379   4.943
  311SOL     OW 1831   1.932   6.256   2.103
  311SOL    HW1 1832   1.899   6.343   2.140
  311SOL    HW2 1833   2.015   6.273   2.049
  312SOL     OW 1834   3.343   0.667   4.619
  312SOL    HW1 1835   3.387   0.671   4.529
  312SOL    HW2 1836   3.369   0.747   4.672
  313SOL     OW 1837   3.519   3.259   3.152
  313SOL    HW1 1838   3.573   3.337   3.122
  313SOL    HW2 1839   3.422   3.284   3.153
  314SOL     OW 1840   2.314   4.766   6.233
  314SOL    HW1 1841   2.295   4.682   6.183
  314SOL    HW2 1842   2.265   4.842   6.190
  315SOL     OW 1843   6.062   0.224   5.084
  315SOL    HW1 1844   5.984   0.281   5.107
  315SOL    HW2 1845   6.032   0.150   5.023
  316SOL     OW 1846   3.968   0.788   4.880
  316SOL    HW1 1847   3.963   0.765   4.977
  316SOL    HW2 1848   3.991   0.706   4.827
  317SOL     OW 1849   1.013   1.995   1.472
  317SOL    HW1 1850   0.977   1.961   1.385
  317SOL    HW2 1851   1.107   2.026   1.459
  318SOL     OW 1852   0.937   0.850   3.412
  318SOL    HW1 1853   1.020   0.899   3.440
  318SOL    HW2 1854   0.925   0.857   3.313
  319SOL     OW 1855   1.097   1.209   2.431
  319SOL    HW1 1856   1.068   1.121   2.469
  319SOL    HW2 1857   1.197   1.213   2.429
  320SOL     OW 1858   5.166   1.243   0.159
  320SOL    HW1 1859   5.153   1.286   0.069
  320SOL    HW2 1860   5.077   1.216   0.196
  321SOL     OW 1861   4.292   3.095   1.141
  321SOL    HW1 1862   4.207   3.107   1.193
  321SOL    HW2 1863   4.369   3.091   1.203
  322SOL     OW 1864   2.895   1.694   6.758
  322SOL    HW1 1865   2.851   1.616   6.715
  322SOL    HW2 1866   2.919   1.671   6.853
  323SOL     OW 1867   1.189   4.119   2.217
  323SOL    HW1 1868   1.201   4.095   2.313
  323SOL    HW2 1869   1.278   4.118   2.171
  324SOL     OW 1870   6.309   0.291   4.130
  324SOL    HW1 1871   6.347   0.286   4.222
  324SOL    HW2 1872   6.216   0.329   4.134
  325SOL     OW 1873   6.251   3.770   0.966
  325SOL    HW1 1874   6.343   3.797   0.998
  325SOL    HW2 1875   6.258   3.728   0.876
  326SOL     OW 1876   6.695   5.702   6.850
  326SOL    HW1 1877   6.595   5.701   6.851
  326SOL    HW2 1878   6.729   5.751   6.930
  327SOL     OW 1879   4.503   6.497   6.343
  327SOL    HW1 1880   4.460   6.409   6.364
  327SOL    HW2 1881   4.436   6.570   6.356
  328SOL     OW 1882   2.029   4.280   3.531
  328SOL    HW1 1883   1.968   4.296   3.609
  328SOL    HW2 1884   2.119   4.251   3.564
  329SOL     OW 1885   2.987   3.125   2.664
  329SOL    HW1 1886   3.036   3.039   2.680
  329SOL    HW2 1887   3.046   3.202   2.690
  330SOL     OW 1888   2.348   3.589   6.518
  330SOL    HW1 1889   2.276   3.657   6.506
  330SOL    HW2 1890   2.437   3.630   6.501
  331SOL     OW 1891   5.173   5.729   3.491
  331SOL    HW1 1892   5.118   5.654   3.455
  331SOL    HW2 1893   5.235   5.762   3.420
  332SOL     OW 1894   6.057   1.804   2.857
  332SOL    HW1 1895   6.059   1.831   2.761
  332SOL    HW2 1896   6.126   1.733   2.873
  333SOL     OW 1897   3.776   6.495   3.478
  333SOL    HW1 1898   3.781   6.508   3.379
  333SOL    HW2 1899   3.865   6.467   3.513
  334SOL     OW 1900   3.665   3.227   4.329
  334SOL    HW1 1901   3.708   3.145   4.367
  334SOL    HW2 1902   3.566   3.220   4.337
  335SOL     OW 1903   4.493   1.347   0.839
  335SOL    HW1 1904   4.487   1.412   0.763
  335SOL    HW2 1905   4.458   1.258   0.809
  336SOL     OW 1906   4.106   2.015   4.857
  336SOL    HW1 1907   4.125   1.926   4.899
  336SOL    HW2 1908   4.026   2.056   4.900
  337SOL     OW 1909   0.029   1.573   5.207
  337SOL    HW1 1910   6.999   1.532   5.131
  337SOL    HW2 1911   0.124   1.586   5.179
  338SOL     OW 1912   4.737   1.221   1.790
  338SOL    HW1 1913   4.724   1.300   1.730
  338SOL    HW2 1914   4.652   1.201   1.838
  339SOL     OW 1915   3.647   5.151   5.882
  339SOL    HW1 1916   3.640   5.092   5.962
  339SOL    HW2 1917   3.594   5.111   5.807
  340SOL     OW 1918   4.860   3.316   4.866
  340SOL    HW1 1919   4.862   3.320   4.766
  340SOL    HW2 1920   4.849   3.409   4.903
  341SOL     OW 1921   6.796   0.296   1.869
  341SOL    HW1 1922   6.878   0.283   1.813
  341SOL    HW2 1923   6.765   0.207   1.903
  342SOL     OW 1924   4.379   0.909   1.990
  342SOL    HW1 1925   4.405   0.813   1.982
  342SOL    HW2 1926   4.307   0.918   2.058
  343SOL     OW 1927   6.192   0.285   1.779
  343SOL    HW1 1928   6.231   0.279   1.871
  343SOL    HW2 1929   6.092   0.279   1.785
  344SOL     OW 1930   0.008   2.196   1.397
  344SOL    HW1 1931   0.074   2.238   1.458
  344SOL    HW2 1932   6.951   2.257   1.386
  345SOL     OW 1933   0.055   2.711   4.637
  345SOL    HW1 1934   7.001   2.746   4.691
  345SOL    HW2 1935   0.053   2.611   4.638
  346SOL     OW 1936   1.697   5.968   2.276
  346SOL    HW1 1937   1.616   6.026   2.264
  346SOL    HW2 1938   1.727   5.972   2.371
  347SOL     OW 1939   1.701   4.361   1.530
  347SOL    HW1 1940   1.676   4.375   1.626
  347SOL    HW2 1941   1.681   4.445   1.479
  348SOL     OW 1942   5.436   4.563   1.325
  348SOL    HW1 1943   5.396   4.635   1.268
  348SOL    HW2 1944   5.363   4.507   1.364
  349SOL     OW 1945   5.978   5.238   0.687
  349SOL    HW1 1946   5.897   5.183   0.668
  349SOL    HW2 1947   6.047   5.222   0.617
  350SOL     OW 1948   2.638   0.996   0.769
  350SOL    HW1 1949   2.574   0.933   0.724
  350SOL    HW2 1950   2.656   1.074   0.709
  351SOL     OW 1951   3.704   4.225   1.354
  351SOL    HW1 1952   3.770   4.182   1.416
  351SOL    HW2 1953   3.726   4.201   1.260
  352SOL     OW 1954   4.193   6.962   2.344
  352SOL    HW1 1955   4.122   6.893   2.331
  352SOL    HW2 1956   4.240   6.945   2.431
  353SOL     OW 1957   2.575   5.970   0.174
  353SOL    HW1 1958   2.511   5.904   0.134
  353SOL    HW2 1959   2.538   6.003   0.261
  354SOL     OW 1960   1.534   2.322   0.658
  354SOL    HW1 1961   1.521   2.306   0.756
  354SOL    HW2 1962   1.632   2.326   0.637
  355SOL     OW 1963   0.206   2.898   3.180
  355SOL    HW1 1964   0.255   2.814   3.157
  355SOL    HW2 1965   0.151   2.928   3.102
  356SOL     OW 1966   2.622   0.263   5.911
  356SOL    HW1 1967   2.586   0.353   5.884
  356SOL    HW2 1968   2.719   0.270   5.931
  357SOL     OW 1969   5.508   5.552   4.369
  357SOL    HW1 1970   5.535   5.631   4.315
  357SOL    HW2 1971   5.486   5.582   4.462
  358SOL     OW 1972   3.423   6.224   6.864
  358SOL    HW1 1973   3.351   6.293   6.854
  358SOL    HW2 1974   3.397   6.142   6.812
  359SOL     OW 1975   2.038   2.775   1.777
  359SOL    HW1 1976   1.976   2.851   1.798
  359SOL    HW2 1977   2.131   2.811   1.767
  360SOL     OW 1978   2.245   3.989   3.169
  360SOL    HW1 1979   2.304   4.065   3.195
  360SOL    HW2 1980   2.246   3.978   3.070
  361SOL     OW 1981   6.795   2.445   2.915
  361SOL    HW1 1982   6.767   2.411   2.826
  361SOL    HW2 1983   6.742   2.527   2.938
  362SOL     OW 1984   4.017   3.035   2.733
  362SOL    HW1 1985   4.091   3.047   2.666
  362SOL    HW2 1986   3.929   3.049   2.688
  363SOL     OW 1987   4.384   4.568   0.482
  363SOL    HW1 1988   4.473   4.612   0.493
  363SOL    HW2 1989   4.397   4.475   0.447
  364SOL     OW 1990   1.348   0.491   0.292
  364SOL    HW1 1991   1.422   0.543   0.250
  364SOL    HW2 1992   1.291   0.450   0.220
  365SOL     OW 1993   5.023   0.324   3.776
  365SOL    HW1 1994   5.082   0.270   3.716
  365SOL    HW2 1995   5.009   0.275   3.862
  366SOL     OW 1996   5.009   1.807   0.534
  366SOL    HW1 1997   4.952   1.764   0.604
  366SOL    HW2 1998   5.105   1.790   0.556
  367SOL     OW 1999   5.241   0.823   0.108
  367SOL    HW1 2000   5.282   0.911   0.134
  367SOL    HW2 2001   5.142   0.828   0.119
  368SOL     OW 2002   2.980   1.537   5.539
  368SOL    HW1 2003   3.036   1.530   5.622
  368SOL    HW2 2004   2.903   1.474   5.546
  369SOL     OW 2005   4.937   4.071   0.166
  369SOL    HW1 2006   4.973   3.991   0.212
  369SOL    HW2 2007   5.010   4.137   0.152
  370SOL     OW 2008   1.635   2.426   3.233
  370SOL    HW1 2009   1.730   2.423   3.266
  370SOL    HW2 2010   1.629   2.379   3.145
  371SOL     OW 2011   2.764   5.546   0.169
  371SOL    HW1 2012   2.796   5.608   0.241
  371SOL    HW2 2013   2.760   5.596   0.082
  372SOL     OW 2014   2.673   5.801   6.324
  372SOL    HW1 2015   2.700   5.716   6.278
  372SOL    HW2 2016   2.574   5.810   6.323
  373SOL     OW 2017   5.951   5.007   2.584
  373SOL    HW1 2018   5.985   5.097   2.557
  373SOL    HW2 2019   5.865   4.988   2.536
  374SOL     OW 2020   2.720   2.264   2.160
  374SOL    HW1 2021   2.648   2.210   2.115
  374SOL    HW2 2022   2.793   2.283   2.094
  375SOL     OW 2023   0.106   5.979   4.055
  375SOL    HW1 2024   0.060   6.056   4.099
  375SOL    HW2 2025   0.204   5.999   4.046
  376SOL     OW 2026   4.212   0.230   3.702
  376SOL    HW1 2027   4.213   0.190   3.611
  376SOL    HW2 2028   4.305   0.257   3.728
  377SOL     OW 2029   2.936   2.991   6.365
  377SOL    HW1 2030   3.015   2.963   6.420
  377SOL    HW2 2031   2.855   2.943   6.397
  378SOL     OW 2032   4.267   1.272   1.983
  378SOL    HW1 2033   4.180   1.290   1.937
  378SOL    HW2 2034   4.258   1.295   2.080
  379SOL     OW 2035   4.114   2.905   6.718
  379SOL    HW1 2036   4.026   2.860   6.735
  379SOL    HW2 2037   4.112   2.998   6.755
  380SOL     OW 2038   4.566   2.127   0.403
  380SOL    HW1 2039   4.566   2.205   0.465
  380SOL    HW2 2040   4.651   2.075   0.416
  381SOL     OW 2041   1.692   3.743   2.758
  381SOL    HW1 2042   1.595   3.766   2.745
  381SOL    HW2 2043   1.702   3.644   2.770
  382SOL     OW 2044   5.905   6.829   0.499
  382SOL    HW1 2045   5.974   6.819   0.571
  382SOL    HW2 2046   5.863   6.740   0.481
  383SOL     OW 2047   5.091   3.140   0.689
  383SOL    HW1 2048   5.011   3.150   0.630
  383SOL    HW2 2049   5.068   3.168   0.782
  384SOL     OW 2050   0.952   3.142   5.291
  384SOL    HW1 2051   0.925   3.146   5.194
  384SOL    HW2 2052   0.889   3.083   5.341
  385SOL     OW 2053   4.635   2.189   6.585
  385SOL    HW1 2054   4.709   2.127   6.561
  385SOL    HW2 2055   4.570   2.141   6.644
  386SOL     OW 2056   3.808   6.373   5.120
  386SOL    HW1 2057   3.844   6.431   5.193
  386SOL    HW2 2058   3.714   6.347   5.141
  387SOL     OW 2059   2.461   6.440   3.796
  387SOL    HW1 2060   2.437   6.345   3.814
  387SOL    HW2 2061   2.511   6.477   3.873
  388SOL     OW 2062   1.528   5.039   6.070
  388SOL    HW1 2063   1.541   4.958   6.014
  388SOL    HW2 2064   1.497   5.115   6.012
  389SOL     OW 2065   2.753   2.872   0.575
  389SOL    HW1 2066   2.685   2.891   0.504
  389SOL    HW2 2067   2.810   2.953   0.589
  390SOL     OW 2068   2.655   1.627   4.141
  390SOL    HW1 2069   2.705   1.584   4.216
  390SOL    HW2 2070   2.579   1.681   4.178
  391SOL     OW 2071   0.528   2.259   0.347
  391SOL    HW1 2072   0.432   2.284   0.352
  391SOL    HW2 2073   0.537   2.159   0.352
  392SOL     OW 2074   3.461   5.328   4.836
  392SOL    HW1 2075   3.499   5.366   4.751
  392SOL    HW2 2076   3.465   5.228   4.833
  393SOL     OW 2077   6.258   3.531   5.290
  393SOL    HW1 2078   6.173   3.576   5.265
  393SOL    HW2 2079   6.335   3.583   5.253
  394SOL     OW 2080   2.151   1.406   6.451
  394SOL    HW1 2081   2.108   1.336   6.395
  394SOL    HW2 2082   2.143   1.495   6.406
  395SOL     OW 2083   0.130   3.057   1.346
  395SOL    HW1 2084   0.195   3.044   1.422
  395SOL    HW2 2085   0.173   3.027   1.261
  396SOL     OW 2086   3.395   2.434   5.819
  396SOL    HW1 2087   3.458   2.376   5.872
  396SOL    HW2 2088   3.413   2.422   5.722
  397SOL     OW 2089   4.276   0.569   6.675
  397SOL    HW1 2090   4.265   0.475   6.643
  397SOL    HW2 2091   4.370   0.598   6.660
  398SOL     OW 2092   0.142   4.475   2.715
  398SOL    HW1 2093   0.054   4.469   2.666
  398SOL    HW2 2094   0.130   4.440   2.808
  399SOL     OW 2095   4.799   5.397   1.841
  399SOL    HW1 2096   4.818   5.443   1.927
  399SOL    HW2 2097   4.851   5.441   1.767
  400SOL     OW 2098   2.103   4.796   4.946
  400SOL    HW1 2099   2.170   4.864   4.918
  400SOL    HW2 2100   2.031   4.840   5.000
  401SOL     OW 2101   5.893   1.539   1.560
  401SOL    HW1 2102   5.954   1.484   1.503
  401SOL    HW2 2103   5.935   1.629   1.576
  402SOL     OW 2104   0.107   4.843   1.003
  402SOL    HW1 2105   0.202   4.849   1.033
  402SOL    HW2 2106   0.094   4.901   0.922
  403SOL     OW 2107   4.950   4.902   0.871
  403SOL    HW1 2108   5.012   4.846   0.816
  403SOL    HW2 2109   4.971   4.889   0.968
  404SOL     OW 2110   7.012   5.589   4.955
  404SOL    HW1 2111   0.064   5.592   4.887
  404SOL    HW2 2112   6.941   5.527   4.923
  405SOL     OW 2113   1.437   2.253   1.332
  405SOL    HW1 2114   1.534   2.242   1.314
  405SOL    HW2 2115   1.412   2.350   1.327
  406SOL     OW 2116   0.605   2.529   3.788
  406SOL    HW1 2117   0.599   2.521   3.688
  406SOL    HW2 2118   0.698   2.556   3.813
  407SOL     OW 2119   3.619   2.129   3.904
  407SOL    HW1 2120   3.685   2.170   3.842
  407SOL    HW2 2121   3.667   2.078   3.975
  408SOL     OW 2122   2.590   0.250   3.701
  408SOL    HW1 2123   2.666   0.209   3.651
  408SOL    HW2 2124   2.617   0.340   3.734
  409SOL     OW 2125   6.969   3.992   4.199
  409SOL    HW1 2126   6.893   3.972   4.138
  409SOL    HW2 2127   6.938   3.992   4.293
  410SOL     OW 2128   3.045   6.659   6.283
  410SOL    HW1 2129   2.947   6.678   6.290
  410SOL    HW2 2130   3.095   6.720   6.345
  411SOL     OW 2131   0.224   4.317   5.128
  411SOL    HW1 2132   0.223   4.235   5.186
  411SOL    HW2 2133   0.193   4.293   5.036
  412SOL     OW 2134   3.735   6.572   2.450
  412SOL    HW1 2135   3.664   6.639   2.427
  412SOL    HW2 2136   3.693   6.483   2.466
  413SOL     OW 2137   2.506   0.788   2.606
  413SOL    HW1 2138   2.457   0.872   2.581
  413SOL    HW2 2139   2.602   0.810   2.624
  414SOL     OW 2140   4.933   5.087   0.607
  414SOL    HW1 2141   4.882   5.002   0.604
  414SOL    HW2 2142   4.900   5.144   0.682
  415SOL     OW 2143   3.925   0.257   2.330
  415SOL    HW1 2144   3.966   0.345   2.351
  415SOL    HW2 2145   3.986   0.205   2.270
  416SOL     OW 2146   4.161   5.830   6.950
  416SOL    HW1 2147   4.070   5.809   6.984
  416SOL    HW2 2148   4.228   5.814   0.000
  417SOL     OW 2149   5.293   5.041   0.951
  417SOL    HW1 2150   5.309   4.945   0.973
  417SOL    HW2 2151   5.359   5.098   1.000
  418SOL     OW 2152   6.777   4.944   6.471
  418SOL    HW1 2153   6.843   4.872   6.492
  418SOL    HW2 2154   6.685   4.905   6.467
  419SOL     OW 2155   5.268   5.323   6.917
  419SOL    HW1 2156   5.179   5.322   6.963
  419SOL    HW2 2157   5.260   5.372   6.830
  420SOL     OW 2158   4.854   4.095   6.462
  420SOL    HW1 2159   4.764   4.055   6.447
  420SOL    HW2 2160   4.908   4.086   6.378
  421SOL     OW 2161   1.682   6.477   6.403
  421SOL    HW1 2162   1.647   6.406   6.342
  421SOL    HW2 2163   1.607   6.511   6.460
  422SOL     OW 2164   6.527   3.918   6.996
  422SOL    HW1 2165   6.525   4.001   0.030
  422SOL    HW2 2166   6.491   3.842   0.027
  423SOL     OW 2167   1.088   3.603   6.330
  423SOL    HW1 2168   1.145   3.644   6.401
  423SOL    HW2 2169   1.063   3.510   6.356
  424SOL     OW 2170   1.333   4.230   6.385
  424SOL    HW1 2171   1.396   4.191   6.317
  424SOL    HW2 2172   1.382   4.243   6.472
  425SOL     OW 2173   3.486   0.112   6.999
  425SOL    HW1 2174   3.564   0.083   0.031
  425SOL    HW2 2175   3.517   0.172   6.925
  426SOL     OW 2176   0.082   3.557   6.406
  426SOL    HW1 2177   0.182   3.551   6.416
  426SOL    HW2 2178   0.048   3.636   6.457
  427SOL     OW 2179   3.905   3.540   0.122
  427SOL    HW1 2180   3.985   3.530   0.180
  427SOL    HW2 2181   3.905   3.469   0.052
  428SOL     OW 2182   4.047   1.344   5.325
  428SOL    HW1 2183   4.052   1.367   5.422
  428SOL    HW2 2184   4.125   1.385   5.277
  429SOL     OW 2185   3.021   6.509   0.210
  429SOL    HW1 2186   2.954   6.548   0.274
  429SOL    HW2 2187   3.099   6.473   0.261
  430SOL     OW 2188   3.039   0.376   4.346
  430SOL    HW1 2189   2.998   0.285   4.336
  430SOL    HW2 2190   3.113   0.387   4.279
  431SOL     OW 2191   3.666   1.023   0.046
  431SOL    HW1 2192   3.625   1.088   7.005
  431SOL    HW2 2193   3.713   1.072   0.119
  432SOL     OW 2194   6.993   1.068   0.954
  432SOL    HW1 2195   0.055   1.067   1.009
  432SOL    HW2 2196   7.017   1.051   0.858
  433SOL     OW 2197   3.272   5.909   5.127
  433SOL    HW1 2198   3.310   5.890   5.036
  433SOL    HW2 2199   3.347   5.922   5.192
  434SOL     OW 2200   6.097   3.711   1.212
  434SOL    HW1 2201   6.095   3.612   1.227
  434SOL    HW2 2202   6.151   3.732   1.131
  435SOL     OW 2203   3.769   3.557   0.983
  435SOL    HW1 2204   3.860   3.515   0.980
  435SOL    HW2 2205   3.772   3.647   0.941
  436SOL     OW 2206   3.356   0.914   0.757
  436SOL    HW1 2207   3.269   0.885   0.717
  436SOL    HW2 2208   3.409   0.833   0.784
  437SOL     OW 2209   6.708   6.725   6.245
  437SOL    HW1 2210   6.664   6.642   6.279
  437SOL    HW2 2211   6.801   6.704   6.216
  438SOL     OW 2212   1.148   3.117   1.065
  438SOL    HW1 2213   1.135   3.156   0.973
  438SOL    HW2 2214   1.245   3.107   1.083
  439SOL     OW 2215   6.338   5.327   1.808
  439SOL    HW1 2216   6.385   5.346   1.894
  439SOL    HW2 2217   6.351   5.231   1.783
  440SOL     OW 2218   1.622   3.022   3.111
  440SOL    HW1 2219   1.616   3.037   3.012
  440SOL    HW2 2220   1.647   3.108   3.156
  441SOL     OW 2221   0.504   1.100   2.873
  441SOL    HW1 2222   0.573   1.163   2.835
  441SOL    HW2 2223   0.453   1.146   2.945
  442SOL     OW 2224   0.261   5.121   6.142
  442SOL    HW1 2225   0.282   5.191   6.074
  442SOL    HW2 2226   0.196   5.056   6.103
  443SOL     OW 2227   0.522   4.613   5.681
  443SOL    HW1 2228   0.438   4.666   5.668
  443SOL    HW2 2229   0.597   4.655   5.631
  444SOL     OW 2230   5.030   2.803   6.441
  444SOL    HW1 2231   5.038   2.812   6.540
  444SOL    HW2 2232   5.045   2.892   6.397
  445SOL     OW 2233   1.175   3.821   3.925
  445SOL    HW1 2234   1.215   3.885   3.860
  445SOL    HW2 2235   1.248   3.767   3.968
  446SOL     OW 2236   2.764   5.183   4.255
  446SOL    HW1 2237   2.772   5.218   4.349
  446SOL    HW2 2238   2.828   5.231   4.196
  447SOL     OW 2239   6.811   6.282   0.861
  447SOL    HW1 2240   6.901   6.239   0.854
  447SOL    HW2 2241   6.803   6.329   0.949
  448SOL     OW 2242   4.473   0.465   5.764
  448SOL    HW1 2243   4.498   0.561   5.755
  448SOL    HW2 2244   4.445   0.429   5.675
  449SOL     OW 2245   5.083   0.248   4.381
  449SOL    HW1 2246   5.010   0.315   4.368
  449SOL    HW2 2247   5.045   0.156   4.385
  450SOL     OW 2248   6.715   6.992   2.869
  450SOL    HW1 2249   6.807   6.965   2.843
  450SOL    HW2 2250   6.649   6.948   2.808
  451SOL     OW 2251   6.668   3.271   4.075
  451SOL    HW1 2252   6.733   3.345   4.058
  451SOL    HW2 2253   6.608   3.296   4.151
  452SOL     OW 2254   6.777   5.370   5.942
  452SOL    HW1 2255   6.858   5.421   5.912
  452SOL    HW2 2256   6.793   5.332   6.033
  453SOL     OW 2257   3.568   1.930   6.067
  453SOL    HW1 2258   3.593   1.892   5.978
  453SOL    HW2 2259   3.495   1.874   6.108
  454SOL     OW 2260   0.959   6.465   0.376
  454SOL    HW1 2261   0.998   6.461   0.283
  454SOL    HW2 2262   0.922   6.556   0.393
  455SOL     OW 2263   5.378   1.203   5.120
  455SOL    HW1 2264   5.393   1.165   5.029
  455SOL    HW2 2265   5.293   1.255   5.121
  456SOL     OW 2266   3.985   4.870   0.032
  456SOL    HW1 2267   4.051   4.816   0.085
  456SOL    HW2 2268   3.943   4.813   6.985
  457SOL     OW 2269   0.912   4.645   1.542
  457SOL    HW1 2270   0.967   4.716   1.586
  457SOL    HW2 2271   0.973   4.580   1.496
  458SOL     OW 2272   0.793   5.715   5.411
  458SOL    HW1 2273   0.851   5.793   5.434
  458SOL    HW2 2274   0.708   5.720   5.463
  459SOL     OW 2275   1.831   0.628   3.283
  459SOL    HW1 2276   1.872   0.538   3.297
  459SOL    HW2 2277   1.892   0.699   3.318
  460SOL     OW 2278   6.255   2.050   3.818
  460SOL    HW1 2279   6.207   2.048   3.906
  460SOL    HW2 2280   6.308   1.966   3.807
  461SOL     OW 2281   5.700   4.989   5.342
  461SOL    HW1 2282   5.614   4.992   5.394
  461SOL    HW2 2283   5.683   4.953   5.251
  462SOL     OW 2284   2.386   2.011   0.094
  462SOL    HW1 2285   2.318   1.949   0.053
  462SOL    HW2 2286   2.477   1.988   0.060
  463SOL     OW 2287   6.955   5.747   2.325
  463SOL    HW1 2288   6.880   5.810   2.345
  463SOL    HW2 2289   0.011   5.799   2.290
  464SOL     OW 2290   1.940   1.376   5.582
  464SOL    HW1 2291   1.962   1.467   5.546
  464SOL    HW2 2292   1.842   1.371   5.602
  465SOL     OW 2293   0.277   3.273   6.088
  465SOL    HW1 2294   0.228   3.326   6.018
  465SOL    HW2 2295   0.213   3.250   6.162
  466SOL     OW 2296   2.465   0.896   3.317
  466SOL    HW1 2297   2.477   0.854   3.407
  466SOL    HW2 2298   2.546   0.879   3.261
  467SOL     OW 2299   2.004   1.887   5.136
  467SOL    HW1 2300   1.948   1.881   5.054
  467SOL    HW2 2301   2.012   1.796   5.178
  468SOL     OW 2302   3.131   3.445   2.584
  468SOL    HW1 2303   3.108   3.533   2.626
  468SOL    HW2 2304   3.092   3.441   2.492
  469SOL     OW 2305   3.356   6.163   0.110
  469SOL    HW1 2306   3.381   6.133   0.018
  469SOL    HW2 2307   3.352   6.084   0.171
  470SOL     OW 2308   4.682   0.018   3.126
  470SOL    HW1 2309   4.605   6.976   3.126
  470SOL    HW2 2310   4.699   0.051   3.034
  471SOL     OW 2311   2.812   2.262   4.229
  471SOL    HW1 2312   2.906   2.265   4.262
  471SOL    HW2 2313   2.775   2.171   4.242
  472SOL     OW 2314   3.971   4.428   5.296
  472SOL    HW1 2315   3.925   4.340   5.302
  472SOL    HW2 2316   4.047   4.421   5.231
  473SOL     OW 2317   0.696   4.422   4.041
  473SOL    HW1 2318   0.742   4.364   3.973
  473SOL    HW2 2319   0.762   4.449   4.112
  474SOL     OW 2320   5.103   4.393   5.299
  474SOL    HW1 2321   5.186   4.412   5.352
  474SOL    HW2 2322   5.089   4.295   5.294
  475SOL     OW 2323   1.893   6.452   6.573
  475SOL    HW1 2324   1.925   6.363   6.543
  475SOL    HW2 2325   1.822   6.485   6.511
  476SOL     OW 2326   0.451   5.595   2.507
  476SOL    HW1 2327   0.535   5.605   2.454
  476SOL    HW2 2328   0.472   5.552   2.595
  477SOL     OW 2329   2.190   5.337   3.854
  477SOL    HW1 2330   2.210   5.352   3.757
  477SOL    HW2 2331   2.276   5.333   3.905
  478SOL     OW 2332   1.702   5.346   3.251
  478SOL    HW1 2333   1.694   5.373   3.347
  478SOL    HW2 2334   1.720   5.428   3.195
  479SOL     OW 2335   3.691   1.522   0.985
  479SOL    HW1 2336   3.712   1.521   1.083
  479SOL    HW2 2337   3.689   1.616   0.952
  480SOL     OW 2338   1.565   6.670   3.407
  480SOL    HW1 2339   1.575   6.760   3.450
  480SOL    HW2 2340   1.655   6.628   3.397
  481SOL     OW 2341   2.453   6.695   1.071
  481SOL    HW1 2342   2.366   6.737   1.096
  481SOL    HW2 2343   2.446   6.596   1.079
  482SOL     OW 2344   5.695   5.288   0.905
  482SOL    HW1 2345   5.628   5.244   0.844
  482SOL    HW2 2346   5.711   5.229   0.984
  483SOL     OW 2347   6.202   1.836   2.413
  483SOL    HW1 2348   6.299   1.825   2.434
  483SOL    HW2 2349   6.157   1.889   2.484
  484SOL     OW 2350   6.857   2.243   4.513
  484SOL    HW1 2351   6.829   2.318   4.452
  484SOL    HW2 2352   6.825   2.263   4.606
  485SOL     OW 2353   3.660   6.046   1.628
  485SOL    HW1 2354   3.660   6.146   1.622
  485SOL    HW2 2355   3.655   6.007   1.536
  486SOL     OW 2356   0.186   1.025   5.670
  486SOL    HW1 2357   0.170   1.017   5.572
  486SOL    HW2 2358   0.264   0.968   5.696
  487SOL     OW 2359   6.313   2.627   6.593
  487SOL    HW1 2360   6.242   2.637   6.662
  487SOL    HW2 2361   6.367   2.712   6.589
  488SOL     OW 2362   1.007   4.617   2.128
  488SOL    HW1 2363   1.037   4.655   2.216
  488SOL    HW2 2364   1.062   4.537   2.105
  489SOL     OW 2365   3.366   5.778   6.483
  489SOL    HW1 2366   3.277   5.819   6.500
  489SOL    HW2 2367   3.377   5.696   6.538
  490SOL     OW 2368   5.351   6.896   4.104
  490SOL    HW1 2369   5.331   6.909   4.202
  490SOL    HW2 2370   5.442   6.857   4.094
  491SOL     OW 2371   6.934   2.463   3.524
  491SOL    HW1 2372   6.950   2.505   3.434
  491SOL    HW2 2373   6.856   2.401   3.519
  492SOL     OW 2374   1.579   1.295   4.784
  492SOL    HW1 2375   1.508   1.326   4.847
  492SOL    HW2 2376   1.559   1.328   4.692
  493SOL     OW 2377   6.400   4.020   4.582
  493SOL    HW1 2378   6.462   3.949   4.614
  493SOL    HW2 2379   6.324   3.977   4.531
  494SOL     OW 2380   6.116   1.451   6.555
  494SOL    HW1 2381   6.174   1.519   6.511
  494SOL    HW2 2382   6.154   1.360   6.538
  495SOL     OW 2383   4.792   4.184   0.607
  495SOL    HW1 2384   4.840   4.259   0.653
  495SOL    HW2 2385   4.803   4.193   0.508
  496SOL     OW 2386   5.533   3.132   2.984
  496SOL    HW1 2387   5.437   3.149   2.962
  496SOL    HW2 2388   5.591   3.180   2.919
  497SOL     OW 2389   3.921   6.609   4.027
  497SOL    HW1 2390   4.004   6.556   4.009
  497SOL    HW2 2391   3.941   6.706   4.019
  498SOL     OW 2392   1.497   2.777   2.146
  498SOL    HW1 2393   1.581   2.737   2.183
  498SOL    HW2 2394   1.432   2.791   2.219
  499SOL     OW 2395   2.966   1.037   5.032
  499SOL    HW1 2396   2.988   1.116   5.089
  499SOL    HW2 2397   2.908   0.973   5.084
  500SOL     OW 2398   1.730   4.451   2.161
  500SOL    HW1 2399   1.802   4.447   2.091
  500SOL    HW2 2400   1.700   4.359   2.184
  501SOL     OW 2401   1.194   4.996   0.054
  501SOL    HW1 2402   1.094   5.002   0.047
  501SOL    HW2 2403   1.220   4.993   0.150
  502SOL     OW 2404   3.226   4.950   6.347
  502SOL    HW1 2405   3.215   4.887   6.271
  502SOL    HW2 2406   3.181   4.914   6.429
  503SOL     OW 2407   6.089   5.355   4.853
  503SOL    HW1 2408   6.180   5.326   4.883
  503SOL    HW2 2409   6.096   5.441   4.803
  504SOL     OW 2410   1.705   5.922   4.766
  504SOL    HW1 2411   1.697   6.017   4.734
  504SOL    HW2 2412   1.799   5.891   4.755
  505SOL     OW 2413   3.549   6.588   4.987
  505SOL    HW1 2414   3.547   6.658   4.916
  505SOL    HW2 2415   3.609   6.617   5.062
  506SOL     OW 2416   1.835   3.299   0.343
  506SOL    HW1 2417   1.880   3.231   0.400
  506SOL    HW2 2418   1.781   3.360   0.402
  507SOL     OW 2419   3.818   2.035   4.110
  507SOL    HW1 2420   3.867   1.948   4.120
  507SOL    HW2 2421   3.883   2.110   4.112
  508SOL     OW 2422   6.049   4.743   3.924
  508SOL    HW1 2423   6.145   4.722   3.906
  508SOL    HW2 2424   6.023   4.825   3.872
  509SOL     OW 2425   4.365   2.999   0.898
  509SOL    HW1 2426   4.405   3.076   0.849
  509SOL    HW2 2427   4.344   3.027   0.992
  510SOL     OW 2428   1.178   4.268   4.728
  510SOL    HW1 2429   1.256   4.243   4.786
  510SOL    HW2 2430   1.171   4.367   4.723
  511SOL     OW 2431   0.259   6.589   1.144
  511SOL    HW1 2432   0.306   6.528   1.208
  511SOL    HW2 2433   0.162   6.595   1.168
  512SOL     OW 2434   1.402   3.674   6.092
  512SOL    HW1 2435   1.324   3.616   6.115
  512SOL    HW2 2436   1.408   3.750   6.157
  513SOL     OW 2437   1.442   4.987   4.446
  513SOL    HW1 2438   1.465   5.042   4.366
  513SOL    HW2 2439   1.426   5.046   4.524
  514SOL     OW 2440   6.298   1.663   3.184
  514SOL    HW1 2441   6.299   1.608   3.101
  514SOL    HW2 2442   6.211   1.648   3.232
  515SOL     OW 2443   2.390   5.463   0.301
  515SOL    HW1 2444   2.427   5.441   0.210
  515SOL    HW2 2445   2.292   5.479   0.293
  516SOL     OW 2446   1.395   4.882   3.438
  516SOL    HW1 2447   1.476   4.904   3.491
  516SOL    HW2 2448   1.379   4.954   3.370
  517SOL     OW 2449   4.522   0.688   6.636
  517SOL    HW1 2450   4.581   0.763   6.665
  517SOL    HW2 2451   4.578   0.610   6.609
  518SOL     OW 2452   2.195   1.853   0.844
  518SOL    HW1 2453   2.199   1.932   0.906
  518SOL    HW2 2454   2.230   1.880   0.754
  519SOL     OW 2455   0.986   6.924   0.169
  519SOL    HW1 2456   0.954   6.978   0.247
  519SOL    HW2 2457   0.924   6.938   0.091
  520SOL     OW 2458   5.953   4.016   4.301
  520SOL    HW1 2459   5.927   3.923   4.276
  520SOL    HW2 2460   5.913   4.081   4.235
  521SOL     OW 2461   6.343   0.641   0.663
  521SOL    HW1 2462   6.253   0.642   0.619
  521SOL    HW2 2463   6.351   0.721   0.722
  522SOL     OW 2464   3.304   4.040   5.974
  522SOL    HW1 2465   3.392   3.996   5.958
  522SOL    HW2 2466   3.297   4.067   6.070
  523SOL     OW 2467   6.567   6.827   4.059
  523SOL    HW1 2468   6.531   6.818   3.966
  523SOL    HW2 2469   6.654   6.875   4.056
  524SOL     OW 2470   4.183   0.835   5.501
  524SOL    HW1 2471   4.095   0.860   5.460
  524SOL    HW2 2472   4.173   0.751   5.553
  525SOL     OW 2473   2.366   2.202   6.929
  525SOL    HW1 2474   2.422   2.199   6.847
  525SOL    HW2 2475   2.392   2.128   6.991
  526SOL     OW 2476   4.727   5.295   4.272
  526SOL    HW1 2477   4.795   5.237   4.228
  526SOL    HW2 2478   4.697   5.367   4.208
  527SOL     OW 2479   0.292   2.015   0.214
  527SOL    HW1 2480   0.381   1.977   0.239
  527SOL    HW2 2481   0.222   1.980   0.276
  528SOL     OW 2482   2.209   1.316   5.543
  528SOL    HW1 2483   2.242   1.266   5.463
  528SOL    HW2 2484   2.112   1.299   5.556
  529SOL     OW 2485   6.492   5.005   4.221
  529SOL    HW1 2486   6.432   4.964   4.152
  529SOL    HW2 2487   6.463   4.976   4.312
  530SOL     OW 2488   0.311   2.788   5.551
  530SOL    HW1 2489   0.280   2.711   5.495
  530SOL    HW2 2490   0.236   2.853   5.563
  531SOL     OW 2491   6.861   1.011   0.168
  531SOL    HW1 2492   6.818   0.945   0.106
  531SOL    HW2 2493   6.905   1.083   0.115
  532SOL     OW 2494   2.158   0.907   5.699
  532SOL    HW1 2495   2.094   0.846   5.653
  532SOL    HW2 2496   2.182   0.983   5.638
  533SOL     OW 2497   4.907   0.309   4.602
  533SOL    HW1 2498   5.005   0.323   4.607
  533SOL    HW2 2499   4.860   0.398   4.599
  534SOL     OW 2500   3.068   5.381   2.955
  534SOL    HW1 2501   2.983   5.338   2.923
  534SOL    HW2 2502   3.135   5.380   2.881
  535SOL     OW 2503   6.292   4.134   2.454
  535SOL    HW1 2504   6.236   4.206   2.495
  535SOL    HW2 2505   6.288   4.140   2.354
  536SOL     OW 2506   0.914   6.886   0.924
  536SOL    HW1 2507   0.938   6.967   0.870
  536SOL    HW2 2508   0.953   6.805   0.881
  537SOL     OW 2509   2.090   0.095   3.446
  537SOL    HW1 2510   2.151   0.114   3.522
  537SOL    HW2 2511   1.995   0.112   3.474
  538SOL     OW 2512   1.932   4.691   4.162
  538SOL    HW1 2513   1.923   4.739   4.250
  538SOL    HW2 2514   1.878   4.739   4.093
  539SOL     OW 2515   1.022   6.083   0.903
  539SOL    HW1 2516   1.008   6.107   0.999
  539SOL    HW2 2517   0.938   6.045   0.865
  540SOL     OW 2518   1.653   3.079   1.023
  540SOL    HW1 2519   1.601   3.147   0.972
  540SOL    HW2 2520   1.691   3.012   0.959
  541SOL     OW 2521   4.079   5.256   5.171
  541SOL    HW1 2522   4.157   5.305   5.130
  541SOL    HW2 2523   4.103   5.160   5.184
  542SOL     OW 2524   5.707   6.281   6.421
  542SOL    HW1 2525   5.781   6.236   6.371
  542SOL    HW2 2526   5.728   6.379   6.428
  543SOL     OW 2527   6.190   6.585   1.042
  543SOL    HW1 2528   6.169   6.654   0.973
  543SOL    HW2 2529   6.201   6.496   0.997
  544SOL     OW 2530   0.752   5.544   0.411
  544SOL    HW1 2531   0.716   5.620   0.465
  544SOL    HW2 2532   0.852   5.543   0.417
  545SOL     OW 2533   4.123   1.520   4.066
  545SOL    HW1 2534   4.182   1.490   4.141
  545SOL    HW2 2535   4.179   1.543   3.986
  546SOL     OW 2536   1.749   2.250   0.311
  546SOL    HW1 2537   1.842   2.272   0.339
  546SOL    HW2 2538   1.742   2.253   0.211
  547SOL     OW 2539   2.936   1.567   0.316
  547SOL    HW1 2540   3.033   1.588   0.319
  547SOL    HW2 2541   2.886   1.637   0.367
  548SOL     OW 2542   3.003   3.212   5.110
  548SOL    HW1 2543   2.978   3.257   5.024
  548SOL    HW2 2544   2.929   3.225   5.176
  549SOL     OW 2545   0.243   3.968   1.121
  549SOL    HW1 2546   0.212   3.883   1.077
  549SOL    HW2 2547   0.214   4.046   1.066
  550SOL     OW 2548   6.537   3.790   0.660
  550SOL    HW1 2549   6.593   3.867   0.690
  550SOL    HW2 2550   6.577   3.704   0.694
  551SOL     OW 2551   0.183   1.509   0.381
  551SOL    HW1 2552   0.251   1.579   0.359
  551SOL    HW2 2553   0.164   1.454   0.300
  552SOL     OW 2554   4.693   4.869   0.771
  552SOL    HW1 2555   4.791   4.861   0.790
  552SOL    HW2 2556   4.642   4.859   0.857
  553SOL     OW 2557   1.258   2.109   1.456
  553SOL    HW1 2558   1.221   2.143   1.543
  553SOL    HW2 2559   1.315   2.180   1.415
  554SOL     OW 2560   4.492   4.929   5.030
  554SOL    HW1 2561   4.561   4.901   4.963
  554SOL    HW2 2562   4.402   4.895   5.002
  555SOL     OW 2563   1.504   4.652   5.490
  555SOL    HW1 2564   1.505   4.638   5.589
  555SOL    HW2 2565   1.471   4.569   5.445
  556SOL     OW 2566   5.936   3.808   2.831
  556SOL    HW1 2567   5.957   3.819   2.734
  556SOL    HW2 2568   5.959   3.715   2.861
  557SOL     OW 2569   6.589   5.578   5.933
  557SOL    HW1 2570   6.583   5.493   5.880
  557SOL    HW2 2571   6.650   5.564   6.011
  558SOL     OW 2572   4.159   3.288   5.671
  558SOL    HW1 2573   4.220   3.266   5.594
  558SOL    HW2 2574   4.138   3.205   5.722
  559SOL     OW 2575   5.905   5.470   6.027
  559SOL    HW1 2576   5.928   5.401   6.096
  559SOL    HW2 2577   5.832   5.529   6.063
  560SOL     OW 2578   4.175   6.644   0.059
  560SOL    HW1 2579   4.273   6.661   0.068
  560SOL    HW2 2580   4.129   6.669   0.145
  561SOL     OW 2581   5.526   6.670   2.059
  561SOL    HW1 2582   5.473   6.699   2.139
  561SOL    HW2 2583   5.490   6.583   2.024
  562SOL     OW 2584   6.420   1.093   0.313
  562SOL    HW1 2585   6.515   1.091   0.346
  562SOL    HW2 2586   6.358   1.083   0.390
  563SOL     OW 2587   2.868   0.671   5.038
  563SOL    HW1 2588   2.937   0.607   5.070
  563SOL    HW2 2589   2.832   0.641   4.950
  564SOL     OW 2590   0.825   1.700   5.761
  564SOL    HW1 2591   0.876   1.714   5.677
  564SOL    HW2 2592   0.734   1.662   5.740
  565SOL     OW 2593   4.203   3.842   6.143
  565SOL    HW1 2594   4.265   3.815   6.069
  565SOL    HW2 2595   4.118   3.878   6.104
  566SOL     OW 2596   6.753   4.977   2.235
  566SOL    HW1 2597   6.748   4.903   2.169
  566SOL    HW2 2598   6.841   4.973   2.283
  567SOL     OW 2599   3.502   4.087   5.458
  567SOL    HW1 2600   3.528   3.992   5.472
  567SOL    HW2 2601   3.531   4.142   5.537
  568SOL     OW 2602   1.800   1.054   6.445
  568SOL    HW1 2603   1.789   0.982   6.377
  568SOL    HW2 2604   1.713   1.100   6.460
  569SOL     OW 2605   2.045   4.092   6.896
  569SOL    HW1 2606   2.004   4.085   6.987
  569SOL    HW2 2607   2.041   4.003   6.850
  570SOL     OW 2608   0.177   6.717   0.410
  570SOL    HW1 2609   0.204   6.757   0.323
  570SOL    HW2 2610   0.077   6.711   0.414
  571SOL     OW 2611   3.806   6.259   2.040
  571SOL    HW1 2612   3.787   6.312   2.123
  571SOL    HW2 2613   3.743   6.181   2.036
  572SOL     OW 2614   1.787   4.403   4.266
  572SOL    HW1 2615   1.768   4.490   4.221
  572SOL    HW2 2616   1.759   4.407   4.362
  573SOL     OW 2617   2.928   2.454   0.119
  573SOL    HW1 2618   3.011   2.510   0.117
  573SOL    HW2 2619   2.848   2.514   0.119
  574SOL     OW 2620   2.733   2.034   3.986
  574SOL    HW1 2621   2.759   1.945   3.950
  574SOL    HW2 2622   2.750   2.104   3.916
  575SOL     OW 2623   5.348   2.340   6.326
  575SOL    HW1 2624   5.447   2.355   6.332
  575SOL    HW2 2625   5.299   2.422   6.356
  576SOL     OW 2626   1.243   2.915   2.663
  576SOL    HW1 2627   1.328   2.892   2.617
  576SOL    HW2 2628   1.229   3.014   2.662
  577SOL     OW 2629   3.937   1.969   4.433
  577SOL    HW1 2630   3.871   1.896   4.447
  577SOL    HW2 2631   3.894   2.057   4.452
  578SOL     OW 2632   0.090   3.744   4.120
  578SOL    HW1 2633   0.042   3.663   4.155
  578SOL    HW2 2634   0.035   3.825   4.137
  579SOL     OW 2635   3.645   3.554   0.227
  579SOL    HW1 2636   3.724   3.564   0.165
  579SOL    HW2 2637   3.672   3.583   0.319
  580SOL     OW 2638   0.433   6.982   0.288
  580SOL    HW1 2639   0.359   6.961   0.223
  580SOL    HW2 2640   0.485   6.899   0.306
  581SOL     OW 2641   4.105   3.410   2.497
  581SOL    HW1 2642   4.104   3.314   2.471
  581SOL    HW2 2643   4.022   3.454   2.464
  582SOL     OW 2644   6.672   4.329   0.706
  582SOL    HW1 2645   6.604   4.390   0.748
  582SOL    HW2 2646   6.632   4.284   0.626
  583SOL     OW 2647   2.314   6.539   6.624
  583SOL    HW1 2648   2.357   6.451   6.645
  583SOL    HW2 2649   2.350   6.609   6.687
  584SOL     OW 2650   1.216   4.840   4.891
  584SOL    HW1 2651   1.314   4.831   4.874
  584SOL    HW2 2652   1.199   4.834   4.990
  585SOL     OW 2653   5.599   0.566   5.504
  585SOL    HW1 2654   5.593   0.664   5.486
  585SOL    HW2 2655   5.527   0.518   5.454
  586SOL     OW 2656   2.799   6.301   1.234
  586SOL    HW1 2657   2.789   6.282   1.332
  586SOL    HW2 2658   2.879   6.253   1.199
  587SOL     OW 2659   1.867   3.066   6.336
  587SOL    HW1 2660   1.833   2.999   6.402
  587SOL    HW2 2661   1.795   3.133   6.317
  588SOL     OW 2662   2.005   0.024   1.722
  588SOL    HW1 2663   2.048   0.071   1.645
  588SOL    HW2 2664   2.053   6.960   1.739
  589SOL     OW 2665   4.398   4.960   1.771
  589SOL    HW1 2666   4.316   5.009   1.739
  589SOL    HW2 2667   4.377   4.913   1.857
  590SOL     OW 2668   6.528   3.598   1.792
  590SOL    HW1 2669   6.620   3.618   1.756
  590SOL    HW2 2670   6.461   3.608   1.718
  591SOL     OW 2671   2.893   0.172   2.883
  591SOL    HW1 2672   2.916   0.080   2.849
  591SOL    HW2 2673   2.866   0.230   2.806
  592SOL     OW 2674   5.415   0.161   5.716
  592SOL    HW1 2675   5.362   0.234   5.758
  592SOL    HW2 2676   5.496   0.142   5.771
  593SOL     OW 2677   0.070   1.043   4.645
  593SOL    HW1 2678   0.070   1.131   4.692
  593SOL    HW2 2679   6.998   1.011   4.635
  594SOL     OW 2680   5.857   2.016   1.536
  594SOL    HW1 2681   5.824   2.053   1.450
  594SOL    HW2 2682   5.834   2.079   1.611
  595SOL     OW 2683   3.998   6.806   3.187
  595SOL    HW1 2684   3.921   6.749   3.160
  595SOL    HW2 2685   4.039   6.769   3.270
  596SOL     OW 2686   0.654   4.427   1.230
  596SOL    HW1 2687   0.692   4.517   1.253
  596SOL    HW2 2688   0.641   4.421   1.131
  597SOL     OW 2689   4.380   2.298   6.058
  597SOL    HW1 2690   4.449   2.249   6.112
  597SOL    HW2 2691   4.298   2.310   6.113
  598SOL     OW 2692   3.026   3.915   1.386
  598SOL    HW1 2693   2.943   3.868   1.358
  598SOL    HW2 2694   3.094   3.908   1.314
  599SOL     OW 2695   6.212   5.871   3.839
  599SOL    HW1 2696   6.234   5.963   3.874
  599SOL    HW2 2697   6.139   5.878   3.771
  600SOL     OW 2698   2.734   1.256   1.411
  600SOL    HW1 2699   2.695   1.308   1.336
  600SOL    HW2 2700   2.777   1.319   1.476
  601SOL     OW 2701   1.991   4.901   3.312
  601SOL    HW1 2702   1.948   4.837   3.377
  601SOL    HW2 2703   1.978   4.867   3.219
  602SOL     OW 2704   6.983   0.278   2.301
  602SOL    HW1 2705   0.038   0.217   2.317
  602SOL    HW2 2706   6.910   0.258   2.366
  603SOL     OW 2707   4.240   1.718   3.121
  603SOL    HW1 2708   4.174   1.645   3.137
  603SOL    HW2 2709   4.258   1.727   3.023
  604SOL     OW 2710   1.535   3.631   5.592
  604SOL    HW1 2711   1.499   3.559   5.532
  604SOL    HW2 2712   1.462   3.693   5.618
  605SOL     OW 2713   5.591   0.191   4.188
  605SOL    HW1 2714   5.558   0.128   4.118
  605SOL    HW2 2715   5.515   0.219   4.247
  606SOL     OW 2716   2.890   6.547   1.883
  606SOL    HW1 2717   2.882   6.600   1.967
  606SOL    HW2 2718   2.947   6.466   1.901
  607SOL     OW 2719   3.590   0.479   4.332
  607SOL    HW1 2720   3.565   0.562   4.380
  607SOL    HW2 2721   3.668   0.436   4.378
  608SOL     OW 2722   5.320   3.219   1.271
  608SOL    HW1 2723   5.316   3.122   1.294
  608SOL    HW2 2724   5.287   3.233   1.177
  609SOL     OW 2725   3.422   4.075   4.916
  609SOL    HW1 2726   3.499   4.122   4.872
  609SOL    HW2 2727   3.434   3.976   4.907
  610SOL     OW 2728   6.194   2.050   4.477
  610SOL    HW1 2729   6.188   1.995   4.560
  610SOL    HW2 2730   6.116   2.028   4.418
  611SOL     OW 2731   5.634   7.001   0.251
  611SOL    HW1 2732   5.645   6.902   0.252
  611SOL    HW2 2733   5.606   0.008   0.159
  612SOL     OW 2734   1.855   4.661   6.434
  612SOL    HW1 2735   1.895   4.626   6.348
  612SOL    HW2 2736   1.806   4.587   6.480
  613SOL     OW 2737   4.015   1.239   6.608
  613SOL    HW1 2738   4.005   1.305   6.534
  613SOL    HW2 2739   3.932   1.240   6.665
  614SOL     OW 2740   5.001   3.164   0.952
  614SOL    HW1 2741   4.911   3.129   0.925
  614SOL    HW2 2742   4.994   3.211   1.040
  615SOL     OW 2743   5.720   6.131   0.389
  615SOL    HW1 2744   5.658   6.208   0.402
  615SOL    HW2 2745   5.747   6.124   0.293
  616SOL     OW 2746   4.625   1.271   4.379
  616SOL    HW1 2747   4.567   1.260   4.461
  616SOL    HW2 2748   4.713   1.227   4.395
  617SOL     OW 2749   6.556   6.379   4.817
  617SOL    HW1 2750   6.508   6.415   4.897
  617SOL    HW2 2751   6.589   6.455   4.761
  618SOL     OW 2752   5.809   5.282   0.268
  618SOL    HW1 2753   5.729   5.320   0.314
  618SOL    HW2 2754   5.879   5.353   0.260
  619SOL     OW 2755   2.042   6.859   6.738
  619SOL    HW1 2756   2.090   6.772   6.755
  619SOL    HW2 2757   1.983   6.880   6.816
  620SOL     OW 2758   4.679   2.315   2.009
  620SOL    HW1 2759   4.645   2.250   1.942
  620SOL    HW2 2760   4.616   2.392   2.017
  621SOL     OW 2761   2.927   0.602   6.360
  621SOL    HW1 2762   2.930   0.667   6.284
  621SOL    HW2 2763   2.853   0.626   6.423
  622SOL     OW 2764   0.394   3.579   6.092
  622SOL    HW1 2765   0.318   3.630   6.132
  622SOL    HW2 2766   0.361   3.493   6.055
  623SOL     OW 2767   6.587   1.294   2.787
  623SOL    HW1 2768   6.675   1.249   2.806
  623SOL    HW2 2769   6.519   1.263   2.854
  624SOL     OW 2770   6.764   1.108   6.391
  624SOL    HW1 2771   6.688   1.052   6.424
  624SOL    HW2 2772   6.767   1.193   6.443
  625SOL     OW 2773   3.309   1.247   1.446
  625SOL    HW1 2774   3.243   1.212   1.380
  625SOL    HW2 2775   3.272   1.328   1.492
  626SOL     OW 2776   0.584   5.999   3.531
  626SOL    HW1 2777   0.531   5.923   3.567
  626SOL    HW2 2778   0.681   5.976   3.534
  627SOL     OW 2779   6.661   5.237   6.639
  627SOL    HW1 2780   6.694   5.212   6.548
  627SOL    HW2 2781   6.691   5.330   6.661
  628SOL     OW 2782   3.825   4.373   6.377
  628SOL    HW1 2783   3.903   4.312   6.390
  628SOL    HW2 2784   3.815   4.433   6.457
  629SOL     OW 2785   1.448   0.175   6.953
  629SOL    HW1 2786   1.547   0.166   6.945
  629SOL    HW2 2787   1.409   0.089   6.985
  630SOL     OW 2788   6.540   2.260   1.038
  630SOL    HW1 2789   6.532   2.161   1.029
  630SOL    HW2 2790   6.631   2.288   1.009
  631SOL     OW 2791   1.776   3.582   3.115
  631SOL    HW1 2792   1.677   3.575   3.119
  631SOL    HW2 2793   1.812   3.595   3.208
  632SOL     OW 2794   3.214   4.345   1.437
  632SOL    HW1 2795   3.120   4.313   1.446
  632SOL    HW2 2796   3.215   4.436   1.395
  633SOL     OW 2797   0.701   5.802   0.508
  633SOL    HW1 2798   0.611   5.811   0.550
  633SOL    HW2 2799   0.768   5.775   0.577
  634SOL     OW 2800   3.493   3.270   5.527
  634SOL    HW1 2801   3.412   3.218   5.555
  634SOL    HW2 2802   3.554   3.281   5.605
  635SOL     OW 2803   6.097   6.522   6.485
  635SOL    HW1 2804   6.158   6.596   6.457
  635SOL    HW2 2805   6.150   6.445   6.518
  636SOL     OW 2806   2.233   1.407   4.325
  636SOL    HW1 2807   2.305   1.380   4.261
  636SOL    HW2 2808   2.266   1.399   4.419
  637SOL     OW 2809   6.910   1.808   2.277
  637SOL    HW1 2810   6.872   1.881   2.333
  637SOL    HW2 2811   6.855   1.797   2.194
  638SOL     OW 2812   0.041   3.307   5.164
  638SOL    HW1 2813   0.109   3.379   5.166
  638SOL    HW2 2814   0.072   3.232   5.105
  639SOL     OW 2815   6.004   3.328   2.128
  639SOL    HW1 2816   5.917   3.341   2.176
  639SOL    HW2 2817   6.025   3.231   2.121
  640SOL     OW 2818   6.677   3.553   2.851
  640SOL    HW1 2819   6.605   3.485   2.836
  640SOL    HW2 2820   6.636   3.638   2.884
  641SOL     OW 2821   2.181   5.681   4.386
  641SOL    HW1 2822   2.088   5.715   4.371
  641SOL    HW2 2823   2.220   5.650   4.299
  642SOL     OW 2824   0.729   5.396   4.851
  642SOL    HW1 2825   0.827   5.374   4.857
  642SOL    HW2 2826   0.705   5.413   4.756
  643SOL     OW 2827   4.319   5.030   0.473
  643SOL    HW1 2828   4.393   5.050   0.538
  643SOL    HW2 2829   4.346   5.057   0.381
  644SOL     OW 2830   5.960   0.631   4.686
  644SOL    HW1 2831   5.882   0.677   4.729
  644SOL    HW2 2832   5.965   0.537   4.720
  645SOL     OW 2833   4.267   6.405   1.787
  645SOL    HW1 2834   4.286   6.436   1.880
  645SOL    HW2 2835   4.283   6.306   1.781
  646SOL     OW 2836   3.643   1.746   5.219
  646SOL    HW1 2837   3.648   1.751   5.119
  646SOL    HW2 2838   3.605   1.658   5.247
  647SOL     OW 2839   2.710   1.643   0.611
  647SOL    HW1 2840   2.663   1.645   0.523
  647SOL    HW2 2841   2.663   1.703   0.676
  648SOL     OW 2842   5.596   1.490   4.124
  648SOL    HW1 2843   5.544   1.552   4.065
  648SOL    HW2 2844   5.545   1.474   4.208
  649SOL     OW 2845   3.200   5.749   0.691
  649SOL    HW1 2846   3.216   5.843   0.662
  649SOL    HW2 2847   3.282   5.694   0.675
  650SOL     OW 2848   2.421   3.274   1.263
  650SOL    HW1 2849   2.486   3.281   1.187
  650SOL    HW2 2850   2.410   3.363   1.306
  651SOL     OW 2851   0.231   1.620   3.366
  651SOL    HW1 2852   0.165   1.618   3.291
  651SOL    HW2 2853   0.300   1.549   3.353
  652SOL     OW 2854   3.829   5.726   0.864
  652SOL    HW1 2855   3.926   5.718   0.840
  652SOL    HW2 2856   3.811   5.819   0.897
  653SOL     OW 2857   1.370   0.072   2.681
  653SOL    HW1 2858   1.444   0.048   2.619
  653SOL    HW2 2859   1.300   0.125   2.631
  654SOL     OW 2860   1.153   6.882   6.005
  654SOL    HW1 2861   1.204   6.840   5.930
  654SOL    HW2 2862   1.059   6.849   6.004
  655SOL     OW 2863   1.254   3.955   0.847
  655SOL    HW1 2864   1.211   3.993   0.766
  655SOL    HW2 2865   1.192   3.889   0.890
  656SOL     OW 2866   2.260   0.540   0.003
  656SOL    HW1 2867   2.180   0.555   6.968
  656SOL    HW2 2868   2.323   0.478   6.978
  657SOL     OW 2869   3.892   3.581   4.121
  657SOL    HW1 2870   3.897   3.574   4.221
  657SOL    HW2 2871   3.848   3.499   4.085
  658SOL     OW 2872   1.903   0.543   4.128
  658SOL    HW1 2873   1.887   0.615   4.195
  658SOL    HW2 2874   1.839   0.467   4.144
  659SOL     OW 2875   1.847   5.933   6.779
  659SOL    HW1 2876   1.771   5.869   6.768
  659SOL    HW2 2877   1.933   5.887   6.759
  660SOL     OW 2878   5.507   3.962   2.548
  660SOL    HW1 2879   5.577   3.917   2.604
  660SOL    HW2 2880   5.416   3.932   2.577
  661SOL     OW 2881   4.626   5.526   3.807
  661SOL    HW1 2882   4.716   5.553   3.773
  661SOL    HW2 2883   4.585   5.459   3.745
  662SOL     OW 2884   6.439   3.643   0.035
  662SOL    HW1 2885   6.444   3.546   0.010
  662SOL    HW2 2886   6.352   3.661   0.082
  663SOL     OW 2887   0.771   4.576   6.078
  663SOL    HW1 2888   0.762   4.498   6.140
  663SOL    HW2 2889   0.728   4.556   5.991
  664SOL     OW 2890   1.788   0.251   5.895
  664SOL    HW1 2891   1.780   0.208   5.806
  664SOL    HW2 2892   1.709   0.311   5.910
  665SOL     OW 2893   2.505   4.464   3.240
  665SOL    HW1 2894   2.547   4.501   3.323
  665SOL    HW2 2895   2.522   4.526   3.163
  666SOL     OW 2896   3.304   0.508   6.842
  666SOL    HW1 2897   3.286   0.410   6.833
  666SOL    HW2 2898   3.247   0.559   6.777
  667SOL     OW 2899   1.329   2.862   2.340
  667SOL    HW1 2900   1.248   2.883   2.285
  667SOL    HW2 2901   1.346   2.937   2.405
  668SOL     OW 2902   5.233   6.998   0.330
  668SOL    HW1 2903   5.308   0.032   0.362
  668SOL    HW2 2904   5.266   6.905   0.312
  669SOL     OW 2905   0.428   5.276   2.707
  669SOL    HW1 2906   0.348   5.308   2.759
  669SOL    HW2 2907   0.504   5.260   2.770
  670SOL     OW 2908   3.894   4.009   2.688
  670SOL    HW1 2909   3.835   4.067   2.744
  670SOL    HW2 2910   3.951   3.953   2.748
  671SOL     OW 2911   1.841   0.182   6.495
  671SOL    HW1 2912   1.844   0.250   6.422
  671SOL    HW2 2913   1.912   0.114   6.481
  672SOL     OW 2914   0.999   2.583   3.152
  672SOL    HW1 2915   1.078   2.530   3.120
  672SOL    HW2 2916   1.002   2.592   3.251
  673SOL     OW 2917   5.408   0.234   6.659
  673SOL    HW1 2918   5.367   0.291   6.588
  673SOL    HW2 2919   5.491   0.277   6.693
  674SOL     OW 2920   0.330   2.362   4.328
  674SOL    HW1 2921   0.320   2.417   4.411
  674SOL    HW2 2922   0.266   2.394   4.258
  675SOL     OW 2923   5.419   6.293   3.630
  675SOL    HW1 2924   5.395   6.197   3.640
  675SOL    HW2 2925   5.519   6.302   3.624
  676SOL     OW 2926   3.014   4.941   4.417
  676SOL    HW1 2927   3.060   4.924   4.504
  676SOL    HW2 2928   2.930   4.888   4.412
  677SOL     OW 2929   4.563   6.368   0.288
  677SOL    HW1 2930   4.663   6.366   0.279
  677SOL    HW2 2931   4.536   6.317   0.369
  678SOL     OW 2932   2.260   1.306   6.175
  678SOL    HW1 2933   2.249   1.286   6.272
  678SOL    HW2 2934   2.282   1.223   6.125
  679SOL     OW 2935   6.412   0.460   2.359
  679SOL    HW1 2936   6.455   0.438   2.272
  679SOL    HW2 2937   6.346   0.389   2.383
  680SOL     OW 2938   6.142   3.937   4.483
  680SOL    HW1 2939   6.135   3.847   4.526
  680SOL    HW2 2940   6.074   3.945   4.410
  681SOL     OW 2941   1.221   5.946   2.330
  681SOL    HW1 2942   1.232   5.871   2.265
  681SOL    HW2 2943   1.296   6.011   2.320
  682SOL     OW 2944   0.273   0.666   5.835
  682SOL    HW1 2945   0.341   0.603   5.797
  682SOL    HW2 2946   0.256   0.643   5.931
  683SOL     OW 2947   5.217   1.543   1.686
  683SOL    HW1 2948   5.245   1.535   1.591
  683SOL    HW2 2949   5.296   1.528   1.745
  684SOL     OW 2950   0.151   5.800   6.704
  684SOL    HW1 2951   0.127   5.837   6.614
  684SOL    HW2 2952   0.078   5.819   6.769
  685SOL     OW 2953   6.091   0.419   6.032
  685SOL    HW1 2954   6.000   0.422   5.990
  685SOL    HW2 2955   6.119   0.512   6.056
  686SOL     OW 2956   5.686   5.015   1.790
  686SOL    HW1 2957   5.758   4.947   1.774
  686SOL    HW2 2958   5.714   5.102   1.749
  687SOL     OW 2959   5.761   2.244   6.435
  687SOL    HW1 2960   5.694   2.171   6.448
  687SOL    HW2 2961   5.817   2.223   6.354
  688SOL     OW 2962   6.324   3.279   5.277
  688SOL    HW1 2963   6.331   3.239   5.368
  688SOL    HW2 2964   6.277   3.367   5.283
  689SOL     OW 2965   5.296   4.427   4.332
  689SOL    HW1 2966   5.342   4.392   4.413
  689SOL    HW2 2967   5.282   4.526   4.341
  690SOL     OW 2968   0.240   3.067   4.745
  690SOL    HW1 2969   0.247   3.065   4.645
  690SOL    HW2 2970   0.297   2.994   4.783
  691SOL     OW 2971   0.101   2.887   6.942
  691SOL    HW1 2972   0.140   2.801   6.975
  691SOL    HW2 2973   0.119   2.896   6.844
  692SOL     OW 2974   3.011   0.061   3.434
  692SOL    HW1 2975   3.067   0.125   3.486
  692SOL    HW2 2976   2.990   0.099   3.344
  693SOL     OW 2977   6.550   1.401   3.808
  693SOL    HW1 2978   6.567   1.404   3.710
  693SOL    HW2 2979   6.599   1.324   3.849
  694SOL     OW 2980   1.469   0.303   2.440
  694SOL    HW1 2981   1.390   0.256   2.479
  694SOL    HW2 2982   1.444   0.342   2.352
  695SOL     OW 2983   4.363   5.377   6.678
  695SOL    HW1 2984   4.448   5.411   6.639
  695SOL    HW2 2985   4.349   5.416   6.769
  696SOL     OW 2986   5.502   5.660   2.496
  696SOL    HW1 2987   5.522   5.758   2.503
  696SOL    HW2 2988   5.462   5.628   2.582
  697SOL     OW 2989   1.163   3.598   3.604
  697SOL    HW1 2990   1.093   3.544   3.558
  697SOL    HW2 2991   1.153   3.587   3.703
  698SOL     OW 2992   4.795   5.937   3.683
  698SOL    HW1 2993   4.819   5.881   3.604
  698SOL    HW2 2994   4.797   5.881   3.766
  699SOL     OW 2995   0.788   4.805   6.242
  699SOL    HW1 2996   0.812   4.726   6.186
  699SOL    HW2 2997   0.863   4.871   6.241
  700SOL     OW 2998   1.685   1.655   5.075
  700SOL    HW1 2999   1.715   1.735   5.023
  700SOL    HW2 3000   1.733   1.574   5.042
  701SOL     OW 3001   1.122   4.574   4.846
  701SOL    HW1 3002   1.158   4.665   4.868
  701SOL    HW2 3003   1.077   4.576   4.757
  702SOL     OW 3004   6.014   6.168   5.138
  702SOL    HW1 3005   5.923   6.199   5.111
  702SOL    HW2 3006   6.005   6.089   5.199
  703SOL     OW 3007   5.456   4.225   5.975
  703SOL    HW1 3008   5.492   4.186   6.060
  703SOL    HW2 3009   5.466   4.158   5.901
  704SOL     OW 3010   2.143   6.797   1.687
  704SOL    HW1 3011   2.140   6.771   1.590
  704SOL    HW2 3012   2.212   6.743   1.734
  705SOL     OW 3013   0.873   1.973   3.893
  705SOL    HW1 3014   0.794   1.925   3.855
  705SOL    HW2 3015   0.957   1.928   3.863
  706SOL     OW 3016   5.322   3.797   4.024
  706SOL    HW1 3017   5.421   3.788   4.022
  706SOL    HW2 3018   5.287   3.754   4.108
  707SOL     OW 3019   5.249   2.465   2.771
  707SOL    HW1 3020   5.270   2.377   2.729
  707SOL    HW2 3021   5.151   2.483   2.763
  708SOL     OW 3022   4.745   1.389   2.298
  708SOL    HW1 3023   4.743   1.449   2.217
  708SOL    HW2 3024   4.676   1.317   2.287
  709SOL     OW 3025   1.126   5.132   6.710
  709SOL    HW1 3026   1.078   5.206   6.663
  709SOL    HW2 3027   1.223   5.155   6.716
  710SOL     OW 3028   3.101   3.928   3.147
  710SOL    HW1 3029   3.176   3.987   3.117
  710SOL    HW2 3030   3.057   3.968   3.227
  711SOL     OW 3031   0.254   0.876   4.698
  711SOL    HW1 3032   0.195   0.949   4.664
  711SOL    HW2 3033   0.201   0.791   4.705
  712SOL     OW 3034   0.372   4.073   3.283
  712SOL    HW1 3035   0.275   4.097   3.272
  712SOL    HW2 3036   0.414   4.063   3.193
  713SOL     OW 3037   3.174   3.697   5.064
  713SOL    HW1 3038   3.108   3.768   5.040
  713SOL    HW2 3039   3.224   3.725   5.147
  714SOL     OW 3040   4.367   4.876   5.315
  714SOL    HW1 3041   4.403   4.962   5.279
  714SOL    HW2 3042   4.404   4.859   5.406
  715SOL     OW 3043   6.285   0.081   6.426
  715SOL    HW1 3044   6.308   0.113   6.334
  715SOL    HW2 3045   6.217   0.008   6.419
  716SOL     OW 3046   6.177   5.532   0.418
  716SOL    HW1 3047   6.161   5.628   0.394
  716SOL    HW2 3048   6.151   5.474   0.341
  717SOL     OW 3049   6.403   3.308   6.075
  717SOL    HW1 3050   6.429   3.308   6.172
  717SOL    HW2 3051   6.408   3.401   6.039
  718SOL     OW 3052   3.187   2.700   0.175
  718SOL    HW1 3053   3.284   2.691   0.152
  718SOL    HW2 3054   3.137   2.735   0.095
  719SOL     OW 3055   5.552   4.678   6.871
  719SOL    HW1 3056   5.457   4.684   6.840
  719SOL    HW2 3057   5.600   4.762   6.847
  720SOL     OW 3058   4.014   1.021   5.759
  720SOL    HW1 3059   4.112   1.039   5.767
  720SOL    HW2 3060   3.999   0.926   5.733
  721SOL     OW 3061   1.006   6.935   5.551
  721SOL    HW1 3062   0.951   6.902   5.628
  721SOL    HW2 3063   1.066   7.008   5.582
  722SOL     OW 3064   4.882   0.086   5.007
  722SOL    HW1 3065   4.859   0.167   4.953
  722SOL    HW2 3066   4.897   0.008   4.947
  723SOL     OW 3067   1.101   3.253   2.140
  723SOL    HW1 3068   1.177   3.218   2.194
  723SOL    HW2 3069   1.137   3.307   2.064
  724SOL     OW 3070   0.181   1.579   4.838
  724SOL    HW1 3071   0.196   1.648   4.768
  724SOL    HW2 3072   0.087   1.586   4.873
  725SOL     OW 3073   2.495   5.163   2.711
  725SOL    HW1 3074   2.496   5.238   2.777
  725SOL    HW2 3075   2.437   5.089   2.746
  726SOL     OW 3076   5.362   6.069   5.286
  726SOL    HW1 3077   5.360   5.991   5.223
  726SOL    HW2 3078   5.354   6.036   5.380
  727SOL     OW 3079   2.358   4.752   4.540
  727SOL    HW1 3080   2.330   4.723   4.448
  727SOL    HW2 3081   2.315   4.840   4.562
  728SOL     OW 3082   6.633   2.675   5.675
  728SOL    HW1 3083   6.586   2.727   5.746
  728SOL    HW2 3084   6.569   2.613   5.631
  729SOL     OW 3085   4.555   1.508   0.629
  729SOL    HW1 3086   4.641   1.559   0.621
  729SOL    HW2 3087   4.515   1.498   0.538
  730SOL     OW 3088   5.935   1.319   4.627
  730SOL    HW1 3089   6.028   1.294   4.599
  730SOL    HW2 3090   5.904   1.397   4.573
  731SOL     OW 3091   6.847   2.056   4.045
  731SOL    HW1 3092   6.841   2.145   4.089
  731SOL    HW2 3093   6.934   2.048   3.997
  732SOL     OW 3094   0.636   3.295   3.527
  732SOL    HW1 3095   0.566   3.364   3.509
  732SOL    HW2 3096   0.650   3.286   3.625
  733SOL     OW 3097   4.748   4.923   4.053
  733SOL    HW1 3098   4.694   4.995   4.011
  733SOL    HW2 3099   4.838   4.959   4.079
  734SOL     OW 3100   0.955   5.887   6.909
  734SOL    HW1 3101   0.886   5.827   6.949
  734SOL    HW2 3102   1.014   5.924   6.981
  735SOL     OW 3103   2.825   4.807   6.824
  735SOL    HW1 3104   2.794   4.739   6.757
  735SOL    HW2 3105   2.844   4.894   6.778
  736SOL     OW 3106   5.640   1.060   2.699
  736SOL    HW1 3107   5.670   1.106   2.615
  736SOL    HW2 3108   5.709   1.071   2.769
  737SOL     OW 3109   5.370   4.030   0.108
  737SOL    HW1 3110   5.426   4.112   0.093
  737SOL    HW2 3111   5.295   4.028   0.042
  738SOL     OW 3112   0.940   3.996   3.523
  738SOL    HW1 3113   1.025   3.967   3.567
  738SOL    HW2 3114   0.946   4.094   3.502
  739SOL     OW 3115   4.632   6.547   6.050
  739SOL    HW1 3116   4.570   6.468   6.046
  739SOL    HW2 3117   4.694   6.544   5.972
  740SOL     OW 3118   5.300   6.744   0.253
  740SOL    HW1 3119   5.341   6.733   0.343
  740SOL    HW2 3120   5.370   6.734   0.183
  741SOL     OW 3121   2.461   0.124   3.905
  741SOL    HW1 3122   2.507   0.172   3.831
  741SOL    HW2 3123   2.479   0.170   3.992
  742SOL     OW 3124   1.660   6.425   2.704
  742SOL    HW1 3125   1.719   6.461   2.776
  742SOL    HW2 3126   1.641   6.498   2.637
  743SOL     OW 3127   1.409   3.402   3.658
  743SOL    HW1 3128   1.419   3.478   3.722
  743SOL    HW2 3129   1.415   3.436   3.564
  744SOL     OW 3130   6.386   5.155   0.709
  744SOL    HW1 3131   6.375   5.247   0.671
  744SOL    HW2 3132   6.414   5.092   0.637
  745SOL     OW 3133   2.059   5.635   2.411
  745SOL    HW1 3134   2.120   5.634   2.332
  745SOL    HW2 3135   2.031   5.729   2.429
  746SOL     OW 3136   3.213   0.116   3.226
  746SOL    HW1 3137   3.226   0.018   3.241
  746SOL    HW2 3138   3.119   0.133   3.198
  747SOL     OW 3139   6.587   3.624   1.028
  747SOL    HW1 3140   6.599   3.583   1.118
  747SOL    HW2 3141   6.565   3.721   1.037
  748SOL     OW 3142   3.219   2.935   2.714
  748SOL    HW1 3143   3.152   2.876   2.760
  748SOL    HW2 3144   3.212   2.922   2.615
  749SOL     OW 3145   5.632   2.462   5.078
  749SOL    HW1 3146   5.626   2.474   4.979
  749SOL    HW2 3147   5.591   2.374   5.103
  750SOL     OW 3148   3.071   3.514   1.823
  750SOL    HW1 3149   3.060   3.565   1.738
  750SOL    HW2 3150   2.985   3.513   1.874
  751SOL     OW 3151   5.299   1.686   0.283
  751SOL    HW1 3152   5.262   1.695   0.375
  751SOL    HW2 3153   5.226   1.658   0.221
  752SOL     OW 3154   4.676   0.717   1.907
  752SOL    HW1 3155   4.759   0.748   1.954
  752SOL    HW2 3156   4.685   0.733   1.809
  753SOL     OW 3157   4.067   1.824   2.569
  753SOL    HW1 3158   4.080   1.754   2.499
  753SOL    HW2 3159   4.073   1.914   2.528
  754SOL     OW 3160   5.463   5.574   0.166
  754SOL    HW1 3161   5.380   5.624   0.141
  754SOL    HW2 3162   5.455   5.478   0.137
  755SOL     OW 3163   6.447   6.184   2.406
  755SOL    HW1 3164   6.536   6.228   2.393
  755SOL    HW2 3165   6.460   6.092   2.443
  756SOL     OW 3166   2.587   6.741   3.718
  756SOL    HW1 3167   2.687   6.734   3.712
  756SOL    HW2 3168   2.546   6.658   3.682
  757SOL     OW 3169   6.742   0.799   3.946
  757SOL    HW1 3170   6.836   0.803   3.912
  757SOL    HW2 3171   6.742   0.762   4.039
  758SOL     OW 3172   4.533   2.083   0.959
  758SOL    HW1 3173   4.470   2.005   0.951
  758SOL    HW2 3174   4.591   2.087   0.878
  759SOL     OW 3175   2.327   0.730   1.445
  759SOL    HW1 3176   2.427   0.736   1.440
  759SOL    HW2 3177   2.289   0.821   1.458
  760SOL     OW 3178   4.654   1.923   5.943
  760SOL    HW1 3179   4.716   1.984   5.894
  760SOL    HW2 3180   4.576   1.900   5.885
  761SOL     OW 3181   5.205   0.876   6.753
  761SOL    HW1 3182   5.231   0.923   6.838
  761SOL    HW2 3183   5.126   0.923   6.712
  762SOL     OW 3184   2.537   5.029   4.622
  762SOL    HW1 3185   2.624   4.996   4.657
  762SOL    HW2 3186   2.464   4.968   4.653
  763SOL     OW 3187   6.084   5.041   6.823
  763SOL    HW1 3188   6.030   4.987   6.889
  763SOL    HW2 3189   6.132   4.979   6.761
  764SOL     OW 3190   5.914   1.455   2.987
  764SOL    HW1 3191   5.839   1.447   2.921
  764SOL    HW2 3192   5.878   1.490   3.074
  765SOL     OW 3193   0.585   6.532   3.395
  765SOL    HW1 3194   0.683   6.552   3.388
  765SOL    HW2 3195   0.540   6.556   3.309
  766SOL     OW 3196   6.403   6.188   0.325
  766SOL    HW1 3197   6.384   6.147   0.414
  766SOL    HW2 3198   6.470   6.262   0.335
  767SOL     OW 3199   5.993   6.328   1.732
  767SOL    HW1 3200   5.983   6.345   1.634
  767SOL    HW2 3201   6.080   6.365   1.764
  768SOL     OW 3202   3.019   6.441   3.878
  768SOL    HW1 3203   3.014   6.433   3.779
  768SOL    HW2 3204   2.932   6.475   3.913
  769SOL     OW 3205   4.312   0.851   0.323
  769SOL    HW1 3206   4.345   0.943   0.300
  769SOL    HW2 3207   4.352   0.785   0.260
  770SOL     OW 3208   3.175   4.935   4.629
  770SOL    HW1 3209   3.256   4.967   4.580
  770SOL    HW2 3210   3.203   4.884   4.711
  771SOL     OW 3211   0.806   6.207   4.588
  771SOL    HW1 3212   0.735   6.209   4.659
  771SOL    HW2 3213   0.892   6.241   4.626
  772SOL     OW 3214   0.287   4.331   5.858
  772SOL    HW1 3215   0.305   4.339   5.760
  772SOL    HW2 3216   0.209   4.390   5.882
  773SOL     OW 3217   0.078   3.351   2.264
  773SOL    HW1 3218   0.022   3.366   2.345
  773SOL    HW2 3219   0.171   3.384   2.281
  774SOL     OW 3220   1.443   0.875   1.695
  774SOL    HW1 3221   1.517   0.819   1.732
  774SOL    HW2 3222   1.381   0.817   1.642
  775SOL     OW 3223   1.635   2.663   4.043
  775SOL    HW1 3224   1.578   2.744   4.028
  775SOL    HW2 3225   1.579   2.589   4.080
  776SOL     OW 3226   1.872   0.672   4.914
  776SOL    HW1 3227   1.932   0.605   4.870
  776SOL    HW2 3228   1.847   0.743   4.848
  777SOL     OW 3229   4.402   6.855   6.613
  777SOL    HW1 3230   4.306   6.870   6.637
  777SOL    HW2 3231   4.460   6.911   6.671
  778SOL     OW 3232   4.542   5.244   4.828
  778SOL    HW1 3233   4.589   5.285   4.906
  778SOL    HW2 3234   4.582   5.279   4.743
  779SOL     OW 3235   0.440   0.033   2.139
  779SOL    HW1 3236   0.466   0.028   2.236
  779SOL    HW2 3237   0.356   0.086   2.130
  780SOL     OW 3238   5.772   2.414   4.701
  780SOL    HW1 3239   5.751   2.317   4.688
  780SOL    HW2 3240   5.691   2.469   4.679
  781SOL     OW 3241   0.180   2.656   6.308
  781SOL    HW1 3242   0.095   2.618   6.345
  781SOL    HW2 3243   0.256   2.630   6.367
  782SOL     OW 3244   6.748   5.012   0.656
  782SOL    HW1 3245   6.785   4.926   0.622
  782SOL    HW2 3246   6.815   5.085   0.640
  783SOL     OW 3247   1.551   5.288   0.154
  783SOL    HW1 3248   1.548   5.189   0.142
  783SOL    HW2 3249   1.645   5.316   0.175
  784SOL     OW 3250   5.313   5.234   3.278
  784SOL    HW1 3251   5.216   5.216   3.295
  784SOL    HW2 3252   5.365   5.223   3.363
  785SOL     OW 3253   6.478   2.465   3.923
  785SOL    HW1 3254   6.528   2.379   3.938
  785SOL    HW2 3255   6.496   2.499   3.831
  786SOL     OW 3256   5.868   6.552   0.525
  786SOL    HW1 3257   5.900   6.570   0.619
  786SOL    HW2 3258   5.947   6.543   0.465
  787SOL     OW 3259   4.565   1.421   6.836
  787SOL    HW1 3260   4.602   1.513   6.851
  787SOL    HW2 3261   4.476   1.414   6.882
  788SOL     OW 3262   0.626   4.282   3.362
  788SOL    HW1 3263   0.565   4.242   3.431
  788SOL    HW2 3264   0.573   4.341   3.301
  789SOL     OW 3265   5.466   2.954   0.825
  789SOL    HW1 3266   5.416   2.920   0.745
  789SOL    HW2 3267   5.560   2.920   0.823
  790SOL     OW 3268   3.303   0.282   3.908
  790SOL    HW1 3269   3.275   0.293   3.812
  790SOL    HW2 3270   3.356   0.198   3.917
  791SOL     OW 3271   4.241   1.442   5.169
  791SOL    HW1 3272   4.247   1.504   5.090
  791SOL    HW2 3273   4.293   1.359   5.150
  792SOL     OW 3274   5.444   0.714   3.560
  792SOL    HW1 3275   5.537   0.721   3.524
  792SOL    HW2 3276   5.403   0.627   3.531
  793SOL     OW 3277   6.904   0.308   6.603
  793SOL    HW1 3278   6.917   0.399   6.642
  793SOL    HW2 3279   6.884   0.316   6.505
  794SOL     OW 3280   3.578   4.709   5.332
  794SOL    HW1 3281   3.671   4.746   5.326
  794SOL    HW2 3282   3.582   4.609   5.325
  795SOL     OW 3283   5.014   5.365   0.009
  795SOL    HW1 3284   4.935   5.310   7.003
  795SOL    HW2 3285   4.991   5.462   0.000
  796SOL     OW 3286   0.105   1.539   5.463
  796SOL    HW1 3287   0.091   1.541   5.364
  796SOL    HW2 3288   0.195   1.498   5.482
  797SOL     OW 3289   5.998   3.098   5.257
  797SOL    HW1 3290   5.935   3.021   5.267
  797SOL    HW2 3291   6.039   3.097   5.166
  798SOL     OW 3292   6.958   0.636   5.287
  798SOL    HW1 3293   6.911   0.705   5.342
  798SOL    HW2 3294   7.018   0.682   5.221
  799SOL     OW 3295   6.721   4.023   2.998
  799SOL    HW1 3296   6.805   3.977   2.968
  799SOL    HW2 3297   6.644   3.961   2.985
  800SOL     OW 3298   0.380   1.465   2.276
  800SOL    HW1 3299   0.305   1.435   2.217
  800SOL    HW2 3300   0.347   1.474   2.370
  801SOL     OW 3301   0.285   2.665   4.097
  801SOL    HW1 3302   0.370   2.622   4.128
  801SOL    HW2 3303   0.285   2.671   3.998
  802SOL     OW 3304   6.591   1.412   1.697
  802SOL    HW1 3305   6.605   1.330   1.752
  802SOL    HW2 3306   6.537   1.479   1.748
  803SOL     OW 3307   1.468   0.177   4.727
  803SOL    HW1 3308   1.508   0.173   4.636
  803SOL    HW2 3309   1.540   0.171   4.796
  804SOL     OW 3310   6.055   6.790   0.915
  804SOL    HW1 3311   6.100   6.811   0.828
  804SOL    HW2 3312   5.979   6.854   0.929
  805SOL     OW 3313   2.033   2.958   5.909
  805SOL    HW1 3314   2.026   3.055   5.885
  805SOL    HW2 3315   2.000   2.903   5.833
  806SOL     OW 3316   4.352   6.857   0.294
  806SOL    HW1 3317   4.267   6.806   0.280
  806SOL    HW2 3318   4.430   6.798   0.276
  807SOL     OW 3319   0.913   6.891   3.173
  807SOL    HW1 3320   0.835   6.864   3.116
  807SOL    HW2 3321   0.962   6.809   3.204
  808SOL     OW 3322   6.107   3.888   4.820
  808SOL    HW1 3323   6.037   3.902   4.890
  808SOL    HW2 3324   6.122   3.974   4.771
  809SOL     OW 3325   0.934   5.808   6.191
  809SOL    HW1 3326   0.968   5.720   6.158
  809SOL    HW2 3327   0.998   5.880   6.166
  810SOL     OW 3328   6.512   5.831   6.223
  810SOL    HW1 3329   6.546   5.742   6.251
  810SOL    HW2 3330   6.565   5.864   6.145
  811SOL     OW 3331   3.442   4.887   3.478
  811SOL    HW1 3332   3.506   4.951   3.519
  811SOL    HW2 3333   3.493   4.814   3.432
  812SOL     OW 3334   0.039   0.453   2.781
  812SOL    HW1 3335   0.037   0.409   2.871
  812SOL    HW2 3336   6.977   0.505   2.767
  813SOL     OW 3337   5.816   5.610   2.018
  813SOL    HW1 3338   5.904   5.574   1.987
  813SOL    HW2 3339   5.811   5.708   1.997
  814SOL     OW 3340   4.922   5.657   1.219
  814SOL    HW1 3341   4.964   5.571   1.193
  814SOL    HW2 3342   4.906   5.659   1.318
  815SOL     OW 3343   1.175   1.455   0.549
  815SOL    HW1 3344   1.218   1.512   0.479
  815SOL    HW2 3345   1.242   1.434   0.620
  816SOL     OW 3346   5.802   0.741   1.679
  816SOL    HW1 3347   5.723   0.688   1.647
  816SOL    HW2 3348   5.886   0.700   1.646
  817SOL     OW 3349   1.002   1.969   2.330
  817SOL    HW1 3350   1.013   1.870   2.335
  817SOL    HW2 3351   0.990   2.006   2.422
  818SOL     OW 3352   5.446   1.277   2.703
  818SOL    HW1 3353   5.435   1.182   2.730
  818SOL    HW2 3354   5.357   1.323   2.705
  819SOL     OW 3355   0.367   5.453   2.008
  819SOL    HW1 3356   0.377   5.455   2.107
  819SOL    HW2 3357   0.329   5.364   1.980
  820SOL     OW 3358   2.138   2.874   5.179
  820SOL    HW1 3359   2.169   2.783   5.152
  820SOL    HW2 3360   2.200   2.913   5.246
  821SOL     OW 3361   1.204   4.368   0.621
  821SOL    HW1 3362   1.297   4.331   0.624
  821SOL    HW2 3363   1.191   4.431   0.697
  822SOL     OW 3364   1.194   3.166   4.910
  822SOL    HW1 3365   1.225   3.241   4.969
  822SOL    HW2 3366   1.211   3.079   4.956
  823SOL     OW 3367   3.713   3.783   1.877
  823SOL    HW1 3368   3.771   3.716   1.830
  823SOL    HW2 3369   3.771   3.853   1.920
  824SOL     OW 3370   6.282   2.603   6.306
  824SOL    HW1 3371   6.242   2.649   6.385
  824SOL    HW2 3372   6.366   2.556   6.333
  825SOL     OW 3373   1.372   3.428   1.764
  825SOL    HW1 3374   1.382   3.356   1.695
  825SOL    HW2 3375   1.287   3.413   1.815
  826SOL     OW 3376   1.432   3.273   6.133
  826SOL    HW1 3377   1.481   3.318   6.058
  826SOL    HW2 3378   1.428   3.334   6.212
  827SOL     OW 3379   3.388   4.643   1.169
  827SOL    HW1 3380   3.416   4.598   1.255
  827SOL    HW2 3381   3.366   4.573   1.101
  828SOL     OW 3382   6.157   0.462   5.585
  828SOL    HW1 3383   6.237   0.476   5.643
  828SOL    HW2 3384   6.080   0.514   5.622
  829SOL     OW 3385   3.531   3.882   5.785
  829SOL    HW1 3386   3.542   3.815   5.858
  829SOL    HW2 3387   3.619   3.926   5.766
  830SOL     OW 3388   4.406   3.494   5.948
  830SOL    HW1 3389   4.472   3.568   5.959
  830SOL    HW2 3390   4.320   3.531   5.913
  831SOL     OW 3391   5.400   0.376   4.786
  831SOL    HW1 3392   5.485   0.353   4.738
  831SOL    HW2 3393   5.393   0.322   4.869
  832SOL     OW 3394   2.639   1.744   5.628
  832SOL    HW1 3395   2.710   1.749   5.558
  832SOL    HW2 3396   2.678   1.712   5.714
  833SOL     OW 3397   1.239   0.660   5.420
  833SOL    HW1 3398   1.296   0.580   5.436
  833SOL    HW2 3399   1.180   0.643   5.340
  834SOL     OW 3400   3.467   4.462   5.673
  834SOL    HW1 3401   3.507   4.372   5.689
  834SOL    HW2 3402   3.396   4.479   5.742
  835SOL     OW 3403   4.048   1.375   2.638
  835SOL    HW1 3404   4.059   1.431   2.556
  835SOL    HW2 3405   4.121   1.396   2.703
  836SOL     OW 3406   2.577   1.155   6.500
  836SOL    HW1 3407   2.482   1.185   6.508
  836SOL    HW2 3408   2.590   1.070   6.551
  837SOL     OW 3409   3.943   1.508   4.905
  837SOL    HW1 3410   3.933   1.510   5.004
  837SOL    HW2 3411   3.860   1.545   4.862
  838SOL     OW 3412   1.462   6.091   2.266
  838SOL    HW1 3413   1.461   6.162   2.336
  838SOL    HW2 3414   1.441   6.131   2.177
  839SOL     OW 3415   2.872   1.318   1.815
  839SOL    HW1 3416   2.884   1.328   1.914
  839SOL    HW2 3417   2.946   1.364   1.767
  840SOL     OW 3418   1.167   0.997   5.702
  840SOL    HW1 3419   1.132   1.006   5.609
  840SOL    HW2 3420   1.142   1.077   5.756
  841SOL     OW 3421   0.266   3.544   1.225
  841SOL    HW1 3422   0.202   3.575   1.295
  841SOL    HW2 3423   0.321   3.470   1.261
  842SOL     OW 3424   3.555   5.237   3.989
  842SOL    HW1 3425   3.586   5.151   3.949
  842SOL    HW2 3426   3.614   5.312   3.959
  843SOL     OW 3427   0.298   3.829   1.737
  843SOL    HW1 3428   0.243   3.746   1.737
  843SOL    HW2 3429   0.357   3.831   1.657
  844SOL     OW 3430   5.899   4.911   6.551
  844SOL    HW1 3431   5.919   4.833   6.609
  844SOL    HW2 3432   5.971   4.923   6.483
  845SOL     OW 3433   2.324   4.986   5.654
  845SOL    HW1 3434   2.390   4.917   5.625
  845SOL    HW2 3435   2.231   4.955   5.632
  846SOL     OW 3436   4.292   2.261   0.074
  846SOL    HW1 3437   4.326   2.336   0.131
  846SOL    HW2 3438   4.290   2.177   0.127
  847SOL     OW 3439   5.218   4.110   1.864
  847SOL    HW1 3440   5.279   4.190   1.868
  847SOL    HW2 3441   5.131   4.138   1.824
  848SOL     OW 3442   5.853   6.910   5.361
  848SOL    HW1 3443   5.851   6.813   5.339
  848SOL    HW2 3444   5.763   6.940   5.392
  849SOL     OW 3445   0.990   5.465   4.214
  849SOL    HW1 3446   1.033   5.477   4.303
  849SOL    HW2 3447   0.900   5.509   4.214
  850SOL     OW 3448   3.337   0.627   3.248
  850SOL    HW1 3449   3.316   0.533   3.221
  850SOL    HW2 3450   3.341   0.633   3.348
  851SOL     OW 3451   6.931   1.096   5.479
  851SOL    HW1 3452   6.934   1.097   5.579
  851SOL    HW2 3453   7.022   1.117   5.442
  852SOL     OW 3454   2.875   4.862   5.499
  852SOL    HW1 3455   2.891   4.861   5.400
  852SOL    HW2 3456   2.784   4.899   5.518
  853SOL     OW 3457   0.954   4.513   0.549
  853SOL    HW1 3458   1.026   4.446   0.567
  853SOL    HW2 3459   0.901   4.528   0.633
  854SOL     OW 3460   5.785   5.345   1.384
  854SOL    HW1 3461   5.860   5.306   1.330
  854SOL    HW2 3462   5.822   5.410   1.450
  855SOL     OW 3463   5.088   0.446   0.574
  855SOL    HW1 3464   5.036   0.513   0.521
  855SOL    HW2 3465   5.042   0.358   0.570
  856SOL     OW 3466   1.540   0.442   5.173
  856SOL    HW1 3467   1.483   0.427   5.092
  856SOL    HW2 3468   1.500   0.391   5.250
  857SOL     OW 3469   5.294   3.725   1.502
  857SOL    HW1 3470   5.231   3.706   1.428
  857SOL    HW2 3471   5.324   3.640   1.544
  858SOL     OW 3472   3.687   3.958   2.306
  858SOL    HW1 3473   3.623   4.034   2.315
  858SOL    HW2 3474   3.773   3.982   2.351
  859SOL     OW 3475   0.359   4.336   0.554
  859SOL    HW1 3476   0.458   4.325   0.561
  859SOL    HW2 3477   0.323   4.366   0.643
  860SOL     OW 3478   1.996   3.539   6.435
  860SOL    HW1 3479   1.988   3.489   6.521
  860SOL    HW2 3480   2.038   3.480   6.366
  861SOL     OW 3481   3.606   4.104   6.240
  861SOL    HW1 3482   3.652   4.173   6.296
  861SOL    HW2 3483   3.625   4.013   6.276
  862SOL     OW 3484   4.351   4.643   3.116
  862SOL    HW1 3485   4.334   4.624   3.213
  862SOL    HW2 3486   4.426   4.585   3.083
  863SOL     OW 3487   5.850   2.436   1.395
  863SOL    HW1 3488   5.762   2.480   1.378
  863SOL    HW2 3489   5.838   2.337   1.397
  864SOL     OW 3490   0.583   5.227   2.947
  864SOL    HW1 3491   0.664   5.192   2.901
  864SOL    HW2 3492   0.609   5.276   3.030
  865SOL     OW 3493   1.890   0.972   3.705
  865SOL    HW1 3494   1.988   0.968   3.726
  865SOL    HW2 3495   1.878   0.976   3.606
  866SOL     OW 3496   4.438   0.972   1.325
  866SOL    HW1 3497   4.471   0.963   1.419
  866SOL    HW2 3498   4.496   0.918   1.264
  867SOL     OW 3499   2.397   1.708   6.661
  867SOL    HW1 3500   2.438   1.739   6.746
  867SOL    HW2 3501   2.463   1.718   6.586
  868SOL     OW 3502   5.291   2.061   3.213
  868SOL    HW1 3503   5.222   2.090   3.280
  868SOL    HW2 3504   5.373   2.030   3.261
  869SOL     OW 3505   6.510   3.879   0.999
  869SOL    HW1 3506   6.531   3.911   0.906
  869SOL    HW2 3507   6.488   3.957   1.057
  870SOL     OW 3508   5.981   1.787   0.446
  870SOL    HW1 3509   5.989   1.688   0.434
  870SOL    HW2 3510   6.065   1.822   0.487
  871SOL     OW 3511   6.689   4.593   0.455
  871SOL    HW1 3512   6.761   4.620   0.391
  871SOL    HW2 3513   6.644   4.510   0.421
  872SOL     OW 3514   7.020   1.953   1.737
  872SOL    HW1 3515   6.971   1.950   1.650
  872SOL    HW2 3516   6.980   2.024   1.795
  873SOL     OW 3517   3.978   6.884   4.494
  873SOL    HW1 3518   3.938   6.794   4.473
  873SOL    HW2 3519   4.071   6.871   4.529
  874SOL     OW 3520   0.602   4.363   6.800
  874SOL    HW1 3521   0.695   4.368   6.765
  874SOL    HW2 3522   0.538   4.393   6.730
  875SOL     OW 3523   6.268   5.848   6.340
  875SOL    HW1 3524   6.358   5.842   6.296
  875SOL    HW2 3525   6.235   5.756   6.361
  876SOL     OW 3526   2.144   2.028   1.611
  876SOL    HW1 3527   2.122   1.934   1.586
  876SOL    HW2 3528   2.238   2.049   1.585
  877SOL     OW 3529   5.468   5.632   6.390
  877SOL    HW1 3530   5.470   5.732   6.382
  877SOL    HW2 3531   5.456   5.606   6.486
  878SOL     OW 3532   3.546   2.944   0.769
  878SOL    HW1 3533   3.465   2.899   0.730
  878SOL    HW2 3534   3.591   2.881   0.833
  879SOL     OW 3535   4.837   3.089   3.920
  879SOL    HW1 3536   4.793   3.012   3.967
  879SOL    HW2 3537   4.838   3.072   3.821
  880SOL     OW 3538   4.259   5.587   1.424
  880SOL    HW1 3539   4.235   5.684   1.436
  880SOL    HW2 3540   4.268   5.567   1.326
  881SOL     OW 3541   5.243   4.795   3.157
  881SOL    HW1 3542   5.328   4.824   3.112
  881SOL    HW2 3543   5.168   4.798   3.091
  882SOL     OW 3544   0.968   2.390   4.814
  882SOL    HW1 3545   1.017   2.306   4.838
  882SOL    HW2 3546   0.870   2.376   4.826
  883SOL     OW 3547   3.224   4.728   6.951
  883SOL    HW1 3548   3.161   4.651   6.944
  883SOL    HW2 3549   3.270   4.725   0.018
  884SOL     OW 3550   4.205   3.919   1.561
  884SOL    HW1 3551   4.184   3.940   1.466
  884SOL    HW2 3552   4.211   4.004   1.613
  885SOL     OW 3553   4.611   6.252   5.443
  885SOL    HW1 3554   4.568   6.336   5.478
  885SOL    HW2 3555   4.703   6.243   5.482
  886SOL     OW 3556   3.622   2.585   6.319
  886SOL    HW1 3557   3.690   2.595   6.246
  886SOL    HW2 3558   3.587   2.492   6.319
  887SOL     OW 3559   6.050   5.863   4.960
  887SOL    HW1 3560   6.091   5.950   4.989
  887SOL    HW2 3561   5.951   5.873   4.956
  888SOL     OW 3562   6.436   0.639   3.264
  888SOL    HW1 3563   6.519   0.686   3.235
  888SOL    HW2 3564   6.362   0.705   3.275
  889SOL     OW 3565   0.668   0.222   4.780
  889SOL    HW1 3566   0.722   0.303   4.800
  889SOL    HW2 3567   0.699   0.146   4.837
  890SOL     OW 3568   1.289   3.661   1.509
  890SOL    HW1 3569   1.234   3.645   1.427
  890SOL    HW2 3570   1.374   3.706   1.483
  891SOL     OW 3571   5.923   3.679   6.465
  891SOL    HW1 3572   5.857   3.752   6.483
  891SOL    HW2 3573   5.976   3.702   6.384
  892SOL     OW 3574   2.129   5.103   1.871
  892SOL    HW1 3575   2.102   5.192   1.908
  892SOL    HW2 3576   2.226   5.086   1.891
  893SOL     OW 3577   2.155   0.200   2.021
  893SOL    HW1 3578   2.191   0.113   2.054
  893SOL    HW2 3579   2.058   0.190   2.000
  894SOL     OW 3580   1.631   5.527   4.692
  894SOL    HW1 3581   1.548   5.548   4.641
  894SOL    HW2 3582   1.615   5.542   4.789
  895SOL     OW 3583   2.541   0.724   4.661
  895SOL    HW1 3584   2.454   0.764   4.692
  895SOL    HW2 3585   2.614   0.753   4.723
  896SOL     OW 3586   5.243   6.710   3.361
  896SOL    HW1 3587   5.260   6.779   3.291
  896SOL    HW2 3588   5.151   6.723   3.398
  897SOL     OW 3589   5.915   1.164   6.462
  897SOL    HW1 3590   5.917   1.075   6.508
  897SOL    HW2 3591   5.972   1.160   6.380
  898SOL     OW 3592   5.243   6.604   3.890
  898SOL    HW1 3593   5.194   6.692   3.890
  898SOL    HW2 3594   5.201   6.543   3.957
  899SOL     OW 3595   1.340   4.911   0.299
  899SOL    HW1 3596   1.435   4.878   0.299
  899SOL    HW2 3597   1.281   4.842   0.339
  900SOL     OW 3598   0.747   5.044   3.478
  900SOL    HW1 3599   0.789   4.997   3.556
  900SOL    HW2 3600   0.648   5.030   3.480
  901SOL     OW 3601   6.338   1.756   3.771
  901SOL    HW1 3602   6.406   1.781   3.703
  901SOL    HW2 3603   6.254   1.726   3.725
  902SOL     OW 3604   1.361   6.215   0.012
  902SOL    HW1 3605   1.351   6.116   0.016
  902SOL    HW2 3606   1.295   6.252   6.968
  903SOL     OW 3607   0.428   4.981   6.346
  903SOL    HW1 3608   0.509   5.026   6.383
  903SOL    HW2 3609   0.382   5.041   6.281
  904SOL     OW 3610   2.445   1.329   4.151
  904SOL    HW1 3611   2.465   1.317   4.248
  904SOL    HW2 3612   2.528   1.356   4.103
  905SOL     OW 3613   5.883   3.371   3.749
  905SOL    HW1 3614   5.962   3.400   3.802
  905SOL    HW2 3615   5.879   3.422   3.663
  906SOL     OW 3616   6.563   3.333   5.102
  906SOL    HW1 3617   6.507   3.325   5.184
  906SOL    HW2 3618   6.512   3.379   5.029
  907SOL     OW 3619   0.098   3.838   2.629
  907SOL    HW1 3620   0.030   3.815   2.559
  907SOL    HW2 3621   0.185   3.861   2.585
  908SOL     OW 3622   2.396   1.085   3.636
  908SOL    HW1 3623   2.384   1.149   3.560
  908SOL    HW2 3624   2.439   1.001   3.602
  909SOL     OW 3625   3.934   6.793   1.585
  909SOL    HW1 3626   3.849   6.740   1.586
  909SOL    HW2 3627   3.937   6.848   1.501
  910SOL     OW 3628   1.677   0.899   2.042
  910SOL    HW1 3629   1.777   0.897   2.034
  910SOL    HW2 3630   1.638   0.820   1.993
  911SOL     OW 3631   1.098   3.176   0.815
  911SOL    HW1 3632   1.015   3.217   0.854
  911SOL    HW2 3633   1.074   3.127   0.731
  912SOL     OW 3634   1.902   1.467   7.003
  912SOL    HW1 3635   1.858   1.381   6.980
  912SOL    HW2 3636   1.834   1.531   0.016
  913SOL     OW 3637   2.202   1.475   2.485
  913SOL    HW1 3638   2.104   1.491   2.474
  913SOL    HW2 3639   2.240   1.444   2.398
  914SOL     OW 3640   2.316   4.951   2.195
  914SOL    HW1 3641   2.216   4.944   2.196
  914SOL    HW2 3642   2.347   4.970   2.101
  915SOL     OW 3643   2.347   2.220   0.779
  915SOL    HW1 3644   2.421   2.174   0.730
  915SOL    HW2 3645   2.356   2.203   0.877
  916SOL     OW 3646   1.157   3.201   2.614
  916SOL    HW1 3647   1.204   3.281   2.650
  916SOL    HW2 3648   1.062   3.225   2.593
  917SOL     OW 3649   3.587   0.740   6.129
  917SOL    HW1 3650   3.612   0.756   6.224
  917SOL    HW2 3651   3.487   0.735   6.121
  918SOL     OW 3652   0.422   2.150   4.942
  918SOL    HW1 3653   0.384   2.225   4.888
  918SOL    HW2 3654   0.413   2.170   5.039
  919SOL     OW 3655   0.958   0.963   0.814
  919SOL    HW1 3656   0.983   1.053   0.849
  919SOL    HW2 3657   1.005   0.947   0.727
  920SOL     OW 3658   1.611   1.514   2.899
  920SOL    HW1 3659   1.613   1.533   2.997
  920SOL    HW2 3660   1.683   1.567   2.854
  921SOL     OW 3661   4.008   4.417   0.205
  921SOL    HW1 3662   3.946   4.351   0.248
  921SOL    HW2 3663   4.092   4.372   0.178
  922SOL     OW 3664   2.237   5.997   6.947
  922SOL    HW1 3665   2.173   6.041   7.010
  922SOL    HW2 3666   2.186   5.953   6.873
  923SOL     OW 3667   4.273   1.129   0.172
  923SOL    HW1 3668   4.180   1.119   0.137
  923SOL    HW2 3669   4.338   1.087   0.109
  924SOL     OW 3670   6.187   4.671   1.934
  924SOL    HW1 3671   6.168   4.745   1.870
  924SOL    HW2 3672   6.101   4.634   1.969
  925SOL     OW 3673   6.391   2.376   2.101
  925SOL    HW1 3674   6.327   2.399   2.027
  925SOL    HW2 3675   6.479   2.421   2.084
  926SOL     OW 3676   3.894   5.796   1.184
  926SOL    HW1 3677   3.960   5.853   1.135
  926SOL    HW2 3678   3.920   5.790   1.280
  927SOL     OW 3679   4.742   5.323   5.250
  927SOL    HW1 3680   4.657   5.340   5.299
  927SOL    HW2 3681   4.757   5.224   5.243
  928SOL     OW 3682   0.589   1.936   1.728
  928SOL    HW1 3683   0.612   1.876   1.651
  928SOL    HW2 3684   0.528   1.887   1.791
  929SOL     OW 3685   0.410   2.278   2.301
  929SOL    HW1 3686   0.341   2.306   2.234
  929SOL    HW2 3687   0.386   2.189   2.339
  930SOL     OW 3688   6.473   5.378   2.038
  930SOL    HW1 3689   6.468   5.475   2.065
  930SOL    HW2 3690   6.513   5.325   2.113
  931SOL     OW 3691   1.315   2.493   1.837
  931SOL    HW1 3692   1.321   2.394   1.824
  931SOL    HW2 3693   1.239   2.514   1.898
  932SOL     OW 3694   4.519   6.006   1.264
  932SOL    HW1 3695   4.513   6.097   1.225
  932SOL    HW2 3696   4.428   5.977   1.294
  933SOL     OW 3697   1.314   6.617   3.740
  933SOL    HW1 3698   1.340   6.585   3.650
  933SOL    HW2 3699   1.255   6.549   3.784
  934SOL     OW 3700   3.227   1.203   5.481
  934SOL    HW1 3701   3.127   1.214   5.475
  934SOL    HW2 3702   3.264   1.271   5.543
  935SOL     OW 3703   1.450   3.762   4.483
  935SOL    HW1 3704   1.528   3.762   4.421
  935SOL    HW2 3705   1.365   3.770   4.431
  936SOL     OW 3706   1.440   1.287   2.031
  936SOL    HW1 3707   1.349   1.306   1.992
  936SOL    HW2 3708   1.451   1.188   2.041
  937SOL     OW 3709   5.080   2.181   3.358
  937SOL    HW1 3710   5.069   2.200   3.455
  937SOL    HW2 3711   5.010   2.115   3.329
  938SOL     OW 3712   0.479   1.003   6.660
  938SOL    HW1 3713   0.481   0.905   6.643
  938SOL    HW2 3714   0.456   1.020   6.756
  939SOL     OW 3715   6.197   0.748   4.646
  939SOL    HW1 3716   6.110   0.701   4.666
  939SOL    HW2 3717   6.246   0.764   4.732
  940SOL     OW 3718   6.505   0.456   3.459
  940SOL    HW1 3719   6.456   0.372   3.438
  940SOL    HW2 3720   6.457   0.534   3.419
  941SOL     OW 3721   5.982   2.741   5.351
  941SOL    HW1 3722   5.931   2.798   5.415
  941SOL    HW2 3723   5.927   2.725   5.269
  942SOL     OW 3724   4.423   6.888   5.194
  942SOL    HW1 3725   4.324   6.897   5.203
  942SOL    HW2 3726   4.465   6.885   5.284
  943SOL     OW 3727   5.308   2.904   0.031
  943SOL    HW1 3728   5.210   2.900   0.009
  943SOL    HW2 3729   5.326   2.987   0.084
  944SOL     OW 3730   5.038   4.348   3.741
  944SOL    HW1 3731   5.019   4.366   3.644
  944SOL    HW2 3732   4.967   4.289   3.779
  945SOL     OW 3733   5.417   3.186   6.838
  945SOL    HW1 3734   5.508   3.146   6.836
  945SOL    HW2 3735   5.350   3.118   6.809
  946SOL     OW 3736   6.160   3.558   6.539
  946SOL    HW1 3737   6.144   3.500   6.618
  946SOL    HW2 3738   6.078   3.612   6.519
  947SOL     OW 3739   0.988   2.927   5.807
  947SOL    HW1 3740   1.080   2.886   5.809
  947SOL    HW2 3741   0.920   2.856   5.826
  948SOL     OW 3742   3.395   2.134   0.302
  948SOL    HW1 3743   3.346   2.097   0.223
  948SOL    HW2 3744   3.331   2.145   0.378
  949SOL     OW 3745   4.836   6.166   6.254
  949SOL    HW1 3746   4.790   6.095   6.307
  949SOL    HW2 3747   4.935   6.150   6.257
  950SOL     OW 3748   3.354   5.200   0.875
  950SOL    HW1 3749   3.366   5.199   0.776
  950SOL    HW2 3750   3.282   5.134   0.900
  951SOL     OW 3751   1.439   2.845   3.986
  951SOL    HW1 3752   1.449   2.933   4.033
  951SOL    HW2 3753   1.411   2.861   3.892
  952SOL     OW 3754   4.945   1.068   1.090
  952SOL    HW1 3755   4.903   1.087   1.001
  952SOL    HW2 3756   4.921   1.142   1.154
  953SOL     OW 3757   4.615   6.865   5.871
  953SOL    HW1 3758   4.561   6.939   5.833
  953SOL    HW2 3759   4.560   6.813   5.937
  954SOL     OW 3760   6.197   6.653   1.623
  954SOL    HW1 3761   6.243   6.626   1.538
  954SOL    HW2 3762   6.251   6.620   1.701
  955SOL     OW 3763   1.124   5.866   3.006
  955SOL    HW1 3764   1.027   5.851   3.022
  955SOL    HW2 3765   1.140   5.962   2.984
  956SOL     OW 3766   1.909   2.700   0.780
  956SOL    HW1 3767   1.904   2.637   0.857
  956SOL    HW2 3768   1.818   2.732   0.756
  957SOL     OW 3769   2.026   6.075   4.699
  957SOL    HW1 3770   2.093   6.114   4.763
  957SOL    HW2 3771   2.074   6.040   4.618
  958SOL     OW 3772   4.691   2.592   6.832
  958SOL    HW1 3773   4.735   2.623   6.916
  958SOL    HW2 3774   4.674   2.493   6.838
  959SOL     OW 3775   1.495   3.903   0.704
  959SOL    HW1 3776   1.457   3.970   0.641
  959SOL    HW2 3777   1.421   3.849   0.745
  960SOL     OW 3778   1.643   4.159   5.828
  960SOL    HW1 3779   1.701   4.136   5.750
  960SOL    HW2 3780   1.625   4.257   5.829
  961SOL     OW 3781   3.510   6.565   6.879
  961SOL    HW1 3782   3.436   6.498   6.881
  961SOL    HW2 3783   3.473   6.654   6.852
  962SOL     OW 3784   0.837   0.132   3.608
  962SOL    HW1 3785   0.747   0.173   3.598
  962SOL    HW2 3786   0.887   0.140   3.522
  963SOL     OW 3787   5.892   6.941   2.147
  963SOL    HW1 3788   5.865   0.012   2.124
  963SOL    HW2 3789   5.828   6.903   2.214
  964SOL     OW 3790   5.684   4.044   1.254
  964SOL    HW1 3791   5.608   3.980   1.244
  964SOL    HW2 3792   5.769   4.001   1.225
  965SOL     OW 3793   1.969   1.704   0.403
  965SOL    HW1 3794   1.890   1.764   0.414
  965SOL    HW2 3795   1.977   1.677   0.307
  966SOL     OW 3796   5.800   2.374   1.975
  966SOL    HW1 3797   5.735   2.438   1.934
  966SOL    HW2 3798   5.751   2.309   2.034
  967SOL     OW 3799   1.131   5.229   2.986
  967SOL    HW1 3800   1.182   5.315   2.979
  967SOL    HW2 3801   1.142   5.191   3.078
  968SOL     OW 3802   0.085   4.361   0.073
  968SOL    HW1 3803   0.093   4.433   0.004
  968SOL    HW2 3804   0.158   4.370   0.139
  969SOL     OW 3805   3.953   6.466   6.497
  969SOL    HW1 3806   4.043   6.457   6.540
  969SOL    HW2 3807   3.882   6.468   6.567
  970SOL     OW 3808   5.249   3.325   6.356
  970SOL    HW1 3809   5.268   3.255   6.287
  970SOL    HW2 3810   5.317   3.398   6.348
  971SOL     OW 3811   0.233   2.625   6.968
  971SOL    HW1 3812   0.310   2.595   6.912
  971SOL    HW2 3813   0.251   2.601   0.042
  972SOL     OW 3814   5.092   6.586   0.188
  972SOL    HW1 3815   5.084   6.522   0.265
  972SOL    HW2 3816   5.162   6.654   0.208
  973SOL     OW 3817   6.502   3.469   5.626
  973SOL    HW1 3818   6.495   3.567   5.646
  973SOL    HW2 3819   6.598   3.442   5.626
  974SOL     OW 3820   1.764   0.512   4.568
  974SOL    HW1 3821   1.694   0.565   4.617
  974SOL    HW2 3822   1.819   0.461   4.634
  975SOL     OW 3823   2.783   6.862   5.311
  975SOL    HW1 3824   2.832   6.777   5.327
  975SOL    HW2 3825   2.822   6.935   5.368
  976SOL     OW 3826   0.168   4.599   4.046
  976SOL    HW1 3827   0.228   4.523   4.020
  976SOL    HW2 3828   0.224   4.673   4.084
  977SOL     OW 3829   1.136   2.241   2.351
  977SOL    HW1 3830   1.104   2.300   2.425
  977SOL    HW2 3831   1.081   2.157   2.350
  978SOL     OW 3832   5.676   2.843   4.302
  978SOL    HW1 3833   5.731   2.762   4.284
  978SOL    HW2 3834   5.589   2.837   4.253
  979SOL     OW 3835   6.448   2.107   2.885
  979SOL    HW1 3836   6.408   2.016   2.875
  979SOL    HW2 3837   6.437   2.138   2.979
  980SOL     OW 3838   6.396   6.860   6.000
  980SOL    HW1 3839   6.371   6.923   5.927
  980SOL    HW2 3840   6.431   6.911   6.078
  981SOL     OW 3841   6.399   3.026   6.050
  981SOL    HW1 3842   6.302   3.033   6.074
  981SOL    HW2 3843   6.430   3.113   6.012
  982SOL     OW 3844   1.503   4.322   0.983
  982SOL    HW1 3845   1.543   4.353   0.896
  982SOL    HW2 3846   1.515   4.223   0.992
  983SOL     OW 3847   5.314   1.468   3.597
  983SOL    HW1 3848   5.235   1.464   3.537
  983SOL    HW2 3849   5.330   1.378   3.638
  984SOL     OW 3850   5.051   3.205   5.401
  984SOL    HW1 3851   4.998   3.199   5.316
  984SOL    HW2 3852   5.147   3.184   5.381
  985SOL     OW 3853   1.693   4.425   0.313
  985SOL    HW1 3854   1.635   4.347   0.290
  985SOL    HW2 3855   1.762   4.438   0.242
  986SOL     OW 3856   5.155   4.258   5.604
  986SOL    HW1 3857   5.215   4.318   5.550
  986SOL    HW2 3858   5.088   4.314   5.654
  987SOL     OW 3859   3.419   0.486   2.448
  987SOL    HW1 3860   3.517   0.468   2.455
  987SOL    HW2 3861   3.368   0.401   2.465
  988SOL     OW 3862   3.526   2.764   1.534
  988SOL    HW1 3863   3.434   2.733   1.510
  988SOL    HW2 3864   3.552   2.725   1.623
  989SOL     OW 3865   0.748   1.038   4.333
  989SOL    HW1 3866   0.839   1.080   4.335
  989SOL    HW2 3867   0.703   1.061   4.247
  990SOL     OW 3868   5.400   6.433   1.977
  990SOL    HW1 3869   5.407   6.364   1.905
  990SOL    HW2 3870   5.306   6.467   1.981
  991SOL     OW 3871   5.902   1.648   5.746
  991SOL    HW1 3872   5.870   1.559   5.779
  991SOL    HW2 3873   5.840   1.719   5.778
  992SOL     OW 3874   0.158   2.620   1.184
  992SOL    HW1 3875   0.066   2.583   1.174
  992SOL    HW2 3876   0.177   2.682   1.107
  993SOL     OW 3877   4.218   6.773   4.622
  993SOL    HW1 3878   4.316   6.759   4.635
  993SOL    HW2 3879   4.182   6.702   4.562
  994SOL     OW 3880   2.918   3.546   3.346
  994SOL    HW1 3881   2.975   3.586   3.275
  994SOL    HW2 3882   2.969   3.541   3.432
  995SOL     OW 3883   0.627   1.999   4.744
  995SOL    HW1 3884   0.566   1.929   4.782
  995SOL    HW2 3885   0.718   1.989   4.783
  996SOL     OW 3886   1.007   3.473   0.118
  996SOL    HW1 3887   1.004   3.405   0.191
  996SOL    HW2 3888   1.101   3.479   0.082
  997SOL     OW 3889   6.902   1.720   0.619
  997SOL    HW1 3890   6.879   1.628   0.586
  997SOL    HW2 3891   7.001   1.733   0.617
  998SOL     OW 3892   5.038   6.834   3.063
  998SOL    HW1 3893   5.002   6.884   3.142
  998SOL    HW2 3894   5.096   6.895   3.009
  999SOL     OW 3895   6.597   5.590   0.894
  999SOL    HW1 3896   6.548   5.526   0.954
  999SOL    HW2 3897   6.680   5.545   0.859
 1000SOL     OW 3898   4.398   2.053   4.804
 1000SOL    HW1 3899   4.318   2.047   4.864
 1000SOL    HW2 3900   4.466   1.985   4.831
 1001SOL     OW 3901   4.558   1.266   5.209
 1001SOL    HW1 3902   4.479   1.221   5.167
 1001SOL    HW2 3903   4.641   1.218   5.184
 1002SOL     OW 3904   0.705   1.416   0.442
 1002SOL    HW1 3905   0.618   1.367   0.453
 1002SOL    HW2 3906   0.764   1.366   0.379
 1003SOL     OW 3907   4.048   5.260   2.674
 1003SOL    HW1 3908   3.974   5.247   2.608
 1003SOL    HW2 3909   4.105   5.178   2.677
 1004SOL     OW 3910   5.757   6.122   0.123
 1004SOL    HW1 3911   5.816   6.153   0.048
 1004SOL    HW2 3912   5.752   6.022   0.122
 1005SOL     OW 3913   6.469   6.189   3.632
 1005SOL    HW1 3914   6.514   6.261   3.580
 1005SOL    HW2 3915   6.374   6.214   3.650
 1006SOL     OW 3916   1.534   5.031   0.112
 1006SOL    HW1 3917   1.438   5.036   0.087
 1006SOL    HW2 3918   1.579   4.957   0.061
 1007SOL     OW 3919   6.699   1.585   2.807
 1007SOL    HW1 3920   6.692   1.612   2.903
 1007SOL    HW2 3921   6.707   1.485   2.802
 1008SOL     OW 3922   3.024   2.095   4.887
 1008SOL    HW1 3923   3.082   2.017   4.861
 1008SOL    HW2 3924   3.081   2.166   4.929
 1009SOL     OW 3925   3.097   6.308   6.058
 1009SOL    HW1 3926   3.064   6.256   5.980
 1009SOL    HW2 3927   3.058   6.270   6.142
 1010SOL     OW 3928   5.443   7.001   5.286
 1010SOL    HW1 3929   5.378   0.031   5.342
 1010SOL    HW2 3930   5.392   6.940   5.225
 1011SOL     OW 3931   2.627   5.527   3.994
 1011SOL    HW1 3932   2.612   5.510   4.091
 1011SOL    HW2 3933   2.726   5.530   3.976
 1012SOL     OW 3934   3.843   6.001   0.902
 1012SOL    HW1 3935   3.857   6.017   0.804
 1012SOL    HW2 3936   3.882   6.077   0.954
 1013SOL     OW 3937   0.906   0.465   0.144
 1013SOL    HW1 3938   0.920   0.396   0.215
 1013SOL    HW2 3939   0.925   0.425   0.055
 1014SOL     OW 3940   6.140   6.540   6.021
 1014SOL    HW1 3941   6.226   6.569   6.064
 1014SOL    HW2 3942   6.098   6.467   6.075
 1015SOL     OW 3943   2.611   0.430   4.851
 1015SOL    HW1 3944   2.688   0.491   4.830
 1015SOL    HW2 3945   2.534   0.453   4.792
 1016SOL     OW 3946   4.223   2.896   1.694
 1016SOL    HW1 3947   4.267   2.969   1.746
 1016SOL    HW2 3948   4.163   2.935   1.625
 1017SOL     OW 3949   5.255   0.542   6.111
 1017SOL    HW1 3950   5.157   0.534   6.091
 1017SOL    HW2 3951   5.271   0.624   6.165
 1018SOL     OW 3952   1.730   2.761   1.514
 1018SOL    HW1 3953   1.764   2.670   1.537
 1018SOL    HW2 3954   1.703   2.809   1.597
 1019SOL     OW 3955   6.015   1.725   0.765
 1019SOL    HW1 3956   6.012   1.641   0.711
 1019SOL    HW2 3957   6.008   1.804   0.704
 1020SOL     OW 3958   3.566   2.139   1.675
 1020SOL    HW1 3959   3.594   2.186   1.758
 1020SOL    HW2 3960   3.604   2.187   1.595
 1021SOL     OW 3961   6.993   1.346   1.045
 1021SOL    HW1 3962   6.999   1.248   1.028
 1021SOL    HW2 3963   0.012   1.367   1.134
 1022SOL     OW 3964   3.574   2.840   0.156
 1022SOL    HW1 3965   3.546   2.782   0.233
 1022SOL    HW2 3966   3.603   2.782   0.080
 1023SOL     OW 3967   6.993   0.658   4.922
 1023SOL    HW1 3968   7.007   0.560   4.907
 1023SOL    HW2 3969   0.024   0.688   5.001
 1024SOL     OW 3970   6.190   2.495   3.976
 1024SOL    HW1 3971   6.247   2.431   3.925
 1024SOL    HW2 3972   6.170   2.458   4.067
 1025SOL     OW 3973   2.940   4.833   1.304
 1025SOL    HW1 3974   2.942   4.932   1.292
 1025SOL    HW2 3975   2.853   4.797   1.271
 1026SOL     OW 3976   0.400   2.142   6.137
 1026SOL    HW1 3977   0.383   2.238   6.160
 1026SOL    HW2 3978   0.452   2.138   6.051
 1027SOL     OW 3979   2.353   4.808   1.180
 1027SOL    HW1 3980   2.339   4.741   1.107
 1027SOL    HW2 3981   2.450   4.817   1.198
 1028SOL     OW 3982   0.352   5.703   0.148
 1028SOL    HW1 3983   0.449   5.679   0.154
 1028SOL    HW2 3984   0.332   5.740   0.057
 1029SOL     OW 3985   3.727   0.314   4.948
 1029SOL    HW1 3986   3.696   0.343   4.858
 1029SOL    HW2 3987   3.812   0.263   4.940
 1030SOL     OW 3988   3.977   4.917   5.023
 1030SOL    HW1 3989   3.988   4.975   4.942
 1030SOL    HW2 3990   3.881   4.913   5.049
 1031SOL     OW 3991   2.580   6.053   0.973
 1031SOL    HW1 3992   2.491   6.057   0.927
 1031SOL    HW2 3993   2.569   6.015   1.064
 1032SOL     OW 3994   1.112   1.559   5.195
 1032SOL    HW1 3995   1.208   1.587   5.190
 1032SOL    HW2 3996   1.054   1.627   5.150
 1033SOL     OW 3997   2.678   6.900   1.741
 1033SOL    HW1 3998   2.772   6.935   1.744
 1033SOL    HW2 3999   2.625   6.941   1.816
 1034SOL     OW 4000   1.028   6.484   1.942
 1034SOL    HW1 4001   0.967   6.409   1.967
 1034SOL    HW2 4002   1.111   6.480   1.998
 1035SOL     OW 4003   3.155   1.800   3.024
 1035SOL    HW1 4004   3.142   1.777   2.928
 1035SOL    HW2 4005   3.204   1.887   3.032
 1036SOL     OW 4006   4.907   6.664   6.673
 1036SOL    HW1 4007   4.967   6.741   6.652
 1036SOL    HW2 4008   4.930   6.627   6.763
 1037SOL     OW 4009   3.569   1.375   6.124
 1037SOL    HW1 4010   3.561   1.290   6.175
 1037SOL    HW2 4011   3.653   1.422   6.151
 1038SOL     OW 4012   2.581   2.037   5.439
 1038SOL    HW1 4013   2.567   2.095   5.519
 1038SOL    HW2 4014   2.496   2.029   5.388
 1039SOL     OW 4015   5.136   1.735   3.440
 1039SOL    HW1 4016   5.048   1.752   3.397
 1039SOL    HW2 4017   5.210   1.757   3.376
 1040SOL     OW 4018   6.211   4.335   3.989
 1040SOL    HW1 4019   6.175   4.386   4.067
 1040SOL    HW2 4020   6.157   4.251   3.977
 1041SOL     OW 4021   1.750   6.828   4.586
 1041SOL    HW1 4022   1.755   6.905   4.649
 1041SOL    HW2 4023   1.660   6.825   4.543
 1042SOL     OW 4024   4.386   4.024   0.502
 1042SOL    HW1 4025   4.402   3.982   0.592
 1042SOL    HW2 4026   4.381   3.953   0.433
 1043SOL     OW 4027   4.147   0.240   6.710
 1043SOL    HW1 4028   4.245   0.250   6.693
 1043SOL    HW2 4029   4.131   0.159   6.765
 1044SOL     OW 4030   3.941   3.820   2.926
 1044SOL    HW1 4031   4.007   3.794   2.856
 1044SOL    HW2 4032   3.855   3.773   2.909
 1045SOL     OW 4033   3.589   0.683   3.208
 1045SOL    HW1 4034   3.646   0.710   3.286
 1045SOL    HW2 4035   3.499   0.656   3.240
 1046SOL     OW 4036   3.071   0.786   2.488
 1046SOL    HW1 4037   3.008   0.840   2.432
 1046SOL    HW2 4038   3.087   0.698   2.443
 1047SOL     OW 4039   0.635   6.059   2.016
 1047SOL    HW1 4040   0.591   6.087   2.102
 1047SOL    HW2 4041   0.591   6.106   1.940
 1048SOL     OW 4042   6.358   3.909   5.021
 1048SOL    HW1 4043   6.371   3.815   5.053
 1048SOL    HW2 4044   6.279   3.914   4.961
 1049SOL     OW 4045   0.464   3.730   5.403
 1049SOL    HW1 4046   0.519   3.714   5.485
 1049SOL    HW2 4047   0.420   3.644   5.375
 1050SOL     OW 4048   2.656   0.522   1.227
 1050SOL    HW1 4049   2.745   0.517   1.271
 1050SOL    HW2 4050   2.584   0.501   1.294
 1051SOL     OW 4051   4.708   4.807   2.047
 1051SOL    HW1 4052   4.651   4.871   2.098
 1051SOL    HW2 4053   4.785   4.857   2.006
 1052SOL     OW 4054   3.514   0.274   3.682
 1052SOL    HW1 4055   3.509   0.361   3.731
 1052SOL    HW2 4056   3.570   0.209   3.734
 1053SOL     OW 4057   3.739   5.031   3.870
 1053SOL    HW1 4058   3.821   5.077   3.837
 1053SOL    HW2 4059   3.763   4.969   3.945
 1054SOL     OW 4060   4.159   5.771   4.740
 1054SOL    HW1 4061   4.127   5.733   4.654
 1054SOL    HW2 4062   4.257   5.791   4.733
 1055SOL     OW 4063   4.206   4.806   4.455
 1055SOL    HW1 4064   4.206   4.789   4.356
 1055SOL    HW2 4065   4.276   4.874   4.477
 1056SOL     OW 4066   2.808   5.845   6.792
 1056SOL    HW1 4067   2.765   5.917   6.846
 1056SOL    HW2 4068   2.905   5.868   6.777
 1057SOL     OW 4069   3.878   4.064   1.512
 1057SOL    HW1 4070   3.868   3.965   1.520
 1057SOL    HW2 4071   3.881   4.106   1.603
 1058SOL     OW 4072   3.018   6.327   2.047
 1058SOL    HW1 4073   3.066   6.301   1.964
 1058SOL    HW2 4074   3.084   6.349   2.119
 1059SOL     OW 4075   4.449   0.453   0.848
 1059SOL    HW1 4076   4.353   0.424   0.842
 1059SOL    HW2 4077   4.457   0.547   0.814
 1060SOL     OW 4078   3.505   1.251   4.230
 1060SOL    HW1 4079   3.520   1.237   4.328
 1060SOL    HW2 4080   3.450   1.333   4.216
 1061SOL     OW 4081   2.337   5.797   1.130
 1061SOL    HW1 4082   2.303   5.824   1.040
 1061SOL    HW2 4083   2.355   5.699   1.131
 1062SOL     OW 4084   4.921   4.682   4.434
 1062SOL    HW1 4085   5.005   4.654   4.389
 1062SOL    HW2 4086   4.908   4.627   4.517
 1063SOL     OW 4087   3.297   2.098   6.518
 1063SOL    HW1 4088   3.227   2.045   6.469
 1063SOL    HW2 4089   3.322   2.178   6.464
 1064SOL     OW 4090   0.315   3.290   2.479
 1064SOL    HW1 4091   0.247   3.276   2.551
 1064SOL    HW2 4092   0.389   3.224   2.490
 1065SOL     OW 4093   4.622   4.956   5.769
 1065SOL    HW1 4094   4.628   4.863   5.806
 1065SOL    HW2 4095   4.591   5.018   5.840
 1066SOL     OW 4096   4.738   0.256   3.724
 1066SOL    HW1 4097   4.821   0.307   3.748
 1066SOL    HW2 4098   4.758   0.194   3.648
 1067SOL     OW 4099   3.091   3.543   0.030
 1067SOL    HW1 4100   3.165   3.504   0.084
 1067SOL    HW2 4101   3.090   3.501   6.961
 1068SOL     OW 4102   0.556   5.144   1.475
 1068SOL    HW1 4103   0.641   5.144   1.422
 1068SOL    HW2 4104   0.504   5.061   1.453
 1069SOL     OW 4105   2.944   3.153   2.377
 1069SOL    HW1 4106   2.949   3.176   2.475
 1069SOL    HW2 4107   2.851   3.121   2.356
 1070SOL     OW 4108   2.114   6.350   0.630
 1070SOL    HW1 4109   2.131   6.364   0.533
 1070SOL    HW2 4110   2.131   6.435   0.680
 1071SOL     OW 4111   5.046   5.705   3.127
 1071SOL    HW1 4112   4.956   5.747   3.138
 1071SOL    HW2 4113   5.063   5.688   3.030
 1072SOL     OW 4114   3.896   5.863   3.130
 1072SOL    HW1 4115   3.830   5.866   3.205
 1072SOL    HW2 4116   3.983   5.904   3.160
 1073SOL     OW 4117   2.893   5.386   3.384
 1073SOL    HW1 4118   2.932   5.330   3.457
 1073SOL    HW2 4119   2.949   5.376   3.301
 1074SOL     OW 4120   2.071   4.939   3.707
 1074SOL    HW1 4121   2.111   5.012   3.652
 1074SOL    HW2 4122   2.006   4.888   3.652
 1075SOL     OW 4123   0.568   3.996   2.747
 1075SOL    HW1 4124   0.531   4.044   2.667
 1075SOL    HW2 4125   0.584   4.061   2.821
 1076SOL     OW 4126   6.158   3.801   3.183
 1076SOL    HW1 4127   6.248   3.767   3.158
 1076SOL    HW2 4128   6.127   3.869   3.117
 1077SOL     OW 4129   4.858   0.169   2.086
 1077SOL    HW1 4130   4.883   0.245   2.025
 1077SOL    HW2 4131   4.927   0.098   2.081
 1078SOL     OW 4132   6.979   3.078   2.313
 1078SOL    HW1 4133   7.022   3.164   2.341
 1078SOL    HW2 4134   0.026   3.019   2.271
 1079SOL     OW 4135   1.708   4.663   3.349
 1079SOL    HW1 4136   1.625   4.626   3.307
 1079SOL    HW2 4137   1.777   4.677   3.279
 1080SOL     OW 4138   1.740   5.535   3.797
 1080SOL    HW1 4139   1.731   5.575   3.706
 1080SOL    HW2 4140   1.697   5.595   3.865
 1081SOL     OW 4141   1.589   0.445   0.056
 1081SOL    HW1 4142   1.492   0.452   0.034
 1081SOL    HW2 4143   1.615   0.519   0.118
 1082SOL     OW 4144   2.046   0.321   1.238
 1082SOL    HW1 4145   2.073   0.286   1.148
 1082SOL    HW2 4146   2.111   0.391   1.268
 1083SOL     OW 4147   3.859   2.813   1.829
 1083SOL    HW1 4148   3.844   2.879   1.903
 1083SOL    HW2 4149   3.782   2.750   1.823
 1084SOL     OW 4150   6.561   4.066   1.465
 1084SOL    HW1 4151   6.612   4.014   1.398
 1084SOL    HW2 4152   6.463   4.057   1.447
 1085SOL     OW 4153   1.511   5.466   4.313
 1085SOL    HW1 4154   1.489   5.462   4.411
 1085SOL    HW2 4155   1.439   5.517   4.265
 1086SOL     OW 4156   3.062   5.651   2.667
 1086SOL    HW1 4157   2.962   5.657   2.670
 1086SOL    HW2 4158   3.095   5.688   2.580
 1087SOL     OW 4159   3.802   2.876   5.009
 1087SOL    HW1 4160   3.875   2.819   5.046
 1087SOL    HW2 4161   3.828   2.910   4.919
 1088SOL     OW 4162   0.468   4.451   2.953
 1088SOL    HW1 4163   0.386   4.395   2.955
 1088SOL    HW2 4164   0.488   4.484   3.045
 1089SOL     OW 4165   6.654   0.222   3.253
 1089SOL    HW1 4166   6.723   0.285   3.287
 1089SOL    HW2 4167   6.637   0.240   3.156
 1090SOL     OW 4168   2.004   2.351   6.367
 1090SOL    HW1 4169   2.013   2.449   6.383
 1090SOL    HW2 4170   2.063   2.324   6.291
 1091SOL     OW 4171   0.688   2.302   5.778
 1091SOL    HW1 4172   0.665   2.207   5.798
 1091SOL    HW2 4173   0.689   2.317   5.679
 1092SOL     OW 4174   2.865   4.988   1.572
 1092SOL    HW1 4175   2.801   5.027   1.505
 1092SOL    HW2 4176   2.903   4.903   1.537
 1093SOL     OW 4177   0.346   2.560   1.631
 1093SOL    HW1 4178   0.343   2.636   1.566
 1093SOL    HW2 4179   0.320   2.475   1.585
 1094SOL     OW 4180   0.952   5.820   2.556
 1094SOL    HW1 4181   1.017   5.892   2.583
 1094SOL    HW2 4182   0.908   5.847   2.470
 1095SOL     OW 4183   0.854   3.389   6.412
 1095SOL    HW1 4184   0.814   3.335   6.486
 1095SOL    HW2 4185   0.787   3.400   6.339
 1096SOL     OW 4186   3.367   2.879   2.207
 1096SOL    HW1 4187   3.445   2.817   2.216
 1096SOL    HW2 4188   3.400   2.972   2.188
 1097SOL     OW 4189   2.943   4.835   5.764
 1097SOL    HW1 4190   2.922   4.859   5.669
 1097SOL    HW2 4191   2.987   4.913   5.809
 1098SOL     OW 4192   3.142   0.556   2.376
 1098SOL    HW1 4193   3.234   0.575   2.409
 1098SOL    HW2 4194   3.146   0.488   2.303
 1099SOL     OW 4195   3.263   7.014   2.079
 1099SOL    HW1 4196   3.239   0.046   2.160
 1099SOL    HW2 4197   3.264   6.917   2.103
 1100SOL     OW 4198   6.700   1.036   0.381
 1100SOL    HW1 4199   6.698   1.135   0.398
 1100SOL    HW2 4200   6.756   1.017   0.300
 1101SOL     OW 4201   5.191   2.981   0.932
 1101SOL    HW1 4202   5.270   2.981   0.871
 1101SOL    HW2 4203   5.146   3.069   0.929
 1102SOL     OW 4204   0.089   3.460   3.918
 1102SOL    HW1 4205   0.046   3.541   3.878
 1102SOL    HW2 4206   0.186   3.460   3.896
 1103SOL     OW 4207   0.464   3.191   6.955
 1103SOL    HW1 4208   0.488   3.163   0.025
 1103SOL    HW2 4209   0.365   3.196   6.946
 1104SOL     OW 4210   2.566   5.575   5.674
 1104SOL    HW1 4211   2.486   5.515   5.661
 1104SOL    HW2 4212   2.648   5.519   5.684
 1105SOL     OW 4213   3.949   5.310   0.966
 1105SOL    HW1 4214   3.888   5.241   1.005
 1105SOL    HW2 4215   3.928   5.400   1.005
 1106SOL     OW 4216   0.805   1.682   0.068
 1106SOL    HW1 4217   0.830   1.738   0.148
 1106SOL    HW2 4218   0.878   1.616   0.051
 1107SOL     OW 4219   6.703   0.039   1.920
 1107SOL    HW1 4220   6.713   6.979   1.977
 1107SOL    HW2 4221   6.617   0.034   1.870
 1108SOL     OW 4222   1.549   1.301   0.219
 1108SOL    HW1 4223   1.630   1.311   0.276
 1108SOL    HW2 4224   1.472   1.270   0.276
 1109SOL     OW 4225   4.119   0.885   3.424
 1109SOL    HW1 4226   4.169   0.905   3.508
 1109SOL    HW2 4227   4.094   0.789   3.422
 1110SOL     OW 4228   3.229   3.140   3.070
 1110SOL    HW1 4229   3.276   3.121   3.156
 1110SOL    HW2 4230   3.144   3.189   3.089
 1111SOL     OW 4231   4.431   6.589   6.853
 1111SOL    HW1 4232   4.481   6.654   6.910
 1111SOL    HW2 4233   4.446   6.496   6.887
 1112SOL     OW 4234   1.433   1.423   2.496
 1112SOL    HW1 4235   1.481   1.509   2.476
 1112SOL    HW2 4236   1.501   1.351   2.510
 1113SOL     OW 4237   6.364   3.875   1.310
 1113SOL    HW1 4238   6.284   3.912   1.358
 1113SOL    HW2 4239   6.366   3.776   1.318
 1114SOL     OW 4240   5.811   1.106   5.828
 1114SOL    HW1 4241   5.882   1.042   5.858
 1114SOL    HW2 4242   5.761   1.139   5.908
 1115SOL     OW 4243   2.372   5.057   0.580
 1115SOL    HW1 4244   2.288   5.075   0.632
 1115SOL    HW2 4245   2.410   5.144   0.548
 1116SOL     OW 4246   3.764   6.250   6.345
 1116SOL    HW1 4247   3.667   6.261   6.365
 1116SOL    HW2 4248   3.813   6.333   6.370
 1117SOL     OW 4249   2.862   3.253   1.030
 1117SOL    HW1 4250   2.821   3.307   0.956
 1117SOL    HW2 4251   2.802   3.175   1.051
 1118SOL     OW 4252   1.421   2.725   1.548
 1118SOL    HW1 4253   1.498   2.771   1.593
 1118SOL    HW2 4254   1.382   2.657   1.610
 1119SOL     OW 4255   3.132   4.025   3.424
 1119SOL    HW1 4256   3.158   4.108   3.472
 1119SOL    HW2 4257   3.178   3.946   3.466
 1120SOL     OW 4258   3.541   0.902   3.966
 1120SOL    HW1 4259   3.594   0.968   3.913
 1120SOL    HW2 4260   3.603   0.838   4.011
 1121SOL     OW 4261   4.875   3.607   3.180
 1121SOL    HW1 4262   4.882   3.531   3.244
 1121SOL    HW2 4263   4.964   3.650   3.169
 1122SOL     OW 4264   4.407   5.302   6.325
 1122SOL    HW1 4265   4.494   5.260   6.351
 1122SOL    HW2 4266   4.338   5.231   6.313
 1123SOL     OW 4267   3.748   0.920   2.094
 1123SOL    HW1 4268   3.663   0.933   2.144
 1123SOL    HW2 4269   3.801   1.004   2.094
 1124SOL     OW 4270   1.932   5.417   4.088
 1124SOL    HW1 4271   1.999   5.477   4.045
 1124SOL    HW2 4272   1.852   5.470   4.117
 1125SOL     OW 4273   3.286   3.797   5.284
 1125SOL    HW1 4274   3.290   3.896   5.269
 1125SOL    HW2 4275   3.199   3.774   5.328
 1126SOL     OW 4276   6.345   0.707   2.422
 1126SOL    HW1 4277   6.256   0.734   2.385
 1126SOL    HW2 4278   6.360   0.610   2.405
 1127SOL     OW 4279   2.080   5.542   6.094
 1127SOL    HW1 4280   2.124   5.616   6.044
 1127SOL    HW2 4281   2.150   5.478   6.127
 1128SOL     OW 4282   2.494   2.351   4.646
 1128SOL    HW1 4283   2.524   2.394   4.561
 1128SOL    HW2 4284   2.560   2.369   4.718
 1129SOL     OW 4285   4.086   6.129   6.170
 1129SOL    HW1 4286   4.062   6.032   6.177
 1129SOL    HW2 4287   4.129   6.146   6.082
 1130SOL     OW 4288   0.477   5.227   5.724
 1130SOL    HW1 4289   0.425   5.253   5.643
 1130SOL    HW2 4290   0.499   5.129   5.720
 1131SOL     OW 4291   6.847   4.664   6.055
 1131SOL    HW1 4292   6.770   4.728   6.063
 1131SOL    HW2 4293   6.875   4.657   5.959
 1132SOL     OW 4294   5.553   6.389   4.570
 1132SOL    HW1 4295   5.497   6.364   4.649
 1132SOL    HW2 4296   5.553   6.488   4.560
 1133SOL     OW 4297   6.699   2.208   6.953
 1133SOL    HW1 4298   6.632   2.192   6.881
 1133SOL    HW2 4299   6.686   2.299   6.990
 1134SOL     OW 4300   0.098   2.904   6.032
 1134SOL    HW1 4301   0.181   2.921   5.979
 1134SOL    HW2 4302   0.109   2.819   6.084
 1135SOL     OW 4303   6.600   1.312   4.355
 1135SOL    HW1 4304   6.540   1.392   4.362
 1135SOL    HW2 4305   6.683   1.328   4.409
 1136SOL     OW 4306   3.483   5.524   4.297
 1136SOL    HW1 4307   3.535   5.576   4.366
 1136SOL    HW2 4308   3.533   5.441   4.273
 1137SOL     OW 4309   0.928   0.958   0.146
 1137SOL    HW1 4310   0.879   0.872   0.165
 1137SOL    HW2 4311   0.998   0.942   0.077
 1138SOL     OW 4312   1.041   3.488   5.861
 1138SOL    HW1 4313   1.100   3.458   5.786
 1138SOL    HW2 4314   1.091   3.480   5.947
 1139SOL     OW 4315   0.644   0.167   2.305
 1139SOL    HW1 4316   0.683   0.157   2.396
 1139SOL    HW2 4317   0.715   0.155   2.236
 1140SOL     OW 4318   3.742   1.978   3.123
 1140SOL    HW1 4319   3.798   1.899   3.148
 1140SOL    HW2 4320   3.720   2.029   3.206
 1141SOL     OW 4321   0.038   6.231   6.215
 1141SOL    HW1 4322   7.008   6.164   6.266
 1141SOL    HW2 4323   0.122   6.190   6.180
 1142SOL     OW 4324   6.564   0.061   5.073
 1142SOL    HW1 4325   6.621   0.144   5.080
 1142SOL    HW2 4326   6.614   7.006   5.112
 1143SOL     OW 4327   4.808   2.603   1.096
 1143SOL    HW1 4328   4.864   2.614   1.178
 1143SOL    HW2 4329   4.854   2.544   1.031
 1144SOL     OW 4330   1.095   6.170   5.497
 1144SOL    HW1 4331   1.139   6.182   5.408
 1144SOL    HW2 4332   1.135   6.234   5.563
 1145SOL     OW 4333   1.989   4.823   4.662
 1145SOL    HW1 4334   2.071   4.880   4.677
 1145SOL    HW2 4335   1.999   4.737   4.712
 1146SOL     OW 4336   5.746   1.747   1.802
 1146SOL    HW1 4337   5.718   1.791   1.887
 1146SOL    HW2 4338   5.672   1.753   1.735
 1147SOL     OW 4339   6.581   3.892   1.896
 1147SOL    HW1 4340   6.639   3.878   1.976
 1147SOL    HW2 4341   6.488   3.860   1.915
 1148SOL     OW 4342   5.891   0.586   6.212
 1148SOL    HW1 4343   5.974   0.635   6.185
 1148SOL    HW2 4344   5.852   0.540   6.133
 1149SOL     OW 4345   5.273   2.877   3.127
 1149SOL    HW1 4346   5.214   2.952   3.096
 1149SOL    HW2 4347   5.254   2.795   3.072
 1150SOL     OW 4348   1.766   5.764   5.357
 1150SOL    HW1 4349   1.730   5.686   5.305
 1150SOL    HW2 4350   1.859   5.785   5.326
 1151SOL     OW 4351   2.462   5.387   0.038
 1151SOL    HW1 4352   2.461   5.481   0.006
 1151SOL    HW2 4353   2.517   5.331   6.998
 1152SOL     OW 4354   0.293   0.831   3.522
 1152SOL    HW1 4355   0.237   0.880   3.589
 1152SOL    HW2 4356   0.376   0.796   3.566
 1153SOL     OW 4357   2.375   4.906   2.804
 1153SOL    HW1 4358   2.331   4.889   2.716
 1153SOL    HW2 4359   2.424   4.824   2.833
 1154SOL     OW 4360   1.452   4.431   2.207
 1154SOL    HW1 4361   1.530   4.491   2.187
 1154SOL    HW2 4362   1.485   4.338   2.222
 1155SOL     OW 4363   4.587   0.470   1.981
 1155SOL    HW1 4364   4.680   0.432   1.977
 1155SOL    HW2 4365   4.582   0.550   1.922
 1156SOL     OW 4366   2.074   0.811   4.423
 1156SOL    HW1 4367   1.978   0.833   4.440
 1156SOL    HW2 4368   2.101   0.848   4.334
 1157SOL     OW 4369   1.492   3.149   3.863
 1157SOL    HW1 4370   1.489   3.224   3.796
 1157SOL    HW2 4371   1.427   3.168   3.936
 1158SOL     OW 4372   4.498   6.040   6.058
 1158SOL    HW1 4373   4.562   6.046   6.136
 1158SOL    HW2 4374   4.457   5.950   6.056
 1159SOL     OW 4375   5.853   4.343   2.502
 1159SOL    HW1 4376   5.891   4.261   2.544
 1159SOL    HW2 4377   5.856   4.419   2.567
 1160SOL     OW 4378   2.568   2.411   0.926
 1160SOL    HW1 4379   2.667   2.392   0.923
 1160SOL    HW2 4380   2.544   2.471   0.850
 1161SOL     OW 4381   4.027   0.644   3.654
 1161SOL    HW1 4382   3.931   0.637   3.628
 1161SOL    HW2 4383   4.041   0.729   3.705
 1162SOL     OW 4384   3.378   4.956   1.505
 1162SOL    HW1 4385   3.395   4.917   1.414
 1162SOL    HW2 4386   3.464   4.991   1.542
 1163SOL     OW 4387   5.040   7.011   2.563
 1163SOL    HW1 4388   5.007   0.079   2.534
 1163SOL    HW2 4389   4.984   6.939   2.521
 1164SOL     OW 4390   6.705   3.992   4.600
 1164SOL    HW1 4391   6.658   3.919   4.650
 1164SOL    HW2 4392   6.727   4.067   4.663
 1165SOL     OW 4393   0.742   4.544   2.099
 1165SOL    HW1 4394   0.833   4.579   2.121
 1165SOL    HW2 4395   0.711   4.584   2.013
 1166SOL     OW 4396   3.282   0.892   6.810
 1166SOL    HW1 4397   3.302   0.975   6.759
 1166SOL    HW2 4398   3.367   0.842   6.827
 1167SOL     OW 4399   4.550   1.639   5.596
 1167SOL    HW1 4400   4.562   1.564   5.531
 1167SOL    HW2 4401   4.551   1.726   5.547
 1168SOL     OW 4402   5.703   0.721   3.447
 1168SOL    HW1 4403   5.743   0.630   3.443
 1168SOL    HW2 4404   5.756   0.778   3.509
 1169SOL     OW 4405   1.528   2.833   1.288
 1169SOL    HW1 4406   1.541   2.765   1.360
 1169SOL    HW2 4407   1.581   2.806   1.208
 1170SOL     OW 4408   2.586   0.773   1.418
 1170SOL    HW1 4409   2.615   0.715   1.494
 1170SOL    HW2 4410   2.612   0.868   1.436
 1171SOL     OW 4411   4.418   0.620   0.523
 1171SOL    HW1 4412   4.325   0.589   0.506
 1171SOL    HW2 4413   4.420   0.676   0.606
 1172SOL     OW 4414   3.215   3.139   5.926
 1172SOL    HW1 4415   3.297   3.139   5.984
 1172SOL    HW2 4416   3.236   3.182   5.838
 1173SOL     OW 4417   5.443   6.552   5.551
 1173SOL    HW1 4418   5.494   6.609   5.486
 1173SOL    HW2 4419   5.394   6.610   5.616
 1174SOL     OW 4420   3.754   5.793   6.710
 1174SOL    HW1 4421   3.820   5.804   6.785
 1174SOL    HW2 4422   3.802   5.763   6.628
 1175SOL     OW 4423   0.079   5.100   4.439
 1175SOL    HW1 4424   0.033   5.183   4.470
 1175SOL    HW2 4425   0.155   5.078   4.500
 1176SOL     OW 4426   5.962   2.654   1.260
 1176SOL    HW1 4427   6.004   2.732   1.306
 1176SOL    HW2 4428   5.920   2.594   1.328
 1177SOL     OW 4429   6.558   3.191   6.311
 1177SOL    HW1 4430   6.601   3.188   6.221
 1177SOL    HW2 4431   6.463   3.162   6.303
 1178SOL     OW 4432   5.069   4.687   2.622
 1178SOL    HW1 4433   4.985   4.733   2.595
 1178SOL    HW2 4434   5.114   4.740   2.694
 1179SOL     OW 4435   1.292   5.433   6.215
 1179SOL    HW1 4436   1.369   5.384   6.256
 1179SOL    HW2 4437   1.265   5.509   6.274
 1180SOL     OW 4438   2.398   0.638   4.385
 1180SOL    HW1 4439   2.364   0.658   4.476
 1180SOL    HW2 4440   2.498   0.647   4.383
 1181SOL     OW 4441   1.379   5.031   2.358
 1181SOL    HW1 4442   1.478   5.021   2.364
 1181SOL    HW2 4443   1.356   5.125   2.332
 1182SOL     OW 4444   1.299   3.687   4.163
 1182SOL    HW1 4445   1.389   3.725   4.142
 1182SOL    HW2 4446   1.308   3.589   4.183
 1183SOL     OW 4447   4.218   5.242   1.080
 1183SOL    HW1 4448   4.131   5.274   1.042
 1183SOL    HW2 4449   4.203   5.157   1.130
 1184SOL     OW 4450   3.280   3.008   6.333
 1184SOL    HW1 4451   3.262   2.995   6.235
 1184SOL    HW2 4452   3.377   3.027   6.347
 1185SOL     OW 4453   3.224   1.226   6.365
 1185SOL    HW1 4454   3.209   1.160   6.292
 1185SOL    HW2 4455   3.181   1.194   6.449
 1186SOL     OW 4456   3.963   0.534   5.030
 1186SOL    HW1 4457   3.947   0.447   5.077
 1186SOL    HW2 4458   3.967   0.519   4.931
 1187SOL     OW 4459   1.323   1.868   4.818
 1187SOL    HW1 4460   1.255   1.862   4.745
 1187SOL    HW2 4461   1.412   1.839   4.784
 1188SOL     OW 4462   1.616   0.673   5.029
 1188SOL    HW1 4463   1.601   0.596   5.091
 1188SOL    HW2 4464   1.707   0.666   4.989
 1189SOL     OW 4465   0.936   1.065   1.226
 1189SOL    HW1 4466   0.992   0.990   1.261
 1189SOL    HW2 4467   0.963   1.085   1.131
 1190SOL     OW 4468   3.950   5.537   1.972
 1190SOL    HW1 4469   3.902   5.623   1.986
 1190SOL    HW2 4470   4.025   5.529   2.038
 1191SOL     OW 4471   2.149   4.544   1.806
 1191SOL    HW1 4472   2.104   4.537   1.717
 1191SOL    HW2 4473   2.139   4.637   1.841
 1192SOL     OW 4474   3.734   5.524   2.575
 1192SOL    HW1 4475   3.763   5.437   2.536
 1192SOL    HW2 4476   3.812   5.586   2.581
 1193SOL     OW 4477   3.047   0.430   3.933
 1193SOL    HW1 4478   3.019   0.476   3.849
 1193SOL    HW2 4479   3.134   0.384   3.919
 1194SOL     OW 4480   6.674   1.905   2.502
 1194SOL    HW1 4481   6.626   1.826   2.464
 1194SOL    HW2 4482   6.642   1.922   2.595
 1195SOL     OW 4483   3.237   6.936   0.050
 1195SOL    HW1 4484   3.141   6.956   0.072
 1195SOL    HW2 4485   3.291   7.019   0.061
 1196SOL     OW 4486   1.744   5.701   3.538
 1196SOL    HW1 4487   1.820   5.706   3.474
 1196SOL    HW2 4488   1.711   5.607   3.544
 1197SOL     OW 4489   3.601   4.895   0.041
 1197SOL    HW1 4490   3.673   4.873   0.107
 1197SOL    HW2 4491   3.629   4.865   6.972
 1198SOL     OW 4492   3.773   0.516   2.787
 1198SOL    HW1 4493   3.684   0.540   2.750
 1198SOL    HW2 4494   3.845   0.540   2.721
 1199SOL     OW 4495   3.703   3.700   3.952
 1199SOL    HW1 4496   3.716   3.673   3.857
 1199SOL    HW2 4497   3.793   3.712   3.996
 1200SOL     OW 4498   4.721   3.546   1.208
 1200SOL    HW1 4499   4.771   3.601   1.140
 1200SOL    HW2 4500   4.744   3.577   1.300
 1201SOL     OW 4501   1.534   2.336   5.141
 1201SOL    HW1 4502   1.559   2.267   5.073
 1201SOL    HW2 4503   1.438   2.360   5.131
 1202SOL     OW 4504   6.456   6.641   4.461
 1202SOL    HW1 4505   6.443   6.623   4.363
 1202SOL    HW2 4506   6.416   6.566   4.514
 1203SOL     OW 4507   6.387   0.003   2.569
 1203SOL    HW1 4508   6.385   0.081   2.507
 1203SOL    HW2 4509   6.299   6.978   2.566
 1204SOL     OW 4510   2.097   0.317   0.285
 1204SOL    HW1 4511   2.111   0.291   0.380
 1204SOL    HW2 4512   2.012   0.369   0.276
 1205SOL     OW 4513   0.696   3.077   6.108
 1205SOL    HW1 4514   0.767   3.140   6.077
 1205SOL    HW2 4515   0.607   3.107   6.071
 1206SOL     OW 4516   6.749   0.780   4.962
 1206SOL    HW1 4517   6.835   0.733   4.945
 1206SOL    HW2 4518   6.760   0.878   4.947
 1207SOL     OW 4519   6.561   6.150   6.351
 1207SOL    HW1 4520   6.528   6.236   6.391
 1207SOL    HW2 4521   6.495   6.117   6.283
 1208SOL     OW 4522   3.731   3.267   2.557
 1208SOL    HW1 4523   3.726   3.366   2.567
 1208SOL    HW2 4524   3.692   3.241   2.468
 1209SOL     OW 4525   0.166   4.011   4.640
 1209SOL    HW1 4526   0.089   3.963   4.598
 1209SOL    HW2 4527   0.197   4.084   4.579
 1210SOL     OW 4528   2.123   0.303   2.878
 1210SOL    HW1 4529   2.128   0.395   2.839
 1210SOL    HW2 4530   2.051   0.300   2.947
 1211SOL     OW 4531   0.409   3.565   3.436
 1211SOL    HW1 4532   0.317   3.529   3.423
 1211SOL    HW2 4533   0.436   3.619   3.357
 1212SOL     OW 4534   1.187   4.444   3.835
 1212SOL    HW1 4535   1.283   4.472   3.841
 1212SOL    HW2 4536   1.149   4.437   3.928
 1213SOL     OW 4537   6.027   3.694   5.254
 1213SOL    HW1 4538   5.928   3.703   5.238
 1213SOL    HW2 4539   6.062   3.780   5.292
 1214SOL     OW 4540   1.215   1.745   1.499
 1214SOL    HW1 4541   1.144   1.812   1.521
 1214SOL    HW2 4542   1.231   1.687   1.579
 1215SOL     OW 4543   0.966   5.608   2.354
 1215SOL    HW1 4544   0.935   5.632   2.262
 1215SOL    HW2 4545   0.979   5.691   2.407
 1216SOL     OW 4546   2.148   0.162   1.539
 1216SOL    HW1 4547   2.204   0.102   1.481
 1216SOL    HW2 4548   2.208   0.210   1.603
 1217SOL     OW 4549   1.915   2.699   3.201
 1217SOL    HW1 4550   1.924   2.642   3.120
 1217SOL    HW2 4551   1.977   2.666   3.272
 1218SOL     OW 4552   0.955   3.914   3.244
 1218SOL    HW1 4553   0.940   3.947   3.338
 1218SOL    HW2 4554   0.886   3.845   3.222
 1219SOL     OW 4555   2.815   5.758   2.790
 1219SOL    HW1 4556   2.744   5.715   2.845
 1219SOL    HW2 4557   2.861   5.829   2.844
 1220SOL     OW 4558   6.322   5.297   2.714
 1220SOL    HW1 4559   6.374   5.358   2.654
 1220SOL    HW2 4560   6.309   5.209   2.669
 1221SOL     OW 4561   4.564   4.602   5.566
 1221SOL    HW1 4562   4.531   4.694   5.589
 1221SOL    HW2 4563   4.490   4.550   5.524
 1222SOL     OW 4564   6.914   4.317   1.668
 1222SOL    HW1 4565   6.856   4.262   1.608
 1222SOL    HW2 4566   6.914   4.277   1.760
 1223SOL     OW 4567   0.028   4.739   4.776
 1223SOL    HW1 4568   7.018   4.803   4.706
 1223SOL    HW2 4569   0.087   4.670   4.734
 1224SOL     OW 4570   4.550   4.082   1.324
 1224SOL    HW1 4571   4.475   4.146   1.309
 1224SOL    HW2 4572   4.604   4.112   1.403
 1225SOL     OW 4573   4.795   2.000   6.495
 1225SOL    HW1 4574   4.731   1.924   6.482
 1225SOL    HW2 4575   4.881   1.979   6.450
 1226SOL     OW 4576   6.157   5.676   0.961
 1226SOL    HW1 4577   6.086   5.747   0.962
 1226SOL    HW2 4578   6.244   5.716   0.933
 1227SOL     OW 4579   4.830   4.008   6.923
 1227SOL    HW1 4580   4.854   4.039   7.015
 1227SOL    HW2 4581   4.859   4.075   6.856
 1228SOL     OW 4582   4.084   3.689   4.427
 1228SOL    HW1 4583   4.117   3.606   4.383
 1228SOL    HW2 4584   4.043   3.666   4.515
 1229SOL     OW 4585   2.099   5.309   2.293
 1229SOL    HW1 4586   2.184   5.278   2.250
 1229SOL    HW2 4587   2.118   5.345   2.384
 1230SOL     OW 4588   4.789   4.264   0.325
 1230SOL    HW1 4589   4.870   4.223   0.283
 1230SOL    HW2 4590   4.749   4.330   0.262
 1231SOL     OW 4591   2.139   1.093   0.481
 1231SOL    HW1 4592   2.175   1.173   0.433
 1231SOL    HW2 4593   2.205   1.064   0.550
 1232SOL     OW 4594   2.660   2.073   6.130
 1232SOL    HW1 4595   2.757   2.086   6.108
 1232SOL    HW2 4596   2.628   1.986   6.093
 1233SOL     OW 4597   0.421   5.315   4.535
 1233SOL    HW1 4598   0.492   5.376   4.573
 1233SOL    HW2 4599   0.458   5.267   4.456
 1234SOL     OW 4600   6.397   4.317   6.333
 1234SOL    HW1 4601   6.462   4.245   6.357
 1234SOL    HW2 4602   6.315   4.307   6.390
 1235SOL     OW 4603   6.201   5.078   0.875
 1235SOL    HW1 4604   6.287   5.097   0.829
 1235SOL    HW2 4605   6.125   5.112   0.820
 1236SOL     OW 4606   0.481   1.450   3.022
 1236SOL    HW1 4607   0.535   1.387   2.966
 1236SOL    HW2 4608   0.490   1.543   2.986
 1237SOL     OW 4609   0.918   0.389   4.424
 1237SOL    HW1 4610   0.823   0.412   4.406
 1237SOL    HW2 4611   0.962   0.361   4.338
 1238SOL     OW 4612   0.416   0.902   4.428
 1238SOL    HW1 4613   0.496   0.849   4.400
 1238SOL    HW2 4614   0.370   0.855   4.504
 1239SOL     OW 4615   5.078   4.322   3.302
 1239SOL    HW1 4616   5.143   4.383   3.256
 1239SOL    HW2 4617   5.038   4.369   3.381
 1240SOL     OW 4618   0.501   4.344   0.990
 1240SOL    HW1 4619   0.467   4.312   1.079
 1240SOL    HW2 4620   0.427   4.387   0.939
 1241SOL     OW 4621   3.295   5.312   5.676
 1241SOL    HW1 4622   3.342   5.397   5.700
 1241SOL    HW2 4623   3.351   5.260   5.612
 1242SOL     OW 4624   2.050   5.393   0.679
 1242SOL    HW1 4625   2.017   5.479   0.640
 1242SOL    HW2 4626   2.144   5.404   0.712
 1243SOL     OW 4627   0.088   3.802   3.433
 1243SOL    HW1 4628   0.123   3.893   3.458
 1243SOL    HW2 4629   0.052   3.757   3.515
 1244SOL     OW 4630   0.256   6.665   5.069
 1244SOL    HW1 4631   0.287   6.623   4.983
 1244SOL    HW2 4632   0.251   6.594   5.140
 1245SOL     OW 4633   4.778   6.919   1.095
 1245SOL    HW1 4634   4.801   6.906   1.192
 1245SOL    HW2 4635   4.690   6.966   1.088
 1246SOL     OW 4636   5.357   2.616   1.798
 1246SOL    HW1 4637   5.346   2.712   1.773
 1246SOL    HW2 4638   5.295   2.560   1.743
 1247SOL     OW 4639   5.114   6.396   1.999
 1247SOL    HW1 4640   5.124   6.397   1.900
 1247SOL    HW2 4641   5.090   6.487   2.032
 1248SOL     OW 4642   0.705   6.819   5.048
 1248SOL    HW1 4643   0.770   6.766   5.103
 1248SOL    HW2 4644   0.646   6.872   5.108
 1249SOL     OW 4645   6.252   6.368   6.670
 1249SOL    HW1 4646   6.288   6.404   6.757
 1249SOL    HW2 4647   6.173   6.309   6.689
 1250SOL     OW 4648   0.316   4.563   5.077
 1250SOL    HW1 4649   0.279   4.471   5.091
 1250SOL    HW2 4650   0.272   4.627   5.140
 1251SOL     OW 4651   2.636   0.283   2.994
 1251SOL    HW1 4652   2.702   0.211   2.972
 1251SOL    HW2 4653   2.544   0.244   3.001
 1252SOL     OW 4654   2.269   5.063   6.462
 1252SOL    HW1 4655   2.187   5.019   6.425
 1252SOL    HW2 4656   2.244   5.120   6.540
 1253SOL     OW 4657   2.835   5.695   0.360
 1253SOL    HW1 4658   2.870   5.782   0.327
 1253SOL    HW2 4659   2.884   5.667   0.442
 1254SOL     OW 4660   6.259   1.280   3.905
 1254SOL    HW1 4661   6.338   1.290   3.965
 1254SOL    HW2 4662   6.245   1.184   3.884
 1255SOL     OW 4663   6.131   2.209   6.038
 1255SOL    HW1 4664   6.209   2.154   6.009
 1255SOL    HW2 4665   6.108   2.274   5.966
 1256SOL     OW 4666   6.797   5.546   5.673
 1256SOL    HW1 4667   6.820   5.560   5.577
 1256SOL    HW2 4668   6.704   5.579   5.690
 1257SOL     OW 4669   0.259   6.148   3.254
 1257SOL    HW1 4670   0.198   6.223   3.227
 1257SOL    HW2 4671   0.354   6.179   3.249
 1258SOL     OW 4672   4.608   5.145   6.911
 1258SOL    HW1 4673   4.611   5.083   6.833
 1258SOL    HW2 4674   4.658   5.229   6.890
 1259SOL     OW 4675   5.698   6.819   5.007
 1259SOL    HW1 4676   5.716   6.745   4.942
 1259SOL    HW2 4677   5.634   6.884   4.967
 1260SOL     OW 4678   3.304   0.978   0.206
 1260SOL    HW1 4679   3.253   1.020   0.280
 1260SOL    HW2 4680   3.327   1.047   0.137
 1261SOL     OW 4681   0.168   4.562   4.642
 1261SOL    HW1 4682   0.102   4.488   4.627
 1261SOL    HW2 4683   0.252   4.543   4.591
 1262SOL     OW 4684   3.944   5.817   1.464
 1262SOL    HW1 4685   3.890   5.740   1.499
 1262SOL    HW2 4686   4.038   5.810   1.500
 1263SOL     OW 4687   0.054   1.331   1.303
 1263SOL    HW1 4688   7.014   1.378   1.366
 1263SOL    HW2 4689   0.086   1.246   1.345
 1264SOL     OW 4690   6.305   2.338   4.819
 1264SOL    HW1 4691   6.332   2.431   4.843
 1264SOL    HW2 4692   6.347   2.312   4.731
 1265SOL     OW 4693   6.040   5.492   5.087
 1265SOL    HW1 4694   5.958   5.520   5.038
 1265SOL    HW2 4695   6.083   5.414   5.041
 1266SOL     OW 4696   2.779   0.871   3.638
 1266SOL    HW1 4697   2.821   0.896   3.551
 1266SOL    HW2 4698   2.847   0.826   3.696
 1267SOL     OW 4699   0.646   4.317   1.979
 1267SOL    HW1 4700   0.557   4.362   1.967
 1267SOL    HW2 4701   0.709   4.378   2.027
 1268SOL     OW 4702   5.983   4.469   6.771
 1268SOL    HW1 4703   6.067   4.453   6.823
 1268SOL    HW2 4704   5.911   4.410   6.806
 1269SOL     OW 4705   6.953   4.679   6.307
 1269SOL    HW1 4706   6.912   4.658   6.219
 1269SOL    HW2 4707   0.004   4.746   6.295
 1270SOL     OW 4708   1.658   1.775   4.131
 1270SOL    HW1 4709   1.597   1.767   4.209
 1270SOL    HW2 4710   1.723   1.850   4.147
 1271SOL     OW 4711   5.551   2.906   3.140
 1271SOL    HW1 4712   5.455   2.905   3.167
 1271SOL    HW2 4713   5.568   2.983   3.078
 1272SOL     OW 4714   6.119   6.558   6.951
 1272SOL    HW1 4715   6.129   6.565   6.852
 1272SOL    HW2 4716   6.143   6.645   6.993
 1273SOL     OW 4717   2.577   0.136   4.931
 1273SOL    HW1 4718   2.604   0.068   4.862
 1273SOL    HW2 4719   2.583   0.227   4.893
 1274SOL     OW 4720   5.374   2.491   2.054
 1274SOL    HW1 4721   5.382   2.545   1.970
 1274SOL    HW2 4722   5.278   2.469   2.070
 1275SOL     OW 4723   3.979   1.328   3.673
 1275SOL    HW1 4724   4.027   1.407   3.710
 1275SOL    HW2 4725   3.937   1.353   3.585
 1276SOL     OW 4726   5.618   6.775   2.649
 1276SOL    HW1 4727   5.696   6.819   2.693
 1276SOL    HW2 4728   5.627   6.675   2.656
 1277SOL     OW 4729   1.136   1.820   4.610
 1277SOL    HW1 4730   1.088   1.877   4.542
 1277SOL    HW2 4731   1.108   1.725   4.598
 1278SOL     OW 4732   3.134   1.830   4.932
 1278SOL    HW1 4733   3.186   1.745   4.942
 1278SOL    HW2 4734   3.053   1.828   4.991
 1279SOL     OW 4735   1.947   4.888   0.558
 1279SOL    HW1 4736   1.987   4.815   0.503
 1279SOL    HW2 4737   1.965   4.976   0.515
 1280SOL     OW 4738   1.492   5.991   2.649
 1280SOL    HW1 4739   1.554   6.030   2.718
 1280SOL    HW2 4740   1.541   5.922   2.596
 1281SOL     OW 4741   0.572   6.555   3.921
 1281SOL    HW1 4742   0.577   6.528   3.825
 1281SOL    HW2 4743   0.620   6.486   3.977
 1282SOL     OW 4744   1.763   6.213   2.515
 1282SOL    HW1 4745   1.730   6.288   2.572
 1282SOL    HW2 4746   1.779   6.132   2.572
 1283SOL     OW 4747   5.000   4.141   5.324
 1283SOL    HW1 4748   4.947   4.184   5.397
 1283SOL    HW2 4749   5.067   4.079   5.363
 1284SOL     OW 4750   3.062   1.535   3.114
 1284SOL    HW1 4751   2.976   1.546   3.165
 1284SOL    HW2 4752   3.095   1.625   3.086
 1285SOL     OW 4753   5.658   2.773   5.975
 1285SOL    HW1 4754   5.689   2.855   6.024
 1285SOL    HW2 4755   5.682   2.691   6.027
 1286SOL     OW 4756   5.571   5.727   0.820
 1286SOL    HW1 4757   5.629   5.648   0.798
 1286SOL    HW2 4758   5.625   5.798   0.864
 1287SOL     OW 4759   6.407   3.737   5.711
 1287SOL    HW1 4760   6.388   3.804   5.639
 1287SOL    HW2 4761   6.419   3.785   5.798
 1288SOL     OW 4762   6.620   3.499   3.421
 1288SOL    HW1 4763   6.715   3.510   3.451
 1288SOL    HW2 4764   6.583   3.414   3.459
 1289SOL     OW 4765   0.091   4.980   3.007
 1289SOL    HW1 4766   0.191   4.989   3.003
 1289SOL    HW2 4767   0.052   5.062   3.048
 1290SOL     OW 4768   0.185   0.084   1.886
 1290SOL    HW1 4769   0.107   0.118   1.832
 1290SOL    HW2 4770   0.269   0.129   1.854
 1291SOL     OW 4771   1.524   6.621   1.217
 1291SOL    HW1 4772   1.508   6.714   1.184
 1291SOL    HW2 4773   1.436   6.577   1.235
 1292SOL     OW 4774   1.490   5.883   6.747
 1292SOL    HW1 4775   1.445   5.859   6.833
 1292SOL    HW2 4776   1.545   5.965   6.760
 1293SOL     OW 4777   6.284   2.130   6.473
 1293SOL    HW1 4778   6.286   2.207   6.410
 1293SOL    HW2 4779   6.360   2.138   6.538
 1294SOL     OW 4780   0.118   1.865   3.767
 1294SOL    HW1 4781   0.207   1.894   3.734
 1294SOL    HW2 4782   0.095   1.776   3.727
 1295SOL     OW 4783   5.114   3.637   1.319
 1295SOL    HW1 4784   5.051   3.575   1.367
 1295SOL    HW2 4785   5.110   3.618   1.221
 1296SOL     OW 4786   3.466   1.649   0.103
 1296SOL    HW1 4787   3.564   1.646   0.084
 1296SOL    HW2 4788   3.438   1.564   0.147
 1297SOL     OW 4789   6.679   0.907   5.741
 1297SOL    HW1 4790   6.694   0.818   5.698
 1297SOL    HW2 4791   6.752   0.970   5.714
 1298SOL     OW 4792   6.453   3.019   3.467
 1298SOL    HW1 4793   6.491   2.930   3.441
 1298SOL    HW2 4794   6.426   3.069   3.385
 1299SOL     OW 4795   1.831   3.244   4.691
 1299SOL    HW1 4796   1.928   3.270   4.685
 1299SOL    HW2 4797   1.806   3.231   4.787
 1300SOL     OW 4798   3.610   2.847   2.795
 1300SOL    HW1 4799   3.583   2.755   2.764
 1300SOL    HW2 4800   3.649   2.898   2.718
 1301SOL     OW 4801   1.437   1.519   2.230
 1301SOL    HW1 4802   1.394   1.454   2.293
 1301SOL    HW2 4803   1.457   1.473   2.143
 1302SOL     OW 4804   2.428   5.984   5.861
 1302SOL    HW1 4805   2.402   5.944   5.949
 1302SOL    HW2 4806   2.435   6.083   5.871
 1303SOL     OW 4807   3.158   0.307   1.235
 1303SOL    HW1 4808   3.171   0.406   1.241
 1303SOL    HW2 4809   3.223   0.269   1.170
 1304SOL     OW 4810   3.732   0.917   6.029
 1304SOL    HW1 4811   3.804   0.878   5.972
 1304SOL    HW2 4812   3.674   0.843   6.065
 1305SOL     OW 4813   6.228   6.680   3.956
 1305SOL    HW1 4814   6.215   6.764   4.009
 1305SOL    HW2 4815   6.139   6.644   3.929
 1306SOL     OW 4816   1.725   5.260   4.330
 1306SOL    HW1 4817   1.788   5.196   4.287
 1306SOL    HW2 4818   1.744   5.352   4.296
 1307SOL     OW 4819   1.012   1.094   4.277
 1307SOL    HW1 4820   1.106   1.105   4.307
 1307SOL    HW2 4821   1.010   1.045   4.190
 1308SOL     OW 4822   4.785   6.014   3.165
 1308SOL    HW1 4823   4.788   5.921   3.202
 1308SOL    HW2 4824   4.759   6.078   3.237
 1309SOL     OW 4825   5.196   2.904   4.356
 1309SOL    HW1 4826   5.234   2.996   4.357
 1309SOL    HW2 4827   5.237   2.850   4.429
 1310SOL     OW 4828   4.989   3.607   5.852
 1310SOL    HW1 4829   4.973   3.702   5.879
 1310SOL    HW2 4830   5.055   3.565   5.915
 1311SOL     OW 4831   4.879   4.932   6.018
 1311SOL    HW1 4832   4.937   4.965   5.944
 1311SOL    HW2 4833   4.926   4.860   6.068
 1312SOL     OW 4834   6.686   0.665   1.710
 1312SOL    HW1 4835   6.600   0.645   1.756
 1312SOL    HW2 4836   6.705   0.763   1.715
 1313SOL     OW 4837   3.210   4.896   4.917
 1313SOL    HW1 4838   3.118   4.860   4.935
 1313SOL    HW2 4839   3.261   4.903   5.003
 1314SOL     OW 4840   6.676   1.262   5.833
 1314SOL    HW1 4841   6.627   1.349   5.834
 1314SOL    HW2 4842   6.678   1.224   5.926
 1315SOL     OW 4843   1.850   7.003   3.457
 1315SOL    HW1 4844   1.798   7.017   3.373
 1315SOL    HW2 4845   1.904   6.919   3.449
 1316SOL     OW 4846   3.002   6.478   3.351
 1316SOL    HW1 4847   2.943   6.557   3.371
 1316SOL    HW2 4848   2.955   6.416   3.289
 1317SOL     OW 4849   0.538   3.459   4.517
 1317SOL    HW1 4850   0.522   3.361   4.523
 1317SOL    HW2 4851   0.580   3.491   4.602
 1318SOL     OW 4852   1.091   6.417   1.439
 1318SOL    HW1 4853   1.080   6.318   1.436
 1318SOL    HW2 4854   1.106   6.445   1.534
 1319SOL     OW 4855   6.540   0.230   0.732
 1319SOL    HW1 4856   6.628   0.261   0.697
 1319SOL    HW2 4857   6.503   0.298   0.794
 1320SOL     OW 4858   5.016   5.603   4.797
 1320SOL    HW1 4859   4.973   5.671   4.858
 1320SOL    HW2 4860   4.957   5.522   4.791
 1321SOL     OW 4861   3.773   0.840   0.737
 1321SOL    HW1 4862   3.790   0.927   0.783
 1321SOL    HW2 4863   3.724   0.855   0.652
 1322SOL     OW 4864   5.150   1.156   6.305
 1322SOL    HW1 4865   5.051   1.168   6.311
 1322SOL    HW2 4866   5.183   1.108   6.386
 1323SOL     OW 4867   6.600   0.446   3.754
 1323SOL    HW1 4868   6.571   0.542   3.760
 1323SOL    HW2 4869   6.556   0.403   3.675
 1324SOL     OW 4870   1.008   2.405   0.469
 1324SOL    HW1 4871   0.923   2.391   0.418
 1324SOL    HW2 4872   1.066   2.324   0.460
 1325SOL     OW 4873   4.231   5.796   4.085
 1325SOL    HW1 4874   4.194   5.888   4.075
 1325SOL    HW2 4875   4.257   5.761   3.995
 1326SOL     OW 4876   5.598   3.970   4.777
 1326SOL    HW1 4877   5.669   3.998   4.713
 1326SOL    HW2 4878   5.528   4.041   4.782
 1327SOL     OW 4879   2.824   6.280   4.329
 1327SOL    HW1 4880   2.746   6.222   4.350
 1327SOL    HW2 4881   2.850   6.331   4.411
 1328SOL     OW 4882   2.240   1.145   1.240
 1328SOL    HW1 4883   2.218   1.152   1.337
 1328SOL    HW2 4884   2.321   1.087   1.227
 1329SOL     OW 4885   1.545   6.239   1.803
 1329SOL    HW1 4886   1.509   6.251   1.896
 1329SOL    HW2 4887   1.528   6.322   1.750
 1330SOL     OW 4888   4.906   6.818   0.864
 1330SOL    HW1 4889   4.907   6.719   0.858
 1330SOL    HW2 4890   4.842   6.847   0.935
 1331SOL     OW 4891   1.002   2.091   2.079
 1331SOL    HW1 4892   0.994   2.039   2.164
 1331SOL    HW2 4893   0.938   2.054   2.011
 1332SOL     OW 4894   4.624   2.147   1.219
 1332SOL    HW1 4895   4.695   2.087   1.257
 1332SOL    HW2 4896   4.598   2.114   1.128
 1333SOL     OW 4897   4.052   3.249   5.119
 1333SOL    HW1 4898   4.018   3.209   5.034
 1333SOL    HW2 4899   4.121   3.318   5.098
 1334SOL     OW 4900   1.184   3.397   3.964
 1334SOL    HW1 4901   1.111   3.464   3.949
 1334SOL    HW2 4902   1.185   3.331   3.889
 1335SOL     OW 4903   1.944   5.677   3.330
 1335SOL    HW1 4904   1.899   5.759   3.293
 1335SOL    HW2 4905   1.992   5.629   3.256
 1336SOL     OW 4906   0.185   6.760   5.526
 1336SOL    HW1 4907   0.125   6.680   5.516
 1336SOL    HW2 4908   0.206   6.798   5.436
 1337SOL     OW 4909   3.864   6.716   0.109
 1337SOL    HW1 4910   3.915   6.706   0.024
 1337SOL    HW2 4911   3.782   6.658   0.105
 1338SOL     OW 4912   3.277   5.091   1.199
 1338SOL    HW1 4913   3.215   5.041   1.139
 1338SOL    HW2 4914   3.267   5.056   1.293
 1339SOL     OW 4915   0.252   3.925   6.911
 1339SOL    HW1 4916   0.286   3.920   7.005
 1339SOL    HW2 4917   0.189   3.849   6.894
 1340SOL     OW 4918   3.117   1.458   6.163
 1340SOL    HW1 4919   3.151   1.392   6.230
 1340SOL    HW2 4920   3.151   1.550   6.186
 1341SOL     OW 4921   5.408   2.494   4.428
 1341SOL    HW1 4922   5.349   2.534   4.357
 1341SOL    HW2 4923   5.363   2.414   4.467
 1342SOL     OW 4924   0.574   0.229   1.610
 1342SOL    HW1 4925   0.486   0.213   1.653
 1342SOL    HW2 4926   0.642   0.166   1.649
 1343SOL     OW 4927   2.634   6.241   4.051
 1343SOL    HW1 4928   2.677   6.325   4.018
 1343SOL    HW2 4929   2.590   6.258   4.139
 1344SOL     OW 4930   5.591   1.848   2.748
 1344SOL    HW1 4931   5.644   1.881   2.670
 1344SOL    HW2 4932   5.637   1.872   2.833
 1345SOL     OW 4933   0.156   5.651   2.530
 1345SOL    HW1 4934   0.256   5.644   2.540
 1345SOL    HW2 4935   0.134   5.698   2.445
 1346SOL     OW 4936   0.048   1.587   3.167
 1346SOL    HW1 4937   6.987   1.615   3.118
 1346SOL    HW2 4938   0.101   1.524   3.110
 1347SOL     OW 4939   4.489   1.052   3.417
 1347SOL    HW1 4940   4.452   1.044   3.510
 1347SOL    HW2 4941   4.498   1.149   3.393
 1348SOL     OW 4942   4.848   5.637   4.392
 1348SOL    HW1 4943   4.857   5.692   4.476
 1348SOL    HW2 4944   4.755   5.648   4.356
 1349SOL     OW 4945   5.061   2.117   0.282
 1349SOL    HW1 4946   5.013   2.152   0.201
 1349SOL    HW2 4947   5.021   2.156   0.365
 1350SOL     OW 4948   2.725   0.871   4.819
 1350SOL    HW1 4949   2.824   0.878   4.833
 1350SOL    HW2 4950   2.687   0.962   4.810
 1351SOL     OW 4951   1.904   1.594   3.158
 1351SOL    HW1 4952   1.966   1.648   3.214
 1351SOL    HW2 4953   1.853   1.530   3.216
 1352SOL     OW 4954   1.356   6.377   4.720
 1352SOL    HW1 4955   1.381   6.433   4.642
 1352SOL    HW2 4956   1.437   6.355   4.774
 1353SOL     OW 4957   2.354   3.159   5.565
 1353SOL    HW1 4958   2.404   3.239   5.532
 1353SOL    HW2 4959   2.315   3.179   5.655
 1354SOL     OW 4960   0.631   6.920   0.034
 1354SOL    HW1 4961   0.617   6.911   0.133
 1354SOL    HW2 4962   0.637   6.829   7.015
 1355SOL     OW 4963   4.191   3.391   6.992
 1355SOL    HW1 4964   4.228   3.365   6.903
 1355SOL    HW2 4965   4.113   3.334   7.015
 1356SOL     OW 4966   3.183   2.618   1.734
 1356SOL    HW1 4967   3.103   2.585   1.784
 1356SOL    HW2 4968   3.153   2.667   1.652
 1357SOL     OW 4969   3.693   2.372   5.670
 1357SOL    HW1 4970   3.626   2.390   5.597
 1357SOL    HW2 4971   3.773   2.430   5.657
 1358SOL     OW 4972   1.896   3.477   5.762
 1358SOL    HW1 4973   1.973   3.501   5.703
 1358SOL    HW2 4974   1.821   3.440   5.707
 1359SOL     OW 4975   6.948   1.697   6.557
 1359SOL    HW1 4976   7.015   1.628   6.529
 1359SOL    HW2 4977   6.982   1.788   6.533
 1360SOL     OW 4978   3.550   3.631   4.190
 1360SOL    HW1 4979   3.600   3.672   4.267
 1360SOL    HW2 4980   3.611   3.623   4.111
 1361SOL     OW 4981   1.026   6.752   1.135
 1361SOL    HW1 4982   0.967   6.822   1.095
 1361SOL    HW2 4983   1.100   6.731   1.071
 1362SOL     OW 4984   3.001   1.676   0.009
 1362SOL    HW1 4985   3.091   1.715   0.026
 1362SOL    HW2 4986   2.963   1.641   0.095
 1363SOL     OW 4987   6.906   6.628   0.796
 1363SOL    HW1 4988   6.830   6.580   0.751
 1363SOL    HW2 4989   6.882   6.724   0.808
 1364SOL     OW 4990   1.133   3.678   0.897
 1364SOL    HW1 4991   1.229   3.686   0.869
 1364SOL    HW2 4992   1.127   3.632   0.985
 1365SOL     OW 4993   0.911   3.290   6.056
 1365SOL    HW1 4994   0.927   3.256   5.963
 1365SOL    HW2 4995   0.878   3.384   6.051
 1366SOL     OW 4996   3.478   0.392   1.154
 1366SOL    HW1 4997   3.562   0.402   1.100
 1366SOL    HW2 4998   3.466   0.296   1.180
 1367SOL     OW 4999   1.184   6.936   4.880
 1367SOL    HW1 5000   1.104   6.904   4.829
 1367SOL    HW2 5001   1.153   6.994   4.956
 1368SOL     OW 5002   1.506   6.392   4.311
 1368SOL    HW1 5003   1.483   6.325   4.239
 1368SOL    HW2 5004   1.602   6.420   4.301
 1369SOL     OW 5005   2.232   5.998   3.933
 1369SOL    HW1 5006   2.162   5.984   4.004
 1369SOL    HW2 5007   2.188   6.028   3.848
 1370SOL     OW 5008   0.024   2.522   2.857
 1370SOL    HW1 5009   0.079   2.440   2.842
 1370SOL    HW2 5010   6.970   2.501   2.918
 1371SOL     OW 5011   6.045   1.943   5.874
 1371SOL    HW1 5012   6.047   1.940   5.974
 1371SOL    HW2 5013   5.969   2.001   5.844
 1372SOL     OW 5014   5.456   2.449   1.530
 1372SOL    HW1 5015   5.379   2.413   1.582
 1372SOL    HW2 5016   5.542   2.427   1.577
 1373SOL     OW 5017   5.634   2.566   1.834
 1373SOL    HW1 5018   5.704   2.637   1.832
 1373SOL    HW2 5019   5.550   2.602   1.793
 1374SOL     OW 5020   4.032   3.148   2.414
 1374SOL    HW1 5021   3.960   3.081   2.399
 1374SOL    HW2 5022   4.081   3.165   2.328
 1375SOL     OW 5023   5.130   4.848   4.613
 1375SOL    HW1 5024   5.156   4.820   4.705
 1375SOL    HW2 5025   5.054   4.913   4.617
 1376SOL     OW 5026   2.978   4.243   5.572
 1376SOL    HW1 5027   2.978   4.335   5.532
 1376SOL    HW2 5028   3.030   4.244   5.657
 1377SOL     OW 5029   1.042   1.710   3.348
 1377SOL    HW1 5030   1.049   1.638   3.416
 1377SOL    HW2 5031   1.024   1.797   3.394
 1378SOL     OW 5032   4.577   2.188   4.483
 1378SOL    HW1 5033   4.619   2.135   4.409
 1378SOL    HW2 5034   4.480   2.163   4.491
 1379SOL     OW 5035   4.194   5.397   0.089
 1379SOL    HW1 5036   4.270   5.352   0.043
 1379SOL    HW2 5037   4.221   5.489   0.117
 1380SOL     OW 5038   0.454   5.931   4.066
 1380SOL    HW1 5039   0.452   6.031   4.061
 1380SOL    HW2 5040   0.490   5.893   3.981
 1381SOL     OW 5041   6.441   2.844   5.815
 1381SOL    HW1 5042   6.436   2.897   5.900
 1381SOL    HW2 5043   6.400   2.897   5.740
 1382SOL     OW 5044   4.112   2.065   6.172
 1382SOL    HW1 5045   4.198   2.033   6.131
 1382SOL    HW2 5046   4.126   2.156   6.211
 1383SOL     OW 5047   6.256   0.513   1.102
 1383SOL    HW1 5048   6.330   0.572   1.133
 1383SOL    HW2 5049   6.262   0.425   1.150
 1384SOL     OW 5050   5.994   2.315   2.164
 1384SOL    HW1 5051   5.933   2.329   2.086
 1384SOL    HW2 5052   6.048   2.398   2.180
 1385SOL     OW 5053   6.933   6.223   1.699
 1385SOL    HW1 5054   7.009   6.213   1.764
 1385SOL    HW2 5055   6.911   6.134   1.660
 1386SOL     OW 5056   1.965   6.821   3.745
 1386SOL    HW1 5057   2.049   6.768   3.739
 1386SOL    HW2 5058   1.898   6.784   3.680
 1387SOL     OW 5059   1.636   5.686   1.553
 1387SOL    HW1 5060   1.598   5.754   1.490
 1387SOL    HW2 5061   1.706   5.728   1.610
 1388SOL     OW 5062   6.510   0.221   1.725
 1388SOL    HW1 5063   6.554   0.307   1.748
 1388SOL    HW2 5064   6.412   0.227   1.743
 1389SOL     OW 5065   6.180   1.120   2.114
 1389SOL    HW1 5066   6.198   1.212   2.149
 1389SOL    HW2 5067   6.151   1.061   2.189
 1390SOL     OW 5068   1.609   2.027   4.409
 1390SOL    HW1 5069   1.544   2.066   4.473
 1390SOL    HW2 5070   1.601   2.074   4.321
 1391SOL     OW 5071   0.676   2.845   3.842
 1391SOL    HW1 5072   0.729   2.769   3.879
 1391SOL    HW2 5073   0.645   2.823   3.750
 1392SOL     OW 5074   5.480   4.505   4.158
 1392SOL    HW1 5075   5.443   4.483   4.068
 1392SOL    HW2 5076   5.425   4.462   4.229
 1393SOL     OW 5077   3.707   4.795   6.732
 1393SOL    HW1 5078   3.640   4.770   6.661
 1393SOL    HW2 5079   3.731   4.891   6.723
 1394SOL     OW 5080   1.246   6.504   6.894
 1394SOL    HW1 5081   1.207   6.522   6.984
 1394SOL    HW2 5082   1.175   6.470   6.832
 1395SOL     OW 5083   3.759   4.473   5.954
 1395SOL    HW1 5084   3.699   4.393   5.954
 1395SOL    HW2 5085   3.755   4.518   5.865
 1396SOL     OW 5086   5.746   6.041   3.572
 1396SOL    HW1 5087   5.746   6.141   3.571
 1396SOL    HW2 5088   5.801   6.007   3.495
 1397SOL     OW 5089   4.904   6.278   5.086
 1397SOL    HW1 5090   4.808   6.277   5.112
 1397SOL    HW2 5091   4.961   6.255   5.165
 1398SOL     OW 5092   1.846   0.905   4.761
 1398SOL    HW1 5093   1.946   0.903   4.763
 1398SOL    HW2 5094   1.812   0.963   4.834
 1399SOL     OW 5095   3.118   5.559   2.264
 1399SOL    HW1 5096   3.110   5.524   2.170
 1399SOL    HW2 5097   3.027   5.561   2.306
 1400SOL     OW 5098   0.923   0.129   2.838
 1400SOL    HW1 5099   0.978   0.058   2.881
 1400SOL    HW2 5100   0.938   0.128   2.739
 1401SOL     OW 5101   6.633   1.608   4.153
 1401SOL    HW1 5102   6.592   1.565   4.233
 1401SOL    HW2 5103   6.567   1.611   4.078
 1402SOL     OW 5104   6.146   3.073   6.916
 1402SOL    HW1 5105   6.060   3.113   6.947
 1402SOL    HW2 5106   6.135   3.038   6.823
 1403SOL     OW 5107   3.661   0.389   1.863
 1403SOL    HW1 5108   3.728   0.442   1.915
 1403SOL    HW2 5109   3.631   0.442   1.784
 1404SOL     OW 5110   5.301   2.101   0.555
 1404SOL    HW1 5111   5.253   2.022   0.593
 1404SOL    HW2 5112   5.278   2.182   0.609
 1405SOL     OW 5113   3.296   2.703   1.432
 1405SOL    HW1 5114   3.263   2.612   1.407
 1405SOL    HW2 5115   3.221   2.759   1.466
 1406SOL     OW 5116   1.288   3.782   1.958
 1406SOL    HW1 5117   1.298   3.772   2.058
 1406SOL    HW2 5118   1.379   3.784   1.917
 1407SOL     OW 5119   0.004   2.292   2.537
 1407SOL    HW1 5120   6.960   2.228   2.498
 1407SOL    HW2 5121   0.092   2.246   2.548
 1408SOL     OW 5122   6.071   5.943   6.149
 1408SOL    HW1 5123   6.088   5.880   6.074
 1408SOL    HW2 5124   6.135   5.924   6.224
 1409SOL     OW 5125   0.251   1.693   4.162
 1409SOL    HW1 5126   0.215   1.777   4.122
 1409SOL    HW2 5127   0.248   1.619   4.095
 1410SOL     OW 5128   6.190   1.963   0.050
 1410SOL    HW1 5129   6.228   1.963   6.980
 1410SOL    HW2 5130   6.091   1.945   0.045
 1411SOL     OW 5131   2.113   0.683   2.121
 1411SOL    HW1 5132   2.126   0.584   2.123
 1411SOL    HW2 5133   2.148   0.723   2.206
 1412SOL     OW 5134   0.982   2.694   6.950
 1412SOL    HW1 5135   0.906   2.702   7.014
 1412SOL    HW2 5136   1.060   2.650   6.995
 1413SOL     OW 5137   2.352   6.883   3.058
 1413SOL    HW1 5138   2.435   6.926   3.092
 1413SOL    HW2 5139   2.303   6.839   3.135
 1414SOL     OW 5140   2.709   0.652   1.743
 1414SOL    HW1 5141   2.776   0.620   1.676
 1414SOL    HW2 5142   2.646   0.578   1.766
 1415SOL     OW 5143   5.139   5.977   4.788
 1415SOL    HW1 5144   5.204   6.051   4.773
 1415SOL    HW2 5145   5.082   5.966   4.706
 1416SOL     OW 5146   4.486   5.468   3.583
 1416SOL    HW1 5147   4.432   5.550   3.565
 1416SOL    HW2 5148   4.551   5.455   3.507
 1417SOL     OW 5149   3.223   2.898   6.068
 1417SOL    HW1 5150   3.198   2.811   6.026
 1417SOL    HW2 5151   3.216   2.971   5.999
 1418SOL     OW 5152   3.428   4.138   3.386
 1418SOL    HW1 5153   3.514   4.154   3.435
 1418SOL    HW2 5154   3.355   4.121   3.452
 1419SOL     OW 5155   3.831   6.289   3.958
 1419SOL    HW1 5156   3.840   6.189   3.955
 1419SOL    HW2 5157   3.921   6.329   3.976
 1420SOL     OW 5158   0.264   6.138   2.114
 1420SOL    HW1 5159   0.339   6.156   2.178
 1420SOL    HW2 5160   0.239   6.041   2.118
 1421SOL     OW 5161   3.938   0.721   2.187
 1421SOL    HW1 5162   3.897   0.806   2.154
 1421SOL    HW2 5163   3.882   0.682   2.260
 1422SOL     OW 5164   2.722   6.890   0.425
 1422SOL    HW1 5165   2.637   6.859   0.465
 1422SOL    HW2 5166   2.711   6.984   0.392
 1423SOL     OW 5167   5.158   0.684   1.729
 1423SOL    HW1 5168   5.235   0.748   1.733
 1423SOL    HW2 5169   5.193   0.593   1.704
 1424SOL     OW 5170   0.085   5.207   2.585
 1424SOL    HW1 5171   0.011   5.146   2.613
 1424SOL    HW2 5172   0.171   5.173   2.623
 1425SOL     OW 5173   1.780   0.340   4.341
 1425SOL    HW1 5174   1.868   0.295   4.324
 1425SOL    HW2 5175   1.792   0.414   4.406
 1426SOL     OW 5176   1.772   1.317   5.336
 1426SOL    HW1 5177   1.691   1.285   5.287
 1426SOL    HW2 5178   1.744   1.380   5.409
 1427SOL     OW 5179   5.555   0.829   5.513
 1427SOL    HW1 5180   5.483   0.879   5.562
 1427SOL    HW2 5181   5.548   0.848   5.415
 1428SOL     OW 5182   5.377   1.059   0.203
 1428SOL    HW1 5183   5.306   1.129   0.194
 1428SOL    HW2 5184   5.430   1.075   0.286
 1429SOL     OW 5185   5.757   6.636   6.942
 1429SOL    HW1 5186   5.841   6.587   6.966
 1429SOL    HW2 5187   5.767   6.733   6.965
 1430SOL     OW 5188   2.192   4.411   3.135
 1430SOL    HW1 5189   2.264   4.361   3.183
 1430SOL    HW2 5190   2.182   4.373   3.043
 1431SOL     OW 5191   1.615   0.264   0.725
 1431SOL    HW1 5192   1.627   0.186   0.786
 1431SOL    HW2 5193   1.704   0.302   0.702
 1432SOL     OW 5194   3.009   0.185   0.959
 1432SOL    HW1 5195   2.981   0.187   0.863
 1432SOL    HW2 5196   3.011   0.278   0.995
 1433SOL     OW 5197   4.077   0.229   3.966
 1433SOL    HW1 5198   4.115   0.224   3.874
 1433SOL    HW2 5199   4.121   0.159   4.024
 1434SOL     OW 5200   1.240   0.970   5.022
 1434SOL    HW1 5201   1.208   1.043   4.962
 1434SOL    HW2 5202   1.175   0.956   5.096
 1435SOL     OW 5203   6.823   2.183   3.565
 1435SOL    HW1 5204   6.796   2.089   3.546
 1435SOL    HW2 5205   6.921   2.193   3.551
 1436SOL     OW 5206   4.474   3.864   0.715
 1436SOL    HW1 5207   4.401   3.798   0.735
 1436SOL    HW2 5208   4.557   3.814   0.689
 1437SOL     OW 5209   4.775   1.521   2.054
 1437SOL    HW1 5210   4.846   1.467   2.009
 1437SOL    HW2 5211   4.689   1.513   2.002
 1438SOL     OW 5212   2.464   0.525   1.581
 1438SOL    HW1 5213   2.383   0.583   1.573
 1438SOL    HW2 5214   2.474   0.496   1.676
 1439SOL     OW 5215   0.597   5.701   2.256
 1439SOL    HW1 5216   0.619   5.719   2.160
 1439SOL    HW2 5217   0.632   5.611   2.281
 1440SOL     OW 5218   2.041   3.094   1.928
 1440SOL    HW1 5219   2.017   3.191   1.927
 1440SOL    HW2 5220   2.080   3.070   2.017
 1441SOL     OW 5221   5.258   5.732   0.107
 1441SOL    HW1 5222   5.159   5.739   0.092
 1441SOL    HW2 5223   5.298   5.823   0.109
 1442SOL     OW 5224   5.473   5.265   0.717
 1442SOL    HW1 5225   5.483   5.319   0.633
 1442SOL    HW2 5226   5.395   5.298   0.769
 1443SOL     OW 5227   0.427   2.381   2.010
 1443SOL    HW1 5228   0.356   2.408   1.944
 1443SOL    HW2 5229   0.463   2.291   1.985
 1444SOL     OW 5230   0.775   5.577   6.308
 1444SOL    HW1 5231   0.759   5.673   6.328
 1444SOL    HW2 5232   0.688   5.528   6.307
 1445SOL     OW 5233   0.432   3.024   1.089
 1445SOL    HW1 5234   0.527   3.041   1.117
 1445SOL    HW2 5235   0.391   3.108   1.055
 1446SOL     OW 5236   6.813   5.578   0.707
 1446SOL    HW1 5237   6.904   5.581   0.746
 1446SOL    HW2 5238   6.777   5.670   0.697
 1447SOL     OW 5239   6.467   5.749   3.947
 1447SOL    HW1 5240   6.395   5.773   3.882
 1447SOL    HW2 5241   6.479   5.649   3.948
 1448SOL     OW 5242   0.837   1.642   6.274
 1448SOL    HW1 5243   0.859   1.602   6.185
 1448SOL    HW2 5244   0.768   1.585   6.319
 1449SOL     OW 5245   2.146   3.277   3.271
 1449SOL    HW1 5246   2.157   3.303   3.175
 1449SOL    HW2 5247   2.193   3.190   3.289
 1450SOL     OW 5248   3.305   2.037   3.607
 1450SOL    HW1 5249   3.399   2.072   3.611
 1450SOL    HW2 5250   3.275   2.011   3.699
 1451SOL     OW 5251   3.202   1.407   2.440
 1451SOL    HW1 5252   3.217   1.504   2.418
 1451SOL    HW2 5253   3.105   1.385   2.432
 1452SOL     OW 5254   4.230   2.651   6.541
 1452SOL    HW1 5255   4.215   2.693   6.630
 1452SOL    HW2 5256   4.142   2.619   6.504
 1453SOL     OW 5257   0.804   3.811   5.337
 1453SOL    HW1 5258   0.766   3.898   5.305
 1453SOL    HW2 5259   0.766   3.736   5.284
 1454SOL     OW 5260   3.315   2.075   3.042
 1454SOL    HW1 5261   3.378   2.065   2.964
 1454SOL    HW2 5262   3.367   2.082   3.126
 1455SOL     OW 5263   0.335   5.064   2.570
 1455SOL    HW1 5264   0.395   4.988   2.594
 1455SOL    HW2 5265   0.366   5.147   2.616
 1456SOL     OW 5266   6.428   5.949   4.156
 1456SOL    HW1 5267   6.434   5.886   4.233
 1456SOL    HW2 5268   6.428   5.898   4.071
 1457SOL     OW 5269   0.925   5.153   6.351
 1457SOL    HW1 5270   0.993   5.081   6.365
 1457SOL    HW2 5271   0.890   5.148   6.258
 1458SOL     OW 5272   5.846   5.094   5.033
 1458SOL    HW1 5273   5.914   5.138   5.091
 1458SOL    HW2 5274   5.792   5.030   5.087
 1459SOL     OW 5275   6.306   6.473   4.940
 1459SOL    HW1 5276   6.268   6.556   4.982
 1459SOL    HW2 5277   6.348   6.416   5.011
 1460SOL     OW 5278   1.837   6.085   5.263
 1460SOL    HW1 5279   1.772   6.010   5.273
 1460SOL    HW2 5280   1.917   6.055   5.212
 1461SOL     OW 5281   5.934   3.217   4.052
 1461SOL    HW1 5282   6.001   3.247   3.985
 1461SOL    HW2 5283   5.939   3.117   4.061
 1462SOL     OW 5284   0.540   1.577   1.877
 1462SOL    HW1 5285   0.479   1.646   1.916
 1462SOL    HW2 5286   0.635   1.606   1.889
 1463SOL     OW 5287   1.395   5.213   6.780
 1463SOL    HW1 5288   1.364   5.231   6.873
 1463SOL    HW2 5289   1.475   5.153   6.782
 1464SOL     OW 5290   1.134   4.527   4.562
 1464SOL    HW1 5291   1.101   4.618   4.539
 1464SOL    HW2 5292   1.223   4.534   4.607
 1465SOL     OW 5293   1.303   2.802   5.281
 1465SOL    HW1 5294   1.251   2.811   5.366
 1465SOL    HW2 5295   1.387   2.752   5.299
 1466SOL     OW 5296   5.144   0.968   2.737
 1466SOL    HW1 5297   5.231   1.003   2.771
 1466SOL    HW2 5298   5.071   0.994   2.800
 1467SOL     OW 5299   0.401   6.837   3.603
 1467SOL    HW1 5300   0.499   6.839   3.625
 1467SOL    HW2 5301   0.357   6.763   3.653
 1468SOL     OW 5302   3.910   6.136   2.980
 1468SOL    HW1 5303   3.915   6.223   3.028
 1468SOL    HW2 5304   3.840   6.078   3.023
 1469SOL     OW 5305   5.728   4.145   2.744
 1469SOL    HW1 5306   5.814   4.180   2.780
 1469SOL    HW2 5307   5.693   4.073   2.804
 1470SOL     OW 5308   6.374   2.471   2.370
 1470SOL    HW1 5309   6.326   2.422   2.442
 1470SOL    HW2 5310   6.343   2.438   2.281
 1471SOL     OW 5311   4.969   0.044   0.262
 1471SOL    HW1 5312   5.057   0.014   0.301
 1471SOL    HW2 5313   4.972   0.033   0.162
 1472SOL     OW 5314   1.891   1.218   6.669
 1472SOL    HW1 5315   1.984   1.188   6.691
 1472SOL    HW2 5316   1.856   1.161   6.594
 1473SOL     OW 5317   1.304   6.088   3.396
 1473SOL    HW1 5318   1.324   6.186   3.395
 1473SOL    HW2 5319   1.215   6.071   3.354
 1474SOL     OW 5320   2.048   4.898   2.098
 1474SOL    HW1 5321   2.067   4.816   2.153
 1474SOL    HW2 5322   2.034   4.871   2.003
 1475SOL     OW 5323   6.126   0.483   6.445
 1475SOL    HW1 5324   6.103   0.397   6.490
 1475SOL    HW2 5325   6.208   0.470   6.389
 1476SOL     OW 5326   5.566   7.000   6.441
 1476SOL    HW1 5327   5.476   6.967   6.470
 1476SOL    HW2 5328   5.615   6.926   6.396
 1477SOL     OW 5329   3.389   4.332   1.712
 1477SOL    HW1 5330   3.321   4.399   1.682
 1477SOL    HW2 5331   3.343   4.247   1.737
 1478SOL     OW 5332   4.908   4.684   6.187
 1478SOL    HW1 5333   4.835   4.636   6.236
 1478SOL    HW2 5334   4.956   4.744   6.250
 1479SOL     OW 5335   4.787   4.155   0.961
 1479SOL    HW1 5336   4.779   4.241   0.911
 1479SOL    HW2 5337   4.809   4.081   0.897
 1480SOL     OW 5338   2.592   1.130   4.474
 1480SOL    HW1 5339   2.684   1.092   4.488
 1480SOL    HW2 5340   2.539   1.068   4.417
 1481SOL     OW 5341   4.502   2.217   5.821
 1481SOL    HW1 5342   4.443   2.260   5.890
 1481SOL    HW2 5343   4.460   2.132   5.790
 1482SOL     OW 5344   6.204   1.321   1.864
 1482SOL    HW1 5345   6.147   1.403   1.867
 1482SOL    HW2 5346   6.272   1.325   1.937
 1483SOL     OW 5347   6.330   0.318   6.876
 1483SOL    HW1 5348   6.414   0.276   6.910
 1483SOL    HW2 5349   6.252   0.259   6.899
 1484SOL     OW 5350   3.533   5.940   5.228
 1484SOL    HW1 5351   3.511   5.939   5.326
 1484SOL    HW2 5352   3.596   5.866   5.207
 1485SOL     OW 5353   4.907   3.741   3.778
 1485SOL    HW1 5354   4.934   3.735   3.874
 1485SOL    HW2 5355   4.892   3.837   3.752
 1486SOL     OW 5356   5.060   6.095   3.925
 1486SOL    HW1 5357   5.045   6.103   3.826
 1486SOL    HW2 5358   5.034   6.003   3.955
 1487SOL     OW 5359   5.938   1.325   0.337
 1487SOL    HW1 5360   5.964   1.342   0.432
 1487SOL    HW2 5361   5.936   1.411   0.287
 1488SOL     OW 5362   6.450   2.540   2.666
 1488SOL    HW1 5363   6.447   2.536   2.766
 1488SOL    HW2 5364   6.357   2.531   2.630
 1489SOL     OW 5365   3.058   5.063   0.148
 1489SOL    HW1 5366   3.100   5.078   0.058
 1489SOL    HW2 5367   2.978   5.123   0.157
 1490SOL     OW 5368   6.740   3.180   2.235
 1490SOL    HW1 5369   6.829   3.170   2.280
 1490SOL    HW2 5370   6.752   3.174   2.135
 1491SOL     OW 5371   5.294   3.029   3.715
 1491SOL    HW1 5372   5.250   3.114   3.688
 1491SOL    HW2 5373   5.346   2.993   3.637
 1492SOL     OW 5374   0.805   2.447   2.348
 1492SOL    HW1 5375   0.810   2.389   2.268
 1492SOL    HW2 5376   0.756   2.399   2.421
 1493SOL     OW 5377   6.059   2.333   6.529
 1493SOL    HW1 5378   6.004   2.358   6.449
 1493SOL    HW2 5379   6.134   2.273   6.501
 1494SOL     OW 5380   0.429   4.293   6.346
 1494SOL    HW1 5381   0.432   4.328   6.439
 1494SOL    HW2 5382   0.405   4.196   6.346
 1495SOL     OW 5383   6.687   4.080   4.084
 1495SOL    HW1 5384   6.666   4.177   4.093
 1495SOL    HW2 5385   6.659   4.048   3.994
 1496SOL     OW 5386   6.906   6.382   5.928
 1496SOL    HW1 5387   6.936   6.469   5.889
 1496SOL    HW2 5388   6.971   6.352   5.998
 1497SOL     OW 5389   5.571   2.479   2.246
 1497SOL    HW1 5390   5.506   2.488   2.171
 1497SOL    HW2 5391   5.656   2.527   2.222
 1498SOL     OW 5392   3.902   4.445   0.677
 1498SOL    HW1 5393   3.927   4.395   0.760
 1498SOL    HW2 5394   3.904   4.544   0.696
 1499SOL     OW 5395   0.268   4.393   3.935
 1499SOL    HW1 5396   0.172   4.366   3.926
 1499SOL    HW2 5397   0.322   4.315   3.967
 1500SOL     OW 5398   1.603   5.507   2.082
 1500SOL    HW1 5399   1.693   5.471   2.110
 1500SOL    HW2 5400   1.548   5.525   2.164
 1501SOL     OW 5401   6.562   1.817   0.660
 1501SOL    HW1 5402   6.634   1.821   0.730
 1501SOL    HW2 5403   6.503   1.738   0.678
 1502SOL     OW 5404   0.166   6.450   6.603
 1502SOL    HW1 5405   0.163   6.499   6.690
 1502SOL    HW2 5406   0.073   6.436   6.568
 1503SOL     OW 5407   0.166   5.073   1.587
 1503SOL    HW1 5408   0.171   5.156   1.641
 1503SOL    HW2 5409   0.194   4.995   1.643
 1504SOL     OW 5410   1.698   0.047   3.206
 1504SOL    HW1 5411   1.692   0.003   3.117
 1504SOL    HW2 5412   1.610   0.037   3.254
 1505SOL     OW 5413   6.180   5.078   5.015
 1505SOL    HW1 5414   6.113   5.087   5.089
 1505SOL    HW2 5415   6.242   5.156   5.015
 1506SOL     OW 5416   1.280   1.128   0.765
 1506SOL    HW1 5417   1.322   1.064   0.830
 1506SOL    HW2 5418   1.234   1.076   0.693
 1507SOL     OW 5419   2.706   2.162   3.220
 1507SOL    HW1 5420   2.767   2.188   3.145
 1507SOL    HW2 5421   2.738   2.204   3.305
 1508SOL     OW 5422   1.897   0.403   1.929
 1508SOL    HW1 5423   1.967   0.462   1.969
 1508SOL    HW2 5424   1.846   0.357   2.002
 1509SOL     OW 5425   5.039   1.250   4.119
 1509SOL    HW1 5426   4.949   1.283   4.093
 1509SOL    HW2 5427   5.105   1.273   4.047
 1510SOL     OW 5428   3.538   6.332   4.927
 1510SOL    HW1 5429   3.544   6.427   4.956
 1510SOL    HW2 5430   3.600   6.317   4.850
 1511SOL     OW 5431   3.335   4.064   5.253
 1511SOL    HW1 5432   3.330   4.162   5.234
 1511SOL    HW2 5433   3.394   4.049   5.333
 1512SOL     OW 5434   5.220   6.399   0.787
 1512SOL    HW1 5435   5.266   6.336   0.850
 1512SOL    HW2 5436   5.224   6.362   0.694
 1513SOL     OW 5437   2.838   0.783   6.155
 1513SOL    HW1 5438   2.830   0.709   6.089
 1513SOL    HW2 5439   2.824   0.871   6.109
 1514SOL     OW 5440   3.017   2.191   6.996
 1514SOL    HW1 5441   3.018   2.276   0.027
 1514SOL    HW2 5442   3.019   2.213   6.899
 1515SOL     OW 5443   3.434   0.736   2.308
 1515SOL    HW1 5444   3.392   0.816   2.352
 1515SOL    HW2 5445   3.423   0.656   2.367
 1516SOL     OW 5446   6.364   6.645   6.146
 1516SOL    HW1 5447   6.377   6.733   6.101
 1516SOL    HW2 5448   6.438   6.583   6.120
 1517SOL     OW 5449   2.798   6.327   2.815
 1517SOL    HW1 5450   2.742   6.325   2.898
 1517SOL    HW2 5451   2.894   6.336   2.840
 1518SOL     OW 5452   0.911   3.076   0.053
 1518SOL    HW1 5453   0.820   3.036   0.058
 1518SOL    HW2 5454   0.912   3.149   7.007
 1519SOL     OW 5455   0.167   4.139   6.757
 1519SOL    HW1 5456   0.087   4.091   6.722
 1519SOL    HW2 5457   0.214   4.082   6.825
 1520SOL     OW 5458   0.115   6.710   3.622
 1520SOL    HW1 5459   0.178   6.668   3.688
 1520SOL    HW2 5460   0.168   6.766   3.558
 1521SOL     OW 5461   1.661   4.859   6.354
 1521SOL    HW1 5462   1.738   4.803   6.384
 1521SOL    HW2 5463   1.663   4.947   6.402
 1522SOL     OW 5464   5.577   6.514   4.159
 1522SOL    HW1 5465   5.658   6.466   4.190
 1522SOL    HW2 5466   5.499   6.490   4.217
 1523SOL     OW 5467   2.472   6.474   0.555
 1523SOL    HW1 5468   2.445   6.394   0.609
 1523SOL    HW2 5469   2.554   6.515   0.595
 1524SOL     OW 5470   2.018   2.464   3.834
 1524SOL    HW1 5471   1.995   2.546   3.887
 1524SOL    HW2 5472   1.986   2.475   3.740
 1525SOL     OW 5473   5.174   4.325   6.259
 1525SOL    HW1 5474   5.145   4.293   6.169
 1525SOL    HW2 5475   5.184   4.246   6.321
 1526SOL     OW 5476   1.004   1.616   1.233
 1526SOL    HW1 5477   0.910   1.595   1.206
 1526SOL    HW2 5478   1.023   1.577   1.322
 1527SOL     OW 5479   4.846   1.381   4.708
 1527SOL    HW1 5480   4.756   1.370   4.750
 1527SOL    HW2 5481   4.854   1.322   4.628
 1528SOL     OW 5482   3.673   3.187   2.314
 1528SOL    HW1 5483   3.584   3.189   2.270
 1528SOL    HW2 5484   3.745   3.175   2.245
 1529SOL     OW 5485   4.321   1.296   5.628
 1529SOL    HW1 5486   4.242   1.336   5.581
 1529SOL    HW2 5487   4.351   1.358   5.701
 1530SOL     OW 5488   2.057   0.139   0.996
 1530SOL    HW1 5489   2.016   0.187   0.919
 1530SOL    HW2 5490   2.155   0.157   0.998
 1531SOL     OW 5491   4.934   5.926   4.310
 1531SOL    HW1 5492   5.010   5.867   4.283
 1531SOL    HW2 5493   4.927   6.004   4.248
 1532SOL     OW 5494   2.433   5.965   1.467
 1532SOL    HW1 5495   2.352   5.908   1.480
 1532SOL    HW2 5496   2.447   6.023   1.548
 1533SOL     OW 5497   6.049   6.328   1.014
 1533SOL    HW1 5498   5.965   6.380   1.007
 1533SOL    HW2 5499   6.069   6.283   0.927
 1534SOL     OW 5500   2.188   4.678   6.459
 1534SOL    HW1 5501   2.232   4.718   6.379
 1534SOL    HW2 5502   2.125   4.606   6.430
 1535SOL     OW 5503   5.233   4.171   3.668
 1535SOL    HW1 5504   5.177   4.252   3.684
 1535SOL    HW2 5505   5.257   4.129   3.756
 1536SOL     OW 5506   4.331   4.156   6.452
 1536SOL    HW1 5507   4.376   4.159   6.542
 1536SOL    HW2 5508   4.360   4.234   6.397
 1537SOL     OW 5509   2.915   5.115   2.697
 1537SOL    HW1 5510   2.873   5.027   2.722
 1537SOL    HW2 5511   2.954   5.108   2.605
 1538SOL     OW 5512   2.876   1.107   0.489
 1538SOL    HW1 5513   2.813   1.182   0.469
 1538SOL    HW2 5514   2.843   1.024   0.444
 1539SOL     OW 5515   6.939   3.483   0.891
 1539SOL    HW1 5516   6.958   3.397   0.845
 1539SOL    HW2 5517   6.995   3.490   0.974
 1540SOL     OW 5518   3.471   6.489   3.351
 1540SOL    HW1 5519   3.552   6.545   3.331
 1540SOL    HW2 5520   3.394   6.522   3.296
 1541SOL     OW 5521   4.600   2.738   5.552
 1541SOL    HW1 5522   4.583   2.680   5.473
 1541SOL    HW2 5523   4.534   2.717   5.624
 1542SOL     OW 5524   6.806   5.501   2.783
 1542SOL    HW1 5525   6.894   5.484   2.737
 1542SOL    HW2 5526   6.778   5.596   2.766
 1543SOL     OW 5527   3.004   5.361   0.732
 1543SOL    HW1 5528   3.011   5.405   0.821
 1543SOL    HW2 5529   2.935   5.287   0.736
 1544SOL     OW 5530   4.089   3.180   4.264
 1544SOL    HW1 5531   4.165   3.118   4.282
 1544SOL    HW2 5532   4.020   3.134   4.208
 1545SOL     OW 5533   5.898   5.526   1.536
 1545SOL    HW1 5534   5.870   5.612   1.578
 1545SOL    HW2 5535   5.974   5.487   1.588
 1546SOL     OW 5536   6.085   6.356   5.398
 1546SOL    HW1 5537   6.026   6.428   5.434
 1546SOL    HW2 5538   6.041   6.267   5.410
 1547SOL     OW 5539   1.825   3.513   6.023
 1547SOL    HW1 5540   1.909   3.503   6.076
 1547SOL    HW2 5541   1.847   3.517   5.925
 1548SOL     OW 5542   6.561   2.323   0.660
 1548SOL    HW1 5543   6.527   2.370   0.578
 1548SOL    HW2 5544   6.582   2.228   0.638
 1549SOL     OW 5545   4.668   1.014   4.628
 1549SOL    HW1 5546   4.581   0.991   4.585
 1549SOL    HW2 5547   4.707   0.933   4.672
 1550SOL     OW 5548   3.014   3.152   3.890
 1550SOL    HW1 5549   3.036   3.141   3.987
 1550SOL    HW2 5550   2.938   3.092   3.866
 1551SOL     OW 5551   6.754   5.116   5.838
 1551SOL    HW1 5552   6.664   5.077   5.854
 1551SOL    HW2 5553   6.759   5.207   5.879
 1552SOL     OW 5554   1.963   4.524   1.589
 1552SOL    HW1 5555   1.922   4.455   1.530
 1552SOL    HW2 5556   1.976   4.609   1.538
 1553SOL     OW 5557   1.782   2.175   5.520
 1553SOL    HW1 5558   1.874   2.135   5.517
 1553SOL    HW2 5559   1.788   2.270   5.550
 1554SOL     OW 5560   4.493   1.599   3.267
 1554SOL    HW1 5561   4.407   1.624   3.223
 1554SOL    HW2 5562   4.485   1.610   3.366
 1555SOL     OW 5563   5.820   5.192   5.518
 1555SOL    HW1 5564   5.788   5.116   5.461
 1555SOL    HW2 5565   5.812   5.167   5.615
 1556SOL     OW 5566   1.849   1.112   6.008
 1556SOL    HW1 5567   1.767   1.158   5.974
 1556SOL    HW2 5568   1.927   1.135   5.950
 1557SOL     OW 5569   0.797   2.028   5.295
 1557SOL    HW1 5570   0.854   1.992   5.221
 1557SOL    HW2 5571   0.791   1.960   5.368
 1558SOL     OW 5572   0.278   6.561   4.512
 1558SOL    HW1 5573   0.265   6.464   4.530
 1558SOL    HW2 5574   0.254   6.581   4.417
 1559SOL     OW 5575   1.263   1.332   5.589
 1559SOL    HW1 5576   1.171   1.372   5.594
 1559SOL    HW2 5577   1.299   1.342   5.496
 1560SOL     OW 5578   0.018   0.420   0.235
 1560SOL    HW1 5579   0.019   0.372   0.323
 1560SOL    HW2 5580   0.078   0.373   0.171
 1561SOL     OW 5581   6.337   6.635   1.868
 1561SOL    HW1 5582   6.292   6.686   1.941
 1561SOL    HW2 5583   6.433   6.662   1.862
 1562SOL     OW 5584   5.495   0.632   4.185
 1562SOL    HW1 5585   5.555   0.604   4.111
 1562SOL    HW2 5586   5.500   0.565   4.259
 1563SOL     OW 5587   3.125   6.987   6.098
 1563SOL    HW1 5588   3.031   6.952   6.092
 1563SOL    HW2 5589   3.124   0.064   6.094
 1564SOL     OW 5590   1.536   2.036   3.265
 1564SOL    HW1 5591   1.527   2.108   3.333
 1564SOL    HW2 5592   1.514   2.072   3.174
 1565SOL     OW 5593   6.379   4.582   1.047
 1565SOL    HW1 5594   6.327   4.617   1.125
 1565SOL    HW2 5595   6.413   4.658   0.992
 1566SOL     OW 5596   6.356   4.695   2.159
 1566SOL    HW1 5597   6.305   4.691   2.074
 1566SOL    HW2 5598   6.375   4.602   2.192
 1567SOL     OW 5599   6.735   5.774   5.474
 1567SOL    HW1 5600   6.654   5.822   5.507
 1567SOL    HW2 5601   6.816   5.808   5.523
 1568SOL     OW 5602   6.991   6.922   0.303
 1568SOL    HW1 5603   6.919   6.968   0.252
 1568SOL    HW2 5604   6.955   6.837   0.343
 1569SOL     OW 5605   3.270   6.544   5.651
 1569SOL    HW1 5606   3.238   6.546   5.556
 1569SOL    HW2 5607   3.210   6.602   5.707
 1570SOL     OW 5608   3.030   2.255   1.731
 1570SOL    HW1 5609   2.989   2.293   1.813
 1570SOL    HW2 5610   3.125   2.286   1.723
 1571SOL     OW 5611   0.484   3.587   0.780
 1571SOL    HW1 5612   0.470   3.535   0.696
 1571SOL    HW2 5613   0.540   3.534   0.843
 1572SOL     OW 5614   0.401   5.520   2.978
 1572SOL    HW1 5615   0.351   5.604   3.000
 1572SOL    HW2 5616   0.479   5.511   3.040
 1573SOL     OW 5617   4.519   6.637   0.244
 1573SOL    HW1 5618   4.598   6.693   0.271
 1573SOL    HW2 5619   4.533   6.543   0.273
 1574SOL     OW 5620   5.314   3.102   2.237
 1574SOL    HW1 5621   5.252   3.111   2.315
 1574SOL    HW2 5622   5.309   3.185   2.181
 1575SOL     OW 5623   3.372   1.965   0.595
 1575SOL    HW1 5624   3.275   1.945   0.606
 1575SOL    HW2 5625   3.419   1.885   0.556
 1576SOL     OW 5626   6.162   5.295   3.138
 1576SOL    HW1 5627   6.200   5.306   3.231
 1576SOL    HW2 5628   6.215   5.350   3.074
 1577SOL     OW 5629   1.585   0.383   0.414
 1577SOL    HW1 5630   1.589   0.477   0.448
 1577SOL    HW2 5631   1.529   0.378   0.332
 1578SOL     OW 5632   5.800   5.793   4.411
 1578SOL    HW1 5633   5.851   5.868   4.453
 1578SOL    HW2 5634   5.855   5.709   4.416
 1579SOL     OW 5635   0.433   0.188   2.983
 1579SOL    HW1 5636   0.403   0.115   3.045
 1579SOL    HW2 5637   0.529   0.175   2.959
 1580SOL     OW 5638   3.070   3.866   6.110
 1580SOL    HW1 5639   3.126   3.785   6.092
 1580SOL    HW2 5640   3.112   3.945   6.065
 1581SOL     OW 5641   6.082   2.966   4.502
 1581SOL    HW1 5642   6.038   3.049   4.538
 1581SOL    HW2 5643   6.105   2.905   4.578
 1582SOL     OW 5644   6.186   6.217   4.421
 1582SOL    HW1 5645   6.244   6.180   4.493
 1582SOL    HW2 5646   6.228   6.300   4.383
 1583SOL     OW 5647   2.070   2.399   2.044
 1583SOL    HW1 5648   2.065   2.497   2.023
 1583SOL    HW2 5649   1.977   2.361   2.047
 1584SOL     OW 5650   2.478   0.370   6.354
 1584SOL    HW1 5651   2.523   0.325   6.431
 1584SOL    HW2 5652   2.414   0.439   6.389
 1585SOL     OW 5653   6.026   0.962   5.868
 1585SOL    HW1 5654   6.063   0.950   5.960
 1585SOL    HW2 5655   6.101   0.968   5.802
 1586SOL     OW 5656   3.871   3.303   2.868
 1586SOL    HW1 5657   3.964   3.326   2.838
 1586SOL    HW2 5658   3.806   3.345   2.805
 1587SOL     OW 5659   2.394   6.759   6.088
 1587SOL    HW1 5660   2.465   6.735   6.155
 1587SOL    HW2 5661   2.310   6.710   6.111
 1588SOL     OW 5662   5.940   3.472   0.857
 1588SOL    HW1 5663   5.862   3.415   0.884
 1588SOL    HW2 5664   5.910   3.568   0.853
 1589SOL     OW 5665   4.862   4.891   2.861
 1589SOL    HW1 5666   4.914   4.858   2.940
 1589SOL    HW2 5667   4.839   4.814   2.802
 1590SOL     OW 5668   2.234   6.715   4.993
 1590SOL    HW1 5669   2.219   6.676   5.084
 1590SOL    HW2 5670   2.332   6.726   4.977
 1591SOL     OW 5671   1.749   3.708   0.428
 1591SOL    HW1 5672   1.746   3.613   0.457
 1591SOL    HW2 5673   1.682   3.724   0.355
 1592SOL     OW 5674   3.948   3.953   3.834
 1592SOL    HW1 5675   4.030   3.918   3.880
 1592SOL    HW2 5676   3.931   3.899   3.751
 1593SOL     OW 5677   1.451   4.660   4.146
 1593SOL    HW1 5678   1.506   4.674   4.228
 1593SOL    HW2 5679   1.366   4.712   4.153
 1594SOL     OW 5680   0.890   5.049   2.996
 1594SOL    HW1 5681   0.889   5.063   3.095
 1594SOL    HW2 5682   0.963   5.104   2.955
 1595SOL     OW 5683   0.127   3.760   4.904
 1595SOL    HW1 5684   0.184   3.712   4.837
 1595SOL    HW2 5685   0.030   3.750   4.879
 1596SOL     OW 5686   2.867   5.294   0.108
 1596SOL    HW1 5687   2.917   5.306   0.021
 1596SOL    HW2 5688   2.823   5.380   0.133
 1597SOL     OW 5689   2.268   0.424   0.553
 1597SOL    HW1 5690   2.219   0.438   0.640
 1597SOL    HW2 5691   2.298   0.512   0.518
 1598SOL     OW 5692   0.026   5.666   1.290
 1598SOL    HW1 5693   6.966   5.648   1.343
 1598SOL    HW2 5694   0.052   5.584   1.239
 1599SOL     OW 5695   3.169   5.270   0.433
 1599SOL    HW1 5696   3.082   5.221   0.426
 1599SOL    HW2 5697   3.151   5.366   0.455
 1600SOL     OW 5698   3.159   1.283   5.196
 1600SOL    HW1 5699   3.120   1.239   5.277
 1600SOL    HW2 5700   3.255   1.257   5.187
 1601SOL     OW 5701   1.722   5.258   4.902
 1601SOL    HW1 5702   1.746   5.192   4.831
 1601SOL    HW2 5703   1.626   5.250   4.925
 1602SOL     OW 5704   0.536   3.739   2.239
 1602SOL    HW1 5705   0.522   3.656   2.293
 1602SOL    HW2 5706   0.448   3.773   2.206
 1603SOL     OW 5707   5.606   6.540   0.487
 1603SOL    HW1 5708   5.565   6.472   0.427
 1603SOL    HW2 5709   5.705   6.528   0.490
 1604SOL     OW 5710   0.975   5.803   5.120
 1604SOL    HW1 5711   1.033   5.784   5.041
 1604SOL    HW2 5712   0.991   5.733   5.190
 1605SOL     OW 5713   5.495   5.461   2.299
 1605SOL    HW1 5714   5.483   5.538   2.361
 1605SOL    HW2 5715   5.498   5.376   2.351
 1606SOL     OW 5716   5.941   5.961   4.580
 1606SOL    HW1 5717   5.994   6.003   4.507
 1606SOL    HW2 5718   5.990   5.972   4.667
 1607SOL     OW 5719   4.660   3.243   1.513
 1607SOL    HW1 5720   4.594   3.199   1.452
 1607SOL    HW2 5721   4.703   3.174   1.572
 1608SOL     OW 5722   2.794   0.570   0.636
 1608SOL    HW1 5723   2.715   0.615   0.593
 1608SOL    HW2 5724   2.762   0.509   0.709
 1609SOL     OW 5725   5.318   0.947   5.615
 1609SOL    HW1 5726   5.327   1.035   5.661
 1609SOL    HW2 5727   5.224   0.914   5.624
 1610SOL     OW 5728   4.801   6.565   2.626
 1610SOL    HW1 5729   4.747   6.501   2.681
 1610SOL    HW2 5730   4.844   6.633   2.686
 1611SOL     OW 5731   4.281   3.528   1.450
 1611SOL    HW1 5732   4.330   3.594   1.506
 1611SOL    HW2 5733   4.332   3.510   1.365
 1612SOL     OW 5734   3.281   0.437   4.790
 1612SOL    HW1 5735   3.341   0.513   4.763
 1612SOL    HW2 5736   3.277   0.371   4.715
 1613SOL     OW 5737   1.529   0.741   0.936
 1613SOL    HW1 5738   1.491   0.649   0.926
 1613SOL    HW2 5739   1.610   0.737   0.994
 1614SOL     OW 5740   0.159   2.625   5.202
 1614SOL    HW1 5741   0.214   2.604   5.283
 1614SOL    HW2 5742   0.139   2.723   5.200
 1615SOL     OW 5743   6.405   4.785   5.436
 1615SOL    HW1 5744   6.469   4.728   5.488
 1615SOL    HW2 5745   6.456   4.851   5.381
 1616SOL     OW 5746   2.553   2.219   6.326
 1616SOL    HW1 5747   2.580   2.184   6.236
 1616SOL    HW2 5748   2.472   2.169   6.358
 1617SOL     OW 5749   3.791   0.794   4.034
 1617SOL    HW1 5750   3.824   0.700   4.040
 1617SOL    HW2 5751   3.782   0.832   4.127
 1618SOL     OW 5752   5.533   2.809   2.004
 1618SOL    HW1 5753   5.614   2.784   1.951
 1618SOL    HW2 5754   5.454   2.816   1.943
 1619SOL     OW 5755   1.723   2.920   4.713
 1619SOL    HW1 5756   1.679   2.997   4.759
 1619SOL    HW2 5757   1.815   2.945   4.686
 1620SOL     OW 5758   3.577   6.125   1.886
 1620SOL    HW1 5759   3.619   6.052   1.832
 1620SOL    HW2 5760   3.584   6.211   1.836
 1621SOL     OW 5761   1.960   1.653   2.044
 1621SOL    HW1 5762   1.869   1.657   2.003
 1621SOL    HW2 5763   1.996   1.746   2.054
 1622SOL     OW 5764   2.275   2.362   5.028
 1622SOL    HW1 5765   2.188   2.366   5.078
 1622SOL    HW2 5766   2.268   2.420   4.946
 1623SOL     OW 5767   2.098   2.169   4.703
 1623SOL    HW1 5768   2.049   2.239   4.651
 1623SOL    HW2 5769   2.191   2.160   4.668
 1624SOL     OW 5770   2.367   0.818   0.732
 1624SOL    HW1 5771   2.414   0.767   0.805
 1624SOL    HW2 5772   2.358   0.760   0.652
 1625SOL     OW 5773   0.906   6.449   1.069
 1625SOL    HW1 5774   0.947   6.534   1.101
 1625SOL    HW2 5775   0.808   6.448   1.091
 1626SOL     OW 5776   2.249   3.044   6.052
 1626SOL    HW1 5777   2.301   2.972   6.096
 1626SOL    HW2 5778   2.175   3.004   5.998
 1627SOL     OW 5779   4.853   3.732   3.477
 1627SOL    HW1 5780   4.791   3.758   3.403
 1627SOL    HW2 5781   4.858   3.806   3.544
 1628SOL     OW 5782   2.950   3.235   7.019
 1628SOL    HW1 5783   2.930   3.269   0.088
 1628SOL    HW2 5784   3.047   3.247   6.999
 1629SOL     OW 5785   3.095   2.165   2.838
 1629SOL    HW1 5786   3.137   2.109   2.766
 1629SOL    HW2 5787   3.163   2.181   2.910
 1630SOL     OW 5788   5.933   4.956   4.311
 1630SOL    HW1 5789   5.998   4.896   4.265
 1630SOL    HW2 5790   5.979   5.005   4.385
 1631SOL     OW 5791   0.870   0.055   6.385
 1631SOL    HW1 5792   0.868   0.140   6.333
 1631SOL    HW2 5793   0.828   7.004   6.331
 1632SOL     OW 5794   4.806   6.753   0.007
 1632SOL    HW1 5795   4.804   6.661   6.991
 1632SOL    HW2 5796   4.793   6.748   0.107
 1633SOL     OW 5797   6.130   3.566   3.376
 1633SOL    HW1 5798   6.173   3.623   3.307
 1633SOL    HW2 5799   6.197   3.538   3.444
 1634SOL     OW 5800   3.903   1.039   0.963
 1634SOL    HW1 5801   3.949   1.101   1.027
 1634SOL    HW2 5802   3.829   1.088   0.917
 1635SOL     OW 5803   1.360   4.760   3.869
 1635SOL    HW1 5804   1.446   4.716   3.895
 1635SOL    HW2 5805   1.338   4.832   3.935
 1636SOL     OW 5806   2.597   6.424   0.071
 1636SOL    HW1 5807   2.590   6.390   0.165
 1636SOL    HW2 5808   2.693   6.440   0.048
 1637SOL     OW 5809   1.037   2.705   2.596
 1637SOL    HW1 5810   1.098   2.780   2.622
 1637SOL    HW2 5811   1.011   2.653   2.677
 1638SOL     OW 5812   1.455   2.383   5.696
 1638SOL    HW1 5813   1.376   2.427   5.740
 1638SOL    HW2 5814   1.535   2.394   5.755
 1639SOL     OW 5815   4.059   4.750   2.293
 1639SOL    HW1 5816   3.972   4.778   2.333
 1639SOL    HW2 5817   4.134   4.802   2.335
 1640SOL     OW 5818   5.243   6.964   1.167
 1640SOL    HW1 5819   5.286   0.014   1.222
 1640SOL    HW2 5820   5.170   7.004   1.112
 1641SOL     OW 5821   6.794   2.586   4.956
 1641SOL    HW1 5822   6.752   2.495   4.956
 1641SOL    HW2 5823   6.893   2.577   4.965
 1642SOL     OW 5824   0.972   2.436   1.822
 1642SOL    HW1 5825   1.005   2.479   1.906
 1642SOL    HW2 5826   0.942   2.506   1.758
 1643SOL     OW 5827   3.534   0.677   5.694
 1643SOL    HW1 5828   3.571   0.628   5.772
 1643SOL    HW2 5829   3.574   0.769   5.690
 1644SOL     OW 5830   4.079   0.941   0.427
 1644SOL    HW1 5831   4.093   1.040   0.433
 1644SOL    HW2 5832   4.164   0.897   0.398
 1645SOL     OW 5833   2.182   6.036   6.523
 1645SOL    HW1 5834   2.163   5.980   6.442
 1645SOL    HW2 5835   2.129   6.120   6.519
 1646SOL     OW 5836   2.130   3.948   0.371
 1646SOL    HW1 5837   2.129   3.968   0.273
 1646SOL    HW2 5838   2.037   3.930   0.403
 1647SOL     OW 5839   5.607   3.103   2.646
 1647SOL    HW1 5840   5.519   3.062   2.671
 1647SOL    HW2 5841   5.598   3.202   2.640
 1648SOL     OW 5842   3.503   0.060   2.738
 1648SOL    HW1 5843   3.411   0.098   2.732
 1648SOL    HW2 5844   3.499   6.982   2.734
 1649SOL     OW 5845   2.492   0.322   3.448
 1649SOL    HW1 5846   2.488   0.267   3.531
 1649SOL    HW2 5847   2.575   0.299   3.396
 1650SOL     OW 5848   3.150   6.872   4.077
 1650SOL    HW1 5849   3.053   6.891   4.061
 1650SOL    HW2 5850   3.204   6.954   4.057
 1651SOL     OW 5851   1.183   6.978   1.971
 1651SOL    HW1 5852   1.216   6.984   2.065
 1651SOL    HW2 5853   1.083   6.982   1.970
 1652SOL     OW 5854   3.254   3.287   1.858
 1652SOL    HW1 5855   3.341   3.323   1.893
 1652SOL    HW2 5856   3.187   3.361   1.853
 1653SOL     OW 5857   1.144   5.014   1.338
 1653SOL    HW1 5858   1.205   5.092   1.323
 1653SOL    HW2 5859   1.098   4.991   1.252
 1654SOL     OW 5860   0.385   2.127   3.928
 1654SOL    HW1 5861   0.406   2.224   3.936
 1654SOL    HW2 5862   0.420   2.079   4.009
 1655SOL     OW 5863   4.506   4.232   5.524
 1655SOL    HW1 5864   4.483   4.187   5.611
 1655SOL    HW2 5865   4.427   4.227   5.463
 1656SOL     OW 5866   0.373   4.030   2.094
 1656SOL    HW1 5867   0.346   3.956   2.156
 1656SOL    HW2 5868   0.293   4.064   2.046
 1657SOL     OW 5869   1.077   0.640   5.211
 1657SOL    HW1 5870   1.067   0.739   5.200
 1657SOL    HW2 5871   0.987   0.598   5.221
 1658SOL     OW 5872   5.979   6.429   2.850
 1658SOL    HW1 5873   5.932   6.481   2.922
 1658SOL    HW2 5874   6.076   6.454   2.849
 1659SOL     OW 5875   5.319   2.220   6.075
 1659SOL    HW1 5876   5.309   2.304   6.022
 1659SOL    HW2 5877   5.329   2.242   6.172
 1660SOL     OW 5878   2.298   6.426   3.239
 1660SOL    HW1 5879   2.354   6.451   3.317
 1660SOL    HW2 5880   2.335   6.344   3.196
 1661SOL     OW 5881   3.017   0.356   3.025
 1661SOL    HW1 5882   2.973   0.304   2.951
 1661SOL    HW2 5883   3.090   0.412   2.986
 1662SOL     OW 5884   6.460   0.903   3.059
 1662SOL    HW1 5885   6.487   0.835   2.990
 1662SOL    HW2 5886   6.537   0.962   3.080
 1663SOL     OW 5887   1.873   0.537   3.830
 1663SOL    HW1 5888   1.871   0.558   3.928
 1663SOL    HW2 5889   1.960   0.495   3.807
 1664SOL     OW 5890   2.063   5.471   4.538
 1664SOL    HW1 5891   2.113   5.496   4.455
 1664SOL    HW2 5892   1.998   5.543   4.561
 1665SOL     OW 5893   0.410   1.081   3.524
 1665SOL    HW1 5894   0.421   1.059   3.621
 1665SOL    HW2 5895   0.498   1.078   3.479
 1666SOL     OW 5896   5.379   2.846   6.140
 1666SOL    HW1 5897   5.470   2.827   6.103
 1666SOL    HW2 5898   5.313   2.783   6.098
 1667SOL     OW 5899   6.857   0.762   0.579
 1667SOL    HW1 5900   6.769   0.756   0.531
 1667SOL    HW2 5901   6.925   0.708   0.530
 1668SOL     OW 5902   1.571   0.579   4.767
 1668SOL    HW1 5903   1.581   0.489   4.810
 1668SOL    HW2 5904   1.573   0.650   4.837
 1669SOL     OW 5905   5.554   5.836   6.223
 1669SOL    HW1 5906   5.572   5.804   6.129
 1669SOL    HW2 5907   5.640   5.839   6.274
 1670SOL     OW 5908   6.624   3.201   6.611
 1670SOL    HW1 5909   6.547   3.195   6.548
 1670SOL    HW2 5910   6.708   3.219   6.560
 1671SOL     OW 5911   5.437   5.283   0.110
 1671SOL    HW1 5912   5.358   5.270   0.171
 1671SOL    HW2 5913   5.405   5.318   0.022
 1672SOL     OW 5914   1.661   5.162   2.569
 1672SOL    HW1 5915   1.743   5.171   2.627
 1672SOL    HW2 5916   1.580   5.163   2.627
 1673SOL     OW 5917   6.241   2.887   3.613
 1673SOL    HW1 5918   6.311   2.875   3.543
 1673SOL    HW2 5919   6.259   2.825   3.690
 1674SOL     OW 5920   2.345   5.826   0.109
 1674SOL    HW1 5921   2.295   5.774   0.179
 1674SOL    HW2 5922   2.289   5.904   0.080
 1675SOL     OW 5923   4.373   1.976   0.205
 1675SOL    HW1 5924   4.443   1.984   0.275
 1675SOL    HW2 5925   4.285   1.954   0.248
 1676SOL     OW 5926   2.888   1.225   4.150
 1676SOL    HW1 5927   2.933   1.185   4.070
 1676SOL    HW2 5928   2.898   1.164   4.228
 1677SOL     OW 5929   5.972   0.189   5.688
 1677SOL    HW1 5930   5.886   0.212   5.642
 1677SOL    HW2 5931   6.013   0.272   5.725
 1678SOL     OW 5932   5.310   6.871   1.547
 1678SOL    HW1 5933   5.320   6.956   1.494
 1678SOL    HW2 5934   5.399   6.829   1.560
 1679SOL     OW 5935   5.561   4.431   0.356
 1679SOL    HW1 5936   5.603   4.520   0.376
 1679SOL    HW2 5937   5.472   4.446   0.312
 1680SOL     OW 5938   0.628   2.310   5.493
 1680SOL    HW1 5939   0.612   2.400   5.451
 1680SOL    HW2 5940   0.721   2.279   5.470
 1681SOL     OW 5941   4.432   5.083   0.261
 1681SOL    HW1 5942   4.416   5.110   0.166
 1681SOL    HW2 5943   4.502   5.012   0.264
 1682SOL     OW 5944   6.978   2.541   5.563
 1682SOL    HW1 5945   6.887   2.572   5.537
 1682SOL    HW2 5946   6.976   2.444   5.583
 1683SOL     OW 5947   5.251   5.596   5.615
 1683SOL    HW1 5948   5.324   5.650   5.574
 1683SOL    HW2 5949   5.269   5.584   5.713
 1684SOL     OW 5950   0.484   6.690   4.363
 1684SOL    HW1 5951   0.390   6.719   4.382
 1684SOL    HW2 5952   0.512   6.724   4.274
 1685SOL     OW 5953   0.919   1.835   0.534
 1685SOL    HW1 5954   0.892   1.913   0.589
 1685SOL    HW2 5955   1.010   1.804   0.562
 1686SOL     OW 5956   2.080   6.534   6.745
 1686SOL    HW1 5957   2.004   6.515   6.683
 1686SOL    HW2 5958   2.163   6.553   6.692
 1687SOL     OW 5959   3.108   6.202   1.827
 1687SOL    HW1 5960   3.052   6.121   1.842
 1687SOL    HW2 5961   3.156   6.194   1.739
 1688SOL     OW 5962   0.518   1.386   3.832
 1688SOL    HW1 5963   0.476   1.445   3.901
 1688SOL    HW2 5964   0.478   1.405   3.743
 1689SOL     OW 5965   3.390   1.800   1.445
 1689SOL    HW1 5966   3.344   1.887   1.461
 1689SOL    HW2 5967   3.455   1.810   1.369
 1690SOL     OW 5968   0.767   2.418   0.301
 1690SOL    HW1 5969   0.691   2.356   0.321
 1690SOL    HW2 5970   0.738   2.513   0.312
 1691SOL     OW 5971   4.282   4.635   2.858
 1691SOL    HW1 5972   4.322   4.544   2.844
 1691SOL    HW2 5973   4.298   4.664   2.952
 1692SOL     OW 5974   1.043   0.399   3.506
 1692SOL    HW1 5975   1.069   0.311   3.467
 1692SOL    HW2 5976   1.003   0.385   3.597
 1693SOL     OW 5977   3.782   1.727   3.566
 1693SOL    HW1 5978   3.719   1.649   3.575
 1693SOL    HW2 5979   3.732   1.807   3.533
 1694SOL     OW 5980   6.069   5.640   5.303
 1694SOL    HW1 5981   6.129   5.715   5.274
 1694SOL    HW2 5982   6.052   5.579   5.225
 1695SOL     OW 5983   3.652   1.119   6.192
 1695SOL    HW1 5984   3.717   1.088   6.261
 1695SOL    HW2 5985   3.651   1.054   6.115
 1696SOL     OW 5986   3.258   5.718   1.870
 1696SOL    HW1 5987   3.343   5.666   1.864
 1696SOL    HW2 5988   3.278   5.811   1.901
 1697SOL     OW 5989   1.129   1.768   2.021
 1697SOL    HW1 5990   1.064   1.736   1.952
 1697SOL    HW2 5991   1.102   1.731   2.110
 1698SOL     OW 5992   4.710   2.036   0.724
 1698SOL    HW1 5993   4.711   2.043   0.624
 1698SOL    HW2 5994   4.802   2.053   0.760
 1699SOL     OW 5995   2.736   4.705   0.504
 1699SOL    HW1 5996   2.659   4.765   0.481
 1699SOL    HW2 5997   2.797   4.752   0.567
 1700SOL     OW 5998   5.863   2.374   4.358
 1700SOL    HW1 5999   5.783   2.402   4.305
 1700SOL    HW2 6000   5.876   2.438   4.434
 1701SOL     OW 6001   6.323   3.050   5.132
 1701SOL    HW1 6002   6.289   3.073   5.041
 1701SOL    HW2 6003   6.314   3.128   5.193
 1702SOL     OW 6004   4.585   2.747   1.774
 1702SOL    HW1 6005   4.524   2.750   1.695
 1702SOL    HW2 6006   4.627   2.837   1.788
 1703SOL     OW 6007   1.826   3.351   0.810
 1703SOL    HW1 6008   1.887   3.417   0.853
 1703SOL    HW2 6009   1.879   3.280   0.764
 1704SOL     OW 6010   0.313   1.452   2.560
 1704SOL    HW1 6011   0.239   1.428   2.622
 1704SOL    HW2 6012   0.400   1.422   2.600
 1705SOL     OW 6013   3.731   3.007   2.611
 1705SOL    HW1 6014   3.727   3.107   2.612
 1705SOL    HW2 6015   3.765   2.976   2.522
 1706SOL     OW 6016   2.117   0.681   6.319
 1706SOL    HW1 6017   2.078   0.703   6.230
 1706SOL    HW2 6018   2.046   0.644   6.379
 1707SOL     OW 6019   5.216   1.460   2.764
 1707SOL    HW1 6020   5.188   1.390   2.830
 1707SOL    HW2 6021   5.269   1.530   2.811
 1708SOL     OW 6022   0.140   4.754   1.713
 1708SOL    HW1 6023   0.078   4.681   1.741
 1708SOL    HW2 6024   0.121   4.780   1.619
 1709SOL     OW 6025   3.011   5.356   4.647
 1709SOL    HW1 6026   3.089   5.401   4.605
 1709SOL    HW2 6027   3.041   5.272   4.693
 1710SOL     OW 6028   6.734   5.207   4.572
 1710SOL    HW1 6029   6.739   5.142   4.495
 1710SOL    HW2 6030   6.818   5.202   4.625
 1711SOL     OW 6031   1.331   4.453   5.634
 1711SOL    HW1 6032   1.233   4.457   5.657
 1711SOL    HW2 6033   1.342   4.428   5.538
 1712SOL     OW 6034   2.229   5.119   1.444
 1712SOL    HW1 6035   2.306   5.166   1.401
 1712SOL    HW2 6036   2.203   5.167   1.528
 1713SOL     OW 6037   2.220   3.387   0.779
 1713SOL    HW1 6038   2.151   3.315   0.786
 1713SOL    HW2 6039   2.277   3.387   0.861
 1714SOL     OW 6040   4.227   1.166   1.523
 1714SOL    HW1 6041   4.227   1.154   1.623
 1714SOL    HW2 6042   4.200   1.080   1.479
 1715SOL     OW 6043   0.477   3.039   3.919
 1715SOL    HW1 6044   0.402   3.034   3.853
 1715SOL    HW2 6045   0.549   2.975   3.892
 1716SOL     OW 6046   0.247   0.376   6.780
 1716SOL    HW1 6047   0.347   0.371   6.787
 1716SOL    HW2 6048   0.222   0.435   6.704
 1717SOL     OW 6049   3.092   0.501   6.550
 1717SOL    HW1 6050   3.026   0.454   6.609
 1717SOL    HW2 6051   3.044   0.548   6.476
 1718SOL     OW 6052   1.764   4.222   5.388
 1718SOL    HW1 6053   1.753   4.195   5.483
 1718SOL    HW2 6054   1.713   4.159   5.329
 1719SOL     OW 6055   1.565   3.321   0.909
 1719SOL    HW1 6056   1.553   3.373   0.993
 1719SOL    HW2 6057   1.659   3.333   0.875
 1720SOL     OW 6058   0.163   2.020   2.178
 1720SOL    HW1 6059   0.151   1.928   2.142
 1720SOL    HW2 6060   0.095   2.082   2.138
 1721SOL     OW 6061   1.095   6.246   4.061
 1721SOL    HW1 6062   1.082   6.335   4.105
 1721SOL    HW2 6063   1.068   6.173   4.124
 1722SOL     OW 6064   5.894   0.194   2.071
 1722SOL    HW1 6065   5.810   0.236   2.103
 1722SOL    HW2 6066   5.906   0.213   1.974
 1723SOL     OW 6067   5.407   1.014   2.820
 1723SOL    HW1 6068   5.489   1.026   2.765
 1723SOL    HW2 6069   5.424   1.049   2.912
 1724SOL     OW 6070   4.926   0.284   0.359
 1724SOL    HW1 6071   4.924   0.192   0.320
 1724SOL    HW2 6072   4.888   0.349   0.293
 1725SOL     OW 6073   3.480   5.569   1.846
 1725SOL    HW1 6074   3.540   5.641   1.811
 1725SOL    HW2 6075   3.523   5.527   1.926
 1726SOL     OW 6076   6.926   3.904   4.471
 1726SOL    HW1 6077   6.898   3.809   4.467
 1726SOL    HW2 6078   6.853   3.959   4.511
 1727SOL     OW 6079   2.652   3.495   5.321
 1727SOL    HW1 6080   2.578   3.553   5.355
 1727SOL    HW2 6081   2.734   3.551   5.307
 1728SOL     OW 6082   4.287   5.381   3.327
 1728SOL    HW1 6083   4.275   5.452   3.396
 1728SOL    HW2 6084   4.258   5.293   3.364
 1729SOL     OW 6085   0.781   3.461   2.397
 1729SOL    HW1 6086   0.843   3.384   2.412
 1729SOL    HW2 6087   0.818   3.519   2.324
 1730SOL     OW 6088   5.162   2.060   4.769
 1730SOL    HW1 6089   5.128   2.074   4.676
 1730SOL    HW2 6090   5.198   1.967   4.778
 1731SOL     OW 6091   0.449   7.008   0.564
 1731SOL    HW1 6092   0.484   7.010   0.470
 1731SOL    HW2 6093   0.355   0.018   0.564
 1732SOL     OW 6094   0.809   4.595   7.000
 1732SOL    HW1 6095   0.712   4.592   6.973
 1732SOL    HW2 6096   0.834   4.510   0.024
 1733SOL     OW 6097   1.130   4.253   6.898
 1733SOL    HW1 6098   1.052   4.291   6.848
 1733SOL    HW2 6099   1.174   4.182   6.843
 1734SOL     OW 6100   5.212   3.926   1.244
 1734SOL    HW1 6101   5.215   4.024   1.225
 1734SOL    HW2 6102   5.161   3.910   1.329
 1735SOL     OW 6103   4.995   5.657   0.058
 1735SOL    HW1 6104   4.917   5.719   0.053
 1735SOL    HW2 6105   4.993   5.608   0.146
 1736SOL     OW 6106   2.971   3.255   0.315
 1736SOL    HW1 6107   3.058   3.244   0.364
 1736SOL    HW2 6108   2.950   3.352   0.307
 1737SOL     OW 6109   0.610   5.635   3.403
 1737SOL    HW1 6110   0.623   5.700   3.328
 1737SOL    HW2 6111   0.698   5.592   3.425
 1738SOL     OW 6112   0.899   1.430   2.040
 1738SOL    HW1 6113   0.824   1.387   1.990
 1738SOL    HW2 6114   0.862   1.485   2.116
 1739SOL     OW 6115   4.206   2.318   6.281
 1739SOL    HW1 6116   4.198   2.416   6.263
 1739SOL    HW2 6117   4.246   2.303   6.371
 1740SOL     OW 6118   0.616   2.034   5.850
 1740SOL    HW1 6119   0.611   1.978   5.767
 1740SOL    HW2 6120   0.665   1.984   5.921
 1741SOL     OW 6121   1.814   1.073   2.336
 1741SOL    HW1 6122   1.877   1.121   2.275
 1741SOL    HW2 6123   1.799   0.980   2.302
 1742SOL     OW 6124   5.843   6.174   4.193
 1742SOL    HW1 6125   5.903   6.189   4.115
 1742SOL    HW2 6126   5.759   6.130   4.162
 1743SOL     OW 6127   4.715   1.524   0.167
 1743SOL    HW1 6128   4.796   1.503   0.112
 1743SOL    HW2 6129   4.687   1.443   0.218
 1744SOL     OW 6130   3.569   6.231   1.452
 1744SOL    HW1 6131   3.479   6.189   1.452
 1744SOL    HW2 6132   3.565   6.319   1.405
 1745SOL     OW 6133   0.129   3.064   5.047
 1745SOL    HW1 6134   0.205   3.127   5.059
 1745SOL    HW2 6135   0.123   3.036   4.951
 1746SOL     OW 6136   2.394   1.135   6.017
 1746SOL    HW1 6137   2.399   1.184   5.930
 1746SOL    HW2 6138   2.474   1.076   6.027
 1747SOL     OW 6139   4.977   6.797   5.400
 1747SOL    HW1 6140   4.927   6.734   5.340
 1747SOL    HW2 6141   4.993   6.883   5.350
 1748SOL     OW 6142   5.634   1.078   1.496
 1748SOL    HW1 6143   5.615   1.122   1.583
 1748SOL    HW2 6144   5.703   1.006   1.509
 1749SOL     OW 6145   5.268   0.153   6.102
 1749SOL    HW1 6146   5.247   0.198   6.015
 1749SOL    HW2 6147   5.308   0.220   6.165
 1750SOL     OW 6148   4.130   0.499   4.081
 1750SOL    HW1 6149   4.213   0.527   4.032
 1750SOL    HW2 6150   4.100   0.410   4.048
 1751SOL     OW 6151   1.835   5.670   4.587
 1751SOL    HW1 6152   1.876   5.710   4.669
 1751SOL    HW2 6153   1.774   5.595   4.613
 1752SOL     OW 6154   6.827   2.004   6.390
 1752SOL    HW1 6155   6.865   2.029   6.301
 1752SOL    HW2 6156   6.902   1.984   6.453
 1753SOL     OW 6157   2.480   6.514   2.305
 1753SOL    HW1 6158   2.465   6.589   2.369
 1753SOL    HW2 6159   2.415   6.521   2.229
 1754SOL     OW 6160   3.042   3.226   2.121
 1754SOL    HW1 6161   2.985   3.191   2.195
 1754SOL    HW2 6162   3.009   3.316   2.094
 1755SOL     OW 6163   6.398   4.461   0.230
 1755SOL    HW1 6164   6.416   4.416   0.143
 1755SOL    HW2 6165   6.441   4.409   0.304
 1756SOL     OW 6166   5.767   5.279   4.456
 1756SOL    HW1 6167   5.684   5.259   4.404
 1756SOL    HW2 6168   5.746   5.344   4.529
 1757SOL     OW 6169   3.694   0.350   5.438
 1757SOL    HW1 6170   3.626   0.282   5.409
 1757SOL    HW2 6171   3.729   0.326   5.529
 1758SOL     OW 6172   3.326   1.384   3.191
 1758SOL    HW1 6173   3.315   1.464   3.249
 1758SOL    HW2 6174   3.236   1.353   3.160
 1759SOL     OW 6175   0.149   5.702   6.231
 1759SOL    HW1 6176   0.238   5.731   6.195
 1759SOL    HW2 6177   0.163   5.643   6.311
 1760SOL     OW 6178   4.924   6.608   2.186
 1760SOL    HW1 6179   4.978   6.640   2.109
 1760SOL    HW2 6180   4.840   6.565   2.153
 1761SOL     OW 6181   5.483   3.056   1.564
 1761SOL    HW1 6182   5.571   3.014   1.540
 1761SOL    HW2 6183   5.409   2.995   1.538
 1762SOL     OW 6184   5.557   3.139   0.524
 1762SOL    HW1 6185   5.464   3.171   0.546
 1762SOL    HW2 6186   5.617   3.217   0.513
 1763SOL     OW 6187   2.275   2.915   4.026
 1763SOL    HW1 6188   2.258   3.009   4.053
 1763SOL    HW2 6189   2.367   2.888   4.053
 1764SOL     OW 6190   6.547   3.399   3.155
 1764SOL    HW1 6191   6.595   3.335   3.214
 1764SOL    HW2 6192   6.613   3.451   3.100
 1765SOL     OW 6193   2.075   3.496   6.131
 1765SOL    HW1 6194   2.153   3.506   6.070
 1765SOL    HW2 6195   2.063   3.400   6.155
 1766SOL     OW 6196   6.193   3.620   5.818
 1766SOL    HW1 6197   6.265   3.674   5.774
 1766SOL    HW2 6198   6.177   3.537   5.765
 1767SOL     OW 6199   6.598   4.872   1.140
 1767SOL    HW1 6200   6.526   4.845   1.076
 1767SOL    HW2 6201   6.569   4.955   1.188
 1768SOL     OW 6202   6.226   6.726   3.239
 1768SOL    HW1 6203   6.248   6.822   3.222
 1768SOL    HW2 6204   6.184   6.717   3.329
 1769SOL     OW 6205   4.838   0.727   3.106
 1769SOL    HW1 6206   4.764   0.794   3.097
 1769SOL    HW2 6207   4.799   0.636   3.118
 1770SOL     OW 6208   3.580   5.963   5.541
 1770SOL    HW1 6209   3.501   5.940   5.597
 1770SOL    HW2 6210   3.626   6.044   5.580
 1771SOL     OW 6211   4.663   6.743   6.549
 1771SOL    HW1 6212   4.743   6.719   6.604
 1771SOL    HW2 6213   4.591   6.778   6.609
 1772SOL     OW 6214   2.657   6.388   2.541
 1772SOL    HW1 6215   2.569   6.340   2.537
 1772SOL    HW2 6216   2.701   6.369   2.629
 1773SOL     OW 6217   1.085   0.349   0.745
 1773SOL    HW1 6218   1.108   0.408   0.822
 1773SOL    HW2 6219   1.017   0.395   0.687
 1774SOL     OW 6220   2.858   4.860   2.799
 1774SOL    HW1 6221   2.922   4.900   2.864
 1774SOL    HW2 6222   2.839   4.765   2.825
 1775SOL     OW 6223   1.057   4.910   1.096
 1775SOL    HW1 6224   1.117   4.835   1.122
 1775SOL    HW2 6225   1.053   4.916   0.996
 1776SOL     OW 6226   3.003   6.221   5.354
 1776SOL    HW1 6227   3.004   6.131   5.309
 1776SOL    HW2 6228   2.985   6.209   5.451
 1777SOL     OW 6229   3.239   6.374   0.305
 1777SOL    HW1 6230   3.234   6.368   0.405
 1777SOL    HW2 6231   3.325   6.334   0.274
 1778SOL     OW 6232   6.781   3.071   5.774
 1778SOL    HW1 6233   6.793   3.091   5.677
 1778SOL    HW2 6234   6.711   3.131   5.812
 1779SOL     OW 6235   3.674   0.023   5.497
 1779SOL    HW1 6236   3.635   6.987   5.569
 1779SOL    HW2 6237   3.602   0.084   5.461
 1780SOL     OW 6238   3.206   3.264   6.933
 1780SOL    HW1 6239   3.301   3.291   6.945
 1780SOL    HW2 6240   3.198   3.165   6.946
 1781SOL     OW 6241   2.925   5.645   3.712
 1781SOL    HW1 6242   3.024   5.650   3.727
 1781SOL    HW2 6243   2.905   5.664   3.616
 1782SOL     OW 6244   3.296   1.707   4.345
 1782SOL    HW1 6245   3.285   1.800   4.309
 1782SOL    HW2 6246   3.250   1.699   4.433
 1783SOL     OW 6247   2.465   6.214   6.967
 1783SOL    HW1 6248   2.384   6.161   6.988
 1783SOL    HW2 6249   2.485   6.277   0.020
 1784SOL     OW 6250   2.557   0.127   6.143
 1784SOL    HW1 6251   2.496   0.203   6.169
 1784SOL    HW2 6252   2.593   0.143   6.051
 1785SOL     OW 6253   6.753   5.441   1.971
 1785SOL    HW1 6254   6.761   5.346   2.001
 1785SOL    HW2 6255   6.672   5.451   1.913
 1786SOL     OW 6256   3.938   2.639   1.649
 1786SOL    HW1 6257   3.908   2.707   1.717
 1786SOL    HW2 6258   4.036   2.624   1.660
 1787SOL     OW 6259   3.596   0.813   5.228
 1787SOL    HW1 6260   3.548   0.726   5.240
 1787SOL    HW2 6261   3.537   0.888   5.259
 1788SOL     OW 6262   1.294   4.835   5.463
 1788SOL    HW1 6263   1.323   4.930   5.471
 1788SOL    HW2 6264   1.372   4.775   5.482
 1789SOL     OW 6265   5.796   6.838   6.706
 1789SOL    HW1 6266   5.811   6.756   6.761
 1789SOL    HW2 6267   5.878   6.895   6.708
 1790SOL     OW 6268   2.637   6.955   2.657
 1790SOL    HW1 6269   2.648   6.890   2.731
 1790SOL    HW2 6270   2.560   7.017   2.678
 1791SOL     OW 6271   0.497   6.485   2.849
 1791SOL    HW1 6272   0.488   6.386   2.846
 1791SOL    HW2 6273   0.568   6.514   2.785
 1792SOL     OW 6274   1.026   3.622   4.201
 1792SOL    HW1 6275   1.004   3.583   4.111
 1792SOL    HW2 6276   1.118   3.662   4.199
 1793SOL     OW 6277   0.308   0.545   3.717
 1793SOL    HW1 6278   0.378   0.528   3.649
 1793SOL    HW2 6279   0.236   0.476   3.709
 1794SOL     OW 6280   4.595   5.973   6.365
 1794SOL    HW1 6281   4.505   5.941   6.397
 1794SOL    HW2 6282   4.655   5.894   6.352
 1795SOL     OW 6283   0.593   3.095   6.740
 1795SOL    HW1 6284   0.647   3.167   6.696
 1795SOL    HW2 6285   0.536   3.135   6.812
 1796SOL     OW 6286   3.659   0.543   5.944
 1796SOL    HW1 6287   3.615   0.618   5.994
 1796SOL    HW2 6288   3.753   0.533   5.976
 1797SOL     OW 6289   0.236   1.437   2.033
 1797SOL    HW1 6290   0.317   1.389   1.999
 1797SOL    HW2 6291   0.190   1.483   1.956
 1798SOL     OW 6292   5.618   1.657   3.088
 1798SOL    HW1 6293   5.547   1.615   3.032
 1798SOL    HW2 6294   5.693   1.688   3.030
 1799SOL     OW 6295   2.327   1.561   0.295
 1799SOL    HW1 6296   2.308   1.484   0.355
 1799SOL    HW2 6297   2.246   1.580   0.238
 1800SOL     OW 6298   3.137   4.963   2.529
 1800SOL    HW1 6299   3.207   4.905   2.489
 1800SOL    HW2 6300   3.127   5.047   2.475
 1801SOL     OW 6301   5.669   6.736   0.679
 1801SOL    HW1 6302   5.758   6.696   0.704
 1801SOL    HW2 6303   5.631   6.687   0.601
 1802SOL     OW 6304   6.054   4.953   3.733
 1802SOL    HW1 6305   6.143   4.930   3.692
 1802SOL    HW2 6306   5.991   4.982   3.661
 1803SOL     OW 6307   5.735   5.097   1.125
 1803SOL    HW1 6308   5.817   5.136   1.167
 1803SOL    HW2 6309   5.728   5.001   1.149
 1804SOL     OW 6310   3.090   3.455   6.105
 1804SOL    HW1 6311   3.030   3.465   6.185
 1804SOL    HW2 6312   3.058   3.378   6.050
 1805SOL     OW 6313   5.845   3.130   6.737
 1805SOL    HW1 6314   5.929   3.083   6.709
 1805SOL    HW2 6315   5.868   3.202   6.802
 1806SOL     OW 6316   6.639   0.480   0.592
 1806SOL    HW1 6317   6.652   0.426   0.509
 1806SOL    HW2 6318   6.585   0.562   0.570
 1807SOL     OW 6319   6.519   2.104   5.844
 1807SOL    HW1 6320   6.531   2.108   5.745
 1807SOL    HW2 6321   6.445   2.040   5.866
 1808SOL     OW 6322   2.507   5.011   4.320
 1808SOL    HW1 6323   2.586   5.059   4.282
 1808SOL    HW2 6324   2.522   4.991   4.416
 1809SOL     OW 6325   3.751   0.336   6.335
 1809SOL    HW1 6326   3.842   0.305   6.308
 1809SOL    HW2 6327   3.739   0.432   6.307
 1810SOL     OW 6328   3.082   6.637   2.580
 1810SOL    HW1 6329   3.130   6.650   2.667
 1810SOL    HW2 6330   2.984   6.630   2.597
 1811SOL     OW 6331   5.836   5.708   2.971
 1811SOL    HW1 6332   5.755   5.705   3.029
 1811SOL    HW2 6333   5.832   5.790   2.913
 1812SOL     OW 6334   4.451   5.165   5.880
 1812SOL    HW1 6335   4.432   5.086   5.939
 1812SOL    HW2 6336   4.383   5.236   5.897
 1813SOL     OW 6337   6.686   5.527   5.368
 1813SOL    HW1 6338   6.592   5.543   5.339
 1813SOL    HW2 6339   6.725   5.612   5.404
 1814SOL     OW 6340   4.845   6.279   2.233
 1814SOL    HW1 6341   4.910   6.324   2.294
 1814SOL    HW2 6342   4.850   6.180   2.245
 1815SOL     OW 6343   0.196   1.410   3.035
 1815SOL    HW1 6344   0.176   1.315   3.055
 1815SOL    HW2 6345   0.294   1.427   3.047
 1816SOL     OW 6346   1.258   5.069   0.844
 1816SOL    HW1 6347   1.174   5.014   0.848
 1816SOL    HW2 6348   1.269   5.105   0.752
 1817SOL     OW 6349   1.358   5.555   1.906
 1817SOL    HW1 6350   1.377   5.577   1.810
 1817SOL    HW2 6351   1.443   5.553   1.957
 1818SOL     OW 6352   1.052   1.541   3.599
 1818SOL    HW1 6353   1.146   1.563   3.575
 1818SOL    HW2 6354   1.047   1.445   3.628
 1819SOL     OW 6355   0.828   4.427   2.408
 1819SOL    HW1 6356   0.734   4.404   2.381
 1819SOL    HW2 6357   0.890   4.402   2.334
 1820SOL     OW 6358   5.941   0.021   2.625
 1820SOL    HW1 6359   6.013   0.089   2.638
 1820SOL    HW2 6360   5.879   0.052   2.553
 1821SOL     OW 6361   1.804   1.841   3.591
 1821SOL    HW1 6362   1.820   1.903   3.667
 1821SOL    HW2 6363   1.825   1.747   3.619
 1822SOL     OW 6364   3.176   3.707   2.262
 1822SOL    HW1 6365   3.128   3.785   2.222
 1822SOL    HW2 6366   3.112   3.652   2.316
 1823SOL     OW 6367   4.581   0.144   2.433
 1823SOL    HW1 6368   4.665   0.193   2.455
 1823SOL    HW2 6369   4.604   0.056   2.392
 1824SOL     OW 6370   5.329   2.245   1.384
 1824SOL    HW1 6371   5.387   2.166   1.401
 1824SOL    HW2 6372   5.376   2.328   1.415
 1825SOL     OW 6373   0.587   0.407   1.975
 1825SOL    HW1 6374   0.509   0.423   2.035
 1825SOL    HW2 6375   0.626   0.494   1.946
 1826SOL     OW 6376   2.829   6.014   6.247
 1826SOL    HW1 6377   2.761   5.953   6.287
 1826SOL    HW2 6378   2.919   5.993   6.285
 1827SOL     OW 6379   6.171   6.901   1.735
 1827SOL    HW1 6380   6.170   6.962   1.656
 1827SOL    HW2 6381   6.195   6.808   1.705
 1828SOL     OW 6382   1.328   2.849   6.963
 1828SOL    HW1 6383   1.356   2.918   6.896
 1828SOL    HW2 6384   1.348   2.758   6.927
 1829SOL     OW 6385   6.140   5.322   2.096
 1829SOL    HW1 6386   6.064   5.257   2.093
 1829SOL    HW2 6387   6.223   5.277   2.063
 1830SOL     OW 6388   5.263   6.521   4.284
 1830SOL    HW1 6389   5.290   6.425   4.296
 1830SOL    HW2 6390   5.192   6.527   4.214
 1831SOL     OW 6391   5.301   0.721   3.139
 1831SOL    HW1 6392   5.241   0.794   3.106
 1831SOL    HW2 6393   5.385   0.761   3.175
 1832SOL     OW 6394   4.532   2.089   0.019
 1832SOL    HW1 6395   4.530   2.180   0.060
 1832SOL    HW2 6396   4.499   2.022   0.086
 1833SOL     OW 6397   5.412   2.022   5.487
 1833SOL    HW1 6398   5.386   2.103   5.539
 1833SOL    HW2 6399   5.506   2.033   5.454
 1834SOL     OW 6400   2.797   3.944   0.237
 1834SOL    HW1 6401   2.895   3.936   0.218
 1834SOL    HW2 6402   2.784   3.982   0.328
 1835SOL     OW 6403   1.693   4.518   6.904
 1835SOL    HW1 6404   1.710   4.557   6.814
 1835SOL    HW2 6405   1.652   4.427   6.894
 1836SOL     OW 6406   0.991   6.902   0.610
 1836SOL    HW1 6407   1.045   6.819   0.626
 1836SOL    HW2 6408   1.007   6.967   0.684
 1837SOL     OW 6409   0.692   2.454   4.793
 1837SOL    HW1 6410   0.610   2.472   4.848
 1837SOL    HW2 6411   0.743   2.540   4.780
 1838SOL     OW 6412   0.610   2.542   5.353
 1838SOL    HW1 6413   0.585   2.623   5.407
 1838SOL    HW2 6414   0.664   2.570   5.274
 1839SOL     OW 6415   1.135   1.938   6.639
 1839SOL    HW1 6416   1.213   1.887   6.603
 1839SOL    HW2 6417   1.068   1.874   6.676
 1840SOL     OW 6418   0.798   5.188   1.356
 1840SOL    HW1 6419   0.856   5.173   1.436
 1840SOL    HW2 6420   0.850   5.235   1.284
 1841SOL     OW 6421   0.992   2.801   3.702
 1841SOL    HW1 6422   0.960   2.713   3.735
 1841SOL    HW2 6423   1.035   2.851   3.777
 1842SOL     OW 6424   0.972   5.612   6.493
 1842SOL    HW1 6425   0.898   5.579   6.434
 1842SOL    HW2 6426   0.933   5.666   6.568
 1843SOL     OW 6427   4.649   2.212   5.118
 1843SOL    HW1 6428   4.723   2.277   5.140
 1843SOL    HW2 6429   4.579   2.258   5.065
 1844SOL     OW 6430   5.648   4.365   3.498
 1844SOL    HW1 6431   5.550   4.347   3.506
 1844SOL    HW2 6432   5.695   4.333   3.581
 1845SOL     OW 6433   4.206   6.417   0.872
 1845SOL    HW1 6434   4.230   6.400   0.777
 1845SOL    HW2 6435   4.184   6.513   0.885
 1846SOL     OW 6436   3.697   1.710   5.523
 1846SOL    HW1 6437   3.762   1.699   5.598
 1846SOL    HW2 6438   3.746   1.720   5.437
 1847SOL     OW 6439   1.471   6.567   6.543
 1847SOL    HW1 6440   1.450   6.665   6.553
 1847SOL    HW2 6441   1.396   6.522   6.495
 1848SOL     OW 6442   1.978   0.423   3.144
 1848SOL    HW1 6443   2.075   0.402   3.160
 1848SOL    HW2 6444   1.922   0.363   3.202
 1849SOL     OW 6445   2.808   0.465   6.664
 1849SOL    HW1 6446   2.830   0.509   6.751
 1849SOL    HW2 6447   2.752   0.526   6.608
 1850SOL     OW 6448   5.179   1.713   2.285
 1850SOL    HW1 6449   5.125   1.797   2.293
 1850SOL    HW2 6450   5.118   1.635   2.270
 1851SOL     OW 6451   6.075   3.983   3.001
 1851SOL    HW1 6452   6.154   4.000   2.943
 1851SOL    HW2 6453   6.006   3.932   2.950
 1852SOL     OW 6454   5.154   1.601   5.650
 1852SOL    HW1 6455   5.097   1.530   5.608
 1852SOL    HW2 6456   5.207   1.562   5.725
 1853SOL     OW 6457   1.316   4.573   0.909
 1853SOL    HW1 6458   1.395   4.514   0.892
 1853SOL    HW2 6459   1.233   4.517   0.911
 1854SOL     OW 6460   2.876   5.036   3.746
 1854SOL    HW1 6461   2.933   4.956   3.768
 1854SOL    HW2 6462   2.787   5.006   3.714
 1855SOL     OW 6463   6.359   4.464   2.291
 1855SOL    HW1 6464   6.439   4.406   2.278
 1855SOL    HW2 6465   6.278   4.406   2.304
 1856SOL     OW 6466   5.210   3.049   6.689
 1856SOL    HW1 6467   5.268   3.003   6.622
 1856SOL    HW2 6468   5.170   3.131   6.647
 1857SOL     OW 6469   5.058   1.487   3.268
 1857SOL    HW1 6470   5.038   1.551   3.342
 1857SOL    HW2 6471   5.044   1.533   3.180
 1858SOL     OW 6472   5.588   3.991   2.980
 1858SOL    HW1 6473   5.593   3.895   3.006
 1858SOL    HW2 6474   5.496   4.025   2.997
 1859SOL     OW 6475   6.233   1.572   2.925
 1859SOL    HW1 6476   6.141   1.533   2.938
 1859SOL    HW2 6477   6.280   1.520   2.853
 1860SOL     OW 6478   4.036   2.215   4.596
 1860SOL    HW1 6479   4.045   2.123   4.635
 1860SOL    HW2 6480   4.097   2.278   4.645
 1861SOL     OW 6481   5.294   5.757   2.240
 1861SOL    HW1 6482   5.258   5.753   2.146
 1861SOL    HW2 6483   5.377   5.703   2.246
 1862SOL     OW 6484   2.333   1.075   0.682
 1862SOL    HW1 6485   2.346   0.985   0.723
 1862SOL    HW2 6486   2.358   1.146   0.749
 1863SOL     OW 6487   1.781   2.436   1.623
 1863SOL    HW1 6488   1.867   2.403   1.662
 1863SOL    HW2 6489   1.718   2.461   1.696
 1864SOL     OW 6490   1.003   6.287   3.104
 1864SOL    HW1 6491   0.928   6.248   3.051
 1864SOL    HW2 6492   1.013   6.384   3.081
 1865SOL     OW 6493   4.946   2.432   6.643
 1865SOL    HW1 6494   4.979   2.497   6.711
 1865SOL    HW2 6495   4.856   2.461   6.611
 1866SOL     OW 6496   5.271   5.283   1.840
 1866SOL    HW1 6497   5.330   5.242   1.771
 1866SOL    HW2 6498   5.326   5.315   1.917
 1867SOL     OW 6499   0.461   4.726   6.514
 1867SOL    HW1 6500   0.554   4.691   6.498
 1867SOL    HW2 6501   0.457   4.822   6.487
 1868SOL     OW 6502   6.793   4.190   5.632
 1868SOL    HW1 6503   6.872   4.207   5.691
 1868SOL    HW2 6504   6.816   4.118   5.566
 1869SOL     OW 6505   6.393   1.798   4.268
 1869SOL    HW1 6506   6.420   1.703   4.278
 1869SOL    HW2 6507   6.432   1.852   4.342
 1870SOL     OW 6508   2.302   4.309   4.869
 1870SOL    HW1 6509   2.257   4.397   4.881
 1870SOL    HW2 6510   2.394   4.323   4.834
 1871SOL     OW 6511   1.396   0.666   0.641
 1871SOL    HW1 6512   1.352   0.583   0.606
 1871SOL    HW2 6513   1.326   0.734   0.661
 1872SOL     OW 6514   1.658   4.536   6.636
 1872SOL    HW1 6515   1.688   4.450   6.595
 1872SOL    HW2 6516   1.559   4.533   6.650
 1873SOL     OW 6517   5.137   6.903   6.903
 1873SOL    HW1 6518   5.042   6.934   6.902
 1873SOL    HW2 6519   5.194   6.972   6.948
 1874SOL     OW 6520   0.610   4.198   2.916
 1874SOL    HW1 6521   0.647   4.236   3.001
 1874SOL    HW2 6522   0.630   4.259   2.840
 1875SOL     OW 6523   0.928   6.354   1.701
 1875SOL    HW1 6524   0.853   6.306   1.655
 1875SOL    HW2 6525   0.897   6.446   1.727
 1876SOL     OW 6526   2.013   6.785   3.420
 1876SOL    HW1 6527   2.093   6.734   3.451
 1876SOL    HW2 6528   1.996   6.767   3.323
 1877SOL     OW 6529   0.343   6.890   3.934
 1877SOL    HW1 6530   0.426   6.946   3.944
 1877SOL    HW2 6531   0.275   6.940   3.880
 1878SOL     OW 6532   6.249   2.616   5.872
 1878SOL    HW1 6533   6.168   2.604   5.930
 1878SOL    HW2 6534   6.306   2.689   5.910
 1879SOL     OW 6535   1.445   4.703   5.989
 1879SOL    HW1 6536   1.455   4.697   6.088
 1879SOL    HW2 6537   1.420   4.614   5.952
 1880SOL     OW 6538   6.362   0.465   4.721
 1880SOL    HW1 6539   6.390   0.378   4.681
 1880SOL    HW2 6540   6.316   0.448   4.808
 1881SOL     OW 6541   6.853   2.070   0.109
 1881SOL    HW1 6542   6.804   2.137   0.052
 1881SOL    HW2 6543   6.924   2.117   0.161
 1882SOL     OW 6544   1.516   6.615   0.065
 1882SOL    HW1 6545   1.486   6.584   6.997
 1882SOL    HW2 6546   1.498   6.544   0.132
 1883SOL     OW 6547   0.477   1.737   4.287
 1883SOL    HW1 6548   0.399   1.705   4.233
 1883SOL    HW2 6549   0.497   1.832   4.263
 1884SOL     OW 6550   6.740   1.995   1.188
 1884SOL    HW1 6551   6.731   2.029   1.094
 1884SOL    HW2 6552   6.659   2.021   1.241
 1885SOL     OW 6553   2.719   1.389   4.017
 1885SOL    HW1 6554   2.786   1.341   4.073
 1885SOL    HW2 6555   2.711   1.484   4.048
 1886SOL     OW 6556   0.730   6.229   2.950
 1886SOL    HW1 6557   0.661   6.162   2.977
 1886SOL    HW2 6558   0.731   6.238   2.850
 1887SOL     OW 6559   2.630   6.113   6.099
 1887SOL    HW1 6560   2.701   6.066   6.151
 1887SOL    HW2 6561   2.632   6.082   6.004
 1888SOL     OW 6562   2.410   0.641   3.148
 1888SOL    HW1 6563   2.397   0.622   3.245
 1888SOL    HW2 6564   2.348   0.714   3.120
 1889SOL     OW 6565   0.295   3.392   3.086
 1889SOL    HW1 6566   0.313   3.488   3.066
 1889SOL    HW2 6567   0.217   3.385   3.149
 1890SOL     OW 6568   1.349   6.042   4.488
 1890SOL    HW1 6569   1.285   6.048   4.565
 1890SOL    HW2 6570   1.430   6.096   4.508
 1891SOL     OW 6571   3.847   3.286   3.656
 1891SOL    HW1 6572   3.837   3.187   3.643
 1891SOL    HW2 6573   3.944   3.307   3.670
 1892SOL     OW 6574   0.604   0.193   2.696
 1892SOL    HW1 6575   0.673   0.224   2.630
 1892SOL    HW2 6576   0.619   0.096   2.716
 1893SOL     OW 6577   3.400   3.197   4.446
 1893SOL    HW1 6578   3.387   3.281   4.393
 1893SOL    HW2 6579   3.392   3.219   4.544
 1894SOL     OW 6580   3.147   3.430   4.044
 1894SOL    HW1 6581   3.220   3.492   4.015
 1894SOL    HW2 6582   3.061   3.480   4.051
 1895SOL     OW 6583   1.433   5.990   0.820
 1895SOL    HW1 6584   1.404   6.062   0.882
 1895SOL    HW2 6585   1.506   5.936   0.862
 1896SOL     OW 6586   6.594   2.466   1.251
 1896SOL    HW1 6587   6.558   2.424   1.168
 1896SOL    HW2 6588   6.535   2.444   1.328
 1897SOL     OW 6589   1.097   4.403   4.103
 1897SOL    HW1 6590   1.185   4.400   4.151
 1897SOL    HW2 6591   1.051   4.315   4.114
 1898SOL     OW 6592   1.852   5.995   2.726
 1898SOL    HW1 6593   1.933   5.976   2.782
 1898SOL    HW2 6594   1.770   5.970   2.778
 1899SOL     OW 6595   0.123   1.076   2.388
 1899SOL    HW1 6596   0.213   1.033   2.376
 1899SOL    HW2 6597   0.117   1.158   2.330
 1900SOL     OW 6598   2.790   6.628   6.836
 1900SOL    HW1 6599   2.854   6.645   6.762
 1900SOL    HW2 6600   2.744   6.713   6.861
 1901SOL     OW 6601   2.837   3.444   2.116
 1901SOL    HW1 6602   2.755   3.389   2.102
 1901SOL    HW2 6603   2.840   3.517   2.048
 1902SOL     OW 6604   1.338   6.822   5.230
 1902SOL    HW1 6605   1.427   6.791   5.265
 1902SOL    HW2 6606   1.322   6.783   5.140
 1903SOL     OW 6607   1.019   1.811   4.162
 1903SOL    HW1 6608   1.114   1.839   4.146
 1903SOL    HW2 6609   0.999   1.731   4.106
 1904SOL     OW 6610   6.005   5.908   1.534
 1904SOL    HW1 6611   6.047   5.955   1.612
 1904SOL    HW2 6612   5.920   5.864   1.563
 1905SOL     OW 6613   0.794   1.981   4.156
 1905SOL    HW1 6614   0.799   1.888   4.194
 1905SOL    HW2 6615   0.848   1.986   4.072
 1906SOL     OW 6616   0.755   6.377   4.353
 1906SOL    HW1 6617   0.748   6.468   4.393
 1906SOL    HW2 6618   0.756   6.308   4.426
 1907SOL     OW 6619   6.031   3.133   0.780
 1907SOL    HW1 6620   6.080   3.151   0.865
 1907SOL    HW2 6621   6.087   3.074   0.722
 1908SOL     OW 6622   3.681   0.845   1.609
 1908SOL    HW1 6623   3.712   0.893   1.527
 1908SOL    HW2 6624   3.696   0.902   1.690
 1909SOL     OW 6625   6.345   5.306   4.943
 1909SOL    HW1 6626   6.375   5.400   4.926
 1909SOL    HW2 6627   6.376   5.246   4.870
 1910SOL     OW 6628   0.478   6.062   5.874
 1910SOL    HW1 6629   0.417   6.130   5.833
 1910SOL    HW2 6630   0.425   5.981   5.898
 1911SOL     OW 6631   6.024   6.026   4.331
 1911SOL    HW1 6632   5.948   6.053   4.272
 1911SOL    HW2 6633   6.085   6.103   4.344
 1912SOL     OW 6634   3.601   5.149   2.270
 1912SOL    HW1 6635   3.578   5.174   2.364
 1912SOL    HW2 6636   3.529   5.179   2.208
 1913SOL     OW 6637   2.831   4.314   6.847
 1913SOL    HW1 6638   2.775   4.372   6.906
 1913SOL    HW2 6639   2.772   4.264   6.783
 1914SOL     OW 6640   3.820   4.357   0.443
 1914SOL    HW1 6641   3.827   4.393   0.537
 1914SOL    HW2 6642   3.763   4.275   0.443
 1915SOL     OW 6643   3.740   2.972   6.895
 1915SOL    HW1 6644   3.805   2.957   6.969
 1915SOL    HW2 6645   3.706   3.067   6.899
 1916SOL     OW 6646   4.132   0.961   2.183
 1916SOL    HW1 6647   4.100   0.956   2.277
 1916SOL    HW2 6648   4.065   0.920   2.122
 1917SOL     OW 6649   2.082   3.859   1.492
 1917SOL    HW1 6650   2.100   3.956   1.479
 1917SOL    HW2 6651   2.031   3.824   1.413
 1918SOL     OW 6652   5.110   2.316   3.605
 1918SOL    HW1 6653   5.036   2.250   3.616
 1918SOL    HW2 6654   5.110   2.380   3.682
 1919SOL     OW 6655   6.224   2.319   6.286
 1919SOL    HW1 6656   6.166   2.310   6.205
 1919SOL    HW2 6657   6.230   2.416   6.312
 1920SOL     OW 6658   4.382   3.408   0.449
 1920SOL    HW1 6659   4.389   3.318   0.490
 1920SOL    HW2 6660   4.352   3.399   0.354
 1921SOL     OW 6661   2.312   2.275   0.404
 1921SOL    HW1 6662   2.251   2.197   0.420
 1921SOL    HW2 6663   2.305   2.339   0.481
 1922SOL     OW 6664   2.980   3.355   4.290
 1922SOL    HW1 6665   3.037   3.401   4.359
 1922SOL    HW2 6666   2.941   3.424   4.228
 1923SOL     OW 6667   3.032   0.659   4.169
 1923SOL    HW1 6668   3.016   0.565   4.199
 1923SOL    HW2 6669   2.950   0.713   4.185
 1924SOL     OW 6670   5.411   0.858   0.538
 1924SOL    HW1 6671   5.422   0.957   0.522
 1924SOL    HW2 6672   5.398   0.812   0.451
 1925SOL     OW 6673   0.979   4.218   0.871
 1925SOL    HW1 6674   0.880   4.204   0.867
 1925SOL    HW2 6675   1.011   4.202   0.965
 1926SOL     OW 6676   3.383   0.221   1.667
 1926SOL    HW1 6677   3.439   0.138   1.667
 1926SOL    HW2 6678   3.442   0.301   1.660
 1927SOL     OW 6679   2.172   5.839   0.884
 1927SOL    HW1 6680   2.085   5.816   0.927
 1927SOL    HW2 6681   2.198   5.766   0.821
 1928SOL     OW 6682   0.200   4.271   3.119
 1928SOL    HW1 6683   0.149   4.319   3.048
 1928SOL    HW2 6684   0.155   4.183   3.138
 1929SOL     OW 6685   3.466   6.911   3.407
 1929SOL    HW1 6686   3.495   6.838   3.469
 1929SOL    HW2 6687   3.521   6.992   3.423
 1930SOL     OW 6688   3.763   3.036   0.165
 1930SOL    HW1 6689   3.678   2.986   0.150
 1930SOL    HW2 6690   3.776   3.051   0.263
 1931SOL     OW 6691   6.524   3.264   3.576
 1931SOL    HW1 6692   6.443   3.205   3.569
 1931SOL    HW2 6693   6.606   3.207   3.578
 1932SOL     OW 6694   5.201   0.444   2.254
 1932SOL    HW1 6695   5.279   0.423   2.313
 1932SOL    HW2 6696   5.214   0.535   2.213
 1933SOL     OW 6697   1.416   1.834   1.334
 1933SOL    HW1 6698   1.509   1.829   1.371
 1933SOL    HW2 6699   1.350   1.824   1.408
 1934SOL     OW 6700   7.002   1.169   0.002
 1934SOL    HW1 6701   0.036   1.106   6.970
 1934SOL    HW2 6702   6.975   1.247   6.968
 1935SOL     OW 6703   5.869   5.293   3.798
 1935SOL    HW1 6704   5.805   5.216   3.806
 1935SOL    HW2 6705   5.818   5.379   3.805
 1936SOL     OW 6706   5.109   3.296   6.618
 1936SOL    HW1 6707   5.016   3.304   6.583
 1936SOL    HW2 6708   5.175   3.313   6.545
 1937SOL     OW 6709   0.039   4.590   6.896
 1937SOL    HW1 6710   0.080   4.663   6.952
 1937SOL    HW2 6711   6.966   4.613   6.877
 1938SOL     OW 6712   6.578   2.021   0.215
 1938SOL    HW1 6713   6.672   2.053   0.232
 1938SOL    HW2 6714   6.578   1.923   0.200
 1939SOL     OW 6715   0.265   0.203   4.201
 1939SOL    HW1 6716   0.341   0.140   4.215
 1939SOL    HW2 6717   0.262   0.233   4.106
 1940SOL     OW 6718   0.773   5.530   1.408
 1940SOL    HW1 6719   0.786   5.582   1.493
 1940SOL    HW2 6720   0.816   5.441   1.416
 1941SOL     OW 6721   5.895   1.056   4.408
 1941SOL    HW1 6722   5.993   1.039   4.414
 1941SOL    HW2 6723   5.879   1.148   4.374
 1942SOL     OW 6724   0.573   5.496   1.787
 1942SOL    HW1 6725   0.528   5.501   1.877
 1942SOL    HW2 6726   0.504   5.506   1.715
 1943SOL     OW 6727   0.845   3.231   4.240
 1943SOL    HW1 6728   0.769   3.266   4.187
 1943SOL    HW2 6729   0.929   3.278   4.214
 1944SOL     OW 6730   0.834   3.051   3.791
 1944SOL    HW1 6731   0.757   2.987   3.797
 1944SOL    HW2 6732   0.913   3.012   3.838
 1945SOL     OW 6733   5.218   1.682   2.577
 1945SOL    HW1 6734   5.232   1.666   2.479
 1945SOL    HW2 6735   5.175   1.603   2.618
 1946SOL     OW 6736   6.150   5.885   0.705
 1946SOL    HW1 6737   6.070   5.933   0.740
 1946SOL    HW2 6738   6.225   5.894   0.770
 1947SOL     OW 6739   6.064   5.635   2.832
 1947SOL    HW1 6740   6.115   5.549   2.841
 1947SOL    HW2 6741   5.984   5.633   2.893
 1948SOL     OW 6742   5.561   3.560   3.432
 1948SOL    HW1 6743   5.480   3.593   3.384
 1948SOL    HW2 6744   5.618   3.507   3.369
 1949SOL     OW 6745   3.321   4.584   6.381
 1949SOL    HW1 6746   3.272   4.596   6.295
 1949SOL    HW2 6747   3.393   4.516   6.369
 1950SOL     OW 6748   4.037   3.742   3.316
 1950SOL    HW1 6749   4.041   3.730   3.416
 1950SOL    HW2 6750   4.120   3.703   3.275
 1951SOL     OW 6751   6.583   5.835   5.962
 1951SOL    HW1 6752   6.548   5.741   5.952
 1951SOL    HW2 6753   6.683   5.833   5.957
 1952SOL     OW 6754   5.640   4.178   6.541
 1952SOL    HW1 6755   5.625   4.116   6.619
 1952SOL    HW2 6756   5.703   4.251   6.568
 1953SOL     OW 6757   0.685   0.900   6.918
 1953SOL    HW1 6758   0.720   0.808   6.903
 1953SOL    HW2 6759   0.653   0.909   7.012
 1954SOL     OW 6760   3.771   6.945   2.335
 1954SOL    HW1 6761   3.829   6.986   2.265
 1954SOL    HW2 6762   3.822   6.872   2.382
 1955SOL     OW 6763   6.412   2.500   4.196
 1955SOL    HW1 6764   6.425   2.488   4.098
 1955SOL    HW2 6765   6.411   2.411   4.241
 1956SOL     OW 6766   4.844   1.265   1.284
 1956SOL    HW1 6767   4.751   1.283   1.317
 1956SOL    HW2 6768   4.896   1.217   1.354
 1957SOL     OW 6769   6.328   2.766   4.255
 1957SOL    HW1 6770   6.374   2.682   4.227
 1957SOL    HW2 6771   6.393   2.842   4.251
 1958SOL     OW 6772   4.000   1.755   0.383
 1958SOL    HW1 6773   4.029   1.744   0.478
 1958SOL    HW2 6774   3.912   1.803   0.381
 1959SOL     OW 6775   1.551   1.670   5.736
 1959SOL    HW1 6776   1.482   1.651   5.806
 1959SOL    HW2 6777   1.529   1.619   5.653
 1960SOL     OW 6778   5.285   4.177   2.615
 1960SOL    HW1 6779   5.221   4.104   2.637
 1960SOL    HW2 6780   5.258   4.219   2.528
 1961SOL     OW 6781   0.294   4.213   4.493
 1961SOL    HW1 6782   0.243   4.285   4.540
 1961SOL    HW2 6783   0.392   4.232   4.499
 1962SOL     OW 6784   0.416   6.878   1.922
 1962SOL    HW1 6785   0.424   6.938   2.002
 1962SOL    HW2 6786   0.320   6.854   1.907
 1963SOL     OW 6787   0.940   2.404   0.072
 1963SOL    HW1 6788   0.885   2.341   0.126
 1963SOL    HW2 6789   0.903   2.497   0.083
 1964SOL     OW 6790   5.775   3.227   0.795
 1964SOL    HW1 6791   5.865   3.184   0.785
 1964SOL    HW2 6792   5.751   3.276   0.712
 1965SOL     OW 6793   5.777   4.756   4.448
 1965SOL    HW1 6794   5.801   4.757   4.545
 1965SOL    HW2 6795   5.830   4.826   4.399
 1966SOL     OW 6796   0.801   5.471   6.812
 1966SOL    HW1 6797   0.791   5.421   6.898
 1966SOL    HW2 6798   0.892   5.453   6.774
 1967SOL     OW 6799   6.835   2.775   4.775
 1967SOL    HW1 6800   6.816   2.718   4.855
 1967SOL    HW2 6801   6.748   2.805   4.735
 1968SOL     OW 6802   2.482   1.454   6.230
 1968SOL    HW1 6803   2.466   1.551   6.244
 1968SOL    HW2 6804   2.397   1.410   6.202
 1969SOL     OW 6805   0.846   6.029   1.235
 1969SOL    HW1 6806   0.873   5.937   1.264
 1969SOL    HW2 6807   0.928   6.082   1.212
 1970SOL     OW 6808   5.380   4.325   3.478
 1970SOL    HW1 6809   5.328   4.248   3.513
 1970SOL    HW2 6810   5.324   4.408   3.482
 1971SOL     OW 6811   1.890   5.054   4.286
 1971SOL    HW1 6812   1.902   4.966   4.331
 1971SOL    HW2 6813   1.979   5.095   4.266
 1972SOL     OW 6814   5.859   2.123   2.809
 1972SOL    HW1 6815   5.767   2.093   2.783
 1972SOL    HW2 6816   5.856   2.220   2.833
 1973SOL     OW 6817   3.666   2.324   0.364
 1973SOL    HW1 6818   3.670   2.390   0.439
 1973SOL    HW2 6819   3.570   2.303   0.343
 1974SOL     OW 6820   2.296   6.511   4.736
 1974SOL    HW1 6821   2.387   6.511   4.778
 1974SOL    HW2 6822   2.230   6.471   4.799
 1975SOL     OW 6823   2.044   3.115   2.229
 1975SOL    HW1 6824   2.019   3.210   2.209
 1975SOL    HW2 6825   1.977   3.076   2.292
 1976SOL     OW 6826   1.557   1.159   5.210
 1976SOL    HW1 6827   1.511   1.090   5.154
 1976SOL    HW2 6828   1.594   1.115   5.292
 1977SOL     OW 6829   1.190   3.737   6.550
 1977SOL    HW1 6830   1.115   3.803   6.546
 1977SOL    HW2 6831   1.223   3.728   6.644
 1978SOL     OW 6832   2.942   0.264   1.948
 1978SOL    HW1 6833   2.954   0.239   2.044
 1978SOL    HW2 6834   3.032   0.285   1.908
 1979SOL     OW 6835   5.426   3.833   6.241
 1979SOL    HW1 6836   5.328   3.814   6.240
 1979SOL    HW2 6837   5.474   3.756   6.281
 1980SOL     OW 6838   4.161   0.488   1.314
 1980SOL    HW1 6839   4.243   0.543   1.302
 1980SOL    HW2 6840   4.090   0.521   1.252
 1981SOL     OW 6841   4.283   2.186   1.799
 1981SOL    HW1 6842   4.229   2.132   1.863
 1981SOL    HW2 6843   4.230   2.265   1.767
 1982SOL     OW 6844   1.605   2.693   6.535
 1982SOL    HW1 6845   1.644   2.620   6.592
 1982SOL    HW2 6846   1.519   2.724   6.575
 1983SOL     OW 6847   0.418   1.805   1.966
 1983SOL    HW1 6848   0.322   1.811   1.938
 1983SOL    HW2 6849   0.426   1.827   2.063
 1984SOL     OW 6850   4.731   3.362   5.722
 1984SOL    HW1 6851   4.659   3.431   5.723
 1984SOL    HW2 6852   4.802   3.390   5.657
 1985SOL     OW 6853   6.129   4.391   4.240
 1985SOL    HW1 6854   6.151   4.477   4.286
 1985SOL    HW2 6855   6.033   4.391   4.214
 1986SOL     OW 6856   2.851   3.581   3.034
 1986SOL    HW1 6857   2.908   3.663   3.039
 1986SOL    HW2 6858   2.825   3.553   3.126
 1987SOL     OW 6859   2.108   1.425   2.056
 1987SOL    HW1 6860   2.140   1.398   1.965
 1987SOL    HW2 6861   2.060   1.512   2.050
 1988SOL     OW 6862   0.961   1.989   3.156
 1988SOL    HW1 6863   1.059   1.970   3.167
 1988SOL    HW2 6864   0.923   2.015   3.245
 1989SOL     OW 6865   3.279   5.390   4.540
 1989SOL    HW1 6866   3.377   5.389   4.558
 1989SOL    HW2 6867   3.253   5.479   4.502
 1990SOL     OW 6868   4.376   6.252   0.505
 1990SOL    HW1 6869   4.442   6.187   0.543
 1990SOL    HW2 6870   4.315   6.205   0.442
 1991SOL     OW 6871   2.956   5.977   1.810
 1991SOL    HW1 6872   3.008   5.965   1.725
 1991SOL    HW2 6873   2.905   5.893   1.829
 1992SOL     OW 6874   1.317   6.743   3.305
 1992SOL    HW1 6875   1.397   6.744   3.366
 1992SOL    HW2 6876   1.348   6.752   3.210
 1993SOL     OW 6877   1.983   1.583   2.339
 1993SOL    HW1 6878   1.972   1.526   2.257
 1993SOL    HW2 6879   1.974   1.679   2.313
 1994SOL     OW 6880   3.060   3.648   1.560
 1994SOL    HW1 6881   2.982   3.678   1.504
 1994SOL    HW2 6882   3.092   3.559   1.527
 1995SOL     OW 6883   5.809   1.071   4.074
 1995SOL    HW1 6884   5.770   1.092   4.164
 1995SOL    HW2 6885   5.760   1.124   4.004
 1996SOL     OW 6886   4.509   0.355   1.114
 1996SOL    HW1 6887   4.511   0.380   1.018
 1996SOL    HW2 6888   4.570   0.416   1.165
 1997SOL     OW 6889   3.873   1.389   3.411
 1997SOL    HW1 6890   3.779   1.422   3.400
 1997SOL    HW2 6891   3.895   1.325   3.338
 1998SOL     OW 6892   2.592   3.924   1.040
 1998SOL    HW1 6893   2.527   3.995   1.012
 1998SOL    HW2 6894   2.556   3.834   1.014
 1999SOL     OW 6895   0.610   0.087   6.538
 1999SOL    HW1 6896   0.704   0.056   6.554
 1999SOL    HW2 6897   0.599   0.114   6.442
 2000SOL     OW 6898   4.108   4.572   6.408
 2000SOL    HW1 6899   4.014   4.543   6.388
 2000SOL    HW2 6900   4.108   4.627   6.491
 2001SOL     OW 6901   1.415   2.229   0.891
 2001SOL    HW1 6902   1.410   2.135   0.858
 2001SOL    HW2 6903   1.334   2.279   0.861
 2002SOL     OW 6904   5.948   5.479   0.589
 2002SOL    HW1 6905   5.953   5.388   0.630
 2002SOL    HW2 6906   6.034   5.499   0.541
 2003SOL     OW 6907   5.935   5.778   1.102
 2003SOL    HW1 6908   5.852   5.762   1.156
 2003SOL    HW2 6909   5.971   5.869   1.122
 2004SOL     OW 6910   4.001   0.258   2.915
 2004SOL    HW1 6911   4.084   0.300   2.878
 2004SOL    HW2 6912   3.951   0.325   2.969
 2005SOL     OW 6913   1.701   6.812   0.026
 2005SOL    HW1 6914   1.675   6.877   0.097
 2005SOL    HW2 6915   1.635   6.737   0.024
 2006SOL     OW 6916   6.313   0.115   2.268
 2006SOL    HW1 6917   6.409   0.121   2.242
 2006SOL    HW2 6918   6.298   0.165   2.353
 2007SOL     OW 6919   5.607   5.401   5.772
 2007SOL    HW1 6920   5.669   5.457   5.716
 2007SOL    HW2 6921   5.642   5.396   5.866
 2008SOL     OW 6922   1.734   3.345   2.973
 2008SOL    HW1 6923   1.672   3.294   3.032
 2008SOL    HW2 6924   1.758   3.432   3.016
 2009SOL     OW 6925   6.101   0.139   3.153
 2009SOL    HW1 6926   6.039   0.072   3.113
 2009SOL    HW2 6927   6.190   0.096   3.170
 2010SOL     OW 6928   0.348   1.488   1.673
 2010SOL    HW1 6929   0.415   1.518   1.740
 2010SOL    HW2 6930   0.364   1.534   1.586
 2011SOL     OW 6931   1.108   0.130   5.170
 2011SOL    HW1 6932   1.079   0.042   5.206
 2011SOL    HW2 6933   1.201   0.123   5.135
 2012SOL     OW 6934   0.206   2.628   0.596
 2012SOL    HW1 6935   0.303   2.638   0.617
 2012SOL    HW2 6936   0.155   2.607   0.680
 2013SOL     OW 6937   1.035   2.974   2.345
 2013SOL    HW1 6938   0.999   2.970   2.438
 2013SOL    HW2 6939   1.094   3.054   2.336
 2014SOL     OW 6940   3.850   1.518   3.969
 2014SOL    HW1 6941   3.794   1.442   4.002
 2014SOL    HW2 6942   3.942   1.512   4.009
 2015SOL     OW 6943   3.992   6.129   1.559
 2015SOL    HW1 6944   3.940   6.150   1.642
 2015SOL    HW2 6945   3.929   6.118   1.483
 2016SOL     OW 6946   1.620   0.982   5.453
 2016SOL    HW1 6947   1.646   0.895   5.411
 2016SOL    HW2 6948   1.650   0.984   5.548
 2017SOL     OW 6949   2.593   6.726   4.660
 2017SOL    HW1 6950   2.661   6.653   4.659
 2017SOL    HW2 6951   2.545   6.726   4.748
 2018SOL     OW 6952   0.416   0.219   4.717
 2018SOL    HW1 6953   0.511   0.236   4.745
 2018SOL    HW2 6954   0.362   0.302   4.731
 2019SOL     OW 6955   6.802   4.537   6.879
 2019SOL    HW1 6956   6.737   4.598   6.834
 2019SOL    HW2 6957   6.771   4.442   6.871
 2020SOL     OW 6958   1.878   6.840   1.339
 2020SOL    HW1 6959   1.827   6.840   1.425
 2020SOL    HW2 6960   1.907   6.934   1.318
 2021SOL     OW 6961   6.998   5.792   4.199
 2021SOL    HW1 6962   7.006   5.708   4.144
 2021SOL    HW2 6963   0.051   5.853   4.176
 2022SOL     OW 6964   1.676   3.326   4.486
 2022SOL    HW1 6965   1.762   3.323   4.537
 2022SOL    HW2 6966   1.599   3.323   4.549
 2023SOL     OW 6967   0.606   5.349   0.178
 2023SOL    HW1 6968   0.573   5.317   0.267
 2023SOL    HW2 6969   0.603   5.449   0.174
 2024SOL     OW 6970   6.766   5.751   3.720
 2024SOL    HW1 6971   6.753   5.748   3.819
 2024SOL    HW2 6972   6.724   5.833   3.682
 2025SOL     OW 6973   2.206   0.098   4.307
 2025SOL    HW1 6974   2.293   0.106   4.355
 2025SOL    HW2 6975   2.148   0.176   4.330
 2026SOL     OW 6976   1.650   0.018   5.578
 2026SOL    HW1 6977   1.682   7.015   5.487
 2026SOL    HW2 6978   1.727   0.047   5.634
 2027SOL     OW 6979   6.480   6.201   3.048
 2027SOL    HW1 6980   6.481   6.298   3.022
 2027SOL    HW2 6981   6.386   6.166   3.041
 2028SOL     OW 6982   2.560   6.106   5.207
 2028SOL    HW1 6983   2.627   6.082   5.136
 2028SOL    HW2 6984   2.598   6.082   5.297
 2029SOL     OW 6985   6.226   1.811   6.767
 2029SOL    HW1 6986   6.309   1.756   6.766
 2029SOL    HW2 6987   6.148   1.755   6.741
 2030SOL     OW 6988   1.856   6.517   2.883
 2030SOL    HW1 6989   1.918   6.448   2.919
 2030SOL    HW2 6990   1.901   6.568   2.809
 2031SOL     OW 6991   0.246   6.800   5.791
 2031SOL    HW1 6992   0.292   6.722   5.833
 2031SOL    HW2 6993   0.238   6.785   5.693
 2032SOL     OW 6994   2.550   3.013   6.553
 2032SOL    HW1 6995   2.504   2.986   6.637
 2032SOL    HW2 6996   2.633   2.958   6.541
 2033SOL     OW 6997   2.454   0.889   1.194
 2033SOL    HW1 6998   2.385   0.824   1.163
 2033SOL    HW2 6999   2.492   0.858   1.281
 2034SOL     OW 7000   0.559   4.388   5.106
 2034SOL    HW1 7001   0.536   4.314   5.169
 2034SOL    HW2 7002   0.490   4.459   5.111
 2035SOL     OW 7003   5.946   5.388   2.504
 2035SOL    HW1 7004   5.995   5.380   2.591
 2035SOL    HW2 7005   5.886   5.468   2.507
 2036SOL     OW 7006   0.530   3.806   6.230
 2036SOL    HW1 7007   0.608   3.796   6.292
 2036SOL    HW2 7008   0.521   3.723   6.174
 2037SOL     OW 7009   0.709   2.383   6.417
 2037SOL    HW1 7010   0.678   2.454   6.480
 2037SOL    HW2 7011   0.726   2.423   6.327
 2038SOL     OW 7012   1.327   0.933   5.914
 2038SOL    HW1 7013   1.295   0.958   5.822
 2038SOL    HW2 7014   1.264   0.867   5.954
 2039SOL     OW 7015   5.195   5.842   4.209
 2039SOL    HW1 7016   5.278   5.895   4.229
 2039SOL    HW2 7017   5.221   5.749   4.182
 2040SOL     OW 7018   2.574   1.821   0.785
 2040SOL    HW1 7019   2.493   1.851   0.735
 2040SOL    HW2 7020   2.559   1.834   0.883
 2041SOL     OW 7021   3.139   6.631   7.018
 2041SOL    HW1 7022   3.083   6.606   0.075
 2041SOL    HW2 7023   3.183   6.720   0.014
 2042SOL     OW 7024   0.322   7.010   5.598
 2042SOL    HW1 7025   0.301   6.939   5.665
 2042SOL    HW2 7026   0.242   0.006   5.541
 2043SOL     OW 7027   0.663   3.816   0.131
 2043SOL    HW1 7028   0.582   3.771   0.168
 2043SOL    HW2 7029   0.724   3.746   0.092
 2044SOL     OW 7030   3.963   0.875   1.878
 2044SOL    HW1 7031   3.965   0.973   1.859
 2044SOL    HW2 7032   3.875   0.851   1.919
 2045SOL     OW 7033   1.872   5.927   3.251
 2045SOL    HW1 7034   1.818   5.998   3.296
 2045SOL    HW2 7035   1.903   5.959   3.162
 2046SOL     OW 7036   0.877   2.843   6.152
 2046SOL    HW1 7037   0.955   2.904   6.138
 2046SOL    HW2 7038   0.793   2.891   6.128
 2047SOL     OW 7039   6.931   0.064   1.398
 2047SOL    HW1 7040   6.857   0.123   1.430
 2047SOL    HW2 7041   6.912   6.991   1.425
 2048SOL     OW 7042   1.859   0.858   3.430
 2048SOL    HW1 7043   1.958   0.866   3.433
 2048SOL    HW2 7044   1.819   0.948   3.410
 2049SOL     OW 7045   4.639   2.101   5.380
 2049SOL    HW1 7046   4.724   2.061   5.415
 2049SOL    HW2 7047   4.659   2.159   5.301
 2050SOL     OW 7048   0.329   0.919   2.764
 2050SOL    HW1 7049   0.407   0.969   2.801
 2050SOL    HW2 7050   0.264   0.984   2.725
 2051SOL     OW 7051   2.893   6.946   6.634
 2051SOL    HW1 7052   2.924   6.851   6.623
 2051SOL    HW2 7053   2.935   7.003   6.563
 2052SOL     OW 7054   6.822   4.166   1.204
 2052SOL    HW1 7055   6.900   4.224   1.227
 2052SOL    HW2 7056   6.801   4.175   1.106
 2053SOL     OW 7057   4.971   4.852   1.930
 2053SOL    HW1 7058   5.029   4.934   1.925
 2053SOL    HW2 7059   4.961   4.813   1.839
 2054SOL     OW 7060   3.288   4.125   3.131
 2054SOL    HW1 7061   3.336   4.210   3.110
 2054SOL    HW2 7062   3.317   4.091   3.220
 2055SOL     OW 7063   4.113   2.708   5.962
 2055SOL    HW1 7064   4.121   2.652   6.044
 2055SOL    HW2 7065   4.119   2.805   5.987
 2056SOL     OW 7066   2.713   4.871   1.767
 2056SOL    HW1 7067   2.756   4.782   1.781
 2056SOL    HW2 7068   2.766   4.924   1.700
 2057SOL     OW 7069   5.804   3.025   3.809
 2057SOL    HW1 7070   5.708   3.020   3.834
 2057SOL    HW2 7071   5.854   3.077   3.878
 2058SOL     OW 7072   5.411   6.929   3.750
 2058SOL    HW1 7073   5.315   6.925   3.778
 2058SOL    HW2 7074   5.426   6.864   3.675
 2059SOL     OW 7075   2.371   1.474   5.882
 2059SOL    HW1 7076   2.288   1.481   5.938
 2059SOL    HW2 7077   2.359   1.401   5.814
 2060SOL     OW 7078   1.146   2.534   6.565
 2060SOL    HW1 7079   1.180   2.580   6.483
 2060SOL    HW2 7080   1.207   2.458   6.587
 2061SOL     OW 7081   1.867   2.043   4.064
 2061SOL    HW1 7082   1.848   2.140   4.072
 2061SOL    HW2 7083   1.880   2.003   4.155
 2062SOL     OW 7084   5.566   5.793   4.241
 2062SOL    HW1 7085   5.658   5.805   4.277
 2062SOL    HW2 7086   5.514   5.877   4.253
 2063SOL     OW 7087   1.355   1.502   4.086
 2063SOL    HW1 7088   1.417   1.502   4.164
 2063SOL    HW2 7089   1.390   1.564   4.016
 2064SOL     OW 7090   0.637   4.195   4.760
 2064SOL    HW1 7091   0.660   4.279   4.809
 2064SOL    HW2 7092   0.699   4.121   4.787
 2065SOL     OW 7093   3.986   3.443   6.077
 2065SOL    HW1 7094   3.938   3.364   6.116
 2065SOL    HW2 7095   4.048   3.481   6.146
 2066SOL     OW 7096   1.986   2.958   4.606
 2066SOL    HW1 7097   2.060   2.898   4.576
 2066SOL    HW2 7098   2.001   3.050   4.570
 2067SOL     OW 7099   6.566   5.121   2.419
 2067SOL    HW1 7100   6.524   5.197   2.369
 2067SOL    HW2 7101   6.645   5.087   2.368
 2068SOL     OW 7102   3.508   6.532   4.055
 2068SOL    HW1 7103   3.495   6.434   4.045
 2068SOL    HW2 7104   3.587   6.549   4.114
 2069SOL     OW 7105   6.553   1.620   3.263
 2069SOL    HW1 7106   6.464   1.657   3.236
 2069SOL    HW2 7107   6.549   1.591   3.358
 2070SOL     OW 7108   0.333   4.933   1.801
 2070SOL    HW1 7109   0.374   4.933   1.892
 2070SOL    HW2 7110   0.277   4.851   1.790
 2071SOL     OW 7111   6.827   2.323   4.110
 2071SOL    HW1 7112   6.797   2.385   4.183
 2071SOL    HW2 7113   6.908   2.361   4.065
 2072SOL     OW 7114   5.772   3.259   5.774
 2072SOL    HW1 7115   5.726   3.336   5.818
 2072SOL    HW2 7116   5.719   3.231   5.693
 2073SOL     OW 7117   3.761   5.165   0.194
 2073SOL    HW1 7118   3.742   5.068   0.177
 2073SOL    HW2 7119   3.718   5.192   0.280
 2074SOL     OW 7120   3.814   4.868   5.283
 2074SOL    HW1 7121   3.743   4.884   5.214
 2074SOL    HW2 7122   3.800   4.929   5.360
 2075SOL     OW 7123   5.407   1.800   1.123
 2075SOL    HW1 7124   5.328   1.744   1.148
 2075SOL    HW2 7125   5.374   1.888   1.088
 2076SOL     OW 7126   6.585   6.841   3.746
 2076SOL    HW1 7127   6.685   6.833   3.742
 2076SOL    HW2 7128   6.561   6.931   3.782
 2077SOL     OW 7129   0.187   4.229   1.016
 2077SOL    HW1 7130   0.165   4.299   0.947
 2077SOL    HW2 7131   0.241   4.270   1.089
 2078SOL     OW 7132   0.641   2.570   6.646
 2078SOL    HW1 7133   0.626   2.668   6.638
 2078SOL    HW2 7134   0.739   2.552   6.656
 2079SOL     OW 7135   6.277   1.983   3.186
 2079SOL    HW1 7136   6.200   2.016   3.132
 2079SOL    HW2 7137   6.289   1.885   3.171
 2080SOL     OW 7138   2.277   3.573   5.948
 2080SOL    HW1 7139   2.194   3.609   5.905
 2080SOL    HW2 7140   2.354   3.583   5.885
 2081SOL     OW 7141   0.632   6.045   2.657
 2081SOL    HW1 7142   0.643   6.117   2.588
 2081SOL    HW2 7143   0.543   6.055   2.701
 2082SOL     OW 7144   6.696   6.025   3.647
 2082SOL    HW1 7145   6.611   6.077   3.633
 2082SOL    HW2 7146   6.774   6.081   3.621
 2083SOL     OW 7147   0.708   5.315   3.597
 2083SOL    HW1 7148   0.644   5.351   3.529
 2083SOL    HW2 7149   0.746   5.228   3.564
 2084SOL     OW 7150   6.399   2.379   1.446
 2084SOL    HW1 7151   6.437   2.379   1.538
 2084SOL    HW2 7152   6.300   2.394   1.450
 2085SOL     OW 7153   6.036   5.642   6.908
 2085SOL    HW1 7154   6.110   5.580   6.882
 2085SOL    HW2 7155   5.956   5.589   6.935
 2086SOL     OW 7156   6.041   0.039   5.895
 2086SOL    HW1 7157   6.140   0.051   5.905
 2086SOL    HW2 7158   6.011   0.078   5.808
 2087SOL     OW 7159   4.619   1.713   6.800
 2087SOL    HW1 7160   4.644   1.810   6.796
 2087SOL    HW2 7161   4.600   1.680   6.707
 2088SOL     OW 7162   0.549   3.749   5.887
 2088SOL    HW1 7163   0.536   3.830   5.944
 2088SOL    HW2 7164   0.465   3.694   5.889
 2089SOL     OW 7165   3.157   5.139   5.342
 2089SOL    HW1 7166   3.153   5.053   5.394
 2089SOL    HW2 7167   3.100   5.131   5.260
 2090SOL     OW 7168   5.240   2.136   6.461
 2090SOL    HW1 7169   5.307   2.198   6.419
 2090SOL    HW2 7170   5.211   2.174   6.549
 2091SOL     OW 7171   5.429   6.637   0.839
 2091SOL    HW1 7172   5.511   6.687   0.814
 2091SOL    HW2 7173   5.348   6.695   0.827
 2092SOL     OW 7174   3.126   2.959   2.441
 2092SOL    HW1 7175   3.086   3.045   2.410
 2092SOL    HW2 7176   3.157   2.906   2.362
 2093SOL     OW 7177   4.909   6.698   0.513
 2093SOL    HW1 7178   5.000   6.665   0.489
 2093SOL    HW2 7179   4.917   6.787   0.559
 2094SOL     OW 7180   5.020   2.824   0.665
 2094SOL    HW1 7181   5.067   2.737   0.647
 2094SOL    HW2 7182   5.061   2.867   0.745
 2095SOL     OW 7183   4.942   5.239   2.942
 2095SOL    HW1 7184   4.961   5.296   3.022
 2095SOL    HW2 7185   4.860   5.184   2.959
 2096SOL     OW 7186   4.208   6.453   2.820
 2096SOL    HW1 7187   4.205   6.516   2.743
 2096SOL    HW2 7188   4.241   6.363   2.790
 2097SOL     OW 7189   1.686   5.724   5.641
 2097SOL    HW1 7190   1.596   5.696   5.607
 2097SOL    HW2 7191   1.748   5.740   5.564
 2098SOL     OW 7192   1.782   0.022   3.705
 2098SOL    HW1 7193   1.839   6.989   3.766
 2098SOL    HW2 7194   1.811   0.009   3.610
 2099SOL     OW 7195   4.241   1.865   6.824
 2099SOL    HW1 7196   4.245   1.920   6.741
 2099SOL    HW2 7197   4.334   1.841   6.853
 2100SOL     OW 7198   4.620   0.400   0.412
 2100SOL    HW1 7199   4.538   0.456   0.422
 2100SOL    HW2 7200   4.653   0.406   0.318
 2101SOL     OW 7201   1.734   0.695   2.657
 2101SOL    HW1 7202   1.667   0.718   2.586
 2101SOL    HW2 7203   1.687   0.646   2.731
 2102SOL     OW 7204   3.371   2.741   1.937
 2102SOL    HW1 7205   3.343   2.783   2.024
 2102SOL    HW2 7206   3.290   2.716   1.884
 2103SOL     OW 7207   1.885   0.086   1.236
 2103SOL    HW1 7208   1.812   0.125   1.180
 2103SOL    HW2 7209   1.925   0.158   1.293
 2104SOL     OW 7210   1.281   4.241   2.563
 2104SOL    HW1 7211   1.270   4.253   2.661
 2104SOL    HW2 7212   1.264   4.145   2.539
 2105SOL     OW 7213   5.316   6.705   5.085
 2105SOL    HW1 7214   5.402   6.698   5.136
 2105SOL    HW2 7215   5.285   6.614   5.060
 2106SOL     OW 7216   3.373   2.318   1.396
 2106SOL    HW1 7217   3.435   2.357   1.464
 2106SOL    HW2 7218   3.424   2.252   1.340
 2107SOL     OW 7219   5.442   4.193   4.760
 2107SOL    HW1 7220   5.513   4.260   4.780
 2107SOL    HW2 7221   5.366   4.205   4.824
 2108SOL     OW 7222   4.650   6.823   5.387
 2108SOL    HW1 7223   4.643   6.778   5.476
 2108SOL    HW2 7224   4.729   6.884   5.387
 2109SOL     OW 7225   2.851   5.741   1.754
 2109SOL    HW1 7226   2.794   5.738   1.671
 2109SOL    HW2 7227   2.940   5.699   1.734
 2110SOL     OW 7228   4.264   5.747   6.703
 2110SOL    HW1 7229   4.218   5.666   6.667
 2110SOL    HW2 7230   4.204   5.794   6.768
 2111SOL     OW 7231   0.260   2.852   0.349
 2111SOL    HW1 7232   0.292   2.851   0.444
 2111SOL    HW2 7233   0.251   2.759   0.316
 2112SOL     OW 7234   0.756   0.647   6.771
 2112SOL    HW1 7235   0.771   0.568   6.831
 2112SOL    HW2 7236   0.842   0.697   6.760
 2113SOL     OW 7237   6.841   1.476   4.488
 2113SOL    HW1 7238   6.913   1.501   4.422
 2113SOL    HW2 7239   6.793   1.558   4.518
 2114SOL     OW 7240   2.951   1.058   5.342
 2114SOL    HW1 7241   2.899   0.980   5.308
 2114SOL    HW2 7242   2.906   1.143   5.315
 2115SOL     OW 7243   6.667   6.584   3.652
 2115SOL    HW1 7244   6.635   6.676   3.671
 2115SOL    HW2 7245   6.619   6.518   3.709
 2116SOL     OW 7246   2.267   1.037   6.283
 2116SOL    HW1 7247   2.323   1.065   6.361
 2116SOL    HW2 7248   2.325   1.023   6.203
 2117SOL     OW 7249   5.731   2.914   2.154
 2117SOL    HW1 7250   5.700   2.963   2.236
 2117SOL    HW2 7251   5.651   2.886   2.100
 2118SOL     OW 7252   0.015   2.958   2.975
 2118SOL    HW1 7253   7.000   3.044   2.938
 2118SOL    HW2 7254   7.013   2.882   2.915
 2119SOL     OW 7255   1.711   2.611   0.457
 2119SOL    HW1 7256   1.739   2.558   0.537
 2119SOL    HW2 7257   1.695   2.706   0.483
 2120SOL     OW 7258   5.613   2.146   0.923
 2120SOL    HW1 7259   5.665   2.161   0.839
 2120SOL    HW2 7260   5.669   2.095   0.989
 2121SOL     OW 7261   3.081   6.272   1.526
 2121SOL    HW1 7262   3.003   6.231   1.480
 2121SOL    HW2 7263   3.055   6.363   1.561
 2122SOL     OW 7264   0.472   0.461   5.157
 2122SOL    HW1 7265   0.552   0.478   5.100
 2122SOL    HW2 7266   0.501   0.441   5.251
 2123SOL     OW 7267   1.198   4.732   3.154
 2123SOL    HW1 7268   1.193   4.800   3.081
 2123SOL    HW2 7269   1.147   4.765   3.233
 2124SOL     OW 7270   4.683   3.059   6.024
 2124SOL    HW1 7271   4.736   3.099   5.949
 2124SOL    HW2 7272   4.585   3.074   6.007
 2125SOL     OW 7273   1.749   5.440   5.837
 2125SOL    HW1 7274   1.783   5.371   5.901
 2125SOL    HW2 7275   1.671   5.487   5.877
 2126SOL     OW 7276   2.685   5.113   1.915
 2126SOL    HW1 7277   2.668   5.034   1.855
 2126SOL    HW2 7278   2.751   5.087   1.986
 2127SOL     OW 7279   1.382   3.415   4.172
 2127SOL    HW1 7280   1.372   3.360   4.089
 2127SOL    HW2 7281   1.480   3.428   4.192
 2128SOL     OW 7282   5.304   2.875   1.224
 2128SOL    HW1 7283   5.384   2.814   1.223
 2128SOL    HW2 7284   5.276   2.894   1.130
 2129SOL     OW 7285   6.058   4.113   3.870
 2129SOL    HW1 7286   5.975   4.151   3.829
 2129SOL    HW2 7287   6.120   4.083   3.798
 2130SOL     OW 7288   1.939   0.448   2.627
 2130SOL    HW1 7289   1.909   0.524   2.686
 2130SOL    HW2 7290   1.874   0.372   2.636
 2131SOL     OW 7291   5.496   0.868   6.790
 2131SOL    HW1 7292   5.398   0.856   6.776
 2131SOL    HW2 7293   5.542   0.779   6.785
 2132SOL     OW 7294   2.631   2.010   6.992
 2132SOL    HW1 7295   2.627   2.073   6.914
 2132SOL    HW2 7296   2.726   1.996   7.019
 2133SOL     OW 7297   4.215   2.615   1.665
 2133SOL    HW1 7298   4.234   2.586   1.571
 2133SOL    HW2 7299   4.235   2.713   1.674
 2134SOL     OW 7300   2.517   0.326   5.184
 2134SOL    HW1 7301   2.526   0.272   5.269
 2134SOL    HW2 7302   2.423   0.358   5.176
 2135SOL     OW 7303   1.058   5.840   4.538
 2135SOL    HW1 7304   1.098   5.803   4.454
 2135SOL    HW2 7305   0.984   5.903   4.515
 2136SOL     OW 7306   0.968   4.907   3.662
 2136SOL    HW1 7307   0.892   4.853   3.698
 2136SOL    HW2 7308   1.050   4.850   3.656
 2137SOL     OW 7309   0.268   7.021   4.815
 2137SOL    HW1 7310   0.324   0.071   4.775
 2137SOL    HW2 7311   0.308   6.932   4.793
 2138SOL     OW 7312   1.314   2.324   6.647
 2138SOL    HW1 7313   1.326   2.277   6.560
 2138SOL    HW2 7314   1.287   2.258   6.717
 2139SOL     OW 7315   3.117   6.176   4.558
 2139SOL    HW1 7316   3.124   6.126   4.472
 2139SOL    HW2 7317   3.117   6.275   4.540
 2140SOL     OW 7318   1.653   5.752   3.952
 2140SOL    HW1 7319   1.684   5.818   4.020
 2140SOL    HW2 7320   1.653   5.794   3.861
 2141SOL     OW 7321   6.717   1.121   6.714
 2141SOL    HW1 7322   6.706   1.183   6.792
 2141SOL    HW2 7323   6.745   1.173   6.634
 2142SOL     OW 7324   3.976   0.901   2.890
 2142SOL    HW1 7325   3.919   0.846   2.952
 2142SOL    HW2 7326   4.049   0.945   2.943
 2143SOL     OW 7327   3.592   5.863   0.670
 2143SOL    HW1 7328   3.533   5.801   0.618
 2143SOL    HW2 7329   3.583   5.843   0.768
 2144SOL     OW 7330   1.198   1.244   1.791
 2144SOL    HW1 7331   1.213   1.328   1.842
 2144SOL    HW2 7332   1.229   1.166   1.846
 2145SOL     OW 7333   2.408   6.204   3.902
 2145SOL    HW1 7334   2.383   6.108   3.908
 2145SOL    HW2 7335   2.506   6.214   3.914
 2146SOL     OW 7336   2.910   2.500   1.056
 2146SOL    HW1 7337   2.839   2.439   1.092
 2146SOL    HW2 7338   2.901   2.506   0.957
 2147SOL     OW 7339   6.806   0.079   4.736
 2147SOL    HW1 7340   6.748   0.007   4.697
 2147SOL    HW2 7341   6.760   0.167   4.728
 2148SOL     OW 7342   6.624   3.912   4.307
 2148SOL    HW1 7343   6.668   3.971   4.239
 2148SOL    HW2 7344   6.634   3.952   4.398
 2149SOL     OW 7345   2.784   0.917   2.656
 2149SOL    HW1 7346   2.704   0.956   2.703
 2149SOL    HW2 7347   2.861   0.979   2.666
 2150SOL     OW 7348   4.910   0.221   2.488
 2150SOL    HW1 7349   4.913   0.271   2.575
 2150SOL    HW2 7350   4.923   0.286   2.412
 2151SOL     OW 7351   4.307   4.878   5.762
 2151SOL    HW1 7352   4.235   4.843   5.702
 2151SOL    HW2 7353   4.270   4.953   5.817
 2152SOL     OW 7354   0.260   6.612   2.783
 2152SOL    HW1 7355   0.358   6.602   2.803
 2152SOL    HW2 7356   0.215   6.658   2.860
 2153SOL     OW 7357   4.354   1.386   3.617
 2153SOL    HW1 7358   4.336   1.330   3.698
 2153SOL    HW2 7359   4.415   1.336   3.555
 2154SOL     OW 7360   3.845   6.644   4.486
 2154SOL    HW1 7361   3.796   6.597   4.413
 2154SOL    HW2 7362   3.807   6.619   4.575
 2155SOL     OW 7363   6.156   3.487   0.525
 2155SOL    HW1 7364   6.123   3.571   0.482
 2155SOL    HW2 7365   6.081   3.422   0.534
 2156SOL     OW 7366   6.208   6.310   2.531
 2156SOL    HW1 7367   6.239   6.332   2.623
 2156SOL    HW2 7368   6.284   6.270   2.479
 2157SOL     OW 7369   5.969   1.292   3.494
 2157SOL    HW1 7370   6.048   1.337   3.453
 2157SOL    HW2 7371   5.885   1.329   3.455
 2158SOL     OW 7372   4.337   0.136   3.472
 2158SOL    HW1 7373   4.436   0.139   3.488
 2158SOL    HW2 7374   4.309   0.043   3.449
 2159SOL     OW 7375   2.518   1.047   5.636
 2159SOL    HW1 7376   2.523   0.968   5.696
 2159SOL    HW2 7377   2.605   1.097   5.641
 2160SOL     OW 7378   2.432   4.240   0.581
 2160SOL    HW1 7379   2.339   4.263   0.612
 2160SOL    HW2 7380   2.474   4.322   0.541
 2161SOL     OW 7381   4.332   2.407   3.389
 2161SOL    HW1 7382   4.274   2.351   3.447
 2161SOL    HW2 7383   4.297   2.500   3.386
 2162SOL     OW 7384   2.747   1.811   2.376
 2162SOL    HW1 7385   2.687   1.756   2.434
 2162SOL    HW2 7386   2.795   1.879   2.433
 2163SOL     OW 7387   3.373   2.024   0.999
 2163SOL    HW1 7388   3.359   2.069   0.911
 2163SOL    HW2 7389   3.390   1.926   0.984
 2164SOL     OW 7390   6.507   0.966   1.603
 2164SOL    HW1 7391   6.563   0.945   1.684
 2164SOL    HW2 7392   6.477   0.881   1.561
 2165SOL     OW 7393   2.649   0.778   2.107
 2165SOL    HW1 7394   2.621   0.841   2.034
 2165SOL    HW2 7395   2.743   0.797   2.133
 2166SOL     OW 7396   5.404   2.829   4.943
 2166SOL    HW1 7397   5.383   2.877   5.028
 2166SOL    HW2 7398   5.319   2.796   4.901
 2167SOL     OW 7399   3.385   1.695   0.990
 2167SOL    HW1 7400   3.335   1.681   1.075
 2167SOL    HW2 7401   3.380   1.612   0.934
 2168SOL     OW 7402   5.342   6.270   4.295
 2168SOL    HW1 7403   5.340   6.231   4.203
 2168SOL    HW2 7404   5.433   6.256   4.335
 2169SOL     OW 7405   5.526   1.511   5.911
 2169SOL    HW1 7406   5.520   1.479   5.816
 2169SOL    HW2 7407   5.445   1.479   5.962
 2170SOL     OW 7408   5.227   5.148   3.967
 2170SOL    HW1 7409   5.259   5.224   3.910
 2170SOL    HW2 7410   5.193   5.184   4.054
 2171SOL     OW 7411   0.270   3.965   0.169
 2171SOL    HW1 7412   0.320   3.880   0.188
 2171SOL    HW2 7413   0.325   4.043   0.199
 2172SOL     OW 7414   2.392   0.110   2.617
 2172SOL    HW1 7415   2.390   0.206   2.647
 2172SOL    HW2 7416   2.408   0.107   2.518
 2173SOL     OW 7417   4.807   2.093   4.640
 2173SOL    HW1 7418   4.793   2.077   4.738
 2173SOL    HW2 7419   4.725   2.137   4.602
 2174SOL     OW 7420   1.338   5.933   4.978
 2174SOL    HW1 7421   1.430   5.902   4.999
 2174SOL    HW2 7422   1.324   6.025   5.015
 2175SOL     OW 7423   1.705   6.738   6.278
 2175SOL    HW1 7424   1.702   6.663   6.344
 2175SOL    HW2 7425   1.795   6.741   6.235
 2176SOL     OW 7426   1.920   2.894   2.624
 2176SOL    HW1 7427   1.920   2.916   2.722
 2176SOL    HW2 7428   1.900   2.797   2.612
 2177SOL     OW 7429   1.070   1.585   1.741
 2177SOL    HW1 7430   1.015   1.667   1.732
 2177SOL    HW2 7431   1.162   1.609   1.774
 2178SOL     OW 7432   6.480   6.013   0.120
 2178SOL    HW1 7433   6.427   5.932   0.146
 2178SOL    HW2 7434   6.474   6.081   0.194
 2179SOL     OW 7435   2.160   3.807   4.069
 2179SOL    HW1 7436   2.202   3.897   4.061
 2179SOL    HW2 7437   2.126   3.794   4.162
 2180SOL     OW 7438   2.920   3.069   1.905
 2180SOL    HW1 7439   2.991   3.037   1.843
 2180SOL    HW2 7440   2.962   3.110   1.986
 2181SOL     OW 7441   3.395   6.652   1.105
 2181SOL    HW1 7442   3.420   6.566   1.150
 2181SOL    HW2 7443   3.349   6.631   1.019
 2182SOL     OW 7444   4.192   3.343   0.854
 2182SOL    HW1 7445   4.266   3.383   0.800
 2182SOL    HW2 7446   4.226   3.265   0.905
 2183SOL     OW 7447   4.165   2.856   0.829
 2183SOL    HW1 7448   4.253   2.902   0.841
 2183SOL    HW2 7449   4.095   2.905   0.880
 2184SOL     OW 7450   4.970   2.628   5.635
 2184SOL    HW1 7451   4.944   2.710   5.583
 2184SOL    HW2 7452   5.059   2.642   5.677
 2185SOL     OW 7453   6.720   6.679   2.453
 2185SOL    HW1 7454   6.651   6.689   2.382
 2185SOL    HW2 7455   6.768   6.767   2.465
 2186SOL     OW 7456   0.216   4.275   3.608
 2186SOL    HW1 7457   0.192   4.308   3.517
 2186SOL    HW2 7458   0.192   4.178   3.616
 2187SOL     OW 7459   6.330   1.278   0.170
 2187SOL    HW1 7460   6.391   1.288   0.091
 2187SOL    HW2 7461   6.334   1.183   0.203
 2188SOL     OW 7462   4.331   1.177   3.815
 2188SOL    HW1 7463   4.266   1.218   3.880
 2188SOL    HW2 7464   4.410   1.143   3.864
 2189SOL     OW 7465   3.792   6.396   0.163
 2189SOL    HW1 7466   3.812   6.355   0.074
 2189SOL    HW2 7467   3.709   6.452   0.155
 2190SOL     OW 7468   5.307   3.426   0.356
 2190SOL    HW1 7469   5.394   3.474   0.341
 2190SOL    HW2 7470   5.322   3.351   0.420
 2191SOL     OW 7471   3.755   0.810   6.728
 2191SOL    HW1 7472   3.683   0.762   6.778
 2191SOL    HW2 7473   3.714   0.872   6.661
 2192SOL     OW 7474   3.956   6.238   2.322
 2192SOL    HW1 7475   3.884   6.168   2.321
 2192SOL    HW2 7476   4.045   6.194   2.314
 2193SOL     OW 7477   6.851   6.083   4.687
 2193SOL    HW1 7478   6.879   6.135   4.607
 2193SOL    HW2 7479   6.932   6.043   4.731
 2194SOL     OW 7480   2.509   0.188   1.653
 2194SOL    HW1 7481   2.564   0.227   1.579
 2194SOL    HW2 7482   2.468   0.102   1.622
 2195SOL     OW 7483   0.259   4.609   2.089
 2195SOL    HW1 7484   0.232   4.549   2.164
 2195SOL    HW2 7485   0.189   4.680   2.077
 2196SOL     OW 7486   4.149   3.847   0.052
 2196SOL    HW1 7487   4.049   3.856   0.052
 2196SOL    HW2 7488   4.178   3.796   6.993
 2197SOL     OW 7489   4.930   3.494   6.931
 2197SOL    HW1 7490   4.915   3.584   6.891
 2197SOL    HW2 7491   4.871   3.426   6.886
 2198SOL     OW 7492   0.027   3.884   0.418
 2198SOL    HW1 7493   0.077   3.970   0.430
 2198SOL    HW2 7494   7.003   3.884   0.329
 2199SOL     OW 7495   4.198   1.122   3.308
 2199SOL    HW1 7496   4.163   1.037   3.346
 2199SOL    HW2 7497   4.284   1.105   3.261
 2200SOL     OW 7498   3.909   6.898   4.022
 2200SOL    HW1 7499   3.933   6.960   4.095
 2200SOL    HW2 7500   3.810   6.882   4.023
 2201SOL     OW 7501   4.853   4.497   4.133
 2201SOL    HW1 7502   4.924   4.470   4.198
 2201SOL    HW2 7503   4.809   4.581   4.164
 2202SOL     OW 7504   4.576   5.768   3.458
 2202SOL    HW1 7505   4.490   5.795   3.416
 2202SOL    HW2 7506   4.561   5.749   3.555
 2203SOL     OW 7507   2.169   1.776   2.819
 2203SOL    HW1 7508   2.201   1.752   2.728
 2203SOL    HW2 7509   2.221   1.724   2.887
 2204SOL     OW 7510   3.285   2.310   1.101
 2204SOL    HW1 7511   3.206   2.300   1.162
 2204SOL    HW2 7512   3.311   2.220   1.065
 2205SOL     OW 7513   3.380   1.458   2.186
 2205SOL    HW1 7514   3.354   1.382   2.246
 2205SOL    HW2 7515   3.427   1.421   2.105
 2206SOL     OW 7516   1.270   4.274   0.194
 2206SOL    HW1 7517   1.322   4.347   0.149
 2206SOL    HW2 7518   1.274   4.191   0.138
 2207SOL     OW 7519   6.843   4.622   4.945
 2207SOL    HW1 7520   6.912   4.649   4.878
 2207SOL    HW2 7521   6.846   4.523   4.958
 2208SOL     OW 7522   6.594   5.427   1.737
 2208SOL    HW1 7523   6.641   5.342   1.710
 2208SOL    HW2 7524   6.495   5.410   1.738
 2209SOL     OW 7525   6.901   6.561   1.971
 2209SOL    HW1 7526   6.903   6.627   2.046
 2209SOL    HW2 7527   6.946   6.600   1.890
 2210SOL     OW 7528   2.650   4.872   3.862
 2210SOL    HW1 7529   2.663   4.945   3.929
 2210SOL    HW2 7530   2.561   4.882   3.818
 2211SOL     OW 7531   6.667   1.221   5.556
 2211SOL    HW1 7532   6.761   1.196   5.534
 2211SOL    HW2 7533   6.660   1.241   5.653
 2212SOL     OW 7534   3.219   6.986   6.339
 2212SOL    HW1 7535   3.199   6.989   6.241
 2212SOL    HW2 7536   3.169   0.037   6.385
 2213SOL     OW 7537   4.783   0.565   3.505
 2213SOL    HW1 7538   4.753   0.534   3.415
 2213SOL    HW2 7539   4.856   0.633   3.494
 2214SOL     OW 7540   3.841   6.887   4.749
 2214SOL    HW1 7541   3.753   6.933   4.735
 2214SOL    HW2 7542   3.894   6.890   4.664
 2215SOL     OW 7543   5.628   2.117   5.238
 2215SOL    HW1 7544   5.690   2.192   5.215
 2215SOL    HW2 7545   5.535   2.142   5.209
 2216SOL     OW 7546   3.032   1.798   2.707
 2216SOL    HW1 7547   2.939   1.764   2.719
 2216SOL    HW2 7548   3.095   1.722   2.696
 2217SOL     OW 7549   2.817   6.690   1.414
 2217SOL    HW1 7550   2.884   6.760   1.389
 2217SOL    HW2 7551   2.859   6.626   1.478
 2218SOL     OW 7552   0.233   0.673   2.173
 2218SOL    HW1 7553   0.141   0.650   2.141
 2218SOL    HW2 7554   0.269   0.749   2.119
 2219SOL     OW 7555   2.882   2.235   3.036
 2219SOL    HW1 7556   2.930   2.284   2.964
 2219SOL    HW2 7557   2.863   2.141   3.006
 2220SOL     OW 7558   1.825   6.994   2.376
 2220SOL    HW1 7559   1.829   0.046   2.443
 2220SOL    HW2 7560   1.778   0.004   2.293
 2221SOL     OW 7561   0.608   6.721   5.774
 2221SOL    HW1 7562   0.612   6.634   5.822
 2221SOL    HW2 7563   0.567   6.708   5.684
 2222SOL     OW 7564   6.056   5.148   3.949
 2222SOL    HW1 7565   5.994   5.216   3.909
 2222SOL    HW2 7566   6.074   5.076   3.882
 2223SOL     OW 7567   0.160   6.919   2.269
 2223SOL    HW1 7568   0.189   7.012   2.291
 2223SOL    HW2 7569   0.176   6.902   2.171
 2224SOL     OW 7570   1.023   6.079   0.232
 2224SOL    HW1 7571   0.928   6.092   0.263
 2224SOL    HW2 7572   1.080   6.053   0.310
 2225SOL     OW 7573   0.638   4.262   0.577
 2225SOL    HW1 7574   0.678   4.210   0.654
 2225SOL    HW2 7575   0.705   4.268   0.503
 2226SOL     OW 7576   3.736   3.592   2.407
 2226SOL    HW1 7577   3.647   3.622   2.374
 2226SOL    HW2 7578   3.802   3.593   2.332
 2227SOL     OW 7579   0.664   1.916   4.482
 2227SOL    HW1 7580   0.610   1.997   4.459
 2227SOL    HW2 7581   0.679   1.913   4.581
 2228SOL     OW 7582   2.331   4.373   4.419
 2228SOL    HW1 7583   2.309   4.440   4.348
 2228SOL    HW2 7584   2.321   4.416   4.509
 2229SOL     OW 7585   6.309   6.322   3.301
 2229SOL    HW1 7586   6.293   6.385   3.224
 2229SOL    HW2 7587   6.288   6.368   3.387
 2230SOL     OW 7588   2.029   5.237   2.941
 2230SOL    HW1 7589   2.061   5.153   2.984
 2230SOL    HW2 7590   2.077   5.316   2.980
 2231SOL     OW 7591   1.907   5.836   1.170
 2231SOL    HW1 7592   2.002   5.842   1.202
 2231SOL    HW2 7593   1.871   5.928   1.154
 2232SOL     OW 7594   5.849   1.867   4.038
 2232SOL    HW1 7595   5.760   1.913   4.029
 2232SOL    HW2 7596   5.838   1.771   4.014
 2233SOL     OW 7597   3.743   1.181   0.297
 2233SOL    HW1 7598   3.754   1.083   0.315
 2233SOL    HW2 7599   3.833   1.225   0.300
 2234SOL     OW 7600   4.263   2.595   1.406
 2234SOL    HW1 7601   4.276   2.496   1.399
 2234SOL    HW2 7602   4.254   2.634   1.314
 2235SOL     OW 7603   1.974   2.188   2.301
 2235SOL    HW1 7604   2.019   2.120   2.244
 2235SOL    HW2 7605   2.031   2.208   2.380
 2236SOL     OW 7606   0.885   4.168   5.680
 2236SOL    HW1 7607   0.814   4.102   5.655
 2236SOL    HW2 7608   0.858   4.259   5.649
 2237SOL     OW 7609   6.661   2.824   3.975
 2237SOL    HW1 7610   6.694   2.878   4.053
 2237SOL    HW2 7611   6.726   2.751   3.955
 2238SOL     OW 7612   5.271   5.705   6.864
 2238SOL    HW1 7613   5.262   5.704   6.963
 2238SOL    HW2 7614   5.271   5.800   6.832
 2239SOL     OW 7615   0.233   5.613   0.984
 2239SOL    HW1 7616   0.270   5.699   1.019
 2239SOL    HW2 7617   0.229   5.547   1.059
 2240SOL     OW 7618   5.863   4.044   1.522
 2240SOL    HW1 7619   5.859   4.131   1.572
 2240SOL    HW2 7620   5.798   4.045   1.446
 2241SOL     OW 7621   1.107   0.304   4.221
 2241SOL    HW1 7622   1.104   0.391   4.171
 2241SOL    HW2 7623   1.153   0.318   4.309
 2242SOL     OW 7624   2.762   1.563   3.009
 2242SOL    HW1 7625   2.745   1.465   3.020
 2242SOL    HW2 7626   2.690   1.615   3.055
 2243SOL     OW 7627   1.886   0.381   4.774
 2243SOL    HW1 7628   1.864   0.384   4.872
 2243SOL    HW2 7629   1.906   0.287   4.748
 2244SOL     OW 7630   3.564   0.532   5.223
 2244SOL    HW1 7631   3.633   0.488   5.281
 2244SOL    HW2 7632   3.534   0.468   5.152
 2245SOL     OW 7633   0.669   2.941   2.413
 2245SOL    HW1 7634   0.598   2.970   2.477
 2245SOL    HW2 7635   0.712   2.857   2.447
 2246SOL     OW 7636   0.698   4.260   5.409
 2246SOL    HW1 7637   0.694   4.250   5.309
 2246SOL    HW2 7638   0.717   4.171   5.450
 2247SOL     OW 7639   1.983   1.464   4.260
 2247SOL    HW1 7640   2.078   1.439   4.278
 2247SOL    HW2 7641   1.936   1.482   4.347
 2248SOL     OW 7642   5.548   3.806   5.778
 2248SOL    HW1 7643   5.583   3.751   5.854
 2248SOL    HW2 7644   5.616   3.807   5.704
 2249SOL     OW 7645   5.127   5.634   5.354
 2249SOL    HW1 7646   5.105   5.694   5.431
 2249SOL    HW2 7647   5.184   5.559   5.386
 2250SOL     OW 7648   4.567   4.832   1.603
 2250SOL    HW1 7649   4.615   4.776   1.670
 2250SOL    HW2 7650   4.493   4.882   1.648
 2251SOL     OW 7651   0.406   0.768   5.210
 2251SOL    HW1 7652   0.462   0.699   5.164
 2251SOL    HW2 7653   0.439   0.859   5.187
 2252SOL     OW 7654   3.397   1.100   6.669
 2252SOL    HW1 7655   3.415   1.092   6.572
 2252SOL    HW2 7656   3.358   1.191   6.688
 2253SOL     OW 7657   0.758   3.940   0.572
 2253SOL    HW1 7658   0.740   3.884   0.653
 2253SOL    HW2 7659   0.671   3.974   0.535
 2254SOL     OW 7660   1.156   4.568   6.500
 2254SOL    HW1 7661   1.175   4.606   6.409
 2254SOL    HW2 7662   1.120   4.475   6.490
 2255SOL     OW 7663   6.624   3.644   6.212
 2255SOL    HW1 7664   6.718   3.645   6.247
 2255SOL    HW2 7665   6.572   3.572   6.259
 2256SOL     OW 7666   2.516   4.891   2.358
 2256SOL    HW1 7667   2.576   4.819   2.323
 2256SOL    HW2 7668   2.437   4.901   2.296
 2257SOL     OW 7669   1.377   4.425   5.381
 2257SOL    HW1 7670   1.279   4.445   5.376
 2257SOL    HW2 7671   1.396   4.343   5.326
 2258SOL     OW 7672   2.108   5.470   5.579
 2258SOL    HW1 7673   2.032   5.405   5.573
 2258SOL    HW2 7674   2.077   5.555   5.622
 2259SOL     OW 7675   6.071   1.880   6.156
 2259SOL    HW1 7676   5.995   1.826   6.192
 2259SOL    HW2 7677   6.155   1.826   6.162
 2260SOL     OW 7678   3.835   3.060   0.453
 2260SOL    HW1 7679   3.844   3.159   0.460
 2260SOL    HW2 7680   3.895   3.016   0.520
 2261SOL     OW 7681   2.319   6.380   5.137
 2261SOL    HW1 7682   2.232   6.363   5.183
 2261SOL    HW2 7683   2.357   6.294   5.104
 2262SOL     OW 7684   3.303   1.593   3.335
 2262SOL    HW1 7685   3.255   1.602   3.422
 2262SOL    HW2 7686   3.253   1.641   3.263
 2263SOL     OW 7687   1.071   4.519   5.676
 2263SOL    HW1 7688   1.068   4.557   5.768
 2263SOL    HW2 7689   0.990   4.462   5.660
 2264SOL     OW 7690   3.729   3.556   3.698
 2264SOL    HW1 7691   3.778   3.472   3.673
 2264SOL    HW2 7692   3.632   3.545   3.678
 2265SOL     OW 7693   1.351   6.666   4.935
 2265SOL    HW1 7694   1.330   6.754   4.893
 2265SOL    HW2 7695   1.432   6.626   4.892
 2266SOL     OW 7696   6.841   0.717   5.640
 2266SOL    HW1 7697   6.878   0.752   5.554
 2266SOL    HW2 7698   6.907   0.654   5.682
 2267SOL     OW 7699   5.599   1.873   5.091
 2267SOL    HW1 7700   5.613   1.955   5.146
 2267SOL    HW2 7701   5.684   1.851   5.042
 2268SOL     OW 7702   0.382   6.325   0.456
 2268SOL    HW1 7703   0.358   6.281   0.543
 2268SOL    HW2 7704   0.357   6.266   0.380
 2269SOL     OW 7705   0.439   6.529   3.127
 2269SOL    HW1 7706   0.390   6.443   3.138
 2269SOL    HW2 7707   0.464   6.542   3.031
 2270SOL     OW 7708   3.711   3.021   3.339
 2270SOL    HW1 7709   3.790   3.080   3.324
 2270SOL    HW2 7710   3.676   2.989   3.250
 2271SOL     OW 7711   1.798   4.525   2.545
 2271SOL    HW1 7712   1.870   4.568   2.600
 2271SOL    HW2 7713   1.713   4.576   2.555
 2272SOL     OW 7714   4.859   0.472   5.359
 2272SOL    HW1 7715   4.921   0.541   5.397
 2272SOL    HW2 7716   4.844   0.490   5.262
 2273SOL     OW 7717   0.779   1.719   2.151
 2273SOL    HW1 7718   0.720   1.796   2.173
 2273SOL    HW2 7719   0.826   1.688   2.233
 2274SOL     OW 7720   0.790   4.329   3.729
 2274SOL    HW1 7721   0.817   4.425   3.735
 2274SOL    HW2 7722   0.698   4.322   3.689
 2275SOL     OW 7723   4.644   6.732   2.850
 2275SOL    HW1 7724   4.741   6.720   2.871
 2275SOL    HW2 7725   4.604   6.644   2.825
 2276SOL     OW 7726   3.497   5.657   2.510
 2276SOL    HW1 7727   3.516   5.678   2.414
 2276SOL    HW2 7728   3.573   5.605   2.548
 2277SOL     OW 7729   3.247   3.410   2.241
 2277SOL    HW1 7730   3.187   3.346   2.194
 2277SOL    HW2 7731   3.211   3.502   2.232
 2278SOL     OW 7732   3.782   5.174   1.141
 2278SOL    HW1 7733   3.811   5.126   1.224
 2278SOL    HW2 7734   3.685   5.200   1.150
 2279SOL     OW 7735   6.016   3.780   5.656
 2279SOL    HW1 7736   6.056   3.691   5.676
 2279SOL    HW2 7737   6.064   3.821   5.578
 2280SOL     OW 7738   5.823   0.458   5.973
 2280SOL    HW1 7739   5.787   0.479   5.882
 2280SOL    HW2 7740   5.829   0.359   5.984
 2281SOL     OW 7741   2.523   0.706   0.926
 2281SOL    HW1 7742   2.569   0.762   0.995
 2281SOL    HW2 7743   2.580   0.627   0.903
 2282SOL     OW 7744   3.886   6.326   2.565
 2282SOL    HW1 7745   3.931   6.415   2.571
 2282SOL    HW2 7746   3.905   6.284   2.476
 2283SOL     OW 7747   0.726   3.230   1.486
 2283SOL    HW1 7748   0.633   3.227   1.524
 2283SOL    HW2 7749   0.792   3.222   1.561
 2284SOL     OW 7750   2.189   3.257   1.087
 2284SOL    HW1 7751   2.282   3.248   1.122
 2284SOL    HW2 7752   2.141   3.169   1.098
 2285SOL     OW 7753   2.021   2.601   6.453
 2285SOL    HW1 7754   2.037   2.697   6.433
 2285SOL    HW2 7755   2.026   2.586   6.552
 2286SOL     OW 7756   6.449   6.892   4.321
 2286SOL    HW1 7757   6.510   6.879   4.243
 2286SOL    HW2 7758   6.374   6.827   4.317
 2287SOL     OW 7759   2.315   1.338   0.795
 2287SOL    HW1 7760   2.255   1.414   0.819
 2287SOL    HW2 7761   2.376   1.319   0.871
 2288SOL     OW 7762   2.578   6.410   4.784
 2288SOL    HW1 7763   2.613   6.447   4.870
 2288SOL    HW2 7764   2.500   6.351   4.803
 2289SOL     OW 7765   3.754   0.117   6.545
 2289SOL    HW1 7766   3.746   0.017   6.554
 2289SOL    HW2 7767   3.693   0.149   6.472
 2290SOL     OW 7768   2.952   3.534   5.101
 2290SOL    HW1 7769   2.903   3.587   5.170
 2290SOL    HW2 7770   3.027   3.588   5.064
 2291SOL     OW 7771   2.780   1.880   0.311
 2291SOL    HW1 7772   2.861   1.863   0.366
 2291SOL    HW2 7773   2.806   1.891   0.215
 2292SOL     OW 7774   5.484   2.429   3.157
 2292SOL    HW1 7775   5.546   2.402   3.231
 2292SOL    HW2 7776   5.398   2.460   3.196
 2293SOL     OW 7777   0.611   0.909   0.173
 2293SOL    HW1 7778   0.629   0.970   0.251
 2293SOL    HW2 7779   0.514   0.885   0.171
 2294SOL     OW 7780   6.385   2.225   5.070
 2294SOL    HW1 7781   6.381   2.252   4.974
 2294SOL    HW2 7782   6.332   2.290   5.125
 2295SOL     OW 7783   5.866   6.001   0.783
 2295SOL    HW1 7784   5.921   6.078   0.815
 2295SOL    HW2 7785   5.800   5.975   0.854
 2296SOL     OW 7786   3.631   5.673   4.460
 2296SOL    HW1 7787   3.711   5.648   4.405
 2296SOL    HW2 7788   3.643   5.765   4.497
 2297SOL     OW 7789   6.102   2.733   6.762
 2297SOL    HW1 7790   6.165   2.742   6.839
 2297SOL    HW2 7791   6.059   2.643   6.765
 2298SOL     OW 7792   2.777   3.944   5.215
 2298SOL    HW1 7793   2.686   3.977   5.187
 2298SOL    HW2 7794   2.798   3.978   5.306
 2299SOL     OW 7795   5.857   3.445   4.382
 2299SOL    HW1 7796   5.831   3.526   4.434
 2299SOL    HW2 7797   5.865   3.468   4.285
 2300SOL     OW 7798   4.940   0.074   2.808
 2300SOL    HW1 7799   4.854   0.024   2.814
 2300SOL    HW2 7800   4.988   0.047   2.724
 2301SOL     OW 7801   4.084   3.062   5.304
 2301SOL    HW1 7802   4.067   3.128   5.231
 2301SOL    HW2 7803   4.144   3.103   5.373
 2302SOL     OW 7804   0.011   3.609   5.481
 2302SOL    HW1 7805   7.015   3.687   5.540
 2302SOL    HW2 7806   0.107   3.582   5.489
 2303SOL     OW 7807   2.831   1.747   6.204
 2303SOL    HW1 7808   2.905   1.686   6.173
 2303SOL    HW2 7809   2.856   1.786   6.293
 2304SOL     OW 7810   4.899   6.752   2.434
 2304SOL    HW1 7811   4.839   6.703   2.496
 2304SOL    HW2 7812   4.916   6.696   2.353
 2305SOL     OW 7813   2.847   6.349   5.129
 2305SOL    HW1 7814   2.839   6.254   5.097
 2305SOL    HW2 7815   2.882   6.349   5.223
 2306SOL     OW 7816   0.873   4.745   4.870
 2306SOL    HW1 7817   0.859   4.662   4.923
 2306SOL    HW2 7818   0.971   4.768   4.868
 2307SOL     OW 7819   6.241   3.654   4.814
 2307SOL    HW1 7820   6.191   3.740   4.820
 2307SOL    HW2 7821   6.194   3.584   4.868
 2308SOL     OW 7822   0.934   5.900   2.302
 2308SOL    HW1 7823   1.028   5.932   2.312
 2308SOL    HW2 7824   0.930   5.829   2.231
 2309SOL     OW 7825   1.770   0.892   4.482
 2309SOL    HW1 7826   1.790   0.903   4.579
 2309SOL    HW2 7827   1.748   0.981   4.442
 2310SOL     OW 7828   5.270   6.227   0.543
 2310SOL    HW1 7829   5.274   6.137   0.586
 2310SOL    HW2 7830   5.177   6.246   0.512
 2311SOL     OW 7831   2.716   5.849   0.805
 2311SOL    HW1 7832   2.809   5.877   0.782
 2311SOL    HW2 7833   2.690   5.892   0.892
 2312SOL     OW 7834   2.612   4.730   2.743
 2312SOL    HW1 7835   2.595   4.662   2.672
 2312SOL    HW2 7836   2.646   4.814   2.701
 2313SOL     OW 7837   4.655   5.331   1.337
 2313SOL    HW1 7838   4.559   5.309   1.356
 2313SOL    HW2 7839   4.714   5.280   1.399
 2314SOL     OW 7840   2.346   4.413   2.862
 2314SOL    HW1 7841   2.399   4.480   2.914
 2314SOL    HW2 7842   2.373   4.415   2.766
 2315SOL     OW 7843   4.088   1.591   6.338
 2315SOL    HW1 7844   4.025   1.537   6.393
 2315SOL    HW2 7845   4.077   1.567   6.241
 2316SOL     OW 7846   5.295   3.424   1.436
 2316SOL    HW1 7847   5.318   3.340   1.387
 2316SOL    HW2 7848   5.329   3.502   1.385
 2317SOL     OW 7849   0.958   5.831   4.064
 2317SOL    HW1 7850   0.871   5.788   4.040
 2317SOL    HW2 7851   1.025   5.812   3.992
 2318SOL     OW 7852   6.876   1.694   3.724
 2318SOL    HW1 7853   6.820   1.758   3.777
 2318SOL    HW2 7854   6.922   1.743   3.650
 2319SOL     OW 7855   0.962   4.865   2.434
 2319SOL    HW1 7856   1.040   4.808   2.409
 2319SOL    HW2 7857   0.977   4.902   2.526
 2320SOL     OW 7858   6.487   4.616   4.201
 2320SOL    HW1 7859   6.577   4.622   4.159
 2320SOL    HW2 7860   6.420   4.586   4.134
 2321SOL     OW 7861   3.787   4.905   4.140
 2321SOL    HW1 7862   3.762   4.957   4.221
 2321SOL    HW2 7863   3.705   4.866   4.098
 2322SOL     OW 7864   2.154   1.165   4.643
 2322SOL    HW1 7865   2.205   1.242   4.680
 2322SOL    HW2 7866   2.181   1.150   4.548
 2323SOL     OW 7867   5.456   3.330   1.683
 2323SOL    HW1 7868   5.475   3.240   1.643
 2323SOL    HW2 7869   5.414   3.389   1.614
 2324SOL     OW 7870   6.954   5.289   3.976
 2324SOL    HW1 7871   6.871   5.284   4.032
 2324SOL    HW2 7872   6.930   5.282   3.880
 2325SOL     OW 7873   6.231   1.870   0.496
 2325SOL    HW1 7874   6.244   1.957   0.543
 2325SOL    HW2 7875   6.311   1.812   0.510
 2326SOL     OW 7876   0.843   5.144   0.504
 2326SOL    HW1 7877   0.837   5.139   0.404
 2326SOL    HW2 7878   0.760   5.186   0.539
 2327SOL     OW 7879   4.553   1.341   3.077
 2327SOL    HW1 7880   4.576   1.291   2.993
 2327SOL    HW2 7881   4.635   1.354   3.132
 2328SOL     OW 7882   6.268   5.039   3.485
 2328SOL    HW1 7883   6.284   5.027   3.387
 2328SOL    HW2 7884   6.177   5.078   3.499
 2329SOL     OW 7885   1.289   6.360   3.290
 2329SOL    HW1 7886   1.198   6.377   3.252
 2329SOL    HW2 7887   1.356   6.416   3.242
 2330SOL     OW 7888   1.416   4.522   0.400
 2330SOL    HW1 7889   1.394   4.588   0.472
 2330SOL    HW2 7890   1.475   4.451   0.436
 2331SOL     OW 7891   1.547   4.925   4.830
 2331SOL    HW1 7892   1.632   4.920   4.777
 2331SOL    HW2 7893   1.551   4.860   4.906
 2332SOL     OW 7894   6.059   3.385   5.714
 2332SOL    HW1 7895   6.097   3.338   5.793
 2332SOL    HW2 7896   5.995   3.324   5.667
 2333SOL     OW 7897   2.790   4.907   4.208
 2333SOL    HW1 7898   2.835   4.870   4.127
 2333SOL    HW2 7899   2.811   5.004   4.217
 2334SOL     OW 7900   2.924   7.002   5.501
 2334SOL    HW1 7901   2.881   6.923   5.544
 2334SOL    HW2 7902   2.991   0.019   5.563
 2335SOL     OW 7903   4.706   4.693   4.253
 2335SOL    HW1 7904   4.774   4.704   4.325
 2335SOL    HW2 7905   4.707   4.774   4.194
 2336SOL     OW 7906   4.381   1.514   5.780
 2336SOL    HW1 7907   4.317   1.591   5.784
 2336SOL    HW2 7908   4.458   1.537   5.721
 2337SOL     OW 7909   5.659   0.714   4.487
 2337SOL    HW1 7910   5.573   0.664   4.496
 2337SOL    HW2 7911   5.722   0.663   4.429
 2338SOL     OW 7912   1.108   0.151   6.996
 2338SOL    HW1 7913   1.083   0.059   6.965
 2338SOL    HW2 7914   1.153   0.144   0.063
 2339SOL     OW 7915   3.912   4.665   6.840
 2339SOL    HW1 7916   3.879   4.605   6.913
 2339SOL    HW2 7917   3.836   4.722   6.807
 2340SOL     OW 7918   4.103   4.962   4.152
 2340SOL    HW1 7919   4.010   4.976   4.118
 2340SOL    HW2 7920   4.121   5.026   4.228
 2341SOL     OW 7921   0.008   4.366   6.466
 2341SOL    HW1 7922   6.967   4.442   6.464
 2341SOL    HW2 7923   0.101   4.400   6.480
 2342SOL     OW 7924   6.397   1.122   5.459
 2342SOL    HW1 7925   6.337   1.146   5.383
 2342SOL    HW2 7926   6.469   1.190   5.468
 2343SOL     OW 7927   1.462   5.957   0.490
 2343SOL    HW1 7928   1.409   6.012   0.554
 2343SOL    HW2 7929   1.473   5.865   0.526
 2344SOL     OW 7930   2.602   1.012   2.837
 2344SOL    HW1 7931   2.564   1.104   2.829
 2344SOL    HW2 7932   2.534   0.952   2.880
 2345SOL     OW 7933   1.522   2.107   2.560
 2345SOL    HW1 7934   1.464   2.181   2.525
 2345SOL    HW2 7935   1.614   2.116   2.521
 2346SOL     OW 7936   4.893   3.283   5.137
 2346SOL    HW1 7937   4.836   3.352   5.182
 2346SOL    HW2 7938   4.901   3.305   5.040
 2347SOL     OW 7939   1.295   4.054   0.539
 2347SOL    HW1 7940   1.314   4.021   0.446
 2347SOL    HW2 7941   1.209   4.106   0.538
 2348SOL     OW 7942   2.272   0.320   1.071
 2348SOL    HW1 7943   2.340   0.249   1.090
 2348SOL    HW2 7944   2.286   0.396   1.135
 2349SOL     OW 7945   5.541   3.086   6.372
 2349SOL    HW1 7946   5.541   3.137   6.459
 2349SOL    HW2 7947   5.482   3.006   6.380
 2350SOL     OW 7948   1.848   6.349   5.131
 2350SOL    HW1 7949   1.801   6.262   5.115
 2350SOL    HW2 7950   1.798   6.403   5.198
 2351SOL     OW 7951   1.427   4.858   3.052
 2351SOL    HW1 7952   1.351   4.894   2.997
 2351SOL    HW2 7953   1.416   4.760   3.064
 2352SOL     OW 7954   5.463   5.647   6.660
 2352SOL    HW1 7955   5.546   5.604   6.696
 2352SOL    HW2 7956   5.393   5.649   6.732
 2353SOL     OW 7957   2.821   2.739   6.053
 2353SOL    HW1 7958   2.750   2.810   6.047
 2353SOL    HW2 7959   2.835   2.698   5.963
 2354SOL     OW 7960   4.266   1.482   2.311
 2354SOL    HW1 7961   4.345   1.462   2.370
 2354SOL    HW2 7962   4.215   1.398   2.295
 2355SOL     OW 7963   0.407   1.223   1.973
 2355SOL    HW1 7964   0.501   1.215   1.939
 2355SOL    HW2 7965   0.394   1.158   2.049
 2356SOL     OW 7966   3.548   5.259   4.257
 2356SOL    HW1 7967   3.540   5.247   4.158
 2356SOL    HW2 7968   3.462   5.236   4.301
 2357SOL     OW 7969   1.160   5.577   1.190
 2357SOL    HW1 7970   1.108   5.593   1.107
 2357SOL    HW2 7971   1.207   5.489   1.183
 2358SOL     OW 7972   2.376   0.397   5.578
 2358SOL    HW1 7973   2.291   0.445   5.556
 2358SOL    HW2 7974   2.411   0.430   5.666
 2359SOL     OW 7975   2.933   2.081   6.069
 2359SOL    HW1 7976   2.977   2.170   6.079
 2359SOL    HW2 7977   2.932   2.055   5.972
 2360SOL     OW 7978   2.816   5.172   0.721
 2360SOL    HW1 7979   2.855   5.107   0.786
 2360SOL    HW2 7980   2.852   5.154   0.630
 2361SOL     OW 7981   3.465   4.890   1.241
 2361SOL    HW1 7982   3.450   4.803   1.194
 2361SOL    HW2 7983   3.427   4.964   1.185
 2362SOL     OW 7984   2.777   4.864   4.673
 2362SOL    HW1 7985   2.752   4.799   4.744
 2362SOL    HW2 7986   2.775   4.819   4.584
 2363SOL     OW 7987   2.014   4.077   0.830
 2363SOL    HW1 7988   2.050   4.002   0.774
 2363SOL    HW2 7989   1.931   4.047   0.877
 2364SOL     OW 7990   5.035   0.619   1.971
 2364SOL    HW1 7991   4.995   0.528   1.964
 2364SOL    HW2 7992   5.054   0.655   1.879
 2365SOL     OW 7993   5.756   4.589   2.995
 2365SOL    HW1 7994   5.676   4.577   3.055
 2365SOL    HW2 7995   5.725   4.609   2.902
 2366SOL     OW 7996   3.320   4.790   5.344
 2366SOL    HW1 7997   3.417   4.785   5.323
 2366SOL    HW2 7998   3.271   4.719   5.292
 2367SOL     OW 7999   6.142   5.353   5.431
 2367SOL    HW1 8000   6.128   5.277   5.495
 2367SOL    HW2 8001   6.081   5.429   5.455
 2368SOL     OW 8002   5.334   0.224   5.009
 2368SOL    HW1 8003   5.349   0.145   5.067
 2368SOL    HW2 8004   5.331   0.307   5.065
 2369SOL     OW 8005   3.853   1.771   4.721
 2369SOL    HW1 8006   3.933   1.830   4.714
 2369SOL    HW2 8007   3.835   1.728   4.632
 2370SOL     OW 8008   4.504   1.889   1.451
 2370SOL    HW1 8009   4.541   1.838   1.528
 2370SOL    HW2 8010   4.411   1.919   1.472
 2371SOL     OW 8011   2.273   7.020   2.161
 2371SOL    HW1 8012   2.262   6.991   2.256
 2371SOL    HW2 8013   2.309   6.944   2.107
 2372SOL     OW 8014   6.657   6.855   5.168
 2372SOL    HW1 8015   6.578   6.797   5.188
 2372SOL    HW2 8016   6.704   6.821   5.087
 2373SOL     OW 8017   6.202   4.378   6.125
 2373SOL    HW1 8018   6.294   4.382   6.166
 2373SOL    HW2 8019   6.140   4.331   6.187
 2374SOL     OW 8020   6.953   6.279   1.990
 2374SOL    HW1 8021   0.022   6.245   1.967
 2374SOL    HW2 8022   6.948   6.377   1.968
 2375SOL     OW 8023   1.579   0.671   4.098
 2375SOL    HW1 8024   1.584   0.619   4.012
 2375SOL    HW2 8025   1.485   0.703   4.111
 2376SOL     OW 8026   5.175   3.392   3.930
 2376SOL    HW1 8027   5.242   3.357   3.864
 2376SOL    HW2 8028   5.131   3.474   3.893
 2377SOL     OW 8029   3.626   4.206   5.970
 2377SOL    HW1 8030   3.569   4.286   5.991
 2377SOL    HW2 8031   3.666   4.170   6.054
 2378SOL     OW 8032   0.730   0.893   0.695
 2378SOL    HW1 8033   0.815   0.928   0.735
 2378SOL    HW2 8034   0.668   0.970   0.675
 2379SOL     OW 8035   0.728   4.697   2.508
 2379SOL    HW1 8036   0.769   4.784   2.481
 2379SOL    HW2 8037   0.774   4.623   2.458
 2380SOL     OW 8038   4.033   5.564   6.367
 2380SOL    HW1 8039   3.982   5.491   6.322
 2380SOL    HW2 8040   4.131   5.546   6.359
 2381SOL     OW 8041   2.042   3.701   3.842
 2381SOL    HW1 8042   2.086   3.721   3.930
 2381SOL    HW2 8043   2.080   3.761   3.772
 2382SOL     OW 8044   6.751   5.790   2.852
 2382SOL    HW1 8045   6.674   5.804   2.790
 2382SOL    HW2 8046   6.728   5.827   2.942
 2383SOL     OW 8047   5.092   4.241   6.009
 2383SOL    HW1 8048   5.092   4.329   5.961
 2383SOL    HW2 8049   5.104   4.167   5.943
 2384SOL     OW 8050   0.562   2.436   2.985
 2384SOL    HW1 8051   0.497   2.504   3.018
 2384SOL    HW2 8052   0.589   2.457   2.891
 2385SOL     OW 8053   0.289   1.007   0.687
 2385SOL    HW1 8054   0.189   1.004   0.693
 2385SOL    HW2 8055   0.329   1.001   0.778
 2386SOL     OW 8056   6.815   4.917   5.350
 2386SOL    HW1 8057   6.830   4.896   5.253
 2386SOL    HW2 8058   6.739   4.981   5.359
 2387SOL     OW 8059   0.086   0.332   3.680
 2387SOL    HW1 8060   0.128   0.345   3.590
 2387SOL    HW2 8061   0.023   0.254   3.676
 2388SOL     OW 8062   1.684   4.383   4.529
 2388SOL    HW1 8063   1.766   4.355   4.579
 2388SOL    HW2 8064   1.609   4.320   4.549
 2389SOL     OW 8065   3.932   6.478   2.967
 2389SOL    HW1 8066   4.029   6.493   2.947
 2389SOL    HW2 8067   3.876   6.521   2.897
 2390SOL     OW 8068   5.351   2.764   5.621
 2390SOL    HW1 8069   5.309   2.708   5.693
 2390SOL    HW2 8070   5.281   2.821   5.578
 2391SOL     OW 8071   2.606   3.740   6.486
 2391SOL    HW1 8072   2.705   3.725   6.493
 2391SOL    HW2 8073   2.585   3.783   6.399
 2392SOL     OW 8074   3.965   5.409   5.911
 2392SOL    HW1 8075   4.040   5.458   5.954
 2392SOL    HW2 8076   3.997   5.320   5.879
 2393SOL     OW 8077   3.815   4.579   0.068
 2393SOL    HW1 8078   3.887   4.534   0.121
 2393SOL    HW2 8079   3.743   4.610   0.130
 2394SOL     OW 8080   6.713   2.434   3.286
 2394SOL    HW1 8081   6.649   2.449   3.362
 2394SOL    HW2 8082   6.675   2.474   3.203
 2395SOL     OW 8083   1.376   2.496   3.739
 2395SOL    HW1 8084   1.467   2.531   3.717
 2395SOL    HW2 8085   1.319   2.497   3.656
 2396SOL     OW 8086   6.776   0.120   6.185
 2396SOL    HW1 8087   6.826   0.168   6.113
 2396SOL    HW2 8088   6.817   0.031   6.203
 2397SOL     OW 8089   2.153   4.847   5.922
 2397SOL    HW1 8090   2.064   4.801   5.928
 2397SOL    HW2 8091   2.177   4.860   5.826
 2398SOL     OW 8092   4.089   5.949   4.942
 2398SOL    HW1 8093   4.117   5.858   4.911
 2398SOL    HW2 8094   4.001   5.942   4.989
 2399SOL     OW 8095   2.953   1.621   2.406
 2399SOL    HW1 8096   2.886   1.694   2.389
 2399SOL    HW2 8097   3.027   1.627   2.340
 2400SOL     OW 8098   0.728   2.661   0.403
 2400SOL    HW1 8099   0.645   2.706   0.436
 2400SOL    HW2 8100   0.793   2.652   0.479
 2401SOL     OW 8101   1.266   6.397   0.588
 2401SOL    HW1 8102   1.187   6.335   0.587
 2401SOL    HW2 8103   1.338   6.360   0.528
 2402SOL     OW 8104   0.550   3.756   2.611
 2402SOL    HW1 8105   0.593   3.673   2.646
 2402SOL    HW2 8106   0.588   3.835   2.658
 2403SOL     OW 8107   3.052   4.404   5.340
 2403SOL    HW1 8108   2.972   4.451   5.302
 2403SOL    HW2 8109   3.049   4.307   5.317
 2404SOL     OW 8110   6.225   1.562   2.293
 2404SOL    HW1 8111   6.192   1.633   2.354
 2404SOL    HW2 8112   6.231   1.598   2.200
 2405SOL     OW 8113   1.629   2.748   0.703
 2405SOL    HW1 8114   1.554   2.743   0.769
 2405SOL    HW2 8115   1.605   2.813   0.631
 2406SOL     OW 8116   4.075   5.630   4.490
 2406SOL    HW1 8117   4.056   5.541   4.531
 2406SOL    HW2 8118   4.166   5.629   4.448
 2407SOL     OW 8119   2.348   1.532   3.755
 2407SOL    HW1 8120   2.277   1.602   3.751
 2407SOL    HW2 8121   2.418   1.559   3.821
 2408SOL     OW 8122   4.102   0.283   5.970
 2408SOL    HW1 8123   4.113   0.375   5.932
 2408SOL    HW2 8124   4.006   0.267   5.993
 2409SOL     OW 8125   0.660   2.874   6.590
 2409SOL    HW1 8126   0.630   2.934   6.665
 2409SOL    HW2 8127   0.712   2.928   6.524
 2410SOL     OW 8128   7.021   3.471   4.182
 2410SOL    HW1 8129   0.056   3.447   4.260
 2410SOL    HW2 8130   0.047   3.449   4.097
 2411SOL     OW 8131   3.059   1.257   0.117
 2411SOL    HW1 8132   2.965   1.289   0.104
 2411SOL    HW2 8133   3.077   1.244   0.214
 2412SOL     OW 8134   2.923   1.958   6.683
 2412SOL    HW1 8135   2.861   2.019   6.634
 2412SOL    HW2 8136   2.876   1.871   6.700
 2413SOL     OW 8137   6.699   3.859   6.793
 2413SOL    HW1 8138   6.774   3.806   6.831
 2413SOL    HW2 8139   6.623   3.862   6.858
 2414SOL     OW 8140   6.505   1.397   4.667
 2414SOL    HW1 8141   6.464   1.411   4.757
 2414SOL    HW2 8142   6.432   1.391   4.598
 2415SOL     OW 8143   3.241   3.948   6.497
 2415SOL    HW1 8144   3.264   4.016   6.566
 2415SOL    HW2 8145   3.153   3.971   6.455
 2416SOL     OW 8146   0.438   3.405   4.185
 2416SOL    HW1 8147   0.399   3.491   4.151
 2416SOL    HW2 8148   0.475   3.420   4.277
 2417SOL     OW 8149   3.608   2.648   1.808
 2417SOL    HW1 8150   3.531   2.674   1.867
 2417SOL    HW2 8151   3.619   2.549   1.811
 2418SOL     OW 8152   5.766   4.052   6.323
 2418SOL    HW1 8153   5.851   4.089   6.286
 2418SOL    HW2 8154   5.736   4.109   6.400
 2419SOL     OW 8155   3.674   1.114   2.932
 2419SOL    HW1 8156   3.697   1.019   2.912
 2419SOL    HW2 8157   3.712   1.174   2.861
 2420SOL     OW 8158   1.480   3.605   2.140
 2420SOL    HW1 8159   1.486   3.688   2.195
 2420SOL    HW2 8160   1.516   3.528   2.192
 2421SOL     OW 8161   2.904   6.905   2.927
 2421SOL    HW1 8162   2.810   6.877   2.905
 2421SOL    HW2 8163   2.944   6.839   2.991
 2422SOL     OW 8164   3.927   6.529   0.407
 2422SOL    HW1 8165   3.840   6.578   0.420
 2422SOL    HW2 8166   3.921   6.471   0.326
 2423SOL     OW 8167   3.425   5.036   4.824
 2423SOL    HW1 8168   3.340   4.998   4.860
 2423SOL    HW2 8169   3.439   5.003   4.731
 2424SOL     OW 8170   5.448   6.742   6.187
 2424SOL    HW1 8171   5.396   6.679   6.130
 2424SOL    HW2 8172   5.541   6.751   6.151
 2425SOL     OW 8173   4.066   5.447   5.403
 2425SOL    HW1 8174   4.043   5.371   5.342
 2425SOL    HW2 8175   4.133   5.415   5.471
 2426SOL     OW 8176   3.094   2.144   5.261
 2426SOL    HW1 8177   2.999   2.129   5.233
 2426SOL    HW2 8178   3.128   2.229   5.219
 2427SOL     OW 8179   3.711   2.094   0.547
 2427SOL    HW1 8180   3.648   2.088   0.625
 2427SOL    HW2 8181   3.678   2.163   0.483
 2428SOL     OW 8182   1.830   1.714   2.812
 2428SOL    HW1 8183   1.789   1.796   2.852
 2428SOL    HW2 8184   1.889   1.740   2.736
 2429SOL     OW 8185   5.379   6.002   1.188
 2429SOL    HW1 8186   5.476   6.025   1.192
 2429SOL    HW2 8187   5.367   5.916   1.138
 2430SOL     OW 8188   6.785   0.214   0.176
 2430SOL    HW1 8189   6.772   0.119   0.145
 2430SOL    HW2 8190   6.882   0.237   0.170
 2431SOL     OW 8191   1.856   3.421   1.676
 2431SOL    HW1 8192   1.829   3.517   1.677
 2431SOL    HW2 8193   1.795   3.369   1.616
 2432SOL     OW 8194   2.977   5.973   2.124
 2432SOL    HW1 8195   2.909   5.910   2.164
 2432SOL    HW2 8196   3.012   5.934   2.039
 2433SOL     OW 8197   6.809   4.613   4.166
 2433SOL    HW1 8198   6.893   4.637   4.118
 2433SOL    HW2 8199   6.771   4.694   4.210
 2434SOL     OW 8200   4.241   1.683   2.716
 2434SOL    HW1 8201   4.323   1.723   2.674
 2434SOL    HW2 8202   4.161   1.737   2.691
 2435SOL     OW 8203   6.007   0.007   6.644
 2435SOL    HW1 8204   5.964   0.025   6.556
 2435SOL    HW2 8205   6.101   6.997   6.630
 2436SOL     OW 8206   6.936   2.774   0.952
 2436SOL    HW1 8207   6.863   2.713   0.981
 2436SOL    HW2 8208   7.015   2.720   0.923
 2437SOL     OW 8209   1.202   4.467   1.289
 2437SOL    HW1 8210   1.141   4.426   1.358
 2437SOL    HW2 8211   1.269   4.400   1.259
 2438SOL     OW 8212   3.512   1.544   4.838
 2438SOL    HW1 8213   3.468   1.567   4.752
 2438SOL    HW2 8214   3.559   1.456   4.828
 2439SOL     OW 8215   0.198   5.921   0.444
 2439SOL    HW1 8216   0.259   5.846   0.417
 2439SOL    HW2 8217   0.210   5.941   0.541
 2440SOL     OW 8218   5.775   1.935   5.399
 2440SOL    HW1 8219   5.721   1.893   5.473
 2440SOL    HW2 8220   5.715   1.989   5.341
 2441SOL     OW 8221   6.002   0.907   6.993
 2441SOL    HW1 8222   6.073   0.851   6.952
 2441SOL    HW2 8223   6.041   0.994   0.000
 2442SOL     OW 8224   5.088   2.971   2.608
 2442SOL    HW1 8225   5.093   2.909   2.529
 2442SOL    HW2 8226   5.006   3.028   2.601
 2443SOL     OW 8227   0.296   2.737   1.402
 2443SOL    HW1 8228   0.258   2.685   1.325
 2443SOL    HW2 8229   0.371   2.795   1.369
 2444SOL     OW 8230   3.635   4.938   3.026
 2444SOL    HW1 8231   3.539   4.916   3.044
 2444SOL    HW2 8232   3.692   4.898   3.098
 2445SOL     OW 8233   0.567   1.744   1.050
 2445SOL    HW1 8234   0.629   1.799   1.106
 2445SOL    HW2 8235   0.577   1.770   0.954
 2446SOL     OW 8236   6.473   5.921   1.476
 2446SOL    HW1 8237   6.461   5.824   1.496
 2446SOL    HW2 8238   6.506   5.932   1.382
 2447SOL     OW 8239   1.799   6.840   0.509
 2447SOL    HW1 8240   1.741   6.769   0.470
 2447SOL    HW2 8241   1.785   6.844   0.608
 2448SOL     OW 8242   5.479   1.127   3.905
 2448SOL    HW1 8243   5.562   1.182   3.901
 2448SOL    HW2 8244   5.469   1.088   3.997
 2449SOL     OW 8245   2.083   4.116   1.477
 2449SOL    HW1 8246   2.003   4.175   1.485
 2449SOL    HW2 8247   2.151   4.160   1.418
 2450SOL     OW 8248   0.903   6.482   5.434
 2450SOL    HW1 8249   0.815   6.500   5.479
 2450SOL    HW2 8250   0.904   6.526   5.344
 2451SOL     OW 8251   1.588   0.176   6.606
 2451SOL    HW1 8252   1.676   0.165   6.559
 2451SOL    HW2 8253   1.572   0.098   6.666
 2452SOL     OW 8254   2.395   1.985   3.917
 2452SOL    HW1 8255   2.295   1.989   3.930
 2452SOL    HW2 8256   2.439   2.043   3.986
 2453SOL     OW 8257   1.281   1.493   6.173
 2453SOL    HW1 8258   1.272   1.529   6.081
 2453SOL    HW2 8259   1.195   1.505   6.223
 2454SOL     OW 8260   2.927   6.284   0.413
 2454SOL    HW1 8261   2.945   6.199   0.463
 2454SOL    HW2 8262   2.938   6.268   0.315
 2455SOL     OW 8263   4.605   2.304   0.173
 2455SOL    HW1 8264   4.573   2.252   0.252
 2455SOL    HW2 8265   4.655   2.385   0.203
 2456SOL     OW 8266   0.739   3.545   5.929
 2456SOL    HW1 8267   0.814   3.556   5.864
 2456SOL    HW2 8268   0.674   3.620   5.919
 2457SOL     OW 8269   4.711   1.259   5.909
 2457SOL    HW1 8270   4.750   1.186   5.853
 2457SOL    HW2 8271   4.737   1.348   5.870
 2458SOL     OW 8272   1.032   0.192   2.274
 2458SOL    HW1 8273   0.981   0.239   2.201
 2458SOL    HW2 8274   1.127   0.223   2.272
 2459SOL     OW 8275   2.142   6.655   1.442
 2459SOL    HW1 8276   2.073   6.595   1.483
 2459SOL    HW2 8277   2.231   6.609   1.443
 2460SOL     OW 8278   0.388   0.497   4.047
 2460SOL    HW1 8279   0.441   0.516   3.964
 2460SOL    HW2 8280   0.354   0.582   4.086
 2461SOL     OW 8281   3.507   1.387   3.493
 2461SOL    HW1 8282   3.447   1.440   3.434
 2461SOL    HW2 8283   3.550   1.314   3.440
 2462SOL     OW 8284   0.456   6.302   0.947
 2462SOL    HW1 8285   0.529   6.321   1.012
 2462SOL    HW2 8286   0.427   6.388   0.904
 2463SOL     OW 8287   6.702   6.803   1.182
 2463SOL    HW1 8288   6.662   6.839   1.098
 2463SOL    HW2 8289   6.799   6.824   1.184
 2464SOL     OW 8290   0.743   2.884   4.879
 2464SOL    HW1 8291   0.699   2.972   4.858
 2464SOL    HW2 8292   0.689   2.836   4.948
 2465SOL     OW 8293   5.916   1.302   6.876
 2465SOL    HW1 8294   5.947   1.296   6.971
 2465SOL    HW2 8295   5.964   1.377   6.830
 2466SOL     OW 8296   0.781   2.485   1.469
 2466SOL    HW1 8297   0.730   2.519   1.548
 2466SOL    HW2 8298   0.799   2.387   1.480
 2467SOL     OW 8299   5.026   2.692   4.896
 2467SOL    HW1 8300   4.987   2.758   4.961
 2467SOL    HW2 8301   4.952   2.641   4.853
 2468SOL     OW 8302   3.562   6.927   5.011
 2468SOL    HW1 8303   3.487   6.973   5.059
 2468SOL    HW2 8304   3.576   6.969   4.922
 2469SOL     OW 8305   3.014   2.020   5.822
 2469SOL    HW1 8306   3.114   2.026   5.832
 2469SOL    HW2 8307   2.991   2.021   5.725
 2470SOL     OW 8308   2.098   5.897   6.311
 2470SOL    HW1 8309   2.062   5.974   6.258
 2470SOL    HW2 8310   2.030   5.823   6.313
 2471SOL     OW 8311   3.276   5.908   3.089
 2471SOL    HW1 8312   3.369   5.878   3.110
 2471SOL    HW2 8313   3.235   5.846   3.021
 2472SOL     OW 8314   4.572   1.556   2.485
 2472SOL    HW1 8315   4.631   1.521   2.413
 2472SOL    HW2 8316   4.627   1.579   2.565
 2473SOL     OW 8317   0.441   4.400   4.275
 2473SOL    HW1 8318   0.454   4.326   4.209
 2473SOL    HW2 8319   0.507   4.473   4.256
 2474SOL     OW 8320   1.694   6.527   0.857
 2474SOL    HW1 8321   1.731   6.548   0.766
 2474SOL    HW2 8322   1.719   6.434   0.882
 2475SOL     OW 8323   5.511   2.344   0.455
 2475SOL    HW1 8324   5.491   2.279   0.381
 2475SOL    HW2 8325   5.603   2.328   0.490
 2476SOL     OW 8326   4.702   0.013   0.356
 2476SOL    HW1 8327   4.791   0.045   0.324
 2476SOL    HW2 8328   4.631   0.076   0.324
 2477SOL     OW 8329   3.754   0.428   3.519
 2477SOL    HW1 8330   3.819   0.358   3.547
 2477SOL    HW2 8331   3.753   0.502   3.586
 2478SOL     OW 8332   3.649   7.012   4.339
 2478SOL    HW1 8333   3.622   6.925   4.297
 2478SOL    HW2 8334   3.599   0.064   4.294
 2479SOL     OW 8335   5.010   3.287   1.203
 2479SOL    HW1 8336   5.074   3.359   1.176
 2479SOL    HW2 8337   5.034   3.255   1.295
 2480SOL     OW 8338   3.278   2.366   1.705
 2480SOL    HW1 8339   3.366   2.365   1.657
 2480SOL    HW2 8340   3.255   2.460   1.729
 2481SOL     OW 8341   3.163   0.199   1.491
 2481SOL    HW1 8342   3.241   0.222   1.550
 2481SOL    HW2 8343   3.176   0.239   1.401
 2482SOL     OW 8344   6.836   3.204   0.128
 2482SOL    HW1 8345   6.854   3.146   0.049
 2482SOL    HW2 8346   6.802   3.293   0.098
 2483SOL     OW 8347   2.730   2.279   1.156
 2483SOL    HW1 8348   2.732   2.185   1.121
 2483SOL    HW2 8349   2.676   2.282   1.240
 2484SOL     OW 8350   4.413   0.324   6.651
 2484SOL    HW1 8351   4.444   0.286   6.564
 2484SOL    HW2 8352   4.490   0.332   6.713
 2485SOL     OW 8353   0.107   1.674   6.110
 2485SOL    HW1 8354   0.099   1.586   6.063
 2485SOL    HW2 8355   0.139   1.660   6.203
 2486SOL     OW 8356   0.218   5.374   3.542
 2486SOL    HW1 8357   0.183   5.399   3.452
 2486SOL    HW2 8358   0.200   5.448   3.606
 2487SOL     OW 8359   4.423   6.065   0.172
 2487SOL    HW1 8360   4.409   6.119   0.089
 2487SOL    HW2 8361   4.495   5.998   0.157
 2488SOL     OW 8362   6.911   3.863   0.815
 2488SOL    HW1 8363   7.002   3.834   0.784
 2488SOL    HW2 8364   6.900   3.839   0.911
 2489SOL     OW 8365   6.308   5.158   4.495
 2489SOL    HW1 8366   6.377   5.159   4.568
 2489SOL    HW2 8367   6.222   5.124   4.532
 2490SOL     OW 8368   2.231   5.645   2.192
 2490SOL    HW1 8369   2.286   5.717   2.150
 2490SOL    HW2 8370   2.139   5.646   2.152
 2491SOL     OW 8371   3.827   4.517   1.544
 2491SOL    HW1 8372   3.918   4.476   1.531
 2491SOL    HW2 8373   3.771   4.455   1.599
 2492SOL     OW 8374   6.905   5.437   1.076
 2492SOL    HW1 8375   6.861   5.379   1.007
 2492SOL    HW2 8376   6.858   5.425   1.164
 2493SOL     OW 8377   5.171   6.613   0.591
 2493SOL    HW1 8378   5.224   6.551   0.649
 2493SOL    HW2 8379   5.152   6.697   0.641
 2494SOL     OW 8380   6.901   3.817   1.096
 2494SOL    HW1 8381   6.880   3.720   1.109
 2494SOL    HW2 8382   6.832   3.872   1.143
 2495SOL     OW 8383   0.557   3.152   2.031
 2495SOL    HW1 8384   0.634   3.152   2.094
 2495SOL    HW2 8385   0.535   3.058   2.004
 2496SOL     OW 8386   5.681   4.707   6.587
 2496SOL    HW1 8387   5.659   4.766   6.509
 2496SOL    HW2 8388   5.692   4.762   6.669
 2497SOL     OW 8389   0.353   0.232   2.632
 2497SOL    HW1 8390   0.307   0.302   2.688
 2497SOL    HW2 8391   0.446   0.217   2.667
 2498SOL     OW 8392   1.873   3.495   4.912
 2498SOL    HW1 8393   1.790   3.468   4.864
 2498SOL    HW2 8394   1.881   3.443   4.997
 2499SOL     OW 8395   6.613   3.875   2.229
 2499SOL    HW1 8396   6.528   3.840   2.188
 2499SOL    HW2 8397   6.591   3.946   2.296
 2500SOL     OW 8398   3.726   3.470   2.004
 2500SOL    HW1 8399   3.630   3.442   2.009
 2500SOL    HW2 8400   3.737   3.560   2.047
 2501SOL     OW 8401   6.241   5.499   6.245
 2501SOL    HW1 8402   6.157   5.483   6.296
 2501SOL    HW2 8403   6.240   5.444   6.161
 2502SOL     OW 8404   2.065   6.465   4.176
 2502SOL    HW1 8405   2.099   6.558   4.189
 2502SOL    HW2 8406   2.142   6.403   4.162
 2503SOL     OW 8407   2.536   0.123   5.454
 2503SOL    HW1 8408   2.561   0.048   5.394
 2503SOL    HW2 8409   2.450   0.101   5.500
 2504SOL     OW 8410   3.749   0.095   3.135
 2504SOL    HW1 8411   3.770   0.060   3.044
 2504SOL    HW2 8412   3.695   0.178   3.127
 2505SOL     OW 8413   6.528   4.252   3.720
 2505SOL    HW1 8414   6.587   4.175   3.742
 2505SOL    HW2 8415   6.457   4.222   3.655
 2506SOL     OW 8416   5.963   5.343   6.280
 2506SOL    HW1 8417   5.907   5.365   6.360
 2506SOL    HW2 8418   5.996   5.249   6.287
 2507SOL     OW 8419   0.030   3.383   2.812
 2507SOL    HW1 8420   0.092   3.447   2.766
 2507SOL    HW2 8421   6.993   3.433   2.875
 2508SOL     OW 8422   5.701   0.805   4.055
 2508SOL    HW1 8423   5.743   0.892   4.027
 2508SOL    HW2 8424   5.616   0.823   4.104
 2509SOL     OW 8425   0.366   3.065   5.696
 2509SOL    HW1 8426   0.407   3.094   5.610
 2509SOL    HW2 8427   0.367   2.965   5.702
 2510SOL     OW 8428   3.223   4.076   2.635
 2510SOL    HW1 8429   3.155   4.003   2.640
 2510SOL    HW2 8430   3.237   4.103   2.540
 2511SOL     OW 8431   2.011   0.537   4.490
 2511SOL    HW1 8432   2.070   0.616   4.504
 2511SOL    HW2 8433   1.916   0.562   4.506
 2512SOL     OW 8434   4.043   4.792   3.552
 2512SOL    HW1 8435   4.055   4.808   3.650
 2512SOL    HW2 8436   3.962   4.841   3.520
 2513SOL     OW 8437   1.874   5.587   6.527
 2513SOL    HW1 8438   1.816   5.643   6.587
 2513SOL    HW2 8439   1.945   5.543   6.582
 2514SOL     OW 8440   1.733   1.854   3.329
 2514SOL    HW1 8441   1.655   1.914   3.314
 2514SOL    HW2 8442   1.740   1.831   3.426
 2515SOL     OW 8443   0.426   1.998   1.303
 2515SOL    HW1 8444   0.369   2.022   1.382
 2515SOL    HW2 8445   0.523   1.999   1.331
 2516SOL     OW 8446   5.813   2.111   4.474
 2516SOL    HW1 8447   5.875   2.055   4.530
 2516SOL    HW2 8448   5.859   2.197   4.451
 2517SOL     OW 8449   0.700   1.214   3.736
 2517SOL    HW1 8450   0.640   1.293   3.747
 2517SOL    HW2 8451   0.704   1.163   3.822
 2518SOL     OW 8452   2.492   4.538   0.760
 2518SOL    HW1 8453   2.496   4.504   0.666
 2518SOL    HW2 8454   2.552   4.484   0.818
 2519SOL     OW 8455   0.793   1.570   1.066
 2519SOL    HW1 8456   0.747   1.643   1.015
 2519SOL    HW2 8457   0.782   1.483   1.017
 2520SOL     OW 8458   2.327   2.496   1.045
 2520SOL    HW1 8459   2.401   2.494   1.113
 2520SOL    HW2 8460   2.356   2.447   0.963
 2521SOL     OW 8461   5.014   0.712   4.941
 2521SOL    HW1 8462   4.985   0.636   4.998
 2521SOL    HW2 8463   5.063   0.779   4.996
 2522SOL     OW 8464   1.226   2.126   6.817
 2522SOL    HW1 8465   1.155   2.121   6.887
 2522SOL    HW2 8466   1.212   2.055   6.749
 2523SOL     OW 8467   1.044   5.344   6.540
 2523SOL    HW1 8468   1.006   5.283   6.471
 2523SOL    HW2 8469   1.019   5.438   6.520
 2524SOL     OW 8470   1.077   1.582   4.503
 2524SOL    HW1 8471   1.103   1.576   4.406
 2524SOL    HW2 8472   1.033   1.496   4.530
 2525SOL     OW 8473   6.419   2.551   5.559
 2525SOL    HW1 8474   6.348   2.605   5.513
 2525SOL    HW2 8475   6.432   2.465   5.510
 2526SOL     OW 8476   1.637   0.661   0.525
 2526SOL    HW1 8477   1.721   0.642   0.577
 2526SOL    HW2 8478   1.559   0.663   0.588
 2527SOL     OW 8479   3.852   5.025   6.741
 2527SOL    HW1 8480   3.917   5.079   6.688
 2527SOL    HW2 8481   3.807   5.084   6.809
 2528SOL     OW 8482   4.516   5.682   6.333
 2528SOL    HW1 8483   4.515   5.691   6.233
 2528SOL    HW2 8484   4.596   5.628   6.360
 2529SOL     OW 8485   0.542   6.453   5.812
 2529SOL    HW1 8486   0.464   6.395   5.837
 2529SOL    HW2 8487   0.620   6.431   5.870
 2530SOL     OW 8488   2.451   6.100   6.508
 2530SOL    HW1 8489   2.373   6.075   6.565
 2530SOL    HW2 8490   2.513   6.022   6.500
 2531SOL     OW 8491   6.862   5.488   6.449
 2531SOL    HW1 8492   6.832   5.525   6.537
 2531SOL    HW2 8493   6.897   5.395   6.463
 2532SOL     OW 8494   5.779   5.785   1.643
 2532SOL    HW1 8495   5.683   5.757   1.644
 2532SOL    HW2 8496   5.808   5.804   1.737
 2533SOL     OW 8497   4.517   0.892   3.691
 2533SOL    HW1 8498   4.532   0.802   3.730
 2533SOL    HW2 8499   4.419   0.911   3.686
 2534SOL     OW 8500   3.909   1.253   2.397
 2534SOL    HW1 8501   3.940   1.197   2.474
 2534SOL    HW2 8502   3.826   1.303   2.424
 2535SOL     OW 8503   3.539   3.044   6.258
 2535SOL    HW1 8504   3.537   2.988   6.175
 2535SOL    HW2 8505   3.632   3.048   6.294
 2536SOL     OW 8506   1.544   0.470   1.626
 2536SOL    HW1 8507   1.462   0.415   1.608
 2536SOL    HW2 8508   1.613   0.414   1.671
 2537SOL     OW 8509   3.927   0.138   5.583
 2537SOL    HW1 8510   3.980   0.068   5.630
 2537SOL    HW2 8511   3.839   0.100   5.555
 2538SOL     OW 8512   5.920   3.509   3.533
 2538SOL    HW1 8513   5.996   3.536   3.473
 2538SOL    HW2 8514   5.874   3.591   3.566
 2539SOL     OW 8515   5.267   2.921   5.183
 2539SOL    HW1 8516   5.181   2.905   5.231
 2539SOL    HW2 8517   5.251   2.981   5.105
 2540SOL     OW 8518   2.792   2.022   1.395
 2540SOL    HW1 8519   2.731   1.954   1.437
 2540SOL    HW2 8520   2.858   2.053   1.463
 2541SOL     OW 8521   3.372   6.626   3.813
 2541SOL    HW1 8522   3.331   6.546   3.770
 2541SOL    HW2 8523   3.393   6.605   3.909
 2542SOL     OW 8524   1.998   5.190   5.983
 2542SOL    HW1 8525   2.083   5.217   6.029
 2542SOL    HW2 8526   1.923   5.192   6.049
 2543SOL     OW 8527   0.621   0.367   4.469
 2543SOL    HW1 8528   0.639   0.280   4.515
 2543SOL    HW2 8529   0.523   0.375   4.450
 2544SOL     OW 8530   0.302   5.106   6.583
 2544SOL    HW1 8531   0.395   5.139   6.599
 2544SOL    HW2 8532   0.288   5.021   6.633
 2545SOL     OW 8533   2.573   5.738   3.521
 2545SOL    HW1 8534   2.609   5.727   3.613
 2545SOL    HW2 8535   2.551   5.835   3.505
 2546SOL     OW 8536   0.318   1.230   1.726
 2546SOL    HW1 8537   0.340   1.321   1.694
 2546SOL    HW2 8538   0.341   1.222   1.823
 2547SOL     OW 8539   1.097   3.381   5.266
 2547SOL    HW1 8540   1.053   3.296   5.292
 2547SOL    HW2 8541   1.052   3.458   5.311
 2548SOL     OW 8542   1.112   0.455   5.714
 2548SOL    HW1 8543   1.111   0.552   5.689
 2548SOL    HW2 8544   1.203   0.418   5.700
 2549SOL     OW 8545   6.481   3.120   2.266
 2549SOL    HW1 8546   6.479   3.113   2.366
 2549SOL    HW2 8547   6.576   3.123   2.235
 2550SOL     OW 8548   5.832   5.492   7.006
 2550SOL    HW1 8549   5.787   5.403   7.011
 2550SOL    HW2 8550   5.818   5.542   0.069
 2551SOL     OW 8551   1.063   4.988   0.491
 2551SOL    HW1 8552   0.996   5.059   0.509
 2551SOL    HW2 8553   1.039   4.939   0.407
 2552SOL     OW 8554   1.626   5.863   3.715
 2552SOL    HW1 8555   1.641   5.810   3.632
 2552SOL    HW2 8556   1.537   5.910   3.709
 2553SOL     OW 8557   4.304   3.818   6.681
 2553SOL    HW1 8558   4.302   3.776   6.771
 2553SOL    HW2 8559   4.374   3.890   6.679
 2554SOL     OW 8560   1.253   2.007   0.631
 2554SOL    HW1 8561   1.231   2.023   0.727
 2554SOL    HW2 8562   1.200   1.929   0.597
 2555SOL     OW 8563   6.556   0.080   6.471
 2555SOL    HW1 8564   6.559   0.167   6.421
 2555SOL    HW2 8565   6.462   0.045   6.470
 2556SOL     OW 8566   3.801   4.821   0.718
 2556SOL    HW1 8567   3.782   4.909   0.762
 2556SOL    HW2 8568   3.718   4.765   0.720
 2557SOL     OW 8569   1.385   4.571   6.685
 2557SOL    HW1 8570   1.331   4.574   6.769
 2557SOL    HW2 8571   1.324   4.571   6.606
 2558SOL     OW 8572   4.215   0.581   5.136
 2558SOL    HW1 8573   4.116   0.588   5.121
 2558SOL    HW2 8574   4.234   0.583   5.234
 2559SOL     OW 8575   0.423   5.205   5.013
 2559SOL    HW1 8576   0.404   5.302   4.997
 2559SOL    HW2 8577   0.465   5.165   4.932
 2560SOL     OW 8578   5.742   1.166   0.085
 2560SOL    HW1 8579   5.741   1.093   0.017
 2560SOL    HW2 8580   5.754   1.126   0.176
 2561SOL     OW 8581   2.852   5.817   4.150
 2561SOL    HW1 8582   2.795   5.876   4.092
 2561SOL    HW2 8583   2.948   5.828   4.124
 2562SOL     OW 8584   2.353   3.776   0.191
 2562SOL    HW1 8585   2.332   3.680   0.171
 2562SOL    HW2 8586   2.398   3.782   0.280
 2563SOL     OW 8587   1.912   0.710   1.689
 2563SOL    HW1 8588   1.915   0.747   1.596
 2563SOL    HW2 8589   1.967   0.626   1.694
 2564SOL     OW 8590   1.838   6.505   2.210
 2564SOL    HW1 8591   1.756   6.502   2.152
 2564SOL    HW2 8592   1.876   6.597   2.208
 2565SOL     OW 8593   0.600   1.089   1.779
 2565SOL    HW1 8594   0.619   1.131   1.690
 2565SOL    HW2 8595   0.582   0.991   1.767
 2566SOL     OW 8596   2.326   6.925   5.687
 2566SOL    HW1 8597   2.356   7.021   5.683
 2566SOL    HW2 8598   2.236   6.920   5.729
 2567SOL     OW 8599   1.147   0.826   0.300
 2567SOL    HW1 8600   1.238   0.860   0.276
 2567SOL    HW2 8601   1.081   0.858   0.232
 2568SOL     OW 8602   5.123   4.262   0.098
 2568SOL    HW1 8603   5.142   4.207   0.017
 2568SOL    HW2 8604   5.201   4.320   0.120
 2569SOL     OW 8605   2.753   0.656   2.706
 2569SOL    HW1 8606   2.828   0.599   2.673
 2569SOL    HW2 8607   2.784   0.751   2.712
 2570SOL     OW 8608   5.413   2.548   5.914
 2570SOL    HW1 8609   5.492   2.509   5.961
 2570SOL    HW2 8610   5.354   2.594   5.981
 2571SOL     OW 8611   0.540   3.869   4.585
 2571SOL    HW1 8612   0.541   3.969   4.581
 2571SOL    HW2 8613   0.633   3.834   4.575
 2572SOL     OW 8614   1.695   4.812   3.766
 2572SOL    HW1 8615   1.734   4.721   3.781
 2572SOL    HW2 8616   1.712   4.869   3.845
 2573SOL     OW 8617   1.180   0.141   0.938
 2573SOL    HW1 8618   1.109   0.119   0.871
 2573SOL    HW2 8619   1.256   0.187   0.892
 2574SOL     OW 8620   6.290   3.631   0.750
 2574SOL    HW1 8621   6.335   3.544   0.770
 2574SOL    HW2 8622   6.210   3.615   0.693
 2575SOL     OW 8623   0.557   6.239   6.471
 2575SOL    HW1 8624   0.603   6.185   6.541
 2575SOL    HW2 8625   0.581   6.204   6.381
 2576SOL     OW 8626   4.285   6.412   4.956
 2576SOL    HW1 8627   4.298   6.313   4.950
 2576SOL    HW2 8628   4.188   6.433   4.963
 2577SOL     OW 8629   1.878   4.181   2.706
 2577SOL    HW1 8630   1.833   4.227   2.629
 2577SOL    HW2 8631   1.934   4.247   2.756
 2578SOL     OW 8632   4.307   1.930   2.401
 2578SOL    HW1 8633   4.331   1.894   2.491
 2578SOL    HW2 8634   4.228   1.991   2.409
 2579SOL     OW 8635   0.661   6.671   2.728
 2579SOL    HW1 8636   0.733   6.681   2.659
 2579SOL    HW2 8637   0.650   6.757   2.778
 2580SOL     OW 8638   2.608   2.021   5.793
 2580SOL    HW1 8639   2.621   1.962   5.713
 2580SOL    HW2 8640   2.669   2.099   5.787
 2581SOL     OW 8641   3.277   0.683   5.229
 2581SOL    HW1 8642   3.336   0.610   5.193
 2581SOL    HW2 8643   3.208   0.707   5.160
 2582SOL     OW 8644   0.041   3.311   1.468
 2582SOL    HW1 8645   0.050   3.221   1.425
 2582SOL    HW2 8646   0.107   3.320   1.543
 2583SOL     OW 8647   5.854   0.496   1.146
 2583SOL    HW1 8648   5.918   0.537   1.080
 2583SOL    HW2 8649   5.851   0.397   1.132
 2584SOL     OW 8650   3.950   4.482   6.144
 2584SOL    HW1 8651   3.895   4.497   6.062
 2584SOL    HW2 8652   3.891   4.479   6.224
 2585SOL     OW 8653   3.079   5.654   0.084
 2585SOL    HW1 8654   3.153   5.631   0.021
 2585SOL    HW2 8655   2.991   5.634   0.041
 2586SOL     OW 8656   2.481   0.809   3.585
 2586SOL    HW1 8657   2.429   0.735   3.544
 2586SOL    HW2 8658   2.559   0.771   3.635
 2587SOL     OW 8659   6.087   0.759   4.355
 2587SOL    HW1 8660   6.135   0.689   4.407
 2587SOL    HW2 8661   6.114   0.850   4.389
 2588SOL     OW 8662   4.614   0.403   6.857
 2588SOL    HW1 8663   4.676   0.465   6.808
 2588SOL    HW2 8664   4.551   0.456   6.913
 2589SOL     OW 8665   2.215   6.068   0.196
 2589SOL    HW1 8666   2.283   6.077   0.269
 2589SOL    HW2 8667   2.123   6.062   0.236
 2590SOL     OW 8668   3.263   5.958   0.271
 2590SOL    HW1 8669   3.183   5.981   0.214
 2590SOL    HW2 8670   3.263   5.860   0.289
 2591SOL     OW 8671   5.340   5.526   2.701
 2591SOL    HW1 8672   5.359   5.434   2.735
 2591SOL    HW2 8673   5.342   5.591   2.776
 2592SOL     OW 8674   3.028   3.964   0.864
 2592SOL    HW1 8675   3.037   3.896   0.937
 2592SOL    HW2 8676   2.933   3.993   0.857
 2593SOL     OW 8677   3.350   4.607   0.158
 2593SOL    HW1 8678   3.435   4.562   0.130
 2593SOL    HW2 8679   3.370   4.702   0.184
 2594SOL     OW 8680   2.158   3.174   3.651
 2594SOL    HW1 8681   2.130   3.161   3.555
 2594SOL    HW2 8682   2.185   3.270   3.665
 2595SOL     OW 8683   2.387   1.644   2.944
 2595SOL    HW1 8684   2.462   1.688   2.895
 2595SOL    HW2 8685   2.350   1.571   2.888
 2596SOL     OW 8686   0.207   2.121   0.631
 2596SOL    HW1 8687   0.230   2.053   0.562
 2596SOL    HW2 8688   0.255   2.099   0.716
 2597SOL     OW 8689   6.586   6.808   0.229
 2597SOL    HW1 8690   6.554   6.713   0.229
 2597SOL    HW2 8691   6.511   6.869   0.254
 2598SOL     OW 8692   4.790   2.454   2.660
 2598SOL    HW1 8693   4.722   2.507   2.711
 2598SOL    HW2 8694   4.807   2.498   2.572
 2599SOL     OW 8695   2.782   5.688   2.533
 2599SOL    HW1 8696   2.784   5.731   2.624
 2599SOL    HW2 8697   2.696   5.709   2.488
 2600SOL     OW 8698   5.645   3.887   4.272
 2600SOL    HW1 8699   5.584   3.813   4.245
 2600SOL    HW2 8700   5.712   3.904   4.200
 2601SOL     OW 8701   6.415   1.146   4.505
 2601SOL    HW1 8702   6.491   1.105   4.555
 2601SOL    HW2 8703   6.451   1.191   4.423
 2602SOL     OW 8704   0.814   4.644   2.780
 2602SOL    HW1 8705   0.788   4.644   2.683
 2602SOL    HW2 8706   0.810   4.551   2.816
 2603SOL     OW 8707   2.288   5.588   2.677
 2603SOL    HW1 8708   2.386   5.605   2.679
 2603SOL    HW2 8709   2.249   5.608   2.767
 2604SOL     OW 8710   4.627   2.681   3.544
 2604SOL    HW1 8711   4.578   2.655   3.627
 2604SOL    HW2 8712   4.717   2.638   3.543
 2605SOL     OW 8713   1.574   3.077   1.450
 2605SOL    HW1 8714   1.537   3.007   1.388
 2605SOL    HW2 8715   1.621   3.032   1.526
 2606SOL     OW 8716   5.116   3.727   1.045
 2606SOL    HW1 8717   5.184   3.656   1.059
 2606SOL    HW2 8718   5.133   3.803   1.108
 2607SOL     OW 8719   2.668   3.037   1.707
 2607SOL    HW1 8720   2.729   3.058   1.783
 2607SOL    HW2 8721   2.602   3.112   1.696
 2608SOL     OW 8722   3.111   5.390   5.476
 2608SOL    HW1 8723   3.109   5.301   5.429
 2608SOL    HW2 8724   3.145   5.377   5.569
 2609SOL     OW 8725   0.811   2.202   1.489
 2609SOL    HW1 8726   0.750   2.123   1.486
 2609SOL    HW2 8727   0.902   2.173   1.518
 2610SOL     OW 8728   1.296   4.229   5.188
 2610SOL    HW1 8729   1.291   4.166   5.110
 2610SOL    HW2 8730   1.325   4.179   5.269
 2611SOL     OW 8731   5.710   0.258   5.563
 2611SOL    HW1 8732   5.674   0.167   5.542
 2611SOL    HW2 8733   5.665   0.295   5.644
 2612SOL     OW 8734   6.614   6.511   0.143
 2612SOL    HW1 8735   6.525   6.493   0.100
 2612SOL    HW2 8736   6.687   6.490   0.078
 2613SOL     OW 8737   1.391   6.948   0.005
 2613SOL    HW1 8738   1.340   6.868   6.996
 2613SOL    HW2 8739   1.434   6.927   0.094
 2614SOL     OW 8740   5.898   2.009   0.582
 2614SOL    HW1 8741   5.933   1.940   0.519
 2614SOL    HW2 8742   5.891   2.097   0.533
 2615SOL     OW 8743   0.714   3.368   6.922
 2615SOL    HW1 8744   0.623   3.335   6.948
 2615SOL    HW2 8745   0.742   3.442   6.983
 2616SOL     OW 8746   0.968   1.305   4.513
 2616SOL    HW1 8747   0.941   1.248   4.590
 2616SOL    HW2 8748   0.970   1.250   4.429
 2617SOL     OW 8749   5.541   0.186   1.680
 2617SOL    HW1 8750   5.553   0.274   1.724
 2617SOL    HW2 8751   5.631   0.145   1.662
 2618SOL     OW 8752   1.305   0.140   6.521
 2618SOL    HW1 8753   1.402   0.117   6.531
 2618SOL    HW2 8754   1.262   0.074   6.458
 2619SOL     OW 8755   4.820   1.424   2.735
 2619SOL    HW1 8756   4.802   1.510   2.687
 2619SOL    HW2 8757   4.885   1.369   2.683
 2620SOL     OW 8758   6.116   2.095   2.033
 2620SOL    HW1 8759   6.066   2.177   2.059
 2620SOL    HW2 8760   6.062   2.041   1.968
 2621SOL     OW 8761   2.374   6.537   1.442
 2621SOL    HW1 8762   2.436   6.602   1.487
 2621SOL    HW2 8763   2.428   6.474   1.386
 2622SOL     OW 8764   2.530   3.339   0.067
 2622SOL    HW1 8765   2.598   3.277   0.107
 2622SOL    HW2 8766   2.488   3.394   0.139
 2623SOL     OW 8767   6.897   0.265   3.891
 2623SOL    HW1 8768   6.875   0.330   3.963
 2623SOL    HW2 8769   6.958   0.308   3.825
 2624SOL     OW 8770   1.161   1.715   5.774
 2624SOL    HW1 8771   1.192   1.809   5.756
 2624SOL    HW2 8772   1.113   1.680   5.693
 2625SOL     OW 8773   2.793   5.432   5.779
 2625SOL    HW1 8774   2.777   5.338   5.749
 2625SOL    HW2 8775   2.848   5.432   5.863
 2626SOL     OW 8776   6.822   6.996   6.846
 2626SOL    HW1 8777   6.894   0.041   6.864
 2626SOL    HW2 8778   6.743   0.020   6.805
 2627SOL     OW 8779   2.163   0.909   5.999
 2627SOL    HW1 8780   2.217   0.982   6.042
 2627SOL    HW2 8781   2.173   0.915   5.900
 2628SOL     OW 8782   0.035   5.084   1.347
 2628SOL    HW1 8783   0.115   5.084   1.287
 2628SOL    HW2 8784   0.065   5.088   1.442
 2629SOL     OW 8785   3.108   3.804   2.660
 2629SOL    HW1 8786   3.124   3.755   2.746
 2629SOL    HW2 8787   3.015   3.841   2.661
 2630SOL     OW 8788   3.443   0.744   4.358
 2630SOL    HW1 8789   3.483   0.827   4.319
 2630SOL    HW2 8790   3.349   0.762   4.385
 2631SOL     OW 8791   5.134   6.127   6.919
 2631SOL    HW1 8792   5.052   6.074   6.897
 2631SOL    HW2 8793   5.130   6.216   6.873
 2632SOL     OW 8794   5.434   4.878   1.813
 2632SOL    HW1 8795   5.453   4.834   1.901
 2632SOL    HW2 8796   5.502   4.949   1.796
 2633SOL     OW 8797   0.119   3.351   5.892
 2633SOL    HW1 8798   0.054   3.275   5.898
 2633SOL    HW2 8799   0.145   3.365   5.797
 2634SOL     OW 8800   1.064   1.641   6.041
 2634SOL    HW1 8801   1.012   1.712   6.089
 2634SOL    HW2 8802   1.094   1.676   5.952
 2635SOL     OW 8803   3.909   5.482   2.904
 2635SOL    HW1 8804   3.925   5.418   2.830
 2635SOL    HW2 8805   3.940   5.573   2.877
 2636SOL     OW 8806   3.428   6.334   6.266
 2636SOL    HW1 8807   3.468   6.349   6.357
 2636SOL    HW2 8808   3.328   6.335   6.273
 2637SOL     OW 8809   0.312   0.956   3.276
 2637SOL    HW1 8810   0.348   0.918   3.361
 2637SOL    HW2 8811   0.386   1.000   3.225
 2638SOL     OW 8812   0.845   6.684   4.660
 2638SOL    HW1 8813   0.886   6.601   4.698
 2638SOL    HW2 8814   0.748   6.688   4.684
 2639SOL     OW 8815   4.909   4.943   4.497
 2639SOL    HW1 8816   4.927   4.849   4.469
 2639SOL    HW2 8817   4.810   4.956   4.507
 2640SOL     OW 8818   2.355   1.230   3.399
 2640SOL    HW1 8819   2.258   1.208   3.399
 2640SOL    HW2 8820   2.369   1.324   3.368
 2641SOL     OW 8821   5.136   2.683   0.049
 2641SOL    HW1 8822   5.196   2.756   0.081
 2641SOL    HW2 8823   5.175   2.595   0.073
 2642SOL     OW 8824   0.206   0.168   2.397
 2642SOL    HW1 8825   0.218   0.186   2.299
 2642SOL    HW2 8826   0.285   0.204   2.447
 2643SOL     OW 8827   1.737   4.607   3.967
 2643SOL    HW1 8828   1.713   4.516   3.934
 2643SOL    HW2 8829   1.659   4.647   4.016
 2644SOL     OW 8830   5.647   5.615   4.004
 2644SOL    HW1 8831   5.605   5.684   4.063
 2644SOL    HW2 8832   5.583   5.589   3.932
 2645SOL     OW 8833   5.162   5.677   2.456
 2645SOL    HW1 8834   5.160   5.577   2.447
 2645SOL    HW2 8835   5.233   5.714   2.397
 2646SOL     OW 8836   1.368   2.281   6.115
 2646SOL    HW1 8837   1.302   2.310   6.046
 2646SOL    HW2 8838   1.394   2.359   6.172
 2647SOL     OW 8839   4.160   6.554   2.549
 2647SOL    HW1 8840   4.090   6.554   2.478
 2647SOL    HW2 8841   4.248   6.528   2.509
 2648SOL     OW 8842   1.547   0.827   5.798
 2648SOL    HW1 8843   1.538   0.792   5.704
 2648SOL    HW2 8844   1.456   0.842   5.837
 2649SOL     OW 8845   6.130   1.768   3.560
 2649SOL    HW1 8846   6.064   1.840   3.541
 2649SOL    HW2 8847   6.136   1.706   3.482
 2650SOL     OW 8848   2.174   0.370   4.634
 2650SOL    HW1 8849   2.103   0.419   4.583
 2650SOL    HW2 8850   2.196   0.285   4.587
 2651SOL     OW 8851   4.165   2.096   3.836
 2651SOL    HW1 8852   4.197   2.043   3.758
 2651SOL    HW2 8853   4.144   2.034   3.912
 2652SOL     OW 8854   4.979   3.867   5.934
 2652SOL    HW1 8855   5.041   3.919   5.875
 2652SOL    HW2 8856   4.885   3.883   5.905
 2653SOL     OW 8857   2.160   6.414   6.988
 2653SOL    HW1 8858   2.256   6.434   7.011
 2653SOL    HW2 8859   2.138   6.455   6.900
 2654SOL     OW 8860   0.020   0.983   0.668
 2654SOL    HW1 8861   7.015   0.887   0.675
 2654SOL    HW2 8862   7.005   1.021   0.583
 2655SOL     OW 8863   5.362   6.639   2.802
 2655SOL    HW1 8864   5.445   6.629   2.858
 2655SOL    HW2 8865   5.320   6.727   2.822
 2656SOL     OW 8866   4.917   6.191   4.155
 2656SOL    HW1 8867   4.971   6.156   4.079
 2656SOL    HW2 8868   4.843   6.248   4.120
 2657SOL     OW 8869   1.553   3.320   6.923
 2657SOL    HW1 8870   1.607   3.237   6.906
 2657SOL    HW2 8871   1.531   3.364   6.835
 2658SOL     OW 8872   3.176   4.397   0.215
 2658SOL    HW1 8873   3.240   4.474   0.222
 2658SOL    HW2 8874   3.120   4.407   0.133
 2659SOL     OW 8875   0.224   1.941   5.248
 2659SOL    HW1 8876   0.288   1.871   5.216
 2659SOL    HW2 8877   0.201   1.922   5.344
 2660SOL     OW 8878   0.779   1.323   0.905
 2660SOL    HW1 8879   0.865   1.296   0.948
 2660SOL    HW2 8880   0.709   1.253   0.921
 2661SOL     OW 8881   1.691   1.246   1.251
 2661SOL    HW1 8882   1.691   1.328   1.309
 2661SOL    HW2 8883   1.785   1.214   1.240
 2662SOL     OW 8884   2.930   1.604   1.706
 2662SOL    HW1 8885   2.908   1.633   1.799
 2662SOL    HW2 8886   2.954   1.684   1.651
 2663SOL     OW 8887   3.923   0.748   0.962
 2663SOL    HW1 8888   3.956   0.842   0.963
 2663SOL    HW2 8889   3.841   0.743   0.905
 2664SOL     OW 8890   5.276   3.104   5.757
 2664SOL    HW1 8891   5.221   3.124   5.839
 2664SOL    HW2 8892   5.372   3.100   5.783
 2665SOL     OW 8893   1.549   2.907   3.702
 2665SOL    HW1 8894   1.537   2.890   3.604
 2665SOL    HW2 8895   1.548   3.005   3.719
 2666SOL     OW 8896   1.524   4.086   1.945
 2666SOL    HW1 8897   1.614   4.089   1.900
 2666SOL    HW2 8898   1.464   4.154   1.902
 2667SOL     OW 8899   6.326   2.689   4.549
 2667SOL    HW1 8900   6.285   2.602   4.520
 2667SOL    HW2 8901   6.348   2.744   4.469
 2668SOL     OW 8902   5.447   1.050   4.162
 2668SOL    HW1 8903   5.406   0.969   4.120
 2668SOL    HW2 8904   5.510   1.022   4.235
 2669SOL     OW 8905   2.600   1.037   1.487
 2669SOL    HW1 8906   2.638   1.114   1.435
 2669SOL    HW2 8907   2.585   1.065   1.582
 2670SOL     OW 8908   0.463   0.637   0.407
 2670SOL    HW1 8909   0.543   0.645   0.466
 2670SOL    HW2 8910   0.461   0.713   0.342
 2671SOL     OW 8911   5.328   4.465   5.865
 2671SOL    HW1 8912   5.362   4.374   5.889
 2671SOL    HW2 8913   5.253   4.490   5.926
 2672SOL     OW 8914   2.542   1.788   2.684
 2672SOL    HW1 8915   2.514   1.882   2.705
 2672SOL    HW2 8916   2.461   1.730   2.677
 2673SOL     OW 8917   3.473   6.814   2.738
 2673SOL    HW1 8918   3.538   6.787   2.809
 2673SOL    HW2 8919   3.400   6.746   2.732
 2674SOL     OW 8920   6.688   5.957   3.060
 2674SOL    HW1 8921   6.720   5.967   3.154
 2674SOL    HW2 8922   6.625   6.031   3.038
 2675SOL     OW 8923   4.215   1.010   4.698
 2675SOL    HW1 8924   4.147   0.951   4.655
 2675SOL    HW2 8925   4.266   0.957   4.766
 2676SOL     OW 8926   3.715   3.043   4.724
 2676SOL    HW1 8927   3.769   3.038   4.640
 2676SOL    HW2 8928   3.618   3.031   4.702
 2677SOL     OW 8929   1.720   5.978   0.318
 2677SOL    HW1 8930   1.630   5.968   0.359
 2677SOL    HW2 8931   1.710   5.992   0.219
 2678SOL     OW 8932   3.693   2.074   2.406
 2678SOL    HW1 8933   3.646   2.098   2.322
 2678SOL    HW2 8934   3.629   2.076   2.483
 2679SOL     OW 8935   2.127   3.536   2.378
 2679SOL    HW1 8936   2.218   3.526   2.418
 2679SOL    HW2 8937   2.067   3.584   2.442
 2680SOL     OW 8938   5.356   2.558   6.813
 2680SOL    HW1 8939   5.424   2.501   6.767
 2680SOL    HW2 8940   5.317   2.508   6.890
 2681SOL     OW 8941   2.255   2.155   3.337
 2681SOL    HW1 8942   2.314   2.187   3.263
 2681SOL    HW2 8943   2.204   2.233   3.374
 2682SOL     OW 8944   3.794   4.019   1.998
 2682SOL    HW1 8945   3.716   4.070   2.034
 2682SOL    HW2 8946   3.865   4.012   2.068
 2683SOL     OW 8947   1.744   3.684   1.647
 2683SOL    HW1 8948   1.669   3.702   1.711
 2683SOL    HW2 8949   1.726   3.730   1.560
 2684SOL     OW 8950   5.844   0.671   3.817
 2684SOL    HW1 8951   5.836   0.740   3.745
 2684SOL    HW2 8952   5.928   0.687   3.869
 2685SOL     OW 8953   1.424   0.101   5.755
 2685SOL    HW1 8954   1.493   0.108   5.683
 2685SOL    HW2 8955   1.463   0.050   5.832
 2686SOL     OW 8956   1.908   1.650   6.075
 2686SOL    HW1 8957   1.884   1.639   6.171
 2686SOL    HW2 8958   1.857   1.728   6.037
 2687SOL     OW 8959   4.074   2.057   1.429
 2687SOL    HW1 8960   4.039   1.965   1.445
 2687SOL    HW2 8961   4.144   2.078   1.498
 2688SOL     OW 8962   3.976   2.592   6.443
 2688SOL    HW1 8963   3.932   2.680   6.466
 2688SOL    HW2 8964   3.922   2.517   6.482
 2689SOL     OW 8965   0.248   3.873   2.874
 2689SOL    HW1 8966   0.214   3.872   2.780
 2689SOL    HW2 8967   0.173   3.852   2.936
 2690SOL     OW 8968   4.980   1.120   4.909
 2690SOL    HW1 8969   5.014   1.214   4.915
 2690SOL    HW2 8970   4.955   1.101   4.814
 2691SOL     OW 8971   0.142   3.347   4.717
 2691SOL    HW1 8972   0.048   3.368   4.746
 2691SOL    HW2 8973   0.168   3.258   4.754
 2692SOL     OW 8974   2.361   5.379   1.682
 2692SOL    HW1 8975   2.380   5.307   1.750
 2692SOL    HW2 8976   2.264   5.380   1.661
 2693SOL     OW 8977   0.662   4.923   2.892
 2693SOL    HW1 8978   0.654   4.946   2.989
 2693SOL    HW2 8979   0.755   4.943   2.862
 2694SOL     OW 8980   2.236   0.401   2.612
 2694SOL    HW1 8981   2.278   0.450   2.537
 2694SOL    HW2 8982   2.145   0.370   2.585
 2695SOL     OW 8983   0.179   5.427   3.262
 2695SOL    HW1 8984   0.250   5.364   3.229
 2695SOL    HW2 8985   0.089   5.384   3.253
 2696SOL     OW 8986   4.058   4.761   5.944
 2696SOL    HW1 8987   4.002   4.748   5.862
 2696SOL    HW2 8988   4.064   4.675   5.994
 2697SOL     OW 8989   3.995   2.404   0.253
 2697SOL    HW1 8990   3.999   2.432   0.349
 2697SOL    HW2 8991   3.925   2.457   0.205
 2698SOL     OW 8992   1.461   5.934   6.449
 2698SOL    HW1 8993   1.409   6.018   6.469
 2698SOL    HW2 8994   1.475   5.883   6.534
 2699SOL     OW 8995   2.923   7.012   1.817
 2699SOL    HW1 8996   2.907   0.083   1.849
 2699SOL    HW2 8997   2.975   7.014   1.732
 2700SOL     OW 8998   4.279   1.981   1.601
 2700SOL    HW1 8999   4.299   2.057   1.663
 2700SOL    HW2 9000   4.287   1.894   1.650
 2701SOL     OW 9001   5.309   3.646   5.226
 2701SOL    HW1 9002   5.388   3.585   5.236
 2701SOL    HW2 9003   5.238   3.600   5.172
 2702SOL     OW 9004   1.888   1.205   4.644
 2702SOL    HW1 9005   1.985   1.179   4.644
 2702SOL    HW2 9006   1.875   1.285   4.702
 2703SOL     OW 9007   2.227   6.205   2.345
 2703SOL    HW1 9008   2.250   6.281   2.284
 2703SOL    HW2 9009   2.128   6.193   2.348
 2704SOL     OW 9010   4.130   0.618   3.395
 2704SOL    HW1 9011   4.122   0.628   3.494
 2704SOL    HW2 9012   4.206   0.556   3.374
 2705SOL     OW 9013   1.642   0.160   5.259
 2705SOL    HW1 9014   1.688   0.078   5.293
 2705SOL    HW2 9015   1.670   0.239   5.314
 2706SOL     OW 9016   6.632   4.841   3.732
 2706SOL    HW1 9017   6.703   4.866   3.797
 2706SOL    HW2 9018   6.552   4.807   3.782
 2707SOL     OW 9019   4.906   1.545   3.005
 2707SOL    HW1 9020   4.871   1.525   2.913
 2707SOL    HW2 9021   4.830   1.577   3.063
 2708SOL     OW 9022   4.881   3.176   5.865
 2708SOL    HW1 9023   4.820   3.250   5.839
 2708SOL    HW2 9024   4.974   3.211   5.875
 2709SOL     OW 9025   5.267   1.219   5.707
 2709SOL    HW1 9026   5.313   1.252   5.624
 2709SOL    HW2 9027   5.182   1.269   5.720
 2710SOL     OW 9028   1.555   3.022   4.513
 2710SOL    HW1 9029   1.613   2.959   4.563
 2710SOL    HW2 9030   1.560   3.002   4.415
 2711SOL     OW 9031   4.701   0.734   1.643
 2711SOL    HW1 9032   4.740   0.751   1.552
 2711SOL    HW2 9033   4.601   0.731   1.636
 2712SOL     OW 9034   5.547   5.914   1.421
 2712SOL    HW1 9035   5.589   5.996   1.460
 2712SOL    HW2 9036   5.477   5.880   1.484
 2713SOL     OW 9037   3.542   5.137   5.626
 2713SOL    HW1 9038   3.517   5.136   5.529
 2713SOL    HW2 9039   3.611   5.208   5.642
 2714SOL     OW 9040   3.050   4.209   6.227
 2714SOL    HW1 9041   3.049   4.303   6.261
 2714SOL    HW2 9042   3.145   4.177   6.221
 2715SOL     OW 9043   4.873   6.061   0.115
 2715SOL    HW1 9044   4.934   6.060   0.194
 2715SOL    HW2 9045   4.825   6.149   0.112
 2716SOL     OW 9046   4.366   0.964   2.810
 2716SOL    HW1 9047   4.323   1.002   2.892
 2716SOL    HW2 9048   4.464   0.984   2.811
 2717SOL     OW 9049   1.419   2.291   2.371
 2717SOL    HW1 9050   1.324   2.259   2.375
 2717SOL    HW2 9051   1.423   2.386   2.402
 2718SOL     OW 9052   6.339   1.470   5.743
 2718SOL    HW1 9053   6.300   1.559   5.767
 2718SOL    HW2 9054   6.276   1.397   5.770
 2719SOL     OW 9055   0.950   4.822   3.358
 2719SOL    HW1 9056   0.946   4.874   3.443
 2719SOL    HW2 9057   0.861   4.780   3.341
 2720SOL     OW 9058   2.168   5.328   6.980
 2720SOL    HW1 9059   2.224   5.344   0.039
 2720SOL    HW2 9060   2.219   5.354   6.898
 2721SOL     OW 9061   1.978   6.812   3.127
 2721SOL    HW1 9062   2.001   6.721   3.092
 2721SOL    HW2 9063   1.882   6.831   3.110
 2722SOL     OW 9064   3.537   4.680   6.526
 2722SOL    HW1 9065   3.556   4.770   6.487
 2722SOL    HW2 9066   3.478   4.628   6.464
 2723SOL     OW 9067   4.086   5.522   6.629
 2723SOL    HW1 9068   4.162   5.459   6.613
 2723SOL    HW2 9069   4.052   5.556   6.542
 2724SOL     OW 9070   6.684   5.752   1.222
 2724SOL    HW1 9071   6.710   5.675   1.163
 2724SOL    HW2 9072   6.605   5.799   1.183
 2725SOL     OW 9073   6.192   4.844   3.187
 2725SOL    HW1 9074   6.244   4.924   3.158
 2725SOL    HW2 9075   6.171   4.787   3.108
 2726SOL     OW 9076   6.932   2.263   3.073
 2726SOL    HW1 9077   6.871   2.340   3.057
 2726SOL    HW2 9078   6.933   2.204   2.993
 2727SOL     OW 9079   1.793   5.246   3.614
 2727SOL    HW1 9080   1.876   5.281   3.570
 2727SOL    HW2 9081   1.806   5.244   3.713
 2728SOL     OW 9082   5.034   5.760   5.635
 2728SOL    HW1 9083   5.113   5.698   5.640
 2728SOL    HW2 9084   5.035   5.821   5.714
 2729SOL     OW 9085   6.455   0.205   0.426
 2729SOL    HW1 9086   6.441   0.224   0.523
 2729SOL    HW2 9087   6.529   0.263   0.392
 2730SOL     OW 9088   1.551   5.528   2.919
 2730SOL    HW1 9089   1.505   5.610   2.953
 2730SOL    HW2 9090   1.485   5.470   2.871
 2731SOL     OW 9091   3.842   3.859   4.979
 2731SOL    HW1 9092   3.915   3.794   4.958
 2731SOL    HW2 9093   3.788   3.825   5.056
 2732SOL     OW 9094   4.848   0.498   1.639
 2732SOL    HW1 9095   4.846   0.597   1.653
 2732SOL    HW2 9096   4.865   0.478   1.543
 2733SOL     OW 9097   0.629   6.776   0.307
 2733SOL    HW1 9098   0.720   6.753   0.341
 2733SOL    HW2 9099   0.564   6.706   0.335
 2734SOL     OW 9100   3.340   0.200   2.468
 2734SOL    HW1 9101   3.418   0.137   2.469
 2734SOL    HW2 9102   3.274   0.173   2.538
 2735SOL     OW 9103   1.104   2.357   2.631
 2735SOL    HW1 9104   1.195   2.398   2.623
 2735SOL    HW2 9105   1.074   2.361   2.726
 2736SOL     OW 9106   5.522   4.530   2.541
 2736SOL    HW1 9107   5.567   4.441   2.530
 2736SOL    HW2 9108   5.425   4.520   2.519
 2737SOL     OW 9109   2.946   0.413   5.654
 2737SOL    HW1 9110   2.855   0.438   5.620
 2737SOL    HW2 9111   2.978   0.481   5.719
 2738SOL     OW 9112   5.112   6.270   1.337
 2738SOL    HW1 9113   5.202   6.302   1.366
 2738SOL    HW2 9114   5.048   6.346   1.337
 2739SOL     OW 9115   0.331   5.823   1.330
 2739SOL    HW1 9116   0.261   5.752   1.343
 2739SOL    HW2 9117   0.418   5.790   1.365
 2740SOL     OW 9118   6.684   5.210   4.118
 2740SOL    HW1 9119   6.695   5.296   4.167
 2740SOL    HW2 9120   6.611   5.157   4.162
 2741SOL     OW 9121   1.121   6.853   6.579
 2741SOL    HW1 9122   1.209   6.845   6.625
 2741SOL    HW2 9123   1.133   6.896   6.490
 2742SOL     OW 9124   2.718   4.987   2.987
 2742SOL    HW1 9125   2.737   4.936   2.903
 2742SOL    HW2 9126   2.745   4.932   3.066
 2743SOL     OW 9127   5.487   1.922   3.024
 2743SOL    HW1 9128   5.537   2.009   3.021
 2743SOL    HW2 9129   5.542   1.854   3.074
 2744SOL     OW 9130   3.511   4.153   2.350
 2744SOL    HW1 9131   3.421   4.111   2.362
 2744SOL    HW2 9132   3.551   4.171   2.440
 2745SOL     OW 9133   0.774   6.005   0.340
 2745SOL    HW1 9134   0.775   5.938   0.415
 2745SOL    HW2 9135   0.715   6.082   0.365
 2746SOL     OW 9136   1.784   0.768   4.229
 2746SOL    HW1 9137   1.707   0.737   4.172
 2746SOL    HW2 9138   1.749   0.796   4.318
 2747SOL     OW 9139   4.157   4.692   0.151
 2747SOL    HW1 9140   4.253   4.699   0.125
 2747SOL    HW2 9141   4.149   4.697   0.251
 2748SOL     OW 9142   4.139   0.292   1.041
 2748SOL    HW1 9143   4.203   0.367   1.022
 2748SOL    HW2 9144   4.050   0.313   1.000
 2749SOL     OW 9145   3.683   1.224   0.564
 2749SOL    HW1 9146   3.589   1.194   0.578
 2749SOL    HW2 9147   3.705   1.218   0.467
 2750SOL     OW 9148   2.755   5.930   3.059
 2750SOL    HW1 9149   2.831   5.893   3.114
 2750SOL    HW2 9150   2.751   6.029   3.071
 2751SOL     OW 9151   5.974   5.233   1.173
 2751SOL    HW1 9152   6.074   5.233   1.181
 2751SOL    HW2 9153   5.945   5.317   1.127
 2752SOL     OW 9154   3.910   5.745   6.496
 2752SOL    HW1 9155   3.962   5.693   6.429
 2752SOL    HW2 9156   3.925   5.843   6.483
 2753SOL     OW 9157   5.781   4.744   5.578
 2753SOL    HW1 9158   5.757   4.778   5.669
 2753SOL    HW2 9159   5.783   4.820   5.513
 2754SOL     OW 9160   1.364   0.271   5.335
 2754SOL    HW1 9161   1.271   0.296   5.360
 2754SOL    HW2 9162   1.362   0.197   5.268
 2755SOL     OW 9163   3.262   6.742   2.079
 2755SOL    HW1 9164   3.252   6.716   2.175
 2755SOL    HW2 9165   3.334   6.687   2.036
 2756SOL     OW 9166   4.608   5.859   6.774
 2756SOL    HW1 9167   4.662   5.790   6.726
 2756SOL    HW2 9168   4.617   5.947   6.727
 2757SOL     OW 9169   0.754   4.921   0.720
 2757SOL    HW1 9170   0.758   4.873   0.633
 2757SOL    HW2 9171   0.687   4.995   0.716
 2758SOL     OW 9172   4.824   0.568   5.115
 2758SOL    HW1 9173   4.814   0.665   5.139
 2758SOL    HW2 9174   4.762   0.547   5.040
 2759SOL     OW 9175   4.831   4.888   3.741
 2759SOL    HW1 9176   4.895   4.811   3.738
 2759SOL    HW2 9177   4.741   4.856   3.771
 2760SOL     OW 9178   0.935   6.344   3.690
 2760SOL    HW1 9179   0.855   6.312   3.742
 2760SOL    HW2 9180   0.953   6.439   3.714
 2761SOL     OW 9181   2.487   5.297   4.540
 2761SOL    HW1 9182   2.393   5.304   4.571
 2761SOL    HW2 9183   2.526   5.210   4.571
 2762SOL     OW 9184   2.020   1.288   5.843
 2762SOL    HW1 9185   2.039   1.372   5.894
 2762SOL    HW2 9186   2.017   1.308   5.745
 2763SOL     OW 9187   5.548   0.543   2.282
 2763SOL    HW1 9188   5.559   0.622   2.342
 2763SOL    HW2 9189   5.492   0.569   2.203
 2764SOL     OW 9190   6.147   0.750   1.868
 2764SOL    HW1 9191   6.127   0.718   1.776
 2764SOL    HW2 9192   6.150   0.850   1.870
 2765SOL     OW 9193   5.242   1.814   3.077
 2765SOL    HW1 9194   5.321   1.786   3.022
 2765SOL    HW2 9195   5.252   1.909   3.105
 2766SOL     OW 9196   5.504   7.018   2.580
 2766SOL    HW1 9197   5.507   0.055   2.660
 2766SOL    HW2 9198   5.545   6.929   2.603
 2767SOL     OW 9199   6.411   4.128   5.800
 2767SOL    HW1 9200   6.502   4.100   5.830
 2767SOL    HW2 9201   6.344   4.103   5.870
 2768SOL     OW 9202   5.837   1.415   6.438
 2768SOL    HW1 9203   5.845   1.316   6.455
 2768SOL    HW2 9204   5.912   1.463   6.483
 2769SOL     OW 9205   0.840   4.597   0.787
 2769SOL    HW1 9206   0.746   4.600   0.752
 2769SOL    HW2 9207   0.852   4.669   0.855
 2770SOL     OW 9208   5.551   6.261   2.141
 2770SOL    HW1 9209   5.490   6.182   2.143
 2770SOL    HW2 9210   5.513   6.333   2.083
 2771SOL     OW 9211   4.808   0.708   1.378
 2771SOL    HW1 9212   4.877   0.767   1.421
 2771SOL    HW2 9213   4.792   0.739   1.284
 2772SOL     OW 9214   3.777   1.424   6.701
 2772SOL    HW1 9215   3.747   1.449   6.609
 2772SOL    HW2 9216   3.713   1.460   6.768
 2773SOL     OW 9217   3.045   4.769   0.812
 2773SOL    HW1 9218   2.955   4.755   0.854
 2773SOL    HW2 9219   3.033   4.784   0.714
 2774SOL     OW 9220   5.275   3.350   2.058
 2774SOL    HW1 9221   5.300   3.447   2.052
 2774SOL    HW2 9222   5.277   3.309   1.967
 2775SOL     OW 9223   0.180   0.135   2.930
 2775SOL    HW1 9224   0.275   0.166   2.920
 2775SOL    HW2 9225   0.155   0.082   2.849
 2776SOL     OW 9226   2.404   6.510   6.915
 2776SOL    HW1 9227   2.403   6.450   6.835
 2776SOL    HW2 9228   2.487   6.494   6.968
 2777SOL     OW 9229   1.911   2.314   4.103
 2777SOL    HW1 9230   2.002   2.300   4.144
 2777SOL    HW2 9231   1.921   2.362   4.016
 2778SOL     OW 9232   2.788   2.202   5.034
 2778SOL    HW1 9233   2.858   2.158   4.977
 2778SOL    HW2 9234   2.729   2.133   5.075
 2779SOL     OW 9235   6.395   1.183   1.327
 2779SOL    HW1 9236   6.439   1.264   1.366
 2779SOL    HW2 9237   6.447   1.101   1.352
 2780SOL     OW 9238   3.705   6.048   0.218
 2780SOL    HW1 9239   3.696   6.042   0.317
 2780SOL    HW2 9240   3.705   5.956   0.179
 2781SOL     OW 9241   4.685   3.768   6.583
 2781SOL    HW1 9242   4.621   3.707   6.537
 2781SOL    HW2 9243   4.666   3.863   6.555
 2782SOL     OW 9244   3.649   1.231   5.582
 2782SOL    HW1 9245   3.703   1.264   5.659
 2782SOL    HW2 9246   3.611   1.141   5.604
 2783SOL     OW 9247   0.463   4.083   5.643
 2783SOL    HW1 9248   0.490   4.071   5.739
 2783SOL    HW2 9249   0.403   4.163   5.636
 2784SOL     OW 9250   2.429   2.490   1.781
 2784SOL    HW1 9251   2.335   2.511   1.753
 2784SOL    HW2 9252   2.456   2.551   1.856
 2785SOL     OW 9253   5.920   1.352   2.080
 2785SOL    HW1 9254   5.950   1.267   2.124
 2785SOL    HW2 9255   5.893   1.418   2.150
 2786SOL     OW 9256   3.607   0.538   0.483
 2786SOL    HW1 9257   3.512   0.506   0.490
 2786SOL    HW2 9258   3.632   0.547   0.387
 2787SOL     OW 9259   2.094   3.746   6.302
 2787SOL    HW1 9260   2.117   3.709   6.212
 2787SOL    HW2 9261   2.059   3.672   6.361
 2788SOL     OW 9262   0.289   3.529   6.832
 2788SOL    HW1 9263   0.373   3.581   6.849
 2788SOL    HW2 9264   0.265   3.477   6.914
 2789SOL     OW 9265   0.776   2.768   4.140
 2789SOL    HW1 9266   0.740   2.856   4.171
 2789SOL    HW2 9267   0.847   2.736   4.203
 2790SOL     OW 9268   3.469   6.081   4.280
 2790SOL    HW1 9269   3.405   6.011   4.311
 2790SOL    HW2 9270   3.420   6.167   4.267
 2791SOL     OW 9271   2.096   3.866   2.954
 2791SOL    HW1 9272   2.066   3.775   2.928
 2791SOL    HW2 9273   2.048   3.895   3.037
 2792SOL     OW 9274   0.992   2.443   5.518
 2792SOL    HW1 9275   0.956   2.441   5.424
 2792SOL    HW2 9276   0.961   2.526   5.563
 2793SOL     OW 9277   4.759   0.424   4.026
 2793SOL    HW1 9278   4.724   0.330   4.031
 2793SOL    HW2 9279   4.730   0.466   3.940
 2794SOL     OW 9280   1.048   1.488   1.478
 2794SOL    HW1 9281   1.057   1.505   1.576
 2794SOL    HW2 9282   1.031   1.390   1.463
 2795SOL     OW 9283   1.188   3.842   1.229
 2795SOL    HW1 9284   1.160   3.753   1.192
 2795SOL    HW2 9285   1.110   3.885   1.273
 2796SOL     OW 9286   5.215   4.270   2.362
 2796SOL    HW1 9287   5.260   4.212   2.294
 2796SOL    HW2 9288   5.122   4.290   2.333
 2797SOL     OW 9289   4.551   4.264   5.212
 2797SOL    HW1 9290   4.552   4.342   5.148
 2797SOL    HW2 9291   4.456   4.241   5.234
 2798SOL     OW 9292   1.718   4.186   3.677
 2798SOL    HW1 9293   1.804   4.136   3.685
 2798SOL    HW2 9294   1.677   4.166   3.587
 2799SOL     OW 9295   6.924   5.792   6.206
 2799SOL    HW1 9296   7.020   5.767   6.210
 2799SOL    HW2 9297   6.869   5.713   6.180
 2800SOL     OW 9298   2.682   1.292   6.271
 2800SOL    HW1 9299   2.639   1.378   6.243
 2800SOL    HW2 9300   2.634   1.256   6.351
 2801SOL     OW 9301   4.073   5.731   2.221
 2801SOL    HW1 9302   3.989   5.779   2.197
 2801SOL    HW2 9303   4.052   5.643   2.263
 2802SOL     OW 9304   6.370   0.427   6.340
 2802SOL    HW1 9305   6.347   0.342   6.292
 2802SOL    HW2 9306   6.465   0.424   6.368
 2803SOL     OW 9307   2.383   5.794   5.410
 2803SOL    HW1 9308   2.375   5.792   5.510
 2803SOL    HW2 9309   2.469   5.750   5.383
 2804SOL     OW 9310   0.560   4.524   2.330
 2804SOL    HW1 9311   0.605   4.557   2.247
 2804SOL    HW2 9312   0.526   4.431   2.315
 2805SOL     OW 9313   5.895   3.906   6.751
 2805SOL    HW1 9314   5.847   3.861   6.675
 2805SOL    HW2 9315   5.990   3.876   6.753
 2806SOL     OW 9316   6.637   5.703   2.554
 2806SOL    HW1 9317   6.567   5.756   2.603
 2806SOL    HW2 9318   6.715   5.762   2.534
 2807SOL     OW 9319   3.983   5.153   3.800
 2807SOL    HW1 9320   4.015   5.223   3.737
 2807SOL    HW2 9321   4.051   5.080   3.806
 2808SOL     OW 9322   4.575   6.093   4.262
 2808SOL    HW1 9323   4.541   6.158   4.194
 2808SOL    HW2 9324   4.603   6.143   4.344
 2809SOL     OW 9325   5.894   2.854   0.035
 2809SOL    HW1 9326   5.824   2.792   7.022
 2809SOL    HW2 9327   5.969   2.801   0.074
 2810SOL     OW 9328   1.535   1.104   6.475
 2810SOL    HW1 9329   1.458   1.063   6.426
 2810SOL    HW2 9330   1.502   1.175   6.536
 2811SOL     OW 9331   0.001   0.606   4.222
 2811SOL    HW1 9332   0.008   0.516   4.264
 2811SOL    HW2 9333   6.928   0.635   4.220
 2812SOL     OW 9334   4.745   4.204   2.871
 2812SOL    HW1 9335   4.768   4.283   2.814
 2812SOL    HW2 9336   4.827   4.148   2.885
 2813SOL     OW 9337   6.123   1.909   6.473
 2813SOL    HW1 9338   6.193   1.966   6.516
 2813SOL    HW2 9339   6.085   1.956   6.394
 2814SOL     OW 9340   5.493   4.290   4.486
 2814SOL    HW1 9341   5.573   4.350   4.491
 2814SOL    HW2 9342   5.461   4.269   4.578
 2815SOL     OW 9343   0.696   0.761   4.328
 2815SOL    HW1 9344   0.674   0.714   4.414
 2815SOL    HW2 9345   0.723   0.855   4.347
 2816SOL     OW 9346   5.246   6.521   3.158
 2816SOL    HW1 9347   5.209   6.580   3.229
 2816SOL    HW2 9348   5.233   6.563   3.068
 2817SOL     OW 9349   1.587   1.467   1.386
 2817SOL    HW1 9350   1.511   1.516   1.342
 2817SOL    HW2 9351   1.561   1.441   1.479
 2818SOL     OW 9352   1.165   3.157   6.914
 2818SOL    HW1 9353   1.217   3.104   6.847
 2818SOL    HW2 9354   1.092   3.101   6.952
 2819SOL     OW 9355   6.618   3.022   1.173
 2819SOL    HW1 9356   6.598   3.092   1.105
 2819SOL    HW2 9357   6.716   3.012   1.185
 2820SOL     OW 9358   5.123   2.359   3.883
 2820SOL    HW1 9359   5.176   2.424   3.938
 2820SOL    HW2 9360   5.159   2.267   3.897
 2821SOL     OW 9361   1.760   3.229   3.611
 2821SOL    HW1 9362   1.708   3.310   3.583
 2821SOL    HW2 9363   1.819   3.200   3.536
 2822SOL     OW 9364   2.937   1.840   1.035
 2822SOL    HW1 9365   3.022   1.869   1.079
 2822SOL    HW2 9366   2.958   1.782   0.957
 2823SOL     OW 9367   1.751   6.951   4.282
 2823SOL    HW1 9368   1.805   6.944   4.198
 2823SOL    HW2 9369   1.812   6.967   4.360
 2824SOL     OW 9370   3.227   1.924   5.345
 2824SOL    HW1 9371   3.152   1.862   5.325
 2824SOL    HW2 9372   3.205   2.016   5.311
 2825SOL     OW 9373   6.101   6.227   1.273
 2825SOL    HW1 9374   6.093   6.271   1.183
 2825SOL    HW2 9375   6.053   6.282   1.341
 2826SOL     OW 9376   4.964   3.330   4.306
 2826SOL    HW1 9377   4.957   3.344   4.207
 2826SOL    HW2 9378   5.054   3.359   4.337
 2827SOL     OW 9379   6.634   0.319   6.338
 2827SOL    HW1 9380   6.673   0.393   6.283
 2827SOL    HW2 9381   6.667   0.231   6.303
 2828SOL     OW 9382   4.010   1.787   6.494
 2828SOL    HW1 9383   3.995   1.875   6.448
 2828SOL    HW2 9384   4.048   1.721   6.430
 2829SOL     OW 9385   3.069   0.240   6.964
 2829SOL    HW1 9386   2.997   0.172   6.953
 2829SOL    HW2 9387   3.112   0.229   0.031
 2830SOL     OW 9388   3.286   3.662   6.701
 2830SOL    HW1 9389   3.250   3.754   6.715
 2830SOL    HW2 9390   3.216   3.595   6.727
 2831SOL     OW 9391   0.025   6.258   4.201
 2831SOL    HW1 9392   6.973   6.323   4.187
 2831SOL    HW2 9393   0.108   6.293   4.158
 2832SOL     OW 9394   0.677   1.447   2.226
 2832SOL    HW1 9395   0.682   1.547   2.214
 2832SOL    HW2 9396   0.588   1.424   2.266
 2833SOL     OW 9397   6.721   3.467   2.572
 2833SOL    HW1 9398   6.640   3.429   2.528
 2833SOL    HW2 9399   6.694   3.519   2.653
 2834SOL     OW 9400   4.707   0.779   5.499
 2834SOL    HW1 9401   4.731   0.690   5.539
 2834SOL    HW2 9402   4.607   0.788   5.496
 2835SOL     OW 9403   6.652   6.358   3.518
 2835SOL    HW1 9404   6.652   6.336   3.421
 2835SOL    HW2 9405   6.674   6.455   3.530
 2836SOL     OW 9406   6.406   0.444   0.867
 2836SOL    HW1 9407   6.346   0.491   0.932
 2836SOL    HW2 9408   6.414   0.497   0.783
 2837SOL     OW 9409   6.129   3.284   3.550
 2837SOL    HW1 9410   6.056   3.225   3.515
 2837SOL    HW2 9411   6.109   3.309   3.645
 2838SOL     OW 9412   2.150   4.457   4.195
 2838SOL    HW1 9413   2.124   4.503   4.110
 2838SOL    HW2 9414   2.081   4.477   4.265
 2839SOL     OW 9415   4.518   2.810   0.768
 2839SOL    HW1 9416   4.616   2.808   0.787
 2839SOL    HW2 9417   4.473   2.868   0.836
 2840SOL     OW 9418   6.514   2.835   4.800
 2840SOL    HW1 9419   6.553   2.912   4.849
 2840SOL    HW2 9420   6.465   2.868   4.719
 2841SOL     OW 9421   7.021   6.426   0.614
 2841SOL    HW1 9422   0.055   6.351   0.651
 2841SOL    HW2 9423   0.001   6.503   0.678
 2842SOL     OW 9424   5.987   3.390   2.708
 2842SOL    HW1 9425   6.024   3.471   2.753
 2842SOL    HW2 9426   6.062   3.337   2.668
 2843SOL     OW 9427   3.965   1.138   3.873
 2843SOL    HW1 9428   4.020   1.155   3.955
 2843SOL    HW2 9429   3.981   1.213   3.808
 2844SOL     OW 9430   1.007   4.112   5.341
 2844SOL    HW1 9431   0.912   4.130   5.314
 2844SOL    HW2 9432   1.009   4.075   5.434
 2845SOL     OW 9433   6.951   4.251   5.854
 2845SOL    HW1 9434   6.890   4.209   5.922
 2845SOL    HW2 9435   0.009   4.288   5.901
 2846SOL     OW 9436   5.335   1.001   6.116
 2846SOL    HW1 9437   5.389   1.026   6.197
 2846SOL    HW2 9438   5.397   0.972   6.043
 2847SOL     OW 9439   4.338   4.590   4.208
 2847SOL    HW1 9440   4.380   4.580   4.298
 2847SOL    HW2 9441   4.272   4.516   4.194
 2848SOL     OW 9442   2.229   6.519   5.448
 2848SOL    HW1 9443   2.174   6.563   5.378
 2848SOL    HW2 9444   2.171   6.461   5.505
 2849SOL     OW 9445   1.839   3.047   1.674
 2849SOL    HW1 9446   1.912   3.030   1.608
 2849SOL    HW2 9447   1.877   3.089   1.756
 2850SOL     OW 9448   3.774   1.490   0.465
 2850SOL    HW1 9449   3.763   1.426   0.388
 2850SOL    HW2 9450   3.757   1.442   0.551
 2851SOL     OW 9451   2.421   5.172   6.258
 2851SOL    HW1 9452   2.379   5.137   6.342
 2851SOL    HW2 9453   2.513   5.135   6.249
 2852SOL     OW 9454   0.360   2.614   6.518
 2852SOL    HW1 9455   0.343   2.589   6.613
 2852SOL    HW2 9456   0.458   2.603   6.498
 2853SOL     OW 9457   3.519   2.425   1.592
 2853SOL    HW1 9458   3.547   2.396   1.684
 2853SOL    HW2 9459   3.585   2.490   1.556
 2854SOL     OW 9460   0.558   0.756   3.638
 2854SOL    HW1 9461   0.561   0.826   3.709
 2854SOL    HW2 9462   0.651   0.734   3.609
 2855SOL     OW 9463   3.340   1.641   5.037
 2855SOL    HW1 9464   3.395   1.609   4.960
 2855SOL    HW2 9465   3.379   1.606   5.122
 2856SOL     OW 9466   2.188   1.601   5.453
 2856SOL    HW1 9467   2.225   1.510   5.473
 2856SOL    HW2 9468   2.262   1.668   5.454
 2857SOL     OW 9469   3.399   3.317   3.656
 2857SOL    HW1 9470   3.406   3.411   3.690
 2857SOL    HW2 9471   3.429   3.314   3.561
 2858SOL     OW 9472   5.677   2.628   3.088
 2858SOL    HW1 9473   5.609   2.554   3.093
 2858SOL    HW2 9474   5.630   2.716   3.091
 2859SOL     OW 9475   5.299   6.068   0.130
 2859SOL    HW1 9476   5.330   6.163   0.122
 2859SOL    HW2 9477   5.222   6.052   0.069
 2860SOL     OW 9478   4.166   2.330   0.931
 2860SOL    HW1 9479   4.178   2.251   0.991
 2860SOL    HW2 9480   4.248   2.387   0.934
 2861SOL     OW 9481   3.889   5.390   6.202
 2861SOL    HW1 9482   3.806   5.347   6.166
 2861SOL    HW2 9483   3.946   5.421   6.125
 2862SOL     OW 9484   6.404   6.962   3.471
 2862SOL    HW1 9485   6.344   6.922   3.541
 2862SOL    HW2 9486   6.460   6.890   3.431
 2863SOL     OW 9487   6.692   0.926   6.988
 2863SOL    HW1 9488   6.670   0.991   6.916
 2863SOL    HW2 9489   6.609   0.905   0.018
 2864SOL     OW 9490   3.444   1.745   0.379
 2864SOL    HW1 9491   3.470   1.667   0.436
 2864SOL    HW2 9492   3.467   1.726   0.283
 2865SOL     OW 9493   4.453   5.157   5.175
 2865SOL    HW1 9494   4.471   5.244   5.129
 2865SOL    HW2 9495   4.460   5.082   5.108
 2866SOL     OW 9496   0.005   6.866   6.329
 2866SOL    HW1 9497   0.097   6.902   6.347
 2866SOL    HW2 9498   6.959   6.925   6.373
 2867SOL     OW 9499   6.824   4.659   3.537
 2867SOL    HW1 9500   6.781   4.701   3.617
 2867SOL    HW2 9501   6.782   4.570   3.519
 2868SOL     OW 9502   1.809   5.020   4.737
 2868SOL    HW1 9503   1.826   5.095   4.673
 2868SOL    HW2 9504   1.873   4.946   4.721
 2869SOL     OW 9505   6.239   1.324   2.428
 2869SOL    HW1 9506   6.336   1.302   2.435
 2869SOL    HW2 9507   6.228   1.409   2.376
 2870SOL     OW 9508   4.486   2.139   2.355
 2870SOL    HW1 9509   4.411   2.072   2.358
 2870SOL    HW2 9510   4.466   2.209   2.287
 2871SOL     OW 9511   1.364   1.653   5.931
 2871SOL    HW1 9512   1.291   1.658   5.863
 2871SOL    HW2 9513   1.400   1.744   5.949
 2872SOL     OW 9514   1.890   6.874   4.016
 2872SOL    HW1 9515   1.944   6.953   4.045
 2872SOL    HW2 9516   1.916   6.847   3.924
 2873SOL     OW 9517   6.703   5.949   2.036
 2873SOL    HW1 9518   6.679   6.014   1.964
 2873SOL    HW2 9519   6.716   5.858   1.996
 2874SOL     OW 9520   5.493   1.844   2.348
 2874SOL    HW1 9521   5.546   1.762   2.325
 2874SOL    HW2 9522   5.396   1.827   2.331
 2875SOL     OW 9523   2.642   5.079   1.385
 2875SOL    HW1 9524   2.555   5.128   1.394
 2875SOL    HW2 9525   2.691   5.114   1.305
 2876SOL     OW 9526   6.736   2.246   1.743
 2876SOL    HW1 9527   6.704   2.200   1.660
 2876SOL    HW2 9528   6.835   2.264   1.734
 2877SOL     OW 9529   2.113   3.762   5.797
 2877SOL    HW1 9530   2.107   3.810   5.709
 2877SOL    HW2 9531   2.024   3.765   5.842
 2878SOL     OW 9532   3.576   4.845   0.456
 2878SOL    HW1 9533   3.518   4.771   0.422
 2878SOL    HW2 9534   3.672   4.822   0.439
 2879SOL     OW 9535   4.618   4.212   0.077
 2879SOL    HW1 9536   4.697   4.168   0.121
 2879SOL    HW2 9537   4.541   4.149   0.077
 2880SOL     OW 9538   1.710   6.900   2.654
 2880SOL    HW1 9539   1.729   6.982   2.600
 2880SOL    HW2 9540   1.756   6.821   2.613
 2881SOL     OW 9541   0.093   0.167   6.702
 2881SOL    HW1 9542   0.025   0.201   6.637
 2881SOL    HW2 9543   0.146   0.244   6.738
 2882SOL     OW 9544   6.745   3.199   3.219
 2882SOL    HW1 9545   6.820   3.246   3.173
 2882SOL    HW2 9546   6.775   3.167   3.308
 2883SOL     OW 9547   4.370   5.885   2.071
 2883SOL    HW1 9548   4.350   5.818   2.142
 2883SOL    HW2 9549   4.343   5.976   2.103
 2884SOL     OW 9550   1.987   5.485   3.115
 2884SOL    HW1 9551   1.992   5.394   3.157
 2884SOL    HW2 9552   1.932   5.480   3.032
 2885SOL     OW 9553   1.049   2.388   4.440
 2885SOL    HW1 9554   1.031   2.454   4.513
 2885SOL    HW2 9555   0.988   2.310   4.451
 2886SOL     OW 9556   2.739   2.837   6.493
 2886SOL    HW1 9557   2.730   2.753   6.439
 2886SOL    HW2 9558   2.782   2.815   6.581
 2887SOL     OW 9559   2.575   1.325   4.853
 2887SOL    HW1 9560   2.612   1.273   4.931
 2887SOL    HW2 9561   2.649   1.372   4.807
 2888SOL     OW 9562   0.079   5.487   0.181
 2888SOL    HW1 9563   0.154   5.552   0.174
 2888SOL    HW2 9564   0.011   5.521   0.246
 2889SOL     OW 9565   0.711   0.209   0.830
 2889SOL    HW1 9566   0.680   0.217   0.925
 2889SOL    HW2 9567   0.670   0.127   0.789
 2890SOL     OW 9568   2.981   0.696   0.484
 2890SOL    HW1 9569   2.999   0.631   0.411
 2890SOL    HW2 9570   2.922   0.654   0.553
 2891SOL     OW 9571   2.925   4.890   4.959
 2891SOL    HW1 9572   2.873   4.959   4.910
 2891SOL    HW2 9573   2.865   4.813   4.982
 2892SOL     OW 9574   4.265   4.274   5.338
 2892SOL    HW1 9575   4.268   4.347   5.270
 2892SOL    HW2 9576   4.236   4.311   5.427
 2893SOL     OW 9577   3.456   1.070   5.836
 2893SOL    HW1 9578   3.415   1.161   5.836
 2893SOL    HW2 9579   3.405   1.011   5.898
 2894SOL     OW 9580   3.807   2.854   1.153
 2894SOL    HW1 9581   3.783   2.905   1.236
 2894SOL    HW2 9582   3.869   2.779   1.176
 2895SOL     OW 9583   3.170   2.970   0.321
 2895SOL    HW1 9584   3.222   2.884   0.320
 2895SOL    HW2 9585   3.079   2.953   0.284
 2896SOL     OW 9586   1.701   4.656   0.698
 2896SOL    HW1 9587   1.603   4.677   0.691
 2896SOL    HW2 9588   1.743   4.717   0.765
 2897SOL     OW 9589   1.094   0.100   3.724
 2897SOL    HW1 9590   1.144   0.014   3.718
 2897SOL    HW2 9591   1.016   0.098   3.661
 2898SOL     OW 9592   2.120   4.740   3.063
 2898SOL    HW1 9593   2.196   4.791   3.103
 2898SOL    HW2 9594   2.084   4.676   3.131
 2899SOL     OW 9595   5.817   1.172   0.799
 2899SOL    HW1 9596   5.867   1.199   0.881
 2899SOL    HW2 9597   5.766   1.088   0.817
 2900SOL     OW 9598   3.409   5.388   6.717
 2900SOL    HW1 9599   3.442   5.296   6.740
 2900SOL    HW2 9600   3.481   5.439   6.671
 2901SOL     OW 9601   2.472   0.081   1.084
 2901SOL    HW1 9602   2.472   0.022   1.164
 2901SOL    HW2 9603   2.547   0.147   1.092
 2902SOL     OW 9604   4.905   5.469   0.661
 2902SOL    HW1 9605   4.833   5.489   0.594
 2902SOL    HW2 9606   4.878   5.502   0.751
 2903SOL     OW 9607   2.723   2.227   1.812
 2903SOL    HW1 9608   2.706   2.295   1.741
 2903SOL    HW2 9609   2.782   2.267   1.883
 2904SOL     OW 9610   2.480   2.430   4.102
 2904SOL    HW1 9611   2.572   2.400   4.078
 2904SOL    HW2 9612   2.479   2.530   4.113
 2905SOL     OW 9613   1.366   2.034   2.149
 2905SOL    HW1 9614   1.309   2.105   2.192
 2905SOL    HW2 9615   1.353   1.948   2.198
 2906SOL     OW 9616   5.396   5.395   2.074
 2906SOL    HW1 9617   5.425   5.407   2.169
 2906SOL    HW2 9618   5.464   5.436   2.013
 2907SOL     OW 9619   6.187   0.474   4.402
 2907SOL    HW1 9620   6.174   0.493   4.499
 2907SOL    HW2 9621   6.284   0.466   4.382
 2908SOL     OW 9622   3.847   5.919   5.398
 2908SOL    HW1 9623   3.773   5.932   5.464
 2908SOL    HW2 9624   3.908   5.998   5.401
 2909SOL     OW 9625   2.062   5.780   5.407
 2909SOL    HW1 9626   2.159   5.770   5.383
 2909SOL    HW2 9627   2.053   5.846   5.483
 2910SOL     OW 9628   4.633   6.254   5.164
 2910SOL    HW1 9629   4.569   6.330   5.151
 2910SOL    HW2 9630   4.634   6.227   5.261
 2911SOL     OW 9631   2.398   4.437   3.726
 2911SOL    HW1 9632   2.342   4.506   3.679
 2911SOL    HW2 9633   2.418   4.468   3.819
 2912SOL     OW 9634   2.693   5.202   1.114
 2912SOL    HW1 9635   2.604   5.159   1.098
 2912SOL    HW2 9636   2.685   5.301   1.108
 2913SOL     OW 9637   0.976   3.715   2.651
 2913SOL    HW1 9638   0.904   3.650   2.675
 2913SOL    HW2 9639   0.937   3.786   2.592
 2914SOL     OW 9640   5.316   4.977   5.938
 2914SOL    HW1 9641   5.251   4.914   5.980
 2914SOL    HW2 9642   5.317   4.962   5.839
 2915SOL     OW 9643   4.318   1.443   4.278
 2915SOL    HW1 9644   4.402   1.422   4.228
 2915SOL    HW2 9645   4.327   1.533   4.321
 2916SOL     OW 9646   4.874   6.892   4.540
 2916SOL    HW1 9647   4.780   6.919   4.520
 2916SOL    HW2 9648   4.893   6.804   4.497
 2917SOL     OW 9649   4.177   0.552   1.810
 2917SOL    HW1 9650   4.176   0.574   1.907
 2917SOL    HW2 9651   4.183   0.636   1.756
 2918SOL     OW 9652   0.618   2.950   4.496
 2918SOL    HW1 9653   0.712   2.959   4.527
 2918SOL    HW2 9654   0.613   2.965   4.398
 2919SOL     OW 9655   6.231   6.247   0.608
 2919SOL    HW1 9656   6.297   6.173   0.593
 2919SOL    HW2 9657   6.279   6.335   0.606
 2920SOL     OW 9658   4.685   2.190   2.759
 2920SOL    HW1 9659   4.597   2.158   2.722
 2920SOL    HW2 9660   4.671   2.225   2.852
 2921SOL     OW 9661   0.123   0.858   1.375
 2921SOL    HW1 9662   0.090   0.796   1.305
 2921SOL    HW2 9663   0.210   0.825   1.411
 2922SOL     OW 9664   4.276   6.271   5.280
 2922SOL    HW1 9665   4.323   6.245   5.363
 2922SOL    HW2 9666   4.325   6.347   5.236
 2923SOL     OW 9667   6.944   4.144   7.008
 2923SOL    HW1 9668   6.930   4.164   6.911
 2923SOL    HW2 9669   7.015   4.204   0.023
 2924SOL     OW 9670   6.522   6.646   5.833
 2924SOL    HW1 9671   6.517   6.638   5.733
 2924SOL    HW2 9672   6.459   6.717   5.864
 2925SOL     OW 9673   5.703   3.145   1.235
 2925SOL    HW1 9674   5.693   3.055   1.279
 2925SOL    HW2 9675   5.667   3.141   1.142
 2926SOL     OW 9676   0.237   1.485   3.981
 2926SOL    HW1 9677   0.142   1.487   4.013
 2926SOL    HW2 9678   0.239   1.459   3.884
 2927SOL     OW 9679   0.883   3.246   2.543
 2927SOL    HW1 9680   0.815   3.269   2.613
 2927SOL    HW2 9681   0.912   3.151   2.555
 2928SOL     OW 9682   5.298   6.014   0.706
 2928SOL    HW1 9683   5.246   5.943   0.754
 2928SOL    HW2 9684   5.376   5.972   0.660
 2929SOL     OW 9685   0.590   0.241   6.263
 2929SOL    HW1 9686   0.556   0.330   6.295
 2929SOL    HW2 9687   0.681   0.253   6.223
 2930SOL     OW 9688   3.069   6.524   4.194
 2930SOL    HW1 9689   3.004   6.595   4.222
 2930SOL    HW2 9690   3.092   6.536   4.098
 2931SOL     OW 9691   3.849   4.611   6.554
 2931SOL    HW1 9692   3.931   4.620   6.610
 2931SOL    HW2 9693   3.774   4.664   6.594
 2932SOL     OW 9694   1.366   4.826   2.188
 2932SOL    HW1 9695   1.362   4.911   2.241
 2932SOL    HW2 9696   1.405   4.845   2.098
 2933SOL     OW 9697   4.675   2.334   3.655
 2933SOL    HW1 9698   4.625   2.314   3.570
 2933SOL    HW2 9699   4.747   2.401   3.636
 2934SOL     OW 9700   1.908   1.170   0.877
 2934SOL    HW1 9701   1.919   1.186   0.779
 2934SOL    HW2 9702   1.826   1.114   0.892
 2935SOL     OW 9703   6.786   1.452   1.293
 2935SOL    HW1 9704   6.694   1.425   1.319
 2935SOL    HW2 9705   6.788   1.550   1.274
 2936SOL     OW 9706   3.213   5.690   0.327
 2936SOL    HW1 9707   3.142   5.728   0.386
 2936SOL    HW2 9708   3.172   5.657   0.242
 2937SOL     OW 9709   2.672   4.858   0.158
 2937SOL    HW1 9710   2.583   4.816   0.139
 2937SOL    HW2 9711   2.659   4.957   0.171
 2938SOL     OW 9712   5.298   4.929   5.683
 2938SOL    HW1 9713   5.379   4.933   5.624
 2938SOL    HW2 9714   5.215   4.930   5.626
 2939SOL     OW 9715   0.374   6.787   6.162
 2939SOL    HW1 9716   0.456   6.794   6.106
 2939SOL    HW2 9717   0.399   6.778   6.258
 2940SOL     OW 9718   3.729   6.772   5.143
 2940SOL    HW1 9719   3.663   6.832   5.099
 2940SOL    HW2 9720   3.749   6.806   5.235
 2941SOL     OW 9721   3.461   1.541   5.286
 2941SOL    HW1 9722   3.460   1.568   5.382
 2941SOL    HW2 9723   3.513   1.456   5.275
 2942SOL     OW 9724   4.076   6.326   4.094
 2942SOL    HW1 9725   4.125   6.348   4.009
 2942SOL    HW2 9726   4.121   6.372   4.171
 2943SOL     OW 9727   5.239   4.454   2.747
 2943SOL    HW1 9728   5.270   4.486   2.658
 2943SOL    HW2 9729   5.223   4.355   2.744
 2944SOL     OW 9730   4.318   6.192   6.975
 2944SOL    HW1 9731   4.220   6.206   6.990
 2944SOL    HW2 9732   4.333   6.106   6.927
 2945SOL     OW 9733   3.393   4.154   3.957
 2945SOL    HW1 9734   3.418   4.062   3.927
 2945SOL    HW2 9735   3.471   4.197   4.003
 2946SOL     OW 9736   0.658   5.861   6.155
 2946SOL    HW1 9737   0.746   5.828   6.187
 2946SOL    HW2 9738   0.645   5.956   6.185
 2947SOL     OW 9739   0.156   5.253   0.346
 2947SOL    HW1 9740   0.219   5.214   0.279
 2947SOL    HW2 9741   0.091   5.313   0.300
 2948SOL     OW 9742   5.839   4.185   5.404
 2948SOL    HW1 9743   5.904   4.162   5.476
 2948SOL    HW2 9744   5.781   4.106   5.386
 2949SOL     OW 9745   0.913   6.519   0.808
 2949SOL    HW1 9746   0.926   6.480   0.899
 2949SOL    HW2 9747   0.824   6.565   0.804
 2950SOL     OW 9748   4.988   3.602   4.726
 2950SOL    HW1 9749   4.914   3.624   4.789
 2950SOL    HW2 9750   5.073   3.645   4.757
 2951SOL     OW 9751   5.949   0.557   0.750
 2951SOL    HW1 9752   5.974   0.570   0.846
 2951SOL    HW2 9753   5.971   0.640   0.698
 2952SOL     OW 9754   0.983   3.966   1.627
 2952SOL    HW1 9755   0.898   3.929   1.664
 2952SOL    HW2 9756   1.057   3.900   1.642
 2953SOL     OW 9757   5.603   1.598   2.335
 2953SOL    HW1 9758   5.536   1.571   2.266
 2953SOL    HW2 9759   5.607   1.527   2.406
 2954SOL     OW 9760   5.811   6.141   1.808
 2954SOL    HW1 9761   5.714   6.162   1.823
 2954SOL    HW2 9762   5.862   6.226   1.800
 2955SOL     OW 9763   6.437   2.453   0.429
 2955SOL    HW1 9764   6.352   2.504   0.441
 2955SOL    HW2 9765   6.432   2.401   0.344
 2956SOL     OW 9766   6.934   5.393   3.334
 2956SOL    HW1 9767   6.858   5.395   3.269
 2956SOL    HW2 9768   6.920   5.463   3.404
 2957SOL     OW 9769   1.451   4.990   1.559
 2957SOL    HW1 9770   1.433   5.088   1.550
 2957SOL    HW2 9771   1.375   4.939   1.519
 2958SOL     OW 9772   2.996   5.322   6.650
 2958SOL    HW1 9773   3.004   5.338   6.749
 2958SOL    HW2 9774   3.045   5.394   6.601
 2959SOL     OW 9775   4.035   5.409   6.873
 2959SOL    HW1 9776   4.054   5.451   6.784
 2959SOL    HW2 9777   4.110   5.428   6.936
 2960SOL     OW 9778   2.820   1.383   0.118
 2960SOL    HW1 9779   2.858   1.434   0.195
 2960SOL    HW2 9780   2.732   1.343   0.144
 2961SOL     OW 9781   6.058   1.680   4.436
 2961SOL    HW1 9782   6.144   1.665   4.386
 2961SOL    HW2 9783   6.031   1.776   4.429
 2962SOL     OW 9784   3.964   0.615   2.596
 2962SOL    HW1 9785   4.044   0.645   2.648
 2962SOL    HW2 9786   3.994   0.577   2.509
 2963SOL     OW 9787   1.901   3.760   4.938
 2963SOL    HW1 9788   1.888   3.661   4.925
 2963SOL    HW2 9789   1.962   3.776   5.015
 2964SOL     OW 9790   2.879   5.980   0.217
 2964SOL    HW1 9791   2.783   5.977   0.187
 2964SOL    HW2 9792   2.920   6.066   0.187
 2965SOL     OW 9793   0.095   2.532   6.067
 2965SOL    HW1 9794   0.039   2.449   6.077
 2965SOL    HW2 9795   0.082   2.590   6.148
 2966SOL     OW 9796   5.082   4.754   3.397
 2966SOL    HW1 9797   5.028   4.838   3.403
 2966SOL    HW2 9798   5.133   4.754   3.311
 2967SOL     OW 9799   5.736   2.444   3.736
 2967SOL    HW1 9800   5.784   2.399   3.811
 2967SOL    HW2 9801   5.664   2.502   3.771
 2968SOL     OW 9802   6.416   3.690   3.192
 2968SOL    HW1 9803   6.479   3.726   3.261
 2968SOL    HW2 9804   6.424   3.590   3.189
 2969SOL     OW 9805   3.751   1.314   4.731
 2969SOL    HW1 9806   3.829   1.298   4.670
 2969SOL    HW2 9807   3.779   1.302   4.826
 2970SOL     OW 9808   0.876   3.879   6.220
 2970SOL    HW1 9809   0.854   3.961   6.167
 2970SOL    HW2 9810   0.942   3.823   6.169
 2971SOL     OW 9811   5.298   3.484   2.581
 2971SOL    HW1 9812   5.269   3.574   2.547
 2971SOL    HW2 9813   5.219   3.423   2.583
 2972SOL     OW 9814   1.106   4.381   5.399
 2972SOL    HW1 9815   1.095   4.294   5.352
 2972SOL    HW2 9816   1.024   4.400   5.454
 2973SOL     OW 9817   6.053   0.153   4.526
 2973SOL    HW1 9818   6.110   0.080   4.565
 2973SOL    HW2 9819   6.106   0.204   4.458
 2974SOL     OW 9820   6.889   4.331   2.233
 2974SOL    HW1 9821   6.971   4.303   2.282
 2974SOL    HW2 9822   6.856   4.256   2.176
 2975SOL     OW 9823   0.087   1.314   4.342
 2975SOL    HW1 9824   0.158   1.370   4.384
 2975SOL    HW2 9825   0.021   1.372   4.296
 2976SOL     OW 9826   2.424   6.149   1.703
 2976SOL    HW1 9827   2.423   6.105   1.793
 2976SOL    HW2 9828   2.489   6.225   1.704
 2977SOL     OW 9829   3.334   6.328   4.241
 2977SOL    HW1 9830   3.238   6.300   4.235
 2977SOL    HW2 9831   3.350   6.406   4.181
 2978SOL     OW 9832   3.578   0.178   6.141
 2978SOL    HW1 9833   3.647   0.216   6.203
 2978SOL    HW2 9834   3.517   0.119   6.192
 2979SOL     OW 9835   3.634   1.266   3.288
 2979SOL    HW1 9836   3.692   1.197   3.331
 2979SOL    HW2 9837   3.573   1.222   3.222
 2980SOL     OW 9838   6.879   6.104   3.888
 2980SOL    HW1 9839   6.977   6.089   3.876
 2980SOL    HW2 9840   6.834   6.016   3.906
 2981SOL     OW 9841   2.147   1.521   6.024
 2981SOL    HW1 9842   2.165   1.456   6.097
 2981SOL    HW2 9843   2.055   1.559   6.035
 2982SOL     OW 9844   4.805   6.328   1.926
 2982SOL    HW1 9845   4.874   6.397   1.907
 2982SOL    HW2 9846   4.802   6.309   2.024
 2983SOL     OW 9847   6.487   0.699   2.841
 2983SOL    HW1 9848   6.575   0.745   2.842
 2983SOL    HW2 9849   6.480   0.642   2.759
 2984SOL     OW 9850   5.991   4.329   1.556
 2984SOL    HW1 9851   6.038   4.414   1.581
 2984SOL    HW2 9852   6.028   4.254   1.611
 2985SOL     OW 9853   6.978   2.080   3.259
 2985SOL    HW1 9854   6.896   2.062   3.313
 2985SOL    HW2 9855   6.968   2.166   3.209
 2986SOL     OW 9856   2.206   3.554   5.091
 2986SOL    HW1 9857   2.264   3.486   5.046
 2986SOL    HW2 9858   2.256   3.641   5.098
 2987SOL     OW 9859   4.845   1.622   4.832
 2987SOL    HW1 9860   4.892   1.616   4.920
 2987SOL    HW2 9861   4.860   1.538   4.780
 2988SOL     OW 9862   0.651   6.732   2.064
 2988SOL    HW1 9863   0.563   6.755   2.022
 2988SOL    HW2 9864   0.710   6.688   1.995
 2989SOL     OW 9865   6.356   5.416   0.600
 2989SOL    HW1 9866   6.325   5.469   0.521
 2989SOL    HW2 9867   6.285   5.417   0.671
 2990SOL     OW 9868   3.058   1.458   1.193
 2990SOL    HW1 9869   2.972   1.503   1.218
 2990SOL    HW2 9870   3.132   1.526   1.192
 2991SOL     OW 9871   6.015   4.627   0.193
 2991SOL    HW1 9872   6.078   4.594   0.122
 2991SOL    HW2 9873   5.929   4.577   0.188
 2992SOL     OW 9874   4.372   4.525   6.815
 2992SOL    HW1 9875   4.457   4.509   6.866
 2992SOL    HW2 9876   4.378   4.482   6.725
 2993SOL     OW 9877   1.605   4.783   0.294
 2993SOL    HW1 9878   1.644   4.791   0.202
 2993SOL    HW2 9879   1.635   4.697   0.336
 2994SOL     OW 9880   3.963   6.101   0.207
 2994SOL    HW1 9881   3.873   6.129   0.241
 2994SOL    HW2 9882   4.005   6.179   0.159
 2995SOL     OW 9883   2.623   0.734   5.858
 2995SOL    HW1 9884   2.531   0.756   5.827
 2995SOL    HW2 9885   2.689   0.757   5.787
 2996SOL     OW 9886   4.443   5.791   5.340
 2996SOL    HW1 9887   4.346   5.814   5.345
 2996SOL    HW2 9888   4.497   5.861   5.386
 2997SOL     OW 9889   4.227   5.841   0.547
 2997SOL    HW1 9890   4.243   5.922   0.491
 2997SOL    HW2 9891   4.164   5.779   0.499
 2998SOL     OW 9892   5.975   4.894   5.423
 2998SOL    HW1 9893   5.932   4.847   5.346
 2998SOL    HW2 9894   6.012   4.826   5.487
 2999SOL     OW 9895   2.424   0.587   2.030
 2999SOL    HW1 9896   2.477   0.663   2.067
 2999SOL    HW2 9897   2.385   0.534   2.105
 3000SOL     OW 9898   1.377   2.135   4.749
 3000SOL    HW1 9899   1.393   2.042   4.784
 3000SOL    HW2 9900   1.366   2.132   4.649
 3001SOL     OW 9901   5.086   6.711   5.639
 3001SOL    HW1 9902   5.183   6.705   5.665
 3001SOL    HW2 9903   5.078   6.753   5.549
 3002SOL     OW 9904   2.963   0.627   5.364
 3002SOL    HW1 9905   3.015   0.546   5.338
 3002SOL    HW2 9906   3.025   0.696   5.401
 3003SOL     OW 9907   2.186   0.303   5.889
 3003SOL    HW1 9908   2.225   0.220   5.848
 3003SOL    HW2 9909   2.242   0.331   5.967
 3004SOL     OW 9910   6.810   2.816   5.501
 3004SOL    HW1 9911   6.767   2.757   5.569
 3004SOL    HW2 9912   6.758   2.902   5.494
 3005SOL     OW 9913   4.570   2.526   1.113
 3005SOL    HW1 9914   4.657   2.566   1.084
 3005SOL    HW2 9915   4.574   2.506   1.211
 3006SOL     OW 9916   4.315   6.893   1.128
 3006SOL    HW1 9917   4.349   6.983   1.155
 3006SOL    HW2 9918   4.383   6.824   1.152
 3007SOL     OW 9919   6.088   5.447   1.727
 3007SOL    HW1 9920   6.186   5.428   1.734
 3007SOL    HW2 9921   6.063   5.517   1.793
 3008SOL     OW 9922   4.873   6.150   5.462
 3008SOL    HW1 9923   4.900   6.072   5.405
 3008SOL    HW2 9924   4.942   6.222   5.453
 3009SOL     OW 9925   1.562   0.784   2.442
 3009SOL    HW1 9926   1.532   0.873   2.478
 3009SOL    HW2 9927   1.484   0.737   2.400
 3010SOL     OW 9928   2.548   6.607   2.698
 3010SOL    HW1 9929   2.578   6.570   2.610
 3010SOL    HW2 9930   2.461   6.654   2.686
 3011SOL     OW 9931   5.707   0.480   0.015
 3011SOL    HW1 9932   5.678   0.483   0.111
 3011SOL    HW2 9933   5.801   0.447   0.010
 3012SOL     OW 9934   0.008   4.818   1.455
 3012SOL    HW1 9935   0.008   4.909   1.414
 3012SOL    HW2 9936   0.084   4.764   1.417
 3013SOL     OW 9937   6.322   4.172   2.050
 3013SOL    HW1 9938   6.290   4.088   2.007
 3013SOL    HW2 9939   6.246   4.237   2.057
 3014SOL     OW 9940   5.308   0.118   5.477
 3014SOL    HW1 9941   5.343   0.131   5.570
 3014SOL    HW2 9942   5.209   0.103   5.480
 3015SOL     OW 9943   2.647   1.002   0.129
 3015SOL    HW1 9944   2.721   0.959   0.180
 3015SOL    HW2 9945   2.668   1.001   0.032
 3016SOL     OW 9946   3.884   6.163   3.391
 3016SOL    HW1 9947   3.971   6.119   3.370
 3016SOL    HW2 9948   3.889   6.203   3.483
 3017SOL     OW 9949   0.088   5.889   1.133
 3017SOL    HW1 9950   0.083   5.808   1.191
 3017SOL    HW2 9951   0.183   5.903   1.103
 3018SOL     OW 9952   4.317   0.258   6.130
 3018SOL    HW1 9953   4.293   0.329   6.196
 3018SOL    HW2 9954   4.255   0.264   6.052
 3019SOL     OW 9955   5.240   6.731   1.788
 3019SOL    HW1 9956   5.314   6.753   1.852
 3019SOL    HW2 9957   5.250   6.787   1.705
 3020SOL     OW 9958   2.202   0.933   1.776
 3020SOL    HW1 9959   2.171   0.944   1.871
 3020SOL    HW2 9960   2.226   0.838   1.760
 3021SOL     OW 9961   4.345   0.669   6.191
 3021SOL    HW1 9962   4.314   0.749   6.242
 3021SOL    HW2 9963   4.421   0.695   6.130
 3022SOL     OW 9964   6.564   0.198   2.424
 3022SOL    HW1 9965   6.631   0.271   2.438
 3022SOL    HW2 9966   6.561   0.173   2.327
 3023SOL     OW 9967   5.927   0.275   1.486
 3023SOL    HW1 9968   5.879   0.192   1.515
 3023SOL    HW2 9969   5.985   0.254   1.407
 3024SOL     OW 9970   3.255   6.754   6.507
 3024SOL    HW1 9971   3.309   6.793   6.582
 3024SOL    HW2 9972   3.221   6.828   6.448
 3025SOL     OW 9973   2.030   2.695   2.072
 3025SOL    HW1 9974   2.023   2.728   1.978
 3025SOL    HW2 9975   2.091   2.755   2.124
 3026SOL     OW 9976   2.562   5.617   0.462
 3026SOL    HW1 9977   2.509   5.574   0.389
 3026SOL    HW2 9978   2.655   5.634   0.430
 3027SOL     OW 9979   1.853   1.582   3.665
 3027SOL    HW1 9980   1.842   1.557   3.569
 3027SOL    HW2 9981   1.787   1.529   3.720
 3028SOL     OW 9982   0.943   0.879   4.583
 3028SOL    HW1 9983   0.889   0.958   4.612
 3028SOL    HW2 9984   0.998   0.847   4.660
 3029SOL     OW 9985   5.597   5.319   6.065
 3029SOL    HW1 9986   5.636   5.374   6.138
 3029SOL    HW2 9987   5.655   5.238   6.049
 3030SOL     OW 9988   1.001   1.395   5.923
 3030SOL    HW1 9989   1.069   1.456   5.965
 3030SOL    HW2 9990   1.026   1.300   5.942
 3031SOL     OW 9991   0.570   5.410   6.333
 3031SOL    HW1 9992   0.518   5.454   6.406
 3031SOL    HW2 9993   0.512   5.401   6.251
 3032SOL     OW 9994   3.967   6.878   5.745
 3032SOL    HW1 9995   4.028   6.912   5.816
 3032SOL    HW2 9996   3.874   6.870   5.782
 3033SOL     OW 9997   5.558   4.898   6.056
 3033SOL    HW1 9998   5.470   4.919   6.013
 3033SOL    HW2 9999   5.576   4.800   6.049
 3034SOL     OW10000   2.889   6.678   4.356
 3034SOL    HW110001   2.833   6.720   4.285
 3034SOL    HW210002   2.885   6.734   4.439
 3035SOL     OW10003   6.438   6.950   0.028
 3035SOL    HW110004   6.426   6.968   0.125
 3035SOL    HW210005   6.486   0.004   7.008
 3036SOL     OW10006   1.067   5.070   5.382
 3036SOL    HW110007   1.110   4.982   5.406
 3036SOL    HW210008   0.985   5.053   5.328
 3037SOL     OW10009   5.896   6.878   5.691
 3037SOL    HW110010   5.910   6.953   5.756
 3037SOL    HW210011   5.799   6.851   5.693
 3038SOL     OW10012   6.142   6.375   5.747
 3038SOL    HW110013   6.149   6.471   5.722
 3038SOL    HW210014   6.230   6.330   5.733
 3039SOL     OW10015   0.151   4.926   0.349
 3039SOL    HW110016   0.201   4.893   0.429
 3039SOL    HW210017   0.203   5.001   0.306
 3040SOL     OW10018   2.602   1.498   6.927
 3040SOL    HW110019   2.689   1.463   6.963
 3040SOL    HW210020   2.533   1.427   6.932
 3041SOL     OW10021   1.620   2.616   6.284
 3041SOL    HW110022   1.712   2.591   6.253
 3041SOL    HW210023   1.624   2.644   6.380
 3042SOL     OW10024   5.904   6.855   1.797
 3042SOL    HW110025   5.926   6.904   1.882
 3042SOL    HW210026   5.988   6.826   1.752
 3043SOL     OW10027   6.592   4.979   6.763
 3043SOL    HW110028   6.516   4.989   6.699
 3043SOL    HW210029   6.648   5.062   6.761
 3044SOL     OW10030   2.602   3.176   6.305
 3044SOL    HW110031   2.577   3.112   6.377
 3044SOL    HW210032   2.520   3.218   6.267
 3045SOL     OW10033   4.554   1.799   4.061
 3045SOL    HW110034   4.581   1.703   4.066
 3045SOL    HW210035   4.482   1.817   4.129
 3046SOL     OW10036   1.902   2.286   5.966
 3046SOL    HW110037   1.958   2.225   5.910
 3046SOL    HW210038   1.956   2.320   6.043
 3047SOL     OW10039   0.194   4.632   1.327
 3047SOL    HW110040   0.203   4.534   1.343
 3047SOL    HW210041   0.284   4.674   1.324
 3048SOL     OW10042   2.907   2.629   1.625
 3048SOL    HW110043   2.919   2.571   1.706
 3048SOL    HW210044   2.821   2.680   1.634
 3049SOL     OW10045   1.025   0.495   1.615
 3049SOL    HW110046   1.016   0.525   1.520
 3049SOL    HW210047   0.934   0.483   1.655
 3050SOL     OW10048   1.935   0.133   4.102
 3050SOL    HW110049   2.010   0.196   4.124
 3050SOL    HW210050   1.860   0.184   4.062
 3051SOL     OW10051   2.991   4.622   6.006
 3051SOL    HW110052   3.014   4.636   5.910
 3051SOL    HW210053   2.897   4.591   6.014
 3052SOL     OW10054   5.011   6.712   2.734
 3052SOL    HW110055   5.029   6.792   2.678
 3052SOL    HW210056   5.082   6.643   2.718
 3053SOL     OW10057   5.010   6.658   1.917
 3053SOL    HW110058   4.923   6.704   1.900
 3053SOL    HW210059   5.082   6.702   1.863
 3054SOL     OW10060   2.218   4.181   5.533
 3054SOL    HW110061   2.268   4.117   5.592
 3054SOL    HW210062   2.259   4.272   5.540
 3055SOL     OW10063   5.829   6.557   3.025
 3055SOL    HW110064   5.819   6.604   3.113
 3055SOL    HW210065   5.739   6.544   2.984
 3056SOL     OW10066   5.738   0.500   2.057
 3056SOL    HW110067   5.666   0.569   2.068
 3056SOL    HW210068   5.818   0.527   2.111
 3057SOL     OW10069   6.533   6.140   2.769
 3057SOL    HW110070   6.532   6.159   2.867
 3057SOL    HW210071   6.558   6.223   2.719
 3058SOL     OW10072   6.333   5.617   1.471
 3058SOL    HW110073   6.270   5.692   1.452
 3058SOL    HW210074   6.286   5.548   1.527
 3059SOL     OW10075   1.907   2.730   5.522
 3059SOL    HW110076   1.891   2.808   5.463
 3059SOL    HW210077   1.893   2.756   5.617
 3060SOL     OW10078   0.444   6.590   0.387
 3060SOL    HW110079   0.356   6.626   0.420
 3060SOL    HW210080   0.442   6.490   0.392
 3061SOL     OW10081   0.345   0.819   5.631
 3061SOL    HW110082   0.318   0.756   5.558
 3061SOL    HW210083   0.332   0.775   5.720
 3062SOL     OW10084   3.224   5.420   6.289
 3062SOL    HW110085   3.321   5.406   6.267
 3062SOL    HW210086   3.174   5.335   6.275
 3063SOL     OW10087   2.589   5.609   0.737
 3063SOL    HW110088   2.583   5.591   0.639
 3063SOL    HW210089   2.637   5.695   0.752
 3064SOL     OW10090   6.875   4.914   3.937
 3064SOL    HW110091   6.916   4.827   3.908
 3064SOL    HW210092   6.942   4.987   3.926
 3065SOL     OW10093   2.878   1.137   1.097
 3065SOL    HW110094   2.920   1.109   1.011
 3065SOL    HW210095   2.779   1.145   1.085
 3066SOL     OW10096   5.381   5.658   0.454
 3066SOL    HW110097   5.454   5.716   0.490
 3066SOL    HW210098   5.403   5.631   0.361
 3067SOL     OW10099   4.240   6.740   2.993
 3067SOL    HW110100   4.230   6.752   2.895
 3067SOL    HW210101   4.176   6.800   3.041
 3068SOL     OW10102   5.632   4.727   0.096
 3068SOL    HW110103   5.595   4.695   0.008
 3068SOL    HW210104   5.626   4.826   0.100
 3069SOL     OW10105   1.167   5.228   3.916
 3069SOL    HW110106   1.247   5.193   3.868
 3069SOL    HW210107   1.085   5.183   3.881
 3070SOL     OW10108   3.749   1.757   4.423
 3070SOL    HW110109   3.772   1.659   4.424
 3070SOL    HW210110   3.682   1.774   4.351
 3071SOL     OW10111   5.800   0.280   4.015
 3071SOL    HW110112   5.769   0.210   4.079
 3071SOL    HW210113   5.793   0.247   3.921
 3072SOL     OW10114   0.355   0.276   1.796
 3072SOL    HW110115   0.394   0.318   1.878
 3072SOL    HW210116   0.286   0.338   1.757
 3073SOL     OW10117   1.795   2.487   4.781
 3073SOL    HW110118   1.857   2.543   4.725
 3073SOL    HW210119   1.849   2.436   4.848
 3074SOL     OW10120   4.815   3.568   6.090
 3074SOL    HW110121   4.854   3.592   6.001
 3074SOL    HW210122   4.853   3.480   6.121
 3075SOL     OW10123   6.739   5.889   0.601
 3075SOL    HW110124   6.658   5.878   0.545
 3075SOL    HW210125   6.715   5.936   0.686
 3076SOL     OW10126   0.651   0.922   4.846
 3076SOL    HW110127   0.585   0.996   4.830
 3076SOL    HW210128   0.726   0.956   4.902
 3077SOL     OW10129   5.250   4.441   3.977
 3077SOL    HW110130   5.217   4.347   3.991
 3077SOL    HW210131   5.205   4.480   3.897
 3078SOL     OW10132   1.913   2.786   0.028
 3078SOL    HW110133   1.986   2.819   6.991
 3078SOL    HW210134   1.832   2.768   6.996
 3079SOL     OW10135   5.427   2.723   6.612
 3079SOL    HW110136   5.515   2.769   6.624
 3079SOL    HW210137   5.399   2.682   6.699
 3080SOL     OW10138   6.527   6.672   1.357
 3080SOL    HW110139   6.487   6.582   1.339
 3080SOL    HW210140   6.580   6.701   1.277
 3081SOL     OW10141   0.520   4.707   6.211
 3081SOL    HW110142   0.619   4.714   6.216
 3081SOL    HW210143   0.485   4.664   6.294
 3082SOL     OW10144   2.639   6.998   2.144
 3082SOL    HW110145   2.627   6.960   2.235
 3082SOL    HW210146   2.586   6.944   2.078
 3083SOL     OW10147   3.213   0.431   2.132
 3083SOL    HW110148   3.195   0.378   2.049
 3083SOL    HW210149   3.271   0.509   2.110
 3084SOL     OW10150   4.676   6.365   3.829
 3084SOL    HW110151   4.641   6.275   3.804
 3084SOL    HW210152   4.671   6.426   3.750
 3085SOL     OW10153   1.184   5.381   1.741
 3085SOL    HW110154   1.241   5.452   1.700
 3085SOL    HW210155   1.135   5.419   1.819
 3086SOL     OW10156   6.065   1.371   4.131
 3086SOL    HW110157   5.987   1.428   4.157
 3086SOL    HW210158   6.042   1.318   4.049
 3087SOL     OW10159   5.630   3.484   2.133
 3087SOL    HW110160   5.572   3.424   2.187
 3087SOL    HW210161   5.594   3.577   2.136
 3088SOL     OW10162   2.915   3.754   6.532
 3088SOL    HW110163   2.912   3.848   6.498
 3088SOL    HW210164   2.982   3.701   6.479
 3089SOL     OW10165   3.500   2.062   1.313
 3089SOL    HW110166   3.473   2.032   1.222
 3089SOL    HW210167   3.600   2.067   1.318
 3090SOL     OW10168   6.754   1.832   0.851
 3090SOL    HW110169   6.808   1.800   0.773
 3090SOL    HW210170   6.726   1.754   0.906
 3091SOL     OW10171   2.300   6.681   0.508
 3091SOL    HW110172   2.345   6.597   0.537
 3091SOL    HW210173   2.344   6.759   0.553
 3092SOL     OW10174   3.699   5.668   0.340
 3092SOL    HW110175   3.628   5.731   0.371
 3092SOL    HW210176   3.788   5.697   0.376
 3093SOL     OW10177   4.881   6.351   3.307
 3093SOL    HW110178   4.839   6.424   3.254
 3093SOL    HW210179   4.970   6.382   3.342
 3094SOL     OW10180   2.743   5.423   5.501
 3094SOL    HW110181   2.802   5.371   5.563
 3094SOL    HW210182   2.759   5.394   5.407
 3095SOL     OW10183   1.861   5.001   5.009
 3095SOL    HW110184   1.775   4.978   5.054
 3095SOL    HW210185   1.845   5.013   4.911
 3096SOL     OW10186   0.226   0.716   5.406
 3096SOL    HW110187   0.151   0.696   5.343
 3096SOL    HW210188   0.306   0.746   5.354
 3097SOL     OW10189   1.796   1.998   0.148
 3097SOL    HW110190   1.752   2.076   0.104
 3097SOL    HW210191   1.882   1.978   0.101
 3098SOL     OW10192   3.920   2.151   0.154
 3098SOL    HW110193   3.833   2.134   0.200
 3098SOL    HW210194   3.952   2.243   0.177
 3099SOL     OW10195   1.407   5.671   5.312
 3099SOL    HW110196   1.479   5.643   5.250
 3099SOL    HW210197   1.424   5.765   5.342
 3100SOL     OW10198   5.920   6.129   6.298
 3100SOL    HW110199   6.006   6.152   6.343
 3100SOL    HW210200   5.938   6.068   6.220
 3101SOL     OW10201   3.780   0.209   1.211
 3101SOL    HW110202   3.775   0.149   1.131
 3101SOL    HW210203   3.876   0.225   1.235
 3102SOL     OW10204   0.744   6.149   0.741
 3102SOL    HW110205   0.837   6.182   0.755
 3102SOL    HW210206   0.700   6.200   0.668
 3103SOL     OW10207   4.165   4.133   1.708
 3103SOL    HW110208   4.238   4.187   1.752
 3103SOL    HW210209   4.083   4.189   1.700
 3104SOL     OW10210   5.842   6.044   3.842
 3104SOL    HW110211   5.851   5.957   3.890
 3104SOL    HW210212   5.832   6.027   3.744
 3105SOL     OW10213   5.735   5.459   3.476
 3105SOL    HW110214   5.780   5.509   3.550
 3105SOL    HW210215   5.782   5.373   3.460
 3106SOL     OW10216   6.853   3.292   4.589
 3106SOL    HW110217   6.898   3.213   4.631
 3106SOL    HW210218   6.902   3.317   4.505
 3107SOL     OW10219   2.764   6.743   4.125
 3107SOL    HW110220   2.669   6.728   4.098
 3107SOL    HW210221   2.818   6.768   4.045
 3108SOL     OW10222   3.023   0.758   3.012
 3108SOL    HW110223   3.073   0.730   2.930
 3108SOL    HW210224   2.966   0.838   2.991
 3109SOL     OW10225   4.689   5.511   3.126
 3109SOL    HW110226   4.651   5.594   3.086
 3109SOL    HW210227   4.619   5.440   3.129
 3110SOL     OW10228   1.432   2.740   1.883
 3110SOL    HW110229   1.461   2.761   1.976
 3110SOL    HW210230   1.384   2.653   1.881
 3111SOL     OW10231   6.977   4.985   2.719
 3111SOL    HW110232   0.023   4.956   2.786
 3111SOL    HW210233   6.889   4.996   2.764
 3112SOL     OW10234   2.616   3.817   6.169
 3112SOL    HW110235   2.572   3.764   6.097
 3112SOL    HW210236   2.714   3.825   6.149
 3113SOL     OW10237   4.241   6.527   4.245
 3113SOL    HW110238   4.256   6.611   4.192
 3113SOL    HW210239   4.257   6.546   4.342
 3114SOL     OW10240   5.311   5.702   0.880
 3114SOL    HW110241   5.253   5.665   0.806
 3114SOL    HW210242   5.407   5.688   0.856
 3115SOL     OW10243   2.619   3.472   1.726
 3115SOL    HW110244   2.667   3.384   1.722
 3115SOL    HW210245   2.524   3.456   1.751
 3116SOL     OW10246   0.530   1.483   6.864
 3116SOL    HW110247   0.454   1.505   6.803
 3116SOL    HW210248   0.522   1.534   6.949
 3117SOL     OW10249   3.798   3.959   5.743
 3117SOL    HW110250   3.765   4.043   5.700
 3117SOL    HW210251   3.876   3.981   5.802
 3118SOL     OW10252   5.927   5.603   6.540
 3118SOL    HW110253   5.904   5.583   6.445
 3118SOL    HW210254   5.993   5.677   6.544
 3119SOL     OW10255   2.156   4.840   6.725
 3119SOL    HW110256   2.204   4.811   6.642
 3119SOL    HW210257   2.213   4.904   6.776
 3120SOL     OW10258   2.509   5.434   6.278
 3120SOL    HW110259   2.473   5.341   6.281
 3120SOL    HW210260   2.464   5.484   6.204
 3121SOL     OW10261   0.524   6.050   2.997
 3121SOL    HW110262   0.467   6.012   3.071
 3121SOL    HW210263   0.523   5.987   2.920
 3122SOL     OW10264   2.942   6.007   0.765
 3122SOL    HW110265   2.969   6.017   0.669
 3122SOL    HW210266   3.023   6.016   0.823
 3123SOL     OW10267   3.737   6.529   4.225
 3123SOL    HW110268   3.810   6.564   4.167
 3123SOL    HW210269   3.767   6.442   4.266
 3124SOL     OW10270   3.922   0.522   6.103
 3124SOL    HW110271   3.876   0.557   6.186
 3124SOL    HW210272   3.989   0.453   6.129
 3125SOL     OW10273   6.918   2.055   5.788
 3125SOL    HW110274   6.863   1.987   5.740
 3125SOL    HW210275   6.983   2.009   5.848
 3126SOL     OW10276   3.681   6.189   6.967
 3126SOL    HW110277   3.589   6.210   6.933
 3126SOL    HW210278   3.674   6.142   0.033
 3127SOL     OW10279   1.244   1.306   3.919
 3127SOL    HW110280   1.288   1.379   3.971
 3127SOL    HW210281   1.272   1.311   3.823
 3128SOL     OW10282   1.705   0.965   0.823
 3128SOL    HW110283   1.665   0.873   0.827
 3128SOL    HW210284   1.633   1.033   0.833
 3129SOL     OW10285   1.371   3.189   3.343
 3129SOL    HW110286   1.300   3.259   3.340
 3129SOL    HW210287   1.328   3.099   3.332
 3130SOL     OW10288   2.140   5.796   3.485
 3130SOL    HW110289   2.083   5.746   3.419
 3130SOL    HW210290   2.102   5.784   3.577
 3131SOL     OW10291   0.835   3.276   4.645
 3131SOL    HW110292   0.880   3.210   4.584
 3131SOL    HW210293   0.894   3.356   4.656
 3132SOL     OW10294   5.359   4.870   5.069
 3132SOL    HW110295   5.346   4.959   5.114
 3132SOL    HW210296   5.358   4.883   4.970
 3133SOL     OW10297   2.471   2.242   3.144
 3133SOL    HW110298   2.462   2.221   3.046
 3133SOL    HW210299   2.553   2.198   3.180
 3134SOL     OW10300   5.795   2.826   1.868
 3134SOL    HW110301   5.871   2.842   1.805
 3134SOL    HW210302   5.818   2.863   1.959
 3135SOL     OW10303   2.246   1.880   3.258
 3135SOL    HW110304   2.237   1.972   3.295
 3135SOL    HW210305   2.273   1.884   3.162
 3136SOL     OW10306   6.571   6.895   4.737
 3136SOL    HW110307   6.546   6.800   4.754
 3136SOL    HW210308   6.509   6.956   4.786
 3137SOL     OW10309   0.194   1.499   4.544
 3137SOL    HW110310   0.290   1.526   4.547
 3137SOL    HW210311   0.136   1.579   4.531
 3138SOL     OW10312   5.259   1.593   4.649
 3138SOL    HW110313   5.295   1.672   4.698
 3138SOL    HW210314   5.284   1.509   4.698
 3139SOL     OW10315   4.834   5.391   4.787
 3139SOL    HW110316   4.778   5.421   4.865
 3139SOL    HW210317   4.773   5.364   4.711
 3140SOL     OW10318   5.839   5.792   6.260
 3140SOL    HW110319   5.862   5.815   6.355
 3140SOL    HW210320   5.907   5.832   6.199
 3141SOL     OW10321   0.627   5.549   1.171
 3141SOL    HW110322   0.678   5.532   1.256
 3141SOL    HW210323   0.663   5.491   1.098
 3142SOL     OW10324   3.870   6.898   0.320
 3142SOL    HW110325   3.850   6.837   0.243
 3142SOL    HW210326   3.923   6.976   0.287
 3143SOL     OW10327   0.485   1.528   1.203
 3143SOL    HW110328   0.558   1.486   1.257
 3143SOL    HW210329   0.521   1.608   1.154
 3144SOL     OW10330   1.769   2.969   6.843
 3144SOL    HW110331   1.715   3.006   6.919
 3144SOL    HW210332   1.839   3.035   6.816
 3145SOL     OW10333   2.882   5.507   3.961
 3145SOL    HW110334   2.913   5.538   4.051
 3145SOL    HW210335   2.940   5.547   3.890
 3146SOL     OW10336   2.369   6.917   3.766
 3146SOL    HW110337   2.391   7.003   3.813
 3146SOL    HW210338   2.446   6.854   3.774
 3147SOL     OW10339   3.973   4.408   0.933
 3147SOL    HW110340   4.063   4.449   0.944
 3147SOL    HW210341   3.903   4.480   0.938
 3148SOL     OW10342   3.457   5.443   5.257
 3148SOL    HW110343   3.435   5.521   5.198
 3148SOL    HW210344   3.521   5.383   5.210
 3149SOL     OW10345   2.726   6.357   6.051
 3149SOL    HW110346   2.644   6.414   6.043
 3149SOL    HW210347   2.699   6.261   6.056
 3150SOL     OW10348   0.051   0.083   4.347
 3150SOL    HW110349   0.056   0.065   4.446
 3150SOL    HW210350   0.142   0.112   4.315
 3151SOL     OW10351   3.834   6.979   1.084
 3151SOL    HW110352   3.756   6.916   1.094
 3151SOL    HW210353   3.881   6.960   0.998
 3152SOL     OW10354   1.116   4.647   6.217
 3152SOL    HW110355   1.109   4.746   6.232
 3152SOL    HW210356   1.091   4.626   6.123
 3153SOL     OW10357   0.012   4.430   2.982
 3153SOL    HW110358   0.060   4.503   3.030
 3153SOL    HW210359   6.936   4.438   3.000
 3154SOL     OW10360   5.587   2.457   6.360
 3154SOL    HW110361   5.585   2.536   6.421
 3154SOL    HW210362   5.644   2.385   6.399
 3155SOL     OW10363   4.213   6.090   0.331
 3155SOL    HW110364   4.297   6.079   0.278
 3155SOL    HW210365   4.148   6.145   0.278
 3156SOL     OW10366   3.633   3.443   2.993
 3156SOL    HW110367   3.587   3.431   2.905
 3156SOL    HW210368   3.732   3.434   2.980
 3157SOL     OW10369   2.169   3.096   5.001
 3157SOL    HW110370   2.103   3.023   4.985
 3157SOL    HW210371   2.252   3.057   5.041
 3158SOL     OW10372   4.514   6.255   1.179
 3158SOL    HW110373   4.464   6.305   1.249
 3158SOL    HW210374   4.527   6.312   1.099
 3159SOL     OW10375   5.452   4.913   0.421
 3159SOL    HW110376   5.412   4.937   0.509
 3159SOL    HW210377   5.506   4.829   0.430
 3160SOL     OW10378   6.109   5.082   0.478
 3160SOL    HW110379   6.011   5.064   0.467
 3160SOL    HW210380   6.160   4.996   0.470
 3161SOL     OW10381   0.961   1.220   3.295
 3161SOL    HW110382   1.026   1.296   3.300
 3161SOL    HW210383   0.903   1.222   3.376
 3162SOL     OW10384   0.153   6.929   6.019
 3162SOL    HW110385   0.189   6.917   5.926
 3162SOL    HW210386   0.224   6.909   6.086
 3163SOL     OW10387   2.166   4.543   5.522
 3163SOL    HW110388   2.259   4.504   5.520
 3163SOL    HW210389   2.172   4.643   5.524
 3164SOL     OW10390   6.179   5.405   5.995
 3164SOL    HW110391   6.242   5.433   5.922
 3164SOL    HW210392   6.088   5.442   5.977
 3165SOL     OW10393   0.602   2.619   1.697
 3165SOL    HW110394   0.617   2.588   1.791
 3165SOL    HW210395   0.507   2.602   1.672
 3166SOL     OW10396   4.725   2.778   6.451
 3166SOL    HW110397   4.817   2.816   6.445
 3166SOL    HW210398   4.731   2.680   6.474
 3167SOL     OW10399   0.303   4.381   1.950
 3167SOL    HW110400   0.280   4.474   1.978
 3167SOL    HW210401   0.321   4.379   1.852
 3168SOL     OW10402   6.163   3.112   1.024
 3168SOL    HW110403   6.187   3.128   1.119
 3168SOL    HW210404   6.209   3.029   0.991
 3169SOL     OW10405   2.515   2.440   5.303
 3169SOL    HW110406   2.511   2.537   5.282
 3169SOL    HW210407   2.427   2.397   5.282
 3170SOL     OW10408   4.021   0.097   5.268
 3170SOL    HW110409   3.971   0.164   5.214
 3170SOL    HW210410   4.012   0.118   5.365
 3171SOL     OW10411   6.283   6.505   3.083
 3171SOL    HW110412   6.248   6.583   3.135
 3171SOL    HW210413   6.376   6.525   3.052
 3172SOL     OW10414   6.119   6.867   5.477
 3172SOL    HW110415   6.070   6.896   5.559
 3172SOL    HW210416   6.058   6.870   5.398
 3173SOL     OW10417   2.313   1.017   1.506
 3173SOL    HW110418   2.295   0.993   1.601
 3173SOL    HW210419   2.412   1.022   1.491
 3174SOL     OW10420   2.110   2.975   6.984
 3174SOL    HW110421   2.129   3.036   0.039
 3174SOL    HW210422   2.095   3.030   6.901
 3175SOL     OW10423   0.265   6.276   0.187
 3175SOL    HW110424   0.225   6.359   0.149
 3175SOL    HW210425   0.202   6.199   0.176
 3176SOL     OW10426   1.332   5.936   7.011
 3176SOL    HW110427   1.277   5.856   0.015
 3176SOL    HW210428   1.402   5.951   0.058
 3177SOL     OW10429   0.962   6.938   4.698
 3177SOL    HW110430   0.917   6.852   4.674
 3177SOL    HW210431   0.949   7.004   4.624
 3178SOL     OW10432   2.754   3.053   6.853
 3178SOL    HW110433   2.819   3.086   6.922
 3178SOL    HW210434   2.692   3.128   6.827
 3179SOL     OW10435   1.348   2.415   4.411
 3179SOL    HW110436   1.368   2.487   4.477
 3179SOL    HW210437   1.255   2.425   4.378
 3180SOL     OW10438   6.128   1.170   6.293
 3180SOL    HW110439   6.190   1.183   6.371
 3180SOL    HW210440   6.146   1.241   6.225
 3181SOL     OW10441   0.845   1.865   2.730
 3181SOL    HW110442   0.747   1.843   2.734
 3181SOL    HW210443   0.870   1.886   2.635
 3182SOL     OW10444   1.613   4.391   5.612
 3182SOL    HW110445   1.663   4.473   5.584
 3182SOL    HW210446   1.520   4.417   5.641
 3183SOL     OW10447   4.504   3.110   1.308
 3183SOL    HW110448   4.529   3.029   1.362
 3183SOL    HW210449   4.586   3.148   1.265
 3184SOL     OW10450   0.627   1.987   3.533
 3184SOL    HW110451   0.625   2.084   3.560
 3184SOL    HW210452   0.665   1.933   3.607
 3185SOL     OW10453   0.339   6.685   0.023
 3185SOL    HW110454   0.385   6.724   6.965
 3185SOL    HW210455   0.290   6.757   0.071
 3186SOL     OW10456   3.333   0.787   1.744
 3186SOL    HW110457   3.365   0.848   1.672
 3186SOL    HW210458   3.366   0.820   1.832
 3187SOL     OW10459   2.624   4.218   0.172
 3187SOL    HW110460   2.641   4.158   0.095
 3187SOL    HW210461   2.708   4.233   0.224
 3188SOL     OW10462   4.123   0.010   3.021
 3188SOL    HW110463   4.078   0.098   3.009
 3188SOL    HW210464   4.065   6.971   3.075
 3189SOL     OW10465   6.430   6.538   2.703
 3189SOL    HW110466   6.374   6.465   2.741
 3189SOL    HW210467   6.378   6.587   2.633
 3190SOL     OW10468   0.865   7.004   1.522
 3190SOL    HW110469   0.838   0.006   1.615
 3190SOL    HW210470   0.844   0.057   1.460
 3191SOL     OW10471   3.831   0.931   0.345
 3191SOL    HW110472   3.919   0.907   0.387
 3191SOL    HW210473   3.758   0.875   0.385
 3192SOL     OW10474   5.375   2.298   3.631
 3192SOL    HW110475   5.400   2.382   3.585
 3192SOL    HW210476   5.278   2.279   3.616
 3193SOL     OW10477   5.049   4.610   1.214
 3193SOL    HW110478   5.129   4.657   1.254
 3193SOL    HW210479   4.997   4.565   1.287
 3194SOL     OW10480   2.374   5.280   4.864
 3194SOL    HW110481   2.318   5.199   4.880
 3194SOL    HW210482   2.443   5.287   4.936
 3195SOL     OW10483   0.020   4.477   3.703
 3195SOL    HW110484   7.014   4.507   3.612
 3195SOL    HW210485   0.110   4.434   3.697
 3196SOL     OW10486   0.212   6.584   6.096
 3196SOL    HW110487   0.229   6.499   6.145
 3196SOL    HW210488   0.277   6.654   6.125
 3197SOL     OW10489   0.428   4.703   4.859
 3197SOL    HW110490   0.392   4.658   4.941
 3197SOL    HW210491   0.373   4.785   4.839
 3198SOL     OW10492   5.686   6.734   0.233
 3198SOL    HW110493   5.759   6.667   0.244
 3198SOL    HW210494   5.618   6.699   0.168
 3199SOL     OW10495   3.615   1.557   3.245
 3199SOL    HW110496   3.543   1.590   3.184
 3199SOL    HW210497   3.618   1.457   3.242
 3200SOL     OW10498   6.517   2.056   0.550
 3200SOL    HW110499   6.508   1.957   0.566
 3200SOL    HW210500   6.426   2.097   0.543
 3201SOL     OW10501   4.639   4.769   3.174
 3201SOL    HW110502   4.661   4.814   3.261
 3201SOL    HW210503   4.568   4.701   3.189
 3202SOL     OW10504   1.416   5.550   1.641
 3202SOL    HW110505   1.507   5.580   1.613
 3202SOL    HW210506   1.356   5.548   1.561
 3203SOL     OW10507   4.608   0.093   1.154
 3203SOL    HW110508   4.600   0.188   1.125
 3203SOL    HW210509   4.619   0.089   1.253
 3204SOL     OW10510   6.291   6.372   1.811
 3204SOL    HW110511   6.304   6.452   1.869
 3204SOL    HW210512   6.344   6.295   1.847
 3205SOL     OW10513   0.787   3.868   4.745
 3205SOL    HW110514   0.837   3.881   4.659
 3205SOL    HW210515   0.793   3.951   4.800
 3206SOL     OW10516   1.707   0.220   6.962
 3206SOL    HW110517   1.792   0.186   7.004
 3206SOL    HW210518   1.662   0.282   0.004
 3207SOL     OW10519   1.282   1.581   2.868
 3207SOL    HW110520   1.379   1.595   2.890
 3207SOL    HW210521   1.226   1.644   2.922
 3208SOL     OW10522   6.353   6.971   4.957
 3208SOL    HW110523   6.282   6.947   5.024
 3208SOL    HW210524   6.429   7.015   5.005
 3209SOL     OW10525   1.441   0.037   3.316
 3209SOL    HW110526   1.353   0.034   3.364
 3209SOL    HW210527   1.435   0.101   3.239
 3210SOL     OW10528   0.702   5.458   2.348
 3210SOL    HW110529   0.722   5.401   2.268
 3210SOL    HW210530   0.785   5.505   2.377
 3211SOL     OW10531   0.554   4.695   3.506
 3211SOL    HW110532   0.619   4.707   3.581
 3211SOL    HW210533   0.603   4.681   3.421
 3212SOL     OW10534   4.967   2.841   5.286
 3212SOL    HW110535   4.918   2.893   5.216
 3212SOL    HW210536   4.913   2.838   5.370
 3213SOL     OW10537   5.559   6.789   1.570
 3213SOL    HW110538   5.644   6.795   1.519
 3213SOL    HW210539   5.576   6.812   1.666
 3214SOL     OW10540   4.248   4.190   6.787
 3214SOL    HW110541   4.169   4.149   6.833
 3214SOL    HW210542   4.282   4.267   6.841
 3215SOL     OW10543   6.080   1.168   0.127
 3215SOL    HW110544   6.159   1.216   0.166
 3215SOL    HW210545   5.999   1.186   0.183
 3216SOL     OW10546   4.990   6.264   4.658
 3216SOL    HW110547   4.983   6.263   4.558
 3216SOL    HW210548   4.899   6.248   4.698
 3217SOL     OW10549   6.686   4.391   0.261
 3217SOL    HW110550   6.760   4.417   0.199
 3217SOL    HW210551   6.718   4.321   0.324
 3218SOL     OW10552   3.786   1.752   2.111
 3218SOL    HW110553   3.742   1.758   2.021
 3218SOL    HW210554   3.716   1.750   2.182
 3219SOL     OW10555   0.443   0.448   3.478
 3219SOL    HW110556   0.352   0.460   3.438
 3219SOL    HW210557   0.511   0.488   3.417
 3220SOL     OW10558   6.494   3.441   6.352
 3220SOL    HW110559   6.396   3.433   6.368
 3220SOL    HW210560   6.536   3.350   6.359
 3221SOL     OW10561   3.656   1.032   1.844
 3221SOL    HW110562   3.642   0.984   1.931
 3221SOL    HW210563   3.580   1.096   1.829
 3222SOL     OW10564   6.547   4.375   1.789
 3222SOL    HW110565   6.527   4.280   1.766
 3222SOL    HW210566   6.552   4.384   1.889
 3223SOL     OW10567   2.389   4.334   4.113
 3223SOL    HW110568   2.383   4.234   4.108
 3223SOL    HW210569   2.312   4.370   4.165
 3224SOL     OW10570   3.346   6.212   1.227
 3224SOL    HW110571   3.313   6.300   1.261
 3224SOL    HW210572   3.377   6.156   1.303
 3225SOL     OW10573   2.079   2.892   0.655
 3225SOL    HW110574   2.010   2.837   0.701
 3225SOL    HW210575   2.168   2.877   0.699
 3226SOL     OW10576   6.569   0.723   3.737
 3226SOL    HW110577   6.622   0.762   3.812
 3226SOL    HW210578   6.630   0.706   3.659
 3227SOL     OW10579   2.039   2.095   5.531
 3227SOL    HW110580   2.075   2.124   5.442
 3227SOL    HW210581   2.068   2.001   5.549
 3228SOL     OW10582   5.074   3.645   5.065
 3228SOL    HW110583   5.148   3.677   5.004
 3228SOL    HW210584   5.002   3.604   5.010
 3229SOL     OW10585   4.473   1.721   5.098
 3229SOL    HW110586   4.570   1.746   5.091
 3229SOL    HW210587   4.424   1.795   5.143
 3230SOL     OW10588   1.446   0.210   3.656
 3230SOL    HW110589   1.529   0.265   3.654
 3230SOL    HW210590   1.371   0.261   3.612
 3231SOL     OW10591   4.514   4.795   0.990
 3231SOL    HW110592   4.542   4.752   1.076
 3231SOL    HW210593   4.492   4.724   0.923
 3232SOL     OW10594   1.132   4.035   2.805
 3232SOL    HW110595   1.127   3.969   2.730
 3232SOL    HW210596   1.159   4.124   2.769
 3233SOL     OW10597   1.869   4.315   1.101
 3233SOL    HW110598   1.961   4.342   1.071
 3233SOL    HW210599   1.801   4.374   1.058
 3234SOL     OW10600   6.964   2.121   4.903
 3234SOL    HW110601   7.005   2.198   4.854
 3234SOL    HW210602   7.002   2.116   4.995
 3235SOL     OW10603   5.820   0.782   2.527
 3235SOL    HW110604   5.881   0.851   2.567
 3235SOL    HW210605   5.735   0.825   2.498
 3236SOL     OW10606   0.279   2.321   1.512
 3236SOL    HW110607   0.322   2.346   1.425
 3236SOL    HW210608   0.302   2.227   1.535
 3237SOL     OW10609   2.812   6.088   5.044
 3237SOL    HW110610   2.835   6.113   4.950
 3237SOL    HW210611   2.884   6.030   5.082
 3238SOL     OW10612   6.468   6.549   6.828
 3238SOL    HW110613   6.437   6.515   6.917
 3238SOL    HW210614   6.546   6.610   6.841
 3239SOL     OW10615   1.260   6.092   5.309
 3239SOL    HW110616   1.301   6.128   5.225
 3239SOL    HW210617   1.324   6.031   5.354
 3240SOL     OW10618   0.622   2.231   4.629
 3240SOL    HW110619   0.607   2.142   4.671
 3240SOL    HW210620   0.675   2.289   4.691
 3241SOL     OW10621   4.195   6.663   5.151
 3241SOL    HW110622   4.134   6.737   5.178
 3241SOL    HW210623   4.197   6.656   5.051
 3242SOL     OW10624   3.365   0.454   0.521
 3242SOL    HW110625   3.303   0.467   0.444
 3242SOL    HW210626   3.333   0.378   0.578
 3243SOL     OW10627   3.878   5.121   1.652
 3243SOL    HW110628   3.878   5.182   1.731
 3243SOL    HW210629   3.915   5.169   1.573
 3244SOL     OW10630   0.851   0.084   5.862
 3244SOL    HW110631   0.855   7.006   5.863
 3244SOL    HW210632   0.789   0.114   5.789
 3245SOL     OW10633   3.280   2.029   5.704
 3245SOL    HW110634   3.371   1.998   5.731
 3245SOL    HW210635   3.287   2.087   5.622
 3246SOL     OW10636   5.374   6.292   2.905
 3246SOL    HW110637   5.345   6.241   2.825
 3246SOL    HW210638   5.313   6.273   2.982
 3247SOL     OW10639   6.279   3.263   5.576
 3247SOL    HW110640   6.186   3.298   5.583
 3247SOL    HW210641   6.343   3.333   5.607
 3248SOL     OW10642   4.808   3.861   3.046
 3248SOL    HW110643   4.793   3.778   3.100
 3248SOL    HW210644   4.859   3.837   2.963
 3249SOL     OW10645   3.533   4.761   5.617
 3249SOL    HW110646   3.499   4.732   5.527
 3249SOL    HW210647   3.527   4.685   5.681
 3250SOL     OW10648   4.413   5.060   1.251
 3250SOL    HW110649   4.377   5.130   1.313
 3250SOL    HW210650   4.339   5.026   1.193
 3251SOL     OW10651   3.383   0.657   3.552
 3251SOL    HW110652   3.394   0.730   3.620
 3251SOL    HW210653   3.436   0.577   3.579
 3252SOL     OW10654   3.698   2.106   3.358
 3252SOL    HW110655   3.771   2.146   3.413
 3252SOL    HW210656   3.620   2.084   3.416
 3253SOL     OW10657   5.103   4.270   1.559
 3253SOL    HW110658   5.114   4.366   1.585
 3253SOL    HW210659   5.032   4.229   1.616
 3254SOL     OW10660   6.680   4.549   2.563
 3254SOL    HW110661   6.751   4.574   2.497
 3254SOL    HW210662   6.702   4.588   2.652
 3255SOL     OW10663   3.704   5.232   0.680
 3255SOL    HW110664   3.802   5.252   0.671
 3255SOL    HW210665   3.689   5.176   0.762
 3256SOL     OW10666   6.630   7.014   5.443
 3256SOL    HW110667   6.644   6.982   5.349
 3256SOL    HW210668   6.536   0.024   5.454
 3257SOL     OW10669   2.594   1.070   1.035
 3257SOL    HW110670   2.605   1.022   0.947
 3257SOL    HW210671   2.536   1.015   1.095
 3258SOL     OW10672   5.448   6.522   1.493
 3258SOL    HW110673   5.483   6.609   1.528
 3258SOL    HW210674   5.385   6.540   1.417
 3259SOL     OW10675   5.379   6.048   3.253
 3259SOL    HW110676   5.306   6.096   3.206
 3259SOL    HW210677   5.364   5.949   3.246
 3260SOL     OW10678   2.448   1.525   1.530
 3260SOL    HW110679   2.403   1.470   1.460
 3260SOL    HW210680   2.535   1.483   1.554
 3261SOL     OW10681   4.811   6.728   4.101
 3261SOL    HW110682   4.892   6.733   4.161
 3261SOL    HW210683   4.782   6.633   4.093
 3262SOL     OW10684   4.206   1.617   3.840
 3262SOL    HW110685   4.149   1.585   3.764
 3262SOL    HW210686   4.265   1.691   3.808
 3263SOL     OW10687   3.137   4.859   3.449
 3263SOL    HW110688   3.237   4.862   3.460
 3263SOL    HW210689   3.108   4.937   3.393
 3264SOL     OW10690   5.791   5.071   6.333
 3264SOL    HW110691   5.748   5.003   6.392
 3264SOL    HW210692   5.879   5.098   6.371
 3265SOL     OW10693   5.617   7.005   5.505
 3265SOL    HW110694   5.550   6.968   5.441
 3265SOL    HW210695   5.604   6.963   5.595
 3266SOL     OW10696   0.950   2.871   6.717
 3266SOL    HW110697   0.853   2.865   6.741
 3266SOL    HW210698   1.000   2.798   6.763
 3267SOL     OW10699   5.317   3.623   2.042
 3267SOL    HW110700   5.281   3.642   1.951
 3267SOL    HW210701   5.315   3.707   2.097
 3268SOL     OW10702   1.741   5.711   7.002
 3268SOL    HW110703   1.760   5.690   0.075
 3268SOL    HW210704   1.656   5.666   6.973
 3269SOL     OW10705   4.262   3.746   0.796
 3269SOL    HW110706   4.196   3.816   0.824
 3269SOL    HW210707   4.272   3.679   0.870
 3270SOL     OW10708   6.916   5.306   3.688
 3270SOL    HW110709   7.004   5.276   3.649
 3270SOL    HW210710   6.880   5.381   3.634
 3271SOL     OW10711   4.534   6.780   1.185
 3271SOL    HW110712   4.628   6.795   1.154
 3271SOL    HW210713   4.524   6.686   1.219
 3272SOL     OW10714   4.774   5.680   6.660
 3272SOL    HW110715   4.805   5.760   6.608
 3272SOL    HW210716   4.853   5.629   6.694
 3273SOL     OW10717   0.848   0.361   2.977
 3273SOL    HW110718   0.873   0.281   2.924
 3273SOL    HW210719   0.769   0.406   2.936
 3274SOL     OW10720   2.567   1.259   0.164
 3274SOL    HW110721   2.601   1.165   0.153
 3274SOL    HW210722   2.503   1.280   0.090
 3275SOL     OW10723   4.501   0.557   0.019
 3275SOL    HW110724   4.460   0.469   0.041
 3275SOL    HW210725   4.508   0.612   0.103
 3276SOL     OW10726   1.444   6.255   0.465
 3276SOL    HW110727   1.541   6.279   0.462
 3276SOL    HW210728   1.434   6.156   0.462
 3277SOL     OW10729   0.575   6.454   0.148
 3277SOL    HW110730   0.549   6.550   0.139
 3277SOL    HW210731   0.498   6.396   0.119
 3278SOL     OW10732   1.302   0.387   0.008
 3278SOL    HW110733   1.359   0.310   7.003
 3278SOL    HW210734   1.243   0.413   6.954
 3279SOL     OW10735   2.181   7.012   1.284
 3279SOL    HW110736   2.176   6.915   1.258
 3279SOL    HW210737   2.113   0.041   1.231
 3280SOL     OW10738   2.877   6.144   3.556
 3280SOL    HW110739   2.802   6.103   3.505
 3280SOL    HW210740   2.882   6.102   3.647
 3281SOL     OW10741   1.333   6.480   0.837
 3281SOL    HW110742   1.300   6.440   0.752
 3281SOL    HW210743   1.411   6.540   0.818
 3282SOL     OW10744   2.187   5.019   2.998
 3282SOL    HW110745   2.257   5.001   2.929
 3282SOL    HW210746   2.125   4.941   3.004
 3283SOL     OW10747   1.751   0.336   3.543
 3283SOL    HW110748   1.824   0.397   3.574
 3283SOL    HW210749   1.662   0.378   3.562
 3284SOL     OW10750   1.845   5.379   5.564
 3284SOL    HW110751   1.786   5.400   5.486
 3284SOL    HW210752   1.796   5.400   5.649
 3285SOL     OW10753   0.579   2.673   4.534
 3285SOL    HW110754   0.655   2.652   4.595
 3285SOL    HW210755   0.580   2.771   4.514
 3286SOL     OW10756   4.837   4.481   5.971
 3286SOL    HW110757   4.909   4.542   6.003
 3286SOL    HW210758   4.800   4.429   6.048
 3287SOL     OW10759   0.179   2.803   1.948
 3287SOL    HW110760   0.279   2.797   1.958
 3287SOL    HW210761   0.156   2.810   1.851
 3288SOL     OW10762   0.890   0.012   0.408
 3288SOL    HW110763   0.923   6.985   0.489
 3288SOL    HW210764   0.796   0.043   0.424
 3289SOL     OW10765   1.532   7.004   3.836
 3289SOL    HW110766   1.492   0.051   3.776
 3289SOL    HW210767   1.631   7.020   3.843
 3290SOL     OW10768   0.128   5.064   3.867
 3290SOL    HW110769   0.125   5.096   3.773
 3290SOL    HW210770   0.122   5.142   3.929
 3291SOL     OW10771   1.362   1.631   1.741
 3291SOL    HW110772   1.455   1.663   1.760
 3291SOL    HW210773   1.366   1.536   1.708
 3292SOL     OW10774   0.717   5.885   4.702
 3292SOL    HW110775   0.804   5.915   4.664
 3292SOL    HW210776   0.724   5.877   4.801
 3293SOL     OW10777   5.471   0.473   3.191
 3293SOL    HW110778   5.407   0.537   3.150
 3293SOL    HW210779   5.565   0.505   3.176
 3294SOL     OW10780   6.661   6.984   0.957
 3294SOL    HW110781   6.568   7.009   0.928
 3294SOL    HW210782   6.700   0.035   1.013
 3295SOL     OW10783   2.407   2.836   6.122
 3295SOL    HW110784   2.490   2.884   6.093
 3295SOL    HW210785   2.363   2.795   6.042
 3296SOL     OW10786   1.357   6.533   2.358
 3296SOL    HW110787   1.438   6.571   2.403
 3296SOL    HW210788   1.276   6.583   2.387
 3297SOL     OW10789   3.426   1.026   5.321
 3297SOL    HW110790   3.335   1.062   5.342
 3297SOL    HW210791   3.481   1.098   5.279
 3298SOL     OW10792   0.654   4.645   3.036
 3298SOL    HW110793   0.633   4.717   2.970
 3298SOL    HW210794   0.715   4.578   2.994
 3299SOL     OW10795   1.184   1.388   4.292
 3299SOL    HW110796   1.250   1.444   4.242
 3299SOL    HW210797   1.221   1.296   4.303
 3300SOL     OW10798   0.607   6.681   4.792
 3300SOL    HW110799   0.532   6.738   4.759
 3300SOL    HW210800   0.653   6.727   4.868
 3301SOL     OW10801   6.141   4.228   2.662
 3301SOL    HW110802   6.180   4.143   2.697
 3301SOL    HW210803   6.094   4.276   2.736
 3302SOL     OW10804   1.015   5.866   5.452
 3302SOL    HW110805   1.039   5.958   5.483
 3302SOL    HW210806   1.052   5.851   5.360
 3303SOL     OW10807   3.264   3.835   4.697
 3303SOL    HW110808   3.334   3.874   4.637
 3303SOL    HW210809   3.228   3.907   4.757
 3304SOL     OW10810   1.450   1.205   3.658
 3304SOL    HW110811   1.491   1.177   3.745
 3304SOL    HW210812   1.513   1.186   3.583
 3305SOL     OW10813   0.896   2.607   0.599
 3305SOL    HW110814   0.949   2.539   0.549
 3305SOL    HW210815   0.892   2.582   0.696
 3306SOL     OW10816   1.766   2.142   1.561
 3306SOL    HW110817   1.716   2.066   1.602
 3306SOL    HW210818   1.717   2.228   1.579
 3307SOL     OW10819   0.810   0.315   6.915
 3307SOL    HW110820   0.865   0.231   6.918
 3307SOL    HW210821   0.823   0.360   6.827
 3308SOL     OW10822   4.792   6.213   0.701
 3308SOL    HW110823   4.789   6.163   0.788
 3308SOL    HW210824   4.810   6.310   0.719
 3309SOL     OW10825   1.340   4.733   1.867
 3309SOL    HW110826   1.404   4.692   1.801
 3309SOL    HW210827   1.367   4.827   1.885
 3310SOL     OW10828   2.165   6.653   2.209
 3310SOL    HW110829   2.183   6.635   2.306
 3310SOL    HW210830   2.083   6.708   2.200
 3311SOL     OW10831   4.169   5.487   0.664
 3311SOL    HW110832   4.206   5.416   0.725
 3311SOL    HW210833   4.205   5.475   0.572
 3312SOL     OW10834   1.252   2.517   5.901
 3312SOL    HW110835   1.312   2.527   5.981
 3312SOL    HW210836   1.160   2.548   5.924
 3313SOL     OW10837   5.449   6.478   4.856
 3313SOL    HW110838   5.476   6.394   4.903
 3313SOL    HW210839   5.351   6.475   4.836
 3314SOL     OW10840   0.492   4.102   6.681
 3314SOL    HW110841   0.531   4.121   6.771
 3314SOL    HW210842   0.439   4.180   6.650
 3315SOL     OW10843   6.020   2.820   3.117
 3315SOL    HW110844   5.981   2.755   3.181
 3315SOL    HW210845   6.117   2.834   3.138
 3316SOL     OW10846   4.119   0.483   6.885
 3316SOL    HW110847   4.166   0.551   6.829
 3316SOL    HW210848   4.093   0.405   6.827
 3317SOL     OW10849   4.484   2.760   1.489
 3317SOL    HW110850   4.537   2.679   1.463
 3317SOL    HW210851   4.389   2.734   1.507
 3318SOL     OW10852   2.657   5.071   6.340
 3318SOL    HW110853   2.720   5.137   6.382
 3318SOL    HW210854   2.611   5.019   6.412
 3319SOL     OW10855   0.562   6.306   6.918
 3319SOL    HW110856   0.486   6.246   6.945
 3319SOL    HW210857   0.528   6.400   6.908
 3320SOL     OW10858   0.697   0.555   1.036
 3320SOL    HW110859   0.717   0.653   1.046
 3320SOL    HW210860   0.750   0.503   1.104
 3321SOL     OW10861   3.659   3.669   4.449
 3321SOL    HW110862   3.699   3.756   4.477
 3321SOL    HW210863   3.732   3.606   4.421
 3322SOL     OW10864   4.778   2.821   2.633
 3322SOL    HW110865   4.771   2.892   2.703
 3322SOL    HW210866   4.705   2.754   2.646
 3323SOL     OW10867   1.601   4.415   0.759
 3323SOL    HW110868   1.564   4.379   0.674
 3323SOL    HW210869   1.646   4.502   0.742
 3324SOL     OW10870   6.637   3.221   1.530
 3324SOL    HW110871   6.543   3.237   1.501
 3324SOL    HW210872   6.653   3.123   1.543
 3325SOL     OW10873   1.054   4.370   5.026
 3325SOL    HW110874   1.098   4.281   5.026
 3325SOL    HW210875   1.092   4.426   4.952
 3326SOL     OW10876   5.406   0.051   2.334
 3326SOL    HW110877   5.372   6.990   2.289
 3326SOL    HW210878   5.432   0.029   2.428
 3327SOL     OW10879   4.405   5.943   1.599
 3327SOL    HW110880   4.462   6.011   1.554
 3327SOL    HW210881   4.462   5.867   1.632
 3328SOL     OW10882   6.191   6.494   4.191
 3328SOL    HW110883   6.286   6.526   4.191
 3328SOL    HW210884   6.130   6.571   4.172
 3329SOL     OW10885   5.418   0.606   5.889
 3329SOL    HW110886   5.369   0.578   5.971
 3329SOL    HW210887   5.456   0.698   5.904
 3330SOL     OW10888   6.162   0.354   2.950
 3330SOL    HW110889   6.228   0.428   2.952
 3330SOL    HW210890   6.174   0.297   3.032
 3331SOL     OW10891   0.866   3.667   2.224
 3331SOL    HW110892   0.829   3.754   2.255
 3331SOL    HW210893   0.870   3.666   2.124
 3332SOL     OW10894   4.164   5.079   0.692
 3332SOL    HW110895   4.200   5.049   0.604
 3332SOL    HW210896   4.078   5.128   0.678
 3333SOL     OW10897   2.146   4.283   0.712
 3333SOL    HW110898   2.088   4.296   0.632
 3333SOL    HW210899   2.108   4.212   0.770
 3334SOL     OW10900   1.784   2.697   2.855
 3334SOL    HW110901   1.817   2.786   2.886
 3334SOL    HW210902   1.814   2.626   2.919
 3335SOL     OW10903   4.306   4.197   6.150
 3335SOL    HW110904   4.276   4.281   6.194
 3335SOL    HW210905   4.233   4.129   6.153
 3336SOL     OW10906   3.729   5.705   6.155
 3336SOL    HW110907   3.719   5.643   6.233
 3336SOL    HW210908   3.670   5.785   6.168
 3337SOL     OW10909   2.920   3.609   3.835
 3337SOL    HW110910   2.971   3.523   3.832
 3337SOL    HW210911   2.852   3.609   3.762
 3338SOL     OW10912   2.718   3.357   1.430
 3338SOL    HW110913   2.677   3.415   1.500
 3338SOL    HW210914   2.724   3.406   1.344
 3339SOL     OW10915   0.944   6.564   6.256
 3339SOL    HW110916   0.930   6.470   6.225
 3339SOL    HW210917   1.042   6.581   6.268
 3340SOL     OW10918   4.756   0.827   6.412
 3340SOL    HW110919   4.764   0.830   6.512
 3340SOL    HW210920   4.690   0.756   6.387
 3341SOL     OW10921   1.624   4.611   1.459
 3341SOL    HW110922   1.632   4.624   1.360
 3341SOL    HW210923   1.638   4.699   1.505
 3342SOL     OW10924   6.172   6.928   2.245
 3342SOL    HW110925   6.085   6.928   2.196
 3342SOL    HW210926   6.193   7.021   2.277
 3343SOL     OW10927   3.138   4.922   1.030
 3343SOL    HW110928   3.137   4.836   0.979
 3343SOL    HW210929   3.054   4.973   1.011
 3344SOL     OW10930   1.382   3.229   1.581
 3344SOL    HW110931   1.299   3.240   1.525
 3344SOL    HW210932   1.446   3.170   1.532
 3345SOL     OW10933   4.939   5.432   0.978
 3345SOL    HW110934   4.930   5.335   0.956
 3345SOL    HW210935   4.852   5.467   1.012
 3346SOL     OW10936   1.363   0.944   6.707
 3346SOL    HW110937   1.461   0.938   6.686
 3346SOL    HW210938   1.311   0.893   6.639
 3347SOL     OW10939   0.704   4.008   5.539
 3347SOL    HW110940   0.606   3.993   5.556
 3347SOL    HW210941   0.746   3.921   5.512
 3348SOL     OW10942   3.514   3.821   6.137
 3348SOL    HW110943   3.458   3.755   6.188
 3348SOL    HW210944   3.600   3.836   6.186
 3349SOL     OW10945   1.728   5.625   1.878
 3349SOL    HW110946   1.808   5.583   1.836
 3349SOL    HW210947   1.688   5.561   1.944
 3350SOL     OW10948   2.910   5.678   4.603
 3350SOL    HW110949   2.911   5.588   4.646
 3350SOL    HW210950   2.893   5.749   4.671
 3351SOL     OW10951   5.757   6.856   1.389
 3351SOL    HW110952   5.853   6.857   1.361
 3351SOL    HW210953   5.716   6.945   1.370
 3352SOL     OW10954   5.468   1.316   6.661
 3352SOL    HW110955   5.544   1.353   6.714
 3352SOL    HW210956   5.490   1.222   6.633
 3353SOL     OW10957   4.059   0.425   6.493
 3353SOL    HW110958   4.017   0.511   6.521
 3353SOL    HW210959   4.060   0.362   6.571
 3354SOL     OW10960   2.306   2.455   0.184
 3354SOL    HW110961   2.296   2.375   0.243
 3354SOL    HW210962   2.221   2.470   0.133
 3355SOL     OW10963   1.395   1.537   5.147
 3355SOL    HW110964   1.404   1.519   5.049
 3355SOL    HW210965   1.455   1.613   5.172
 3356SOL     OW10966   3.324   0.760   5.522
 3356SOL    HW110967   3.324   0.718   5.431
 3356SOL    HW210968   3.404   0.730   5.573
 3357SOL     OW10969   3.182   3.948   4.030
 3357SOL    HW110970   3.148   3.898   3.950
 3357SOL    HW210971   3.217   4.037   4.001
 3358SOL     OW10972   0.366   2.079   1.599
 3358SOL    HW110973   0.317   1.992   1.600
 3358SOL    HW210974   0.458   2.065   1.636
 3359SOL     OW10975   1.237   0.071   4.200
 3359SOL    HW110976   1.331   0.105   4.212
 3359SOL    HW210977   1.177   0.147   4.176
 3360SOL     OW10978   1.442   5.286   4.982
 3360SOL    HW110979   1.403   5.378   4.995
 3360SOL    HW210980   1.401   5.223   5.049
 3361SOL     OW10981   0.412   6.974   4.494
 3361SOL    HW110982   0.374   6.927   4.414
 3361SOL    HW210983   0.503   7.009   4.472
 3362SOL     OW10984   3.081   0.714   4.693
 3362SOL    HW110985   3.069   0.806   4.731
 3362SOL    HW210986   3.170   0.709   4.647
 3363SOL     OW10987   4.388   3.481   0.711
 3363SOL    HW110988   4.406   3.518   0.619
 3363SOL    HW210989   4.412   3.550   0.780
 3364SOL     OW10990   1.796   3.270   1.445
 3364SOL    HW110991   1.718   3.217   1.476
 3364SOL    HW210992   1.855   3.213   1.387
 3365SOL     OW10993   0.840   2.907   2.921
 3365SOL    HW110994   0.936   2.922   2.942
 3365SOL    HW210995   0.811   2.819   2.957
 3366SOL     OW10996   5.879   3.511   4.106
 3366SOL    HW110997   5.898   3.414   4.090
 3366SOL    HW210998   5.850   3.554   4.021
 3367SOL     OW10999   3.086   3.846   3.779
 3367SOL    HW111000   3.125   3.843   3.687
 3367SOL    HW211001   3.034   3.762   3.795
 3368SOL     OW11002   2.131   0.826   3.453
 3368SOL    HW111003   2.226   0.806   3.430
 3368SOL    HW211004   2.128   0.895   3.525
 3369SOL     OW11005   5.200   2.634   1.097
 3369SOL    HW111006   5.251   2.658   1.180
 3369SOL    HW211007   5.121   2.695   1.087
 3370SOL     OW11008   0.488   5.401   3.427
 3370SOL    HW111009   0.394   5.396   3.460
 3370SOL    HW211010   0.522   5.494   3.437
 3371SOL     OW11011   2.548   2.995   1.345
 3371SOL    HW111012   2.548   3.094   1.362
 3371SOL    HW211013   2.522   2.977   1.250
 3372SOL     OW11014   5.237   2.626   2.993
 3372SOL    HW111015   5.216   2.557   3.063
 3372SOL    HW211016   5.280   2.581   2.914
 3373SOL     OW11017   0.647   4.624   0.599
 3373SOL    HW111018   0.629   4.564   0.522
 3373SOL    HW211019   0.698   4.704   0.568
 3374SOL     OW11020   1.309   5.563   4.153
 3374SOL    HW111021   1.244   5.531   4.222
 3374SOL    HW211022   1.272   5.644   4.108
 3375SOL     OW11023   6.957   6.648   5.828
 3375SOL    HW111024   6.894   6.709   5.875
 3375SOL    HW211025   6.988   6.691   5.742
 3376SOL     OW11026   3.707   3.871   4.738
 3376SOL    HW111027   3.762   3.870   4.822
 3376SOL    HW211028   3.667   3.962   4.726
 3377SOL     OW11029   0.273   5.497   4.027
 3377SOL    HW111030   0.281   5.507   4.126
 3377SOL    HW211031   0.364   5.485   3.987
 3378SOL     OW11032   1.179   5.586   0.721
 3378SOL    HW111033   1.192   5.572   0.623
 3378SOL    HW211034   1.133   5.673   0.737
 3379SOL     OW11035   5.755   4.650   3.642
 3379SOL    HW111036   5.827   4.617   3.703
 3379SOL    HW211037   5.722   4.574   3.585
 3380SOL     OW11038   1.831   5.169   1.874
 3380SOL    HW111039   1.917   5.126   1.899
 3380SOL    HW211040   1.756   5.125   1.924
 3381SOL     OW11041   2.936   4.002   6.879
 3381SOL    HW111042   2.870   3.938   6.918
 3381SOL    HW211043   2.919   4.011   6.781
 3382SOL     OW11044   0.330   3.874   6.631
 3382SOL    HW111045   0.390   3.953   6.624
 3382SOL    HW211046   0.340   3.832   6.721
 3383SOL     OW11047   3.255   5.997   0.570
 3383SOL    HW111048   3.281   6.029   0.479
 3383SOL    HW211049   3.306   6.049   0.639
 3384SOL     OW11050   3.126   2.882   6.552
 3384SOL    HW111051   3.179   2.943   6.610
 3384SOL    HW211052   3.161   2.885   6.458
 3385SOL     OW11053   5.685   2.797   4.565
 3385SOL    HW111054   5.635   2.711   4.579
 3385SOL    HW211055   5.684   2.820   4.467
 3386SOL     OW11056   0.306   5.189   5.464
 3386SOL    HW111057   0.353   5.148   5.385
 3386SOL    HW211058   0.249   5.120   5.508
 3387SOL     OW11059   5.904   0.400   3.067
 3387SOL    HW111060   5.977   0.356   3.015
 3387SOL    HW211061   5.883   0.344   3.147
 3388SOL     OW11062   1.054   3.842   0.448
 3388SOL    HW111063   1.060   3.922   0.507
 3388SOL    HW211064   0.995   3.773   0.490
 3389SOL     OW11065   6.504   5.008   5.844
 3389SOL    HW111066   6.460   5.041   5.928
 3389SOL    HW211067   6.469   4.917   5.822
 3390SOL     OW11068   2.925   5.114   1.286
 3390SOL    HW111069   2.904   5.156   1.198
 3390SOL    HW211070   2.983   5.175   1.340
 3391SOL     OW11071   5.435   4.054   5.795
 3391SOL    HW111072   5.468   3.962   5.814
 3391SOL    HW211073   5.418   4.064   5.697
 3392SOL     OW11074   5.005   6.061   5.695
 3392SOL    HW111075   4.940   6.088   5.624
 3392SOL    HW211076   4.973   6.093   5.784
 3393SOL     OW11077   3.621   0.265   0.778
 3393SOL    HW111078   3.615   0.191   0.711
 3393SOL    HW211079   3.556   0.337   0.753
 3394SOL     OW11080   2.526   6.311   1.314
 3394SOL    HW111081   2.492   6.254   1.389
 3394SOL    HW211082   2.623   6.291   1.299
 3395SOL     OW11083   2.112   6.132   3.163
 3395SOL    HW111084   2.146   6.072   3.090
 3395SOL    HW211085   2.155   6.106   3.249
 3396SOL     OW11086   3.956   0.743   4.418
 3396SOL    HW111087   3.955   0.808   4.493
 3396SOL    HW211088   4.050   0.729   4.386
 3397SOL     OW11089   2.211   6.203   1.202
 3397SOL    HW111090   2.165   6.246   1.124
 3397SOL    HW211091   2.310   6.211   1.191
 3398SOL     OW11092   6.488   0.844   0.146
 3398SOL    HW111093   6.432   0.767   0.115
 3398SOL    HW211094   6.429   0.922   0.164
 3399SOL     OW11095   0.194   6.278   1.882
 3399SOL    HW111096   0.270   6.319   1.831
 3399SOL    HW211097   0.230   6.210   1.946
 3400SOL     OW11098   3.561   2.967   5.893
 3400SOL    HW111099   3.512   2.945   5.809
 3400SOL    HW211100   3.538   2.900   5.963
 3401SOL     OW11101   6.817   3.547   4.028
 3401SOL    HW111102   6.738   3.584   4.078
 3401SOL    HW211103   6.885   3.513   4.094
 3402SOL     OW11104   5.523   3.697   6.788
 3402SOL    HW111105   5.443   3.747   6.756
 3402SOL    HW211106   5.496   3.605   6.815
 3403SOL     OW11107   5.807   6.992   4.068
 3403SOL    HW111108   5.875   6.974   3.996
 3403SOL    HW211109   5.720   6.953   4.040
 3404SOL     OW11110   5.638   4.909   3.278
 3404SOL    HW111111   5.612   4.813   3.270
 3404SOL    HW211112   5.557   4.965   3.294
 3405SOL     OW11113   4.117   6.463   1.577
 3405SOL    HW111114   4.176   6.440   1.654
 3405SOL    HW211115   4.093   6.380   1.527
 3406SOL     OW11116   4.126   5.008   1.195
 3406SOL    HW111117   4.105   4.930   1.253
 3406SOL    HW211118   4.073   5.002   1.111
 3407SOL     OW11119   1.192   2.457   0.647
 3407SOL    HW111120   1.242   2.525   0.593
 3407SOL    HW211121   1.107   2.434   0.601
 3408SOL     OW11122   3.923   0.027   3.780
 3408SOL    HW111123   3.878   7.004   3.703
 3408SOL    HW211124   3.923   6.988   3.859
 3409SOL     OW11125   4.405   2.044   6.655
 3409SOL    HW111126   4.424   1.978   6.582
 3409SOL    HW211127   4.350   2.119   6.619
 3410SOL     OW11128   6.822   0.566   2.751
 3410SOL    HW111129   6.851   0.646   2.698
 3410SOL    HW211130   6.817   0.590   2.848
 3411SOL     OW11131   5.670   3.419   6.381
 3411SOL    HW111132   5.660   3.371   6.468
 3411SOL    HW211133   5.704   3.355   6.312
 3412SOL     OW11134   5.085   3.229   3.630
 3412SOL    HW111135   5.046   3.304   3.684
 3412SOL    HW211136   5.125   3.265   3.547
 3413SOL     OW11137   1.096   2.264   1.134
 3413SOL    HW111138   1.120   2.326   1.059
 3413SOL    HW211139   1.062   2.316   1.212
 3414SOL     OW11140   3.755   2.986   2.015
 3414SOL    HW111141   3.816   3.057   2.049
 3414SOL    HW211142   3.676   3.028   1.970
 3415SOL     OW11143   2.515   0.890   6.602
 3415SOL    HW111144   2.431   0.874   6.551
 3415SOL    HW211145   2.515   0.836   6.686
 3416SOL     OW11146   5.349   6.691   5.775
 3416SOL    HW111147   5.342   6.617   5.842
 3416SOL    HW211148   5.324   6.778   5.819
 3417SOL     OW11149   6.038   0.924   2.603
 3417SOL    HW111150   6.049   1.021   2.581
 3417SOL    HW211151   6.092   0.903   2.685
 3418SOL     OW11152   4.294   5.279   0.810
 3418SOL    HW111153   4.255   5.197   0.769
 3418SOL    HW211154   4.293   5.270   0.910
 3419SOL     OW11155   2.955   4.834   5.232
 3419SOL    HW111156   2.932   4.738   5.223
 3419SOL    HW211157   2.979   4.872   5.143
 3420SOL     OW11158   4.039   1.312   1.376
 3420SOL    HW111159   4.095   1.264   1.444
 3420SOL    HW211160   4.060   1.410   1.379
 3421SOL     OW11161   0.582   1.150   4.517
 3421SOL    HW111162   0.644   1.120   4.443
 3421SOL    HW211163   0.491   1.164   4.479
 3422SOL     OW11164   3.055   5.573   1.616
 3422SOL    HW111165   3.065   5.603   1.521
 3422SOL    HW211166   2.999   5.490   1.620
 3423SOL     OW11167   1.651   4.397   6.282
 3423SOL    HW111168   1.692   4.368   6.369
 3423SOL    HW211169   1.610   4.318   6.236
 3424SOL     OW11170   5.636   6.467   2.624
 3424SOL    HW111171   5.558   6.430   2.573
 3424SOL    HW211172   5.719   6.419   2.596
 3425SOL     OW11173   5.368   2.893   6.417
 3425SOL    HW111174   5.370   2.860   6.323
 3425SOL    HW211175   5.370   2.815   6.480
 3426SOL     OW11176   6.818   5.509   6.715
 3426SOL    HW111177   6.917   5.504   6.727
 3426SOL    HW211178   6.781   5.582   6.773
 3427SOL     OW11179   1.724   1.599   6.761
 3427SOL    HW111180   1.809   1.650   6.767
 3427SOL    HW211181   1.727   1.537   6.683
 3428SOL     OW11182   4.449   0.366   3.987
 3428SOL    HW111183   4.465   0.291   4.052
 3428SOL    HW211184   4.464   0.453   4.033
 3429SOL     OW11185   4.409   5.690   0.692
 3429SOL    HW111186   4.340   5.756   0.661
 3429SOL    HW211187   4.500   5.726   0.670
 3430SOL     OW11188   2.428   4.462   6.853
 3430SOL    HW111189   2.477   4.375   6.866
 3430SOL    HW211190   2.478   4.535   6.899
 3431SOL     OW11191   1.270   4.464   2.423
 3431SOL    HW111192   1.279   4.374   2.465
 3431SOL    HW211193   1.306   4.462   2.330
 3432SOL     OW11194   0.177   5.234   6.357
 3432SOL    HW111195   0.200   5.194   6.268
 3432SOL    HW211196   0.237   5.197   6.427
 3433SOL     OW11197   0.802   1.307   0.209
 3433SOL    HW111198   0.820   1.213   0.240
 3433SOL    HW211199   0.758   1.305   0.120
 3434SOL     OW11200   4.284   2.211   2.191
 3434SOL    HW111201   4.311   2.182   2.099
 3434SOL    HW211202   4.188   2.187   2.206
 3435SOL     OW11203   2.893   2.952   1.261
 3435SOL    HW111204   2.944   2.869   1.280
 3435SOL    HW211205   2.886   3.007   1.345
 3436SOL     OW11206   4.265   5.548   5.238
 3436SOL    HW111207   4.186   5.513   5.289
 3436SOL    HW211208   4.299   5.631   5.283
 3437SOL     OW11209   1.820   6.525   0.328
 3437SOL    HW111210   1.830   6.541   0.230
 3437SOL    HW211211   1.904   6.552   0.375
 3438SOL     OW11212   2.392   4.410   0.221
 3438SOL    HW111213   2.372   4.444   0.129
 3438SOL    HW211214   2.463   4.340   0.215
 3439SOL     OW11215   3.078   6.157   1.183
 3439SOL    HW111216   3.089   6.137   1.086
 3439SOL    HW211217   3.168   6.160   1.228
 3440SOL     OW11218   4.048   4.217   5.760
 3440SOL    HW111219   4.121   4.149   5.753
 3440SOL    HW211220   3.981   4.201   5.688
 3441SOL     OW11221   0.056   4.996   5.125
 3441SOL    HW111222   0.033   5.056   5.202
 3441SOL    HW211223   0.064   5.050   5.042
 3442SOL     OW11224   0.704   2.004   0.162
 3442SOL    HW111225   0.797   2.019   0.195
 3442SOL    HW211226   0.695   2.040   0.070
 3443SOL     OW11227   0.210   5.793   2.217
 3443SOL    HW111228   0.287   5.732   2.234
 3443SOL    HW211229   0.163   5.765   2.133
 3444SOL     OW11230   0.721   3.735   6.401
 3444SOL    HW111231   0.714   3.635   6.396
 3444SOL    HW211232   0.802   3.766   6.350
 3445SOL     OW11233   6.117   5.586   4.642
 3445SOL    HW111234   6.021   5.602   4.623
 3445SOL    HW211235   6.158   5.536   4.566
 3446SOL     OW11236   5.008   1.835   0.259
 3446SOL    HW111237   4.991   1.788   0.346
 3446SOL    HW211238   5.022   1.933   0.277
 3447SOL     OW11239   5.409   1.750   5.680
 3447SOL    HW111240   5.321   1.731   5.636
 3447SOL    HW211241   5.483   1.734   5.615
 3448SOL     OW11242   0.982   5.298   4.926
 3448SOL    HW111243   1.030   5.210   4.926
 3448SOL    HW211244   0.982   5.335   5.019
 3449SOL     OW11245   1.724   3.902   4.791
 3449SOL    HW111246   1.776   3.837   4.847
 3449SOL    HW211247   1.739   3.883   4.694
 3450SOL     OW11248   2.260   6.896   2.607
 3450SOL    HW111249   2.239   6.874   2.703
 3450SOL    HW211250   2.314   6.980   2.603
 3451SOL     OW11251   1.944   1.724   0.747
 3451SOL    HW111252   1.857   1.769   0.765
 3451SOL    HW211253   2.016   1.768   0.800
 3452SOL     OW11254   4.784   1.038   5.575
 3452SOL    HW111255   4.697   1.087   5.583
 3452SOL    HW211256   4.766   0.940   5.562
 3453SOL     OW11257   4.595   6.064   4.981
 3453SOL    HW111258   4.661   6.092   4.911
 3453SOL    HW211259   4.596   6.131   5.056
 3454SOL     OW11260   1.030   3.059   3.526
 3454SOL    HW111261   1.034   3.003   3.443
 3454SOL    HW211262   0.972   3.015   3.594
 3455SOL     OW11263   1.510   4.160   6.190
 3455SOL    HW111264   1.568   4.079   6.193
 3455SOL    HW211265   1.461   4.163   6.103
 3456SOL     OW11266   4.269   5.123   2.287
 3456SOL    HW111267   4.356   5.166   2.313
 3456SOL    HW211268   4.256   5.133   2.188
 3457SOL     OW11269   3.884   3.799   0.041
 3457SOL    HW111270   3.842   3.864   0.105
 3457SOL    HW211271   3.874   3.706   0.076
 3458SOL     OW11272   4.315   1.934   0.893
 3458SOL    HW111273   4.308   2.014   0.834
 3458SOL    HW211274   4.223   1.905   0.921
 3459SOL     OW11275   6.700   0.295   2.975
 3459SOL    HW111276   6.796   0.273   2.958
 3459SOL    HW211277   6.645   0.268   2.896
 3460SOL     OW11278   4.635   1.512   5.146
 3460SOL    HW111279   4.555   1.571   5.132
 3460SOL    HW211280   4.605   1.418   5.162
 3461SOL     OW11281   4.241   4.713   3.373
 3461SOL    HW111282   4.201   4.767   3.298
 3461SOL    HW211283   4.182   4.718   3.453
 3462SOL     OW11284   0.865   4.730   6.686
 3462SOL    HW111285   0.860   4.766   6.780
 3462SOL    HW211286   0.949   4.764   6.643
 3463SOL     OW11287   5.756   4.466   6.912
 3463SOL    HW111288   5.703   4.552   6.910
 3463SOL    HW211289   5.780   4.445   7.007
 3464SOL     OW11290   6.483   5.093   3.902
 3464SOL    HW111291   6.561   5.124   3.957
 3464SOL    HW211292   6.511   5.086   3.806
 3465SOL     OW11293   0.988   2.665   1.519
 3465SOL    HW111294   0.956   2.736   1.581
 3465SOL    HW211295   0.909   2.611   1.487
 3466SOL     OW11296   5.909   3.701   3.234
 3466SOL    HW111297   6.003   3.712   3.200
 3466SOL    HW211298   5.906   3.621   3.294
 3467SOL     OW11299   2.034   1.818   5.567
 3467SOL    HW111300   2.075   1.731   5.539
 3467SOL    HW211301   1.970   1.802   5.642
 3468SOL     OW11302   4.974   5.173   1.712
 3468SOL    HW111303   5.047   5.106   1.719
 3468SOL    HW211304   5.013   5.265   1.703
 3469SOL     OW11305   5.243   3.790   0.145
 3469SOL    HW111306   5.301   3.869   0.126
 3469SOL    HW211307   5.245   3.769   0.242
 3470SOL     OW11308   6.380   5.729   6.978
 3470SOL    HW111309   6.315   5.744   0.030
 3470SOL    HW211310   6.370   5.800   6.909
 3471SOL     OW11311   4.693   6.453   4.638
 3471SOL    HW111312   4.699   6.548   4.608
 3471SOL    HW211313   4.731   6.444   4.730
 3472SOL     OW11314   3.825   0.092   4.508
 3472SOL    HW111315   3.757   0.061   4.441
 3472SOL    HW211316   3.906   0.033   4.503
 3473SOL     OW11317   4.746   6.440   4.083
 3473SOL    HW111318   4.666   6.435   4.143
 3473SOL    HW211319   4.720   6.415   3.990
 3474SOL     OW11320   4.574   4.479   6.993
 3474SOL    HW111321   4.581   4.387   0.008
 3474SOL    HW211322   4.664   4.522   6.994
 3475SOL     OW11323   1.475   5.286   5.606
 3475SOL    HW111324   1.559   5.284   5.661
 3475SOL    HW211325   1.447   5.381   5.593
 3476SOL     OW11326   3.564   1.844   3.421
 3476SOL    HW111327   3.600   1.773   3.360
 3476SOL    HW211328   3.476   1.876   3.386
 3477SOL     OW11329   4.419   5.465   2.327
 3477SOL    HW111330   4.413   5.403   2.405
 3477SOL    HW211331   4.475   5.423   2.255
 3478SOL     OW11332   3.642   4.575   0.303
 3478SOL    HW111333   3.568   4.540   0.361
 3478SOL    HW211334   3.730   4.547   0.342
 3479SOL     OW11335   1.875   0.803   0.353
 3479SOL    HW111336   1.948   0.767   0.296
 3479SOL    HW211337   1.866   0.901   0.339
 3480SOL     OW11338   1.496   6.543   4.545
 3480SOL    HW111339   1.497   6.486   4.463
 3480SOL    HW211340   1.479   6.638   4.520
 3481SOL     OW11341   2.163   5.061   0.243
 3481SOL    HW111342   2.132   5.089   0.334
 3481SOL    HW211343   2.097   5.090   0.174
 3482SOL     OW11344   0.292   2.094   1.874
 3482SOL    HW111345   0.386   2.104   1.906
 3482SOL    HW211346   0.293   2.056   1.781
 3483SOL     OW11347   3.747   1.171   1.262
 3483SOL    HW111348   3.789   1.253   1.300
 3483SOL    HW211349   3.712   1.190   1.171
 3484SOL     OW11350   3.597   4.115   3.185
 3484SOL    HW111351   3.534   4.116   3.263
 3484SOL    HW211352   3.674   4.055   3.205
 3485SOL     OW11353   5.882   2.334   3.943
 3485SOL    HW111354   5.868   2.433   3.954
 3485SOL    HW211355   5.945   2.302   4.014
 3486SOL     OW11356   6.659   1.405   3.085
 3486SOL    HW111357   6.584   1.357   3.040
 3486SOL    HW211358   6.623   1.466   3.155
 3487SOL     OW11359   1.171   0.554   1.157
 3487SOL    HW111360   1.253   0.568   1.212
 3487SOL    HW211361   1.189   0.580   1.063
 3488SOL     OW11362   6.438   3.657   5.072
 3488SOL    HW111363   6.529   3.699   5.064
 3488SOL    HW211364   6.417   3.609   4.987
 3489SOL     OW11365   3.003   5.381   6.908
 3489SOL    HW111366   3.098   5.384   6.940
 3489SOL    HW211367   2.966   5.474   6.904
 3490SOL     OW11368   4.918   3.735   0.196
 3490SOL    HW111369   5.001   3.759   0.146
 3490SOL    HW211370   4.939   3.725   0.293
 3491SOL     OW11371   5.996   2.511   4.823
 3491SOL    HW111372   5.910   2.475   4.785
 3491SOL    HW211373   6.070   2.446   4.803
 3492SOL     OW11374   6.882   4.271   6.694
 3492SOL    HW111375   6.874   4.345   6.628
 3492SOL    HW211376   6.958   4.211   6.668
 3493SOL     OW11377   6.550   4.737   0.894
 3493SOL    HW111378   6.536   4.737   0.795
 3493SOL    HW211379   6.648   4.730   0.914
 3494SOL     OW11380   3.612   6.817   1.067
 3494SOL    HW111381   3.602   6.884   0.994
 3494SOL    HW211382   3.521   6.788   1.098
 3495SOL     OW11383   5.967   4.623   6.298
 3495SOL    HW111384   5.879   4.600   6.339
 3495SOL    HW211385   6.040   4.607   6.364
 3496SOL     OW11386   0.369   5.836   1.026
 3496SOL    HW111387   0.366   5.838   1.126
 3496SOL    HW211388   0.434   5.904   0.993
 3497SOL     OW11389   2.840   0.120   5.148
 3497SOL    HW111390   2.888   0.054   5.091
 3497SOL    HW211391   2.765   0.074   5.196
 3498SOL     OW11392   0.935   1.817   0.247
 3498SOL    HW111393   0.927   1.915   0.266
 3498SOL    HW211394   0.961   1.768   0.330
 3499SOL     OW11395   6.388   4.013   3.278
 3499SOL    HW111396   6.436   3.950   3.339
 3499SOL    HW211397   6.294   3.981   3.265
 3500SOL     OW11398   6.560   2.864   0.914
 3500SOL    HW111399   6.629   2.816   0.968
 3500SOL    HW211400   6.559   2.961   0.938
 3501SOL     OW11401   0.035   5.026   3.361
 3501SOL    HW111402   6.982   5.044   3.298
 3501SOL    HW211403   0.118   5.007   3.308
 3502SOL     OW11404   1.243   5.975   1.333
 3502SOL    HW111405   1.176   5.930   1.274
 3502SOL    HW211406   1.332   5.932   1.321
 3503SOL     OW11407   3.287   0.211   3.478
 3503SOL    HW111408   3.287   0.162   3.390
 3503SOL    HW211409   3.372   0.192   3.526
 3504SOL     OW11410   2.129   2.949   2.859
 3504SOL    HW111411   2.168   2.881   2.797
 3504SOL    HW211412   2.159   3.040   2.831
 3505SOL     OW11413   4.388   6.473   4.732
 3505SOL    HW111414   4.438   6.393   4.699
 3505SOL    HW211415   4.342   6.450   4.818
 3506SOL     OW11416   6.952   4.194   2.704
 3506SOL    HW111417   6.998   4.108   2.728
 3506SOL    HW211418   7.021   4.264   2.687
 3507SOL     OW11419   6.755   0.299   5.736
 3507SOL    HW111420   6.778   0.327   5.643
 3507SOL    HW211421   6.712   0.209   5.734
 3508SOL     OW11422   6.876   4.485   0.099
 3508SOL    HW111423   6.944   4.413   0.090
 3508SOL    HW211424   6.858   4.526   0.009
 3509SOL     OW11425   5.112   6.852   6.642
 3509SOL    HW111426   5.178   6.907   6.591
 3509SOL    HW211427   5.127   6.863   6.740
 3510SOL     OW11428   2.364   1.048   2.609
 3510SOL    HW111429   2.308   1.052   2.527
 3510SOL    HW211430   2.320   1.102   2.682
 3511SOL     OW11431   0.912   0.683   4.068
 3511SOL    HW111432   0.967   0.764   4.083
 3511SOL    HW211433   0.837   0.680   4.135
 3512SOL     OW11434   3.474   3.440   1.715
 3512SOL    HW111435   3.558   3.429   1.662
 3512SOL    HW211436   3.453   3.537   1.725
 3513SOL     OW11437   6.612   4.399   1.076
 3513SOL    HW111438   6.516   4.426   1.075
 3513SOL    HW211439   6.669   4.477   1.101
 3514SOL     OW11440   3.337   5.782   3.381
 3514SOL    HW111441   3.303   5.739   3.297
 3514SOL    HW211442   3.349   5.712   3.451
 3515SOL     OW11443   3.781   5.624   3.407
 3515SOL    HW111444   3.739   5.705   3.446
 3515SOL    HW211445   3.710   5.561   3.375
 3516SOL     OW11446   1.090   1.244   0.413
 3516SOL    HW111447   1.127   1.330   0.450
 3516SOL    HW211448   1.081   1.251   0.314
 3517SOL     OW11449   0.421   0.653   7.008
 3517SOL    HW111450   0.330   0.614   6.994
 3517SOL    HW211451   0.486   0.580   0.005
 3518SOL     OW11452   4.127   3.591   6.241
 3518SOL    HW111453   4.142   3.599   6.340
 3518SOL    HW211454   4.175   3.666   6.195
 3519SOL     OW11455   4.101   0.548   0.273
 3519SOL    HW111456   4.134   0.554   0.367
 3519SOL    HW211457   4.010   0.508   0.273
 3520SOL     OW11458   4.019   4.818   1.596
 3520SOL    HW111459   3.986   4.805   1.503
 3520SOL    HW211460   4.035   4.915   1.613
 3521SOL     OW11461   6.767   2.337   5.587
 3521SOL    HW111462   6.784   2.376   5.496
 3521SOL    HW211463   6.671   2.309   5.594
 3522SOL     OW11464   1.726   0.390   0.961
 3522SOL    HW111465   1.771   0.461   1.015
 3522SOL    HW211466   1.634   0.420   0.935
 3523SOL     OW11467   2.444   4.362   5.127
 3523SOL    HW111468   2.407   4.294   5.190
 3523SOL    HW211469   2.385   4.368   5.046
 3524SOL     OW11470   2.888   1.560   3.314
 3524SOL    HW111471   2.805   1.508   3.334
 3524SOL    HW211472   2.949   1.557   3.393
 3525SOL     OW11473   1.303   2.937   3.208
 3525SOL    HW111474   1.368   2.921   3.134
 3525SOL    HW211475   1.210   2.941   3.170
 3526SOL     OW11476   3.437   6.063   3.425
 3526SOL    HW111477   3.415   5.967   3.408
 3526SOL    HW211478   3.353   6.116   3.434
 3527SOL     OW11479   6.670   3.907   6.536
 3527SOL    HW111480   6.661   3.908   6.636
 3527SOL    HW211481   6.670   3.813   6.504
 3528SOL     OW11482   0.937   0.053   4.453
 3528SOL    HW111483   0.996   0.016   4.380
 3528SOL    HW211484   0.973   0.140   4.484
 3529SOL     OW11485   3.435   5.646   0.522
 3529SOL    HW111486   3.486   5.561   0.524
 3529SOL    HW211487   3.381   5.651   0.437
 3530SOL     OW11488   2.111   5.631   2.878
 3530SOL    HW111489   2.016   5.609   2.853
 3530SOL    HW211490   2.123   5.617   2.976
 3531SOL     OW11491   5.036   4.712   6.928
 3531SOL    HW111492   5.094   4.675   6.855
 3531SOL    HW211493   5.011   4.807   6.906
 3532SOL     OW11494   2.138   6.441   0.341
 3532SOL    HW111495   2.098   6.394   0.262
 3532SOL    HW211496   2.117   6.539   0.335
 3533SOL     OW11497   1.137   1.055   3.182
 3533SOL    HW111498   1.168   1.004   3.263
 3533SOL    HW211499   1.093   1.140   3.212
 3534SOL     OW11500   5.097   6.950   4.080
 3534SOL    HW111501   5.070   6.916   4.170
 3534SOL    HW211502   5.193   6.926   4.063
 3535SOL     OW11503   4.779   5.251   0.182
 3535SOL    HW111504   4.706   5.264   0.115
 3535SOL    HW211505   4.747   5.284   0.271
 3536SOL     OW11506   1.988   3.680   2.554
 3536SOL    HW111507   1.930   3.621   2.611
 3536SOL    HW211508   2.013   3.762   2.606
 3537SOL     OW11509   3.203   4.871   2.156
 3537SOL    HW111510   3.112   4.838   2.131
 3537SOL    HW211511   3.235   4.823   2.238
 3538SOL     OW11512   3.349   0.371   3.119
 3538SOL    HW111513   3.445   0.345   3.131
 3538SOL    HW211514   3.290   0.298   3.154
 3539SOL     OW11515   5.070   5.319   5.182
 3539SOL    HW111516   5.097   5.349   5.273
 3539SOL    HW211517   5.030   5.396   5.132
 3540SOL     OW11518   4.327   4.406   6.355
 3540SOL    HW111519   4.416   4.433   6.391
 3540SOL    HW211520   4.255   4.449   6.409
 3541SOL     OW11521   0.491   3.020   2.624
 3541SOL    HW111522   0.404   2.970   2.620
 3541SOL    HW211523   0.486   3.088   2.698
 3542SOL     OW11524   5.521   1.641   0.004
 3542SOL    HW111525   5.533   1.639   6.926
 3542SOL    HW211526   5.428   1.673   0.025
 3543SOL     OW11527   0.297   3.096   4.385
 3543SOL    HW111528   0.265   3.141   4.301
 3543SOL    HW211529   0.363   3.025   4.361
 3544SOL     OW11530   3.289   4.699   5.886
 3544SOL    HW111531   3.385   4.680   5.864
 3544SOL    HW211532   3.236   4.615   5.878
 3545SOL     OW11533   2.655   0.000   0.886
 3545SOL    HW111534   2.601   0.012   0.969
 3545SOL    HW211535   2.657   6.926   0.859
 3546SOL     OW11536   6.873   4.758   0.607
 3546SOL    HW111537   6.961   4.728   0.570
 3546SOL    HW211538   6.799   4.701   0.571
 3547SOL     OW11539   1.472   4.187   4.533
 3547SOL    HW111540   1.391   4.206   4.478
 3547SOL    HW211541   1.465   4.094   4.570
 3548SOL     OW11542   6.427   0.469   5.743
 3548SOL    HW111543   6.472   0.468   5.832
 3548SOL    HW211544   6.464   0.543   5.687
 3549SOL     OW11545   1.996   6.986   6.455
 3549SOL    HW111546   1.965   6.904   6.407
 3549SOL    HW211547   1.983   6.973   6.554
 3550SOL     OW11548   6.194   2.007   5.490
 3550SOL    HW111549   6.175   2.036   5.396
 3550SOL    HW211550   6.119   2.036   5.549
 3551SOL     OW11551   6.312   0.827   4.895
 3551SOL    HW111552   6.369   0.909   4.897
 3551SOL    HW211553   6.338   0.765   4.969
 3552SOL     OW11554   6.740   1.134   3.359
 3552SOL    HW111555   6.824   1.188   3.362
 3552SOL    HW211556   6.714   1.108   3.452
 3553SOL     OW11557   5.358   6.260   6.079
 3553SOL    HW111558   5.447   6.257   6.124
 3553SOL    HW211559   5.288   6.225   6.141
 3554SOL     OW11560   5.501   4.096   6.227
 3554SOL    HW111561   5.598   4.077   6.239
 3554SOL    HW211562   5.449   4.011   6.236
 3555SOL     OW11563   3.061   0.825   5.543
 3555SOL    HW111564   3.160   0.813   5.536
 3555SOL    HW211565   3.035   0.912   5.499
 3556SOL     OW11566   5.696   1.868   0.743
 3556SOL    HW111567   5.726   1.837   0.833
 3556SOL    HW211568   5.766   1.926   0.702
 3557SOL     OW11569   4.883   6.807   1.324
 3557SOL    HW111570   4.948   6.766   1.260
 3557SOL    HW211571   4.826   6.735   1.364
 3558SOL     OW11572   3.996   5.611   2.568
 3558SOL    HW111573   4.033   5.679   2.504
 3558SOL    HW211574   4.059   5.601   2.645
 3559SOL     OW11575   4.254   6.304   6.344
 3559SOL    HW111576   4.193   6.241   6.296
 3559SOL    HW211577   4.275   6.267   6.435
 3560SOL     OW11578   2.378   5.831   4.492
 3560SOL    HW111579   2.417   5.780   4.569
 3560SOL    HW211580   2.311   5.774   4.445
 3561SOL     OW11581   3.865   2.807   5.916
 3561SOL    HW111582   3.961   2.780   5.903
 3561SOL    HW211583   3.825   2.832   5.828
 3562SOL     OW11584   2.763   0.888   0.366
 3562SOL    HW111585   2.674   0.890   0.411
 3562SOL    HW211586   2.821   0.819   0.410
 3563SOL     OW11587   6.975   2.137   6.753
 3563SOL    HW111588   7.006   2.054   6.799
 3563SOL    HW211589   6.882   2.125   6.720
 3564SOL     OW11590   6.112   3.297   3.202
 3564SOL    HW111591   6.059   3.228   3.153
 3564SOL    HW211592   6.066   3.320   3.287
 3565SOL     OW11593   5.172   0.070   4.829
 3565SOL    HW111594   5.188   0.165   4.856
 3565SOL    HW211595   5.178   0.010   4.909
 3566SOL     OW11596   0.734   1.324   5.067
 3566SOL    HW111597   0.653   1.278   5.032
 3566SOL    HW211598   0.766   1.391   5.000
 3567SOL     OW11599   0.393   4.435   6.615
 3567SOL    HW111600   0.347   4.455   6.701
 3567SOL    HW211601   0.420   4.520   6.570
 3568SOL     OW11602   3.518   4.168   5.717
 3568SOL    HW111603   3.593   4.176   5.782
 3568SOL    HW211604   3.437   4.131   5.763
 3569SOL     OW11605   1.347   0.595   3.113
 3569SOL    HW111606   1.318   0.648   3.033
 3569SOL    HW211607   1.431   0.635   3.150
 3570SOL     OW11608   0.218   1.801   4.693
 3570SOL    HW111609   0.216   1.823   4.595
 3570SOL    HW211610   0.256   1.879   4.744
 3571SOL     OW11611   6.528   5.130   5.077
 3571SOL    HW111612   6.575   5.104   4.993
 3571SOL    HW211613   6.463   5.203   5.058
 3572SOL     OW11614   5.951   6.551   5.534
 3572SOL    HW111615   5.957   6.648   5.556
 3572SOL    HW211616   5.880   6.508   5.590
 3573SOL     OW11617   0.635   2.528   1.959
 3573SOL    HW111618   0.718   2.514   2.013
 3573SOL    HW211619   0.575   2.448   1.968
 3574SOL     OW11620   6.841   3.753   7.011
 3574SOL    HW111621   6.757   3.748   0.043
 3574SOL    HW211622   6.901   3.823   0.027
 3575SOL     OW11623   6.431   0.469   2.635
 3575SOL    HW111624   6.413   0.475   2.537
 3575SOL    HW211625   6.356   0.513   2.686
 3576SOL     OW11626   0.636   1.161   0.660
 3576SOL    HW111627   0.727   1.170   0.619
 3576SOL    HW211628   0.568   1.205   0.602
 3577SOL     OW11629   2.121   4.811   0.157
 3577SOL    HW111630   2.146   4.895   0.204
 3577SOL    HW211631   2.097   4.741   0.224
 3578SOL     OW11632   3.473   4.637   1.616
 3578SOL    HW111633   3.520   4.658   1.701
 3578SOL    HW211634   3.382   4.601   1.636
 3579SOL     OW11635   1.923   2.898   6.146
 3579SOL    HW111636   1.862   2.952   6.204
 3579SOL    HW211637   1.946   2.950   6.063
 3580SOL     OW11638   5.965   1.792   1.649
 3580SOL    HW111639   5.942   1.872   1.594
 3580SOL    HW211640   5.891   1.774   1.714
 3581SOL     OW11641   0.006   0.984   2.835
 3581SOL    HW111642   7.016   0.889   2.805
 3581SOL    HW211643   0.084   1.024   2.787
 3582SOL     OW11644   0.485   0.509   5.747
 3582SOL    HW111645   0.407   0.460   5.708
 3582SOL    HW211646   0.538   0.448   5.806
 3583SOL     OW11647   1.247   6.716   1.578
 3583SOL    HW111648   1.282   6.638   1.527
 3583SOL    HW211649   1.172   6.759   1.528
 3584SOL     OW11650   5.194   0.388   4.628
 3584SOL    HW111651   5.204   0.340   4.542
 3584SOL    HW211652   5.278   0.380   4.682
 3585SOL     OW11653   2.674   4.630   3.733
 3585SOL    HW111654   2.632   4.552   3.780
 3585SOL    HW211655   2.667   4.712   3.790
 3586SOL     OW11656   1.088   1.002   6.806
 3586SOL    HW111657   1.086   1.050   6.718
 3586SOL    HW211658   1.183   0.986   6.833
 3587SOL     OW11659   3.676   6.930   5.891
 3587SOL    HW111660   3.585   6.970   5.899
 3587SOL    HW211661   3.671   6.832   5.913
 3588SOL     OW11662   2.595   2.468   5.620
 3588SOL    HW111663   2.648   2.540   5.666
 3588SOL    HW211664   2.569   2.499   5.528
 3589SOL     OW11665   3.024   6.631   4.847
 3589SOL    HW111666   3.060   6.539   4.830
 3589SOL    HW211667   2.977   6.633   4.935
 3590SOL     OW11668   1.082   5.304   0.217
 3590SOL    HW111669   1.139   5.292   0.298
 3590SOL    HW211670   0.988   5.275   0.237
 3591SOL     OW11671   5.157   1.125   5.351
 3591SOL    HW111672   5.249   1.139   5.387
 3591SOL    HW211673   5.143   1.182   5.271
 3592SOL     OW11674   5.519   1.772   1.654
 3592SOL    HW111675   5.474   1.693   1.697
 3592SOL    HW211676   5.463   1.854   1.668
 3593SOL     OW11677   1.179   5.546   4.423
 3593SOL    HW111678   1.220   5.491   4.497
 3593SOL    HW211679   1.225   5.634   4.418
 3594SOL     OW11680   4.120   1.270   4.357
 3594SOL    HW111681   4.116   1.186   4.302
 3594SOL    HW211682   4.193   1.329   4.321
 3595SOL     OW11683   2.420   6.319   6.364
 3595SOL    HW111684   2.382   6.306   6.272
 3595SOL    HW211685   2.433   6.229   6.407
 3596SOL     OW11686   0.031   3.788   3.058
 3596SOL    HW111687   7.000   3.738   2.989
 3596SOL    HW211688   0.049   3.729   3.136
 3597SOL     OW11689   4.235   0.366   4.351
 3597SOL    HW111690   4.310   0.304   4.326
 3597SOL    HW211691   4.242   0.450   4.297
 3598SOL     OW11692   2.107   0.664   0.246
 3598SOL    HW111693   2.145   0.630   0.160
 3598SOL    HW211694   2.080   0.587   0.304
 3599SOL     OW11695   0.436   1.881   4.879
 3599SOL    HW111696   0.421   1.834   4.966
 3599SOL    HW211697   0.414   1.978   4.891
 3600SOL     OW11698   6.369   6.448   1.330
 3600SOL    HW111699   6.364   6.379   1.402
 3600SOL    HW211700   6.276   6.471   1.299
 3601SOL     OW11701   6.772   3.461   5.707
 3601SOL    HW111702   6.796   3.549   5.749
 3601SOL    HW211703   6.727   3.403   5.774
 3602SOL     OW11704   3.185   2.482   1.342
 3602SOL    HW111705   3.104   2.424   1.346
 3602SOL    HW211706   3.267   2.425   1.349
 3603SOL     OW11707   4.001   4.945   4.549
 3603SOL    HW111708   4.067   4.877   4.518
 3603SOL    HW211709   3.908   4.915   4.525
 3604SOL     OW11710   6.122   4.400   3.023
 3604SOL    HW111711   6.118   4.499   3.011
 3604SOL    HW211712   6.217   4.374   3.043
 3605SOL     OW11713   5.878   1.744   6.265
 3605SOL    HW111714   5.832   1.747   6.354
 3605SOL    HW211715   5.871   1.652   6.226
 3606SOL     OW11716   2.053   4.373   2.844
 3606SOL    HW111717   2.029   4.468   2.826
 3606SOL    HW211718   2.153   4.364   2.848
 3607SOL     OW11719   4.343   0.114   5.567
 3607SOL    HW111720   4.290   0.132   5.650
 3607SOL    HW211721   4.336   0.017   5.543
 3608SOL     OW11722   0.390   2.703   3.515
 3608SOL    HW111723   0.315   2.727   3.575
 3608SOL    HW211724   0.471   2.756   3.541
 3609SOL     OW11725   6.971   0.862   3.578
 3609SOL    HW111726   0.015   0.893   3.646
 3609SOL    HW211727   6.981   0.917   3.495
 3610SOL     OW11728   1.812   4.965   5.579
 3610SOL    HW111729   1.726   4.950   5.628
 3610SOL    HW211730   1.886   4.979   5.644
 3611SOL     OW11731   5.169   5.309   5.425
 3611SOL    HW111732   5.255   5.319   5.475
 3611SOL    HW211733   5.094   5.296   5.490
 3612SOL     OW11734   1.664   6.176   0.750
 3612SOL    HW111735   1.607   6.231   0.688
 3612SOL    HW211736   1.616   6.092   0.774
 3613SOL     OW11737   5.139   4.826   6.119
 3613SOL    HW111738   5.193   4.761   6.173
 3613SOL    HW211739   5.159   4.919   6.149
 3614SOL     OW11740   3.234   2.981   4.374
 3614SOL    HW111741   3.161   2.951   4.435
 3614SOL    HW211742   3.287   3.053   4.419
 3615SOL     OW11743   5.633   6.811   5.739
 3615SOL    HW111744   5.552   6.753   5.751
 3615SOL    HW211745   5.649   6.863   5.823
 3616SOL     OW11746   6.134   1.005   4.488
 3616SOL    HW111747   6.229   1.022   4.516
 3616SOL    HW211748   6.089   0.948   4.557
 3617SOL     OW11749   0.078   0.603   0.533
 3617SOL    HW111750   0.157   0.629   0.588
 3617SOL    HW211751   0.091   0.632   0.438
 3618SOL     OW11752   3.407   6.005   6.329
 3618SOL    HW111753   3.493   6.047   6.360
 3618SOL    HW211754   3.395   5.918   6.375
 3619SOL     OW11755   5.337   3.854   3.621
 3619SOL    HW111756   5.246   3.896   3.620
 3619SOL    HW211757   5.330   3.760   3.655
 3620SOL     OW11758   6.187   1.638   4.866
 3620SOL    HW111759   6.105   1.580   4.867
 3620SOL    HW211760   6.182   1.703   4.942
 3621SOL     OW11761   1.246   2.822   5.763
 3621SOL    HW111762   1.316   2.891   5.782
 3621SOL    HW211763   1.276   2.733   5.797
 3622SOL     OW11764   0.818   3.951   1.113
 3622SOL    HW111765   0.898   4.010   1.107
 3622SOL    HW211766   0.835   3.878   1.179
 3623SOL     OW11767   6.682   5.042   4.872
 3623SOL    HW111768   6.759   5.074   4.816
 3623SOL    HW211769   6.670   4.944   4.859
 3624SOL     OW11770   1.918   0.308   1.503
 3624SOL    HW111771   1.904   0.370   1.425
 3624SOL    HW211772   1.993   0.245   1.482
 3625SOL     OW11773   1.296   2.702   4.553
 3625SOL    HW111774   1.246   2.786   4.573
 3625SOL    HW211775   1.366   2.720   4.484
 3626SOL     OW11776   2.391   3.670   5.701
 3626SOL    HW111777   2.365   3.757   5.743
 3626SOL    HW211778   2.428   3.687   5.609
 3627SOL     OW11779   3.387   3.174   4.073
 3627SOL    HW111780   3.291   3.203   4.075
 3627SOL    HW211781   3.423   3.184   3.980
 3628SOL     OW11782   2.493   6.089   4.259
 3628SOL    HW111783   2.546   6.032   4.322
 3628SOL    HW211784   2.489   6.045   4.169
 3629SOL     OW11785   5.557   3.386   4.721
 3629SOL    HW111786   5.583   3.456   4.654
 3629SOL    HW211787   5.618   3.308   4.713
 3630SOL     OW11788   5.828   1.454   5.152
 3630SOL    HW111789   5.849   1.538   5.203
 3630SOL    HW211790   5.737   1.421   5.177
 3631SOL     OW11791   2.017   0.954   4.181
 3631SOL    HW111792   1.998   1.042   4.138
 3631SOL    HW211793   1.933   0.900   4.186
 3632SOL     OW11794   5.029   6.941   6.291
 3632SOL    HW111795   5.018   6.929   6.193
 3632SOL    HW211796   5.126   6.953   6.312
 3633SOL     OW11797   0.928   2.687   5.609
 3633SOL    HW111798   0.905   2.703   5.705
 3633SOL    HW211799   0.925   2.773   5.559
 3634SOL     OW11800   3.162   5.099   5.976
 3634SOL    HW111801   3.151   5.015   6.029
 3634SOL    HW211802   3.240   5.089   5.914
 3635SOL     OW11803   2.351   1.509   4.576
 3635SOL    HW111804   2.338   1.598   4.619
 3635SOL    HW211805   2.438   1.508   4.526
 3636SOL     OW11806   1.354   6.449   1.391
 3636SOL    HW111807   1.401   6.361   1.380
 3636SOL    HW211808   1.255   6.436   1.386
 3637SOL     OW11809   4.935   0.902   1.983
 3637SOL    HW111810   4.929   0.970   2.056
 3637SOL    HW211811   4.950   0.812   2.022
 3638SOL     OW11812   6.527   5.234   3.391
 3638SOL    HW111813   6.574   5.179   3.460
 3638SOL    HW211814   6.544   5.195   3.300
 3639SOL     OW11815   2.856   6.441   7.018
 3639SOL    HW111816   2.900   6.478   0.078
 3639SOL    HW211817   2.827   6.516   6.959
 3640SOL     OW11818   2.470   6.971   1.909
 3640SOL    HW111819   2.428   7.008   1.826
 3640SOL    HW211820   2.412   6.899   1.947
 3641SOL     OW11821   2.011   1.028   5.091
 3641SOL    HW111822   1.998   1.076   5.178
 3641SOL    HW211823   1.922   1.019   5.045
 3642SOL     OW11824   6.149   6.870   2.518
 3642SOL    HW111825   6.172   6.871   2.420
 3642SOL    HW211826   6.062   6.917   2.532
 3643SOL     OW11827   4.103   6.215   4.502
 3643SOL    HW111828   4.186   6.160   4.508
 3643SOL    HW211829   4.054   6.212   4.589
 3644SOL     OW11830   6.385   6.990   1.880
 3644SOL    HW111831   6.359   0.062   1.902
 3644SOL    HW211832   6.305   6.939   1.850
 3645SOL     OW11833   4.341   5.864   3.345
 3645SOL    HW111834   4.289   5.945   3.371
 3645SOL    HW211835   4.296   5.819   3.268
 3646SOL     OW11836   0.252   5.401   4.842
 3646SOL    HW111837   0.215   5.363   4.757
 3646SOL    HW211838   0.322   5.469   4.821
 3647SOL     OW11839   3.144   3.167   1.035
 3647SOL    HW111840   3.049   3.198   1.031
 3647SOL    HW211841   3.146   3.067   1.039
 3648SOL     OW11842   3.001   6.777   3.172
 3648SOL    HW111843   2.979   6.739   3.261
 3648SOL    HW211844   3.088   6.827   3.178
 3649SOL     OW11845   3.463   3.132   2.132
 3649SOL    HW111846   3.484   3.149   2.036
 3649SOL    HW211847   3.391   3.193   2.162
 3650SOL     OW11848   5.816   6.495   1.037
 3650SOL    HW111849   5.721   6.474   1.016
 3650SOL    HW211850   5.822   6.543   1.124
 3651SOL     OW11851   1.954   6.124   2.344
 3651SOL    HW111852   1.924   6.128   2.248
 3651SOL    HW211853   1.885   6.167   2.402
 3652SOL     OW11854   4.533   5.704   2.472
 3652SOL    HW111855   4.543   5.662   2.562
 3652SOL    HW211856   4.445   5.677   2.432
 3653SOL     OW11857   6.745   3.015   4.151
 3653SOL    HW111858   6.828   2.992   4.202
 3653SOL    HW211859   6.739   3.115   4.142
 3654SOL     OW11860   2.277   0.287   1.746
 3654SOL    HW111861   2.236   0.256   1.832
 3654SOL    HW211862   2.376   0.280   1.752
 3655SOL     OW11863   6.639   1.123   3.894
 3655SOL    HW111864   6.726   1.170   3.908
 3655SOL    HW211865   6.613   1.074   3.977
 3656SOL     OW11866   2.294   2.006   2.988
 3656SOL    HW111867   2.376   1.952   3.007
 3656SOL    HW211868   2.292   2.032   2.891
 3657SOL     OW11869   5.070   5.449   1.715
 3657SOL    HW111870   5.103   5.477   1.624
 3657SOL    HW211871   5.137   5.388   1.757
 3658SOL     OW11872   2.591   4.807   5.865
 3658SOL    HW111873   2.691   4.806   5.858
 3658SOL    HW211874   2.560   4.901   5.879
 3659SOL     OW11875   1.169   4.049   6.675
 3659SOL    HW111876   1.233   4.123   6.652
 3659SOL    HW211877   1.106   4.036   6.599
 3660SOL     OW11878   4.542   4.019   0.917
 3660SOL    HW111879   4.609   4.093   0.904
 3660SOL    HW211880   4.537   3.964   0.834
 3661SOL     OW11881   5.630   1.490   1.548
 3661SOL    HW111882   5.730   1.491   1.542
 3661SOL    HW211883   5.595   1.583   1.534
 3662SOL     OW11884   1.366   5.996   4.217
 3662SOL    HW111885   1.377   6.047   4.303
 3662SOL    HW211886   1.274   6.010   4.182
 3663SOL     OW11887   1.628   3.023   5.951
 3663SOL    HW111888   1.592   3.005   6.043
 3663SOL    HW211889   1.623   3.121   5.932
 3664SOL     OW11890   3.503   6.997   1.962
 3664SOL    HW111891   3.558   0.057   1.978
 3664SOL    HW211892   3.416   7.005   2.012
 3665SOL     OW11893   2.312   1.174   5.286
 3665SOL    HW111894   2.280   1.212   5.199
 3665SOL    HW211895   2.241   1.116   5.326
 3666SOL     OW11896   0.949   4.521   3.435
 3666SOL    HW111897   0.958   4.504   3.533
 3666SOL    HW211898   0.992   4.609   3.412
 3667SOL     OW11899   0.584   1.526   0.123
 3667SOL    HW111900   0.657   1.585   0.089
 3667SOL    HW211901   0.613   1.483   0.208
 3668SOL     OW11902   2.243   6.393   2.123
 3668SOL    HW111903   2.194   6.480   2.120
 3668SOL    HW211904   2.246   6.353   2.031
 3669SOL     OW11905   5.383   1.575   3.935
 3669SOL    HW111906   5.329   1.496   3.904
 3669SOL    HW211907   5.333   1.659   3.913
 3670SOL     OW11908   2.744   5.543   6.229
 3670SOL    HW111909   2.817   5.500   6.176
 3670SOL    HW211910   2.664   5.482   6.230
 3671SOL     OW11911   2.285   0.466   3.694
 3671SOL    HW111912   2.237   0.494   3.777
 3671SOL    HW211913   2.268   0.369   3.677
 3672SOL     OW11914   6.155   6.824   0.676
 3672SOL    HW111915   6.137   6.917   0.644
 3672SOL    HW211916   6.229   6.784   0.622
 3673SOL     OW11917   4.663   6.914   6.275
 3673SOL    HW111918   4.600   6.988   6.253
 3673SOL    HW211919   4.668   6.904   6.375
 3674SOL     OW11920   1.004   6.309   0.605
 3674SOL    HW111921   0.967   6.370   0.674
 3674SOL    HW211922   1.010   6.357   0.517
 3675SOL     OW11923   2.198   2.254   4.163
 3675SOL    HW111924   2.191   2.167   4.114
 3675SOL    HW211925   2.294   2.278   4.174
 3676SOL     OW11926   1.320   4.851   2.611
 3676SOL    HW111927   1.355   4.911   2.682
 3676SOL    HW211928   1.347   4.886   2.521
 3677SOL     OW11929   5.975   0.414   3.797
 3677SOL    HW111930   5.909   0.377   3.862
 3677SOL    HW211931   5.943   0.503   3.765
 3678SOL     OW11932   1.459   2.470   4.173
 3678SOL    HW111933   1.415   2.444   4.259
 3678SOL    HW211934   1.445   2.399   4.105
 3679SOL     OW11935   0.105   1.017   2.071
 3679SOL    HW111936   0.116   1.098   2.128
 3679SOL    HW211937   0.195   0.979   2.049
 3680SOL     OW11938   6.028   4.139   4.646
 3680SOL    HW111939   6.055   4.121   4.551
 3680SOL    HW211940   6.108   4.172   4.697
 3681SOL     OW11941   5.242   6.622   4.531
 3681SOL    HW111942   5.284   6.713   4.536
 3681SOL    HW211943   5.239   6.592   4.436
 3682SOL     OW11944   0.562   2.264   6.691
 3682SOL    HW111945   0.602   2.226   6.608
 3682SOL    HW211946   0.470   2.226   6.704
 3683SOL     OW11947   5.193   5.780   2.751
 3683SOL    HW111948   5.288   5.792   2.780
 3683SOL    HW211949   5.187   5.703   2.688
 3684SOL     OW11950   2.268   3.668   1.130
 3684SOL    HW111951   2.226   3.758   1.124
 3684SOL    HW211952   2.197   3.598   1.123
 3685SOL     OW11953   5.658   6.459   6.086
 3685SOL    HW111954   5.682   6.464   5.989
 3685SOL    HW211955   5.716   6.522   6.138
 3686SOL     OW11956   0.200   4.098   0.494
 3686SOL    HW111957   0.216   4.077   0.591
 3686SOL    HW211958   0.231   4.191   0.474
 3687SOL     OW11959   4.066   1.208   0.456
 3687SOL    HW111960   4.044   1.210   0.359
 3687SOL    HW211961   4.110   1.294   0.482
 3688SOL     OW11962   0.158   3.406   0.507
 3688SOL    HW111963   0.140   3.392   0.410
 3688SOL    HW211964   0.168   3.503   0.526
 3689SOL     OW11965   1.804   6.556   3.380
 3689SOL    HW111966   1.877   6.518   3.322
 3689SOL    HW211967   1.845   6.599   3.460
 3690SOL     OW11968   4.824   5.545   5.439
 3690SOL    HW111969   4.870   5.632   5.423
 3690SOL    HW211970   4.833   5.487   5.358
 3691SOL     OW11971   3.237   2.621   5.948
 3691SOL    HW111972   3.289   2.548   5.905
 3691SOL    HW211973   3.202   2.683   5.879
 3692SOL     OW11974   0.231   0.387   5.739
 3692SOL    HW111975   0.242   0.317   5.668
 3692SOL    HW211976   0.221   0.343   5.828
 3693SOL     OW11977   1.752   1.098   3.369
 3693SOL    HW111978   1.731   1.194   3.351
 3693SOL    HW211979   1.670   1.042   3.352
 3694SOL     OW11980   1.990   5.353   3.464
 3694SOL    HW111981   2.014   5.308   3.377
 3694SOL    HW211982   2.007   5.451   3.456
 3695SOL     OW11983   1.814   2.416   0.614
 3695SOL    HW111984   1.807   2.432   0.712
 3695SOL    HW211985   1.813   2.318   0.595
 3696SOL     OW11986   2.850   6.428   5.820
 3696SOL    HW111987   2.804   6.400   5.904
 3696SOL    HW211988   2.922   6.494   5.841
 3697SOL     OW11989   4.849   0.894   3.729
 3697SOL    HW111990   4.798   0.809   3.742
 3697SOL    HW211991   4.946   0.875   3.720
 3698SOL     OW11992   3.320   6.780   6.828
 3698SOL    HW111993   3.247   6.738   6.774
 3698SOL    HW211994   3.284   6.859   6.877
 3699SOL     OW11995   0.709   5.316   2.127
 3699SOL    HW111996   0.755   5.253   2.064
 3699SOL    HW211997   0.611   5.318   2.105
 3700SOL     OW11998   6.290   0.768   3.745
 3700SOL    HW111999   6.389   0.756   3.749
 3700SOL    HW212000   6.251   0.757   3.837
 3701SOL     OW12001   5.157   0.490   4.082
 3701SOL    HW112002   5.223   0.419   4.061
 3701SOL    HW212003   5.136   0.542   4.000
 3702SOL     OW12004   4.990   1.017   6.629
 3702SOL    HW112005   4.951   1.102   6.594
 3702SOL    HW212006   4.920   0.946   6.631
 3703SOL     OW12007   3.803   4.610   0.979
 3703SOL    HW112008   3.815   4.611   1.079
 3703SOL    HW212009   3.707   4.594   0.958
 3704SOL     OW12010   3.332   6.133   1.482
 3704SOL    HW112011   3.257   6.191   1.513
 3704SOL    HW212012   3.308   6.037   1.495
 3705SOL     OW12013   6.638   1.031   4.584
 3705SOL    HW112014   6.692   0.946   4.582
 3705SOL    HW212015   6.699   1.110   4.586
 3706SOL     OW12016   3.043   2.081   3.269
 3706SOL    HW112017   3.004   1.994   3.239
 3706SOL    HW212018   3.036   2.147   3.194
 3707SOL     OW12019   4.201   2.514   5.508
 3707SOL    HW112020   4.193   2.527   5.607
 3707SOL    HW212021   4.271   2.576   5.472
 3708SOL     OW12022   6.361   0.474   0.109
 3708SOL    HW112023   6.325   0.393   0.062
 3708SOL    HW212024   6.456   0.489   0.082
 3709SOL     OW12025   6.679   0.165   6.706
 3709SOL    HW112026   6.747   0.230   6.672
 3709SOL    HW212027   6.619   0.137   6.631
 3710SOL     OW12028   0.279   4.891   6.769
 3710SOL    HW112029   0.225   4.924   6.846
 3710SOL    HW212030   0.241   4.805   6.736
 3711SOL     OW12031   6.915   5.480   2.313
 3711SOL    HW112032   6.824   5.469   2.272
 3711SOL    HW212033   6.931   5.576   2.334
 3712SOL     OW12034   1.694   0.645   6.639
 3712SOL    HW112035   1.669   0.568   6.697
 3712SOL    HW212036   1.626   0.718   6.649
 3713SOL     OW12037   3.718   5.362   5.666
 3713SOL    HW112038   3.788   5.379   5.735
 3713SOL    HW212039   3.677   5.449   5.638
 3714SOL     OW12040   4.705   1.859   5.115
 3714SOL    HW112041   4.754   1.918   5.179
 3714SOL    HW212042   4.760   1.847   5.032
 3715SOL     OW12043   5.126   3.640   3.497
 3715SOL    HW112044   5.030   3.664   3.481
 3715SOL    HW212045   5.142   3.628   3.595
 3716SOL     OW12046   0.921   1.378   4.157
 3716SOL    HW112047   1.012   1.375   4.198
 3716SOL    HW212048   0.924   1.435   4.075
 3717SOL     OW12049   5.834   0.632   6.789
 3717SOL    HW112050   5.759   0.681   6.745
 3717SOL    HW212051   5.811   0.616   6.885
 3718SOL     OW12052   0.640   6.125   6.690
 3718SOL    HW112053   0.617   6.198   6.754
 3718SOL    HW212054   0.683   6.049   6.740
 3719SOL     OW12055   3.323   4.683   0.485
 3719SOL    HW112056   3.232   4.704   0.449
 3719SOL    HW212057   3.333   4.725   0.575
 3720SOL     OW12058   0.063   1.092   5.890
 3720SOL    HW112059   0.121   1.101   5.971
 3720SOL    HW212060   0.119   1.062   5.813
 3721SOL     OW12061   5.002   3.105   0.411
 3721SOL    HW112062   4.996   3.006   0.399
 3721SOL    HW212063   5.098   3.132   0.423
 3722SOL     OW12064   5.375   5.629   1.367
 3722SOL    HW112065   5.338   5.663   1.280
 3722SOL    HW212066   5.469   5.599   1.353
 3723SOL     OW12067   4.722   0.851   0.384
 3723SOL    HW112068   4.798   0.889   0.437
 3723SOL    HW212069   4.661   0.799   0.445
 3724SOL     OW12070   0.662   4.444   5.840
 3724SOL    HW112071   0.607   4.512   5.791
 3724SOL    HW212072   0.602   4.380   5.888
 3725SOL     OW12073   5.675   6.136   1.219
 3725SOL    HW112074   5.661   6.184   1.133
 3725SOL    HW212075   5.773   6.119   1.233
 3726SOL     OW12076   6.257   2.629   1.574
 3726SOL    HW112077   6.203   2.546   1.560
 3726SOL    HW212078   6.303   2.654   1.489
 3727SOL     OW12079   2.612   2.882   5.396
 3727SOL    HW112080   2.592   2.950   5.326
 3727SOL    HW212081   2.709   2.860   5.396
 3728SOL     OW12082   0.490   3.725   6.880
 3728SOL    HW112083   0.531   3.730   6.971
 3728SOL    HW212084   0.563   3.722   6.811
 3729SOL     OW12085   0.683   3.007   4.238
 3729SOL    HW112086   0.748   3.082   4.249
 3729SOL    HW212087   0.599   3.042   4.197
 3730SOL     OW12088   1.920   0.543   1.077
 3730SOL    HW112089   1.947   0.528   1.172
 3730SOL    HW212090   1.977   0.488   1.016
 3731SOL     OW12091   2.423   5.616   6.943
 3731SOL    HW112092   2.389   5.652   6.856
 3731SOL    HW212093   2.394   5.676   7.017
 3732SOL     OW12094   2.039   3.813   4.323
 3732SOL    HW112095   2.090   3.789   4.405
 3732SOL    HW212096   1.965   3.875   4.346
 3733SOL     OW12097   3.398   3.952   1.038
 3733SOL    HW112098   3.497   3.955   1.049
 3733SOL    HW212099   3.376   3.905   0.952
 3734SOL     OW12100   4.388   0.450   3.076
 3734SOL    HW112101   4.352   0.392   3.149
 3734SOL    HW212102   4.366   0.546   3.095
 3735SOL     OW12103   3.536   2.084   2.169
 3735SOL    HW112104   3.506   2.013   2.105
 3735SOL    HW212105   3.588   2.153   2.120
 3736SOL     OW12106   4.965   0.819   6.212
 3736SOL    HW112107   4.965   0.725   6.179
 3736SOL    HW212108   4.879   0.839   6.259
 3737SOL     OW12109   3.765   6.909   3.630
 3737SOL    HW112110   3.721   6.820   3.617
 3737SOL    HW212111   3.773   6.956   3.542
 3738SOL     OW12112   6.954   0.345   4.346
 3738SOL    HW112113   6.873   0.336   4.289
 3738SOL    HW212114   6.984   0.254   4.376
 3739SOL     OW12115   0.398   3.302   1.333
 3739SOL    HW112116   0.395   3.220   1.391
 3739SOL    HW212117   0.405   3.383   1.391
 3740SOL     OW12118   5.602   0.095   0.009
 3740SOL    HW112119   5.701   0.089   7.016
 3740SOL    HW212120   5.577   0.190   0.026
 3741SOL     OW12121   3.626   1.804   6.790
 3741SOL    HW112122   3.596   1.878   6.850
 3741SOL    HW212123   3.717   1.774   6.817
 3742SOL     OW12124   3.544   3.365   6.018
 3742SOL    HW112125   3.630   3.319   6.040
 3742SOL    HW212126   3.468   3.319   6.063
 3743SOL     OW12127   0.766   5.842   6.455
 3743SOL    HW112128   0.803   5.808   6.541
 3743SOL    HW212129   0.832   5.905   6.413
 3744SOL     OW12130   6.634   5.190   3.125
 3744SOL    HW112131   6.707   5.121   3.126
 3744SOL    HW212132   6.673   5.280   3.108
 3745SOL     OW12133   5.189   4.940   1.589
 3745SOL    HW112134   5.181   5.011   1.519
 3745SOL    HW212135   5.281   4.901   1.587
 3746SOL     OW12136   4.318   1.600   1.361
 3746SOL    HW112137   4.381   1.659   1.311
 3746SOL    HW212138   4.367   1.549   1.432
 3747SOL     OW12139   2.439   0.187   0.605
 3747SOL    HW112140   2.520   0.194   0.662
 3747SOL    HW212141   2.413   0.278   0.571
 3748SOL     OW12142   5.922   0.261   1.795
 3748SOL    HW112143   5.830   0.299   1.805
 3748SOL    HW212144   5.940   0.242   1.698
 3749SOL     OW12145   1.150   0.580   4.110
 3749SOL    HW112146   1.161   0.619   4.202
 3749SOL    HW212147   1.065   0.613   4.070
 3750SOL     OW12148   0.062   3.778   6.571
 3750SOL    HW112149   0.043   3.747   6.664
 3750SOL    HW212150   0.158   3.806   6.564
 3751SOL     OW12151   1.768   5.311   1.651
 3751SOL    HW112152   1.753   5.247   1.576
 3751SOL    HW212153   1.788   5.261   1.735
 3752SOL     OW12154   4.903   5.913   6.598
 3752SOL    HW112155   4.887   5.951   6.689
 3752SOL    HW212156   4.994   5.871   6.594
 3753SOL     OW12157   0.772   0.277   3.232
 3753SOL    HW112158   0.743   0.364   3.271
 3753SOL    HW212159   0.806   0.291   3.140
 3754SOL     OW12160   3.232   1.692   1.231
 3754SOL    HW112161   3.284   1.687   1.316
 3754SOL    HW212162   3.201   1.785   1.216
 3755SOL     OW12163   2.168   6.043   4.470
 3755SOL    HW112164   2.226   5.961   4.468
 3755SOL    HW212165   2.225   6.125   4.474
 3756SOL     OW12166   1.602   6.676   0.412
 3756SOL    HW112167   1.654   6.592   0.398
 3756SOL    HW212168   1.525   6.658   0.473
 3757SOL     OW12169   0.459   4.613   0.338
 3757SOL    HW112170   0.551   4.573   0.344
 3757SOL    HW212171   0.394   4.542   0.313
 3758SOL     OW12172   0.764   6.096   4.008
 3758SOL    HW112173   0.756   6.064   3.914
 3758SOL    HW212174   0.861   6.107   4.032
 3759SOL     OW12175   4.725   0.631   3.762
 3759SOL    HW112176   4.808   0.599   3.808
 3759SOL    HW212177   4.732   0.613   3.664
 3760SOL     OW12178   1.032   0.766   2.864
 3760SOL    HW112179   0.954   0.741   2.806
 3760SOL    HW212180   1.071   0.683   2.905
 3761SOL     OW12181   4.760   1.595   5.374
 3761SOL    HW112182   4.750   1.515   5.432
 3761SOL    HW212183   4.710   1.581   5.288
 3762SOL     OW12184   0.818   2.182   4.334
 3762SOL    HW112185   0.826   2.092   4.291
 3762SOL    HW212186   0.723   2.210   4.335
 3763SOL     OW12187   0.755   6.133   0.039
 3763SOL    HW112188   0.731   6.147   0.135
 3763SOL    HW212189   0.699   6.194   7.003
 3764SOL     OW12190   3.064   1.138   2.441
 3764SOL    HW112191   3.008   1.069   2.394
 3764SOL    HW212192   3.044   1.135   2.539
 3765SOL     OW12193   5.596   3.361   2.715
 3765SOL    HW112194   5.512   3.405   2.747
 3765SOL    HW212195   5.656   3.429   2.673
 3766SOL     OW12196   1.772   2.718   2.232
 3766SOL    HW112197   1.858   2.704   2.182
 3766SOL    HW212198   1.730   2.630   2.253
 3767SOL     OW12199   2.015   6.023   5.946
 3767SOL    HW112200   1.919   6.037   5.920
 3767SOL    HW212201   2.073   6.078   5.886
 3768SOL     OW12202   1.749   6.669   3.097
 3768SOL    HW112203   1.712   6.614   3.173
 3768SOL    HW212204   1.778   6.608   3.023
 3769SOL     OW12205   5.460   5.189   5.035
 3769SOL    HW112206   5.446   5.244   5.117
 3769SOL    HW212207   5.441   5.093   5.056
 3770SOL     OW12208   2.639   6.712   0.880
 3770SOL    HW112209   2.574   6.707   0.956
 3770SOL    HW212210   2.710   6.642   0.892
 3771SOL     OW12211   6.602   6.164   5.717
 3771SOL    HW112212   6.666   6.136   5.789
 3771SOL    HW212213   6.640   6.243   5.667
 3772SOL     OW12214   2.460   5.773   2.046
 3772SOL    HW112215   2.478   5.871   2.038
 3772SOL    HW212216   2.528   5.723   1.992
 3773SOL     OW12217   4.803   4.846   6.560
 3773SOL    HW112218   4.764   4.755   6.574
 3773SOL    HW212219   4.838   4.853   6.467
 3774SOL     OW12220   6.757   4.634   1.149
 3774SOL    HW112221   6.849   4.643   1.112
 3774SOL    HW212222   6.715   4.724   1.155
 3775SOL     OW12223   5.791   5.723   4.725
 3775SOL    HW112224   5.790   5.792   4.797
 3775SOL    HW212225   5.828   5.763   4.641
 3776SOL     OW12226   4.201   2.588   6.875
 3776SOL    HW112227   4.176   2.495   6.846
 3776SOL    HW212228   4.292   2.610   6.839
 3777SOL     OW12229   2.924   5.230   3.997
 3777SOL    HW112230   2.901   5.195   3.906
 3777SOL    HW212231   2.944   5.328   3.990
 3778SOL     OW12232   3.183   5.098   6.667
 3778SOL    HW112233   3.135   5.015   6.638
 3778SOL    HW212234   3.121   5.176   6.662
 3779SOL     OW12235   6.882   5.013   6.187
 3779SOL    HW112236   6.894   4.966   6.274
 3779SOL    HW212237   6.956   4.989   6.125
 3780SOL     OW12238   6.335   3.229   2.018
 3780SOL    HW112239   6.302   3.323   2.016
 3780SOL    HW212240   6.385   3.212   2.103
 3781SOL     OW12241   1.567   6.966   5.929
 3781SOL    HW112242   1.574   0.020   5.994
 3781SOL    HW212243   1.648   6.908   5.937
 3782SOL     OW12244   3.775   5.479   0.140
 3782SOL    HW112245   3.751   5.533   0.220
 3782SOL    HW212246   3.819   5.394   0.169
 3783SOL     OW12247   4.495   4.862   5.546
 3783SOL    HW112248   4.564   4.914   5.496
 3783SOL    HW212249   4.473   4.910   5.631
 3784SOL     OW12250   5.895   3.210   4.548
 3784SOL    HW112251   5.816   3.195   4.607
 3784SOL    HW212252   5.870   3.271   4.473
 3785SOL     OW12253   0.905   2.978   2.576
 3785SOL    HW112254   0.816   2.990   2.532
 3785SOL    HW212255   0.891   2.941   2.668
 3786SOL     OW12256   2.222   2.694   5.915
 3786SOL    HW112257   2.201   2.751   5.835
 3786SOL    HW212258   2.227   2.598   5.887
 3787SOL     OW12259   4.970   5.904   4.579
 3787SOL    HW112260   5.042   5.840   4.552
 3787SOL    HW212261   4.950   5.966   4.504
 3788SOL     OW12262   5.805   3.113   6.011
 3788SOL    HW112263   5.798   3.172   5.931
 3788SOL    HW212264   5.870   3.039   5.992
 3789SOL     OW12265   2.129   3.905   1.106
 3789SOL    HW112266   2.074   3.903   1.190
 3789SOL    HW212267   2.083   3.960   1.037
 3790SOL     OW12268   1.492   7.000   1.660
 3790SOL    HW112269   1.508   6.903   1.675
 3790SOL    HW212270   1.579   0.023   1.637
 3791SOL     OW12271   4.881   0.418   4.278
 3791SOL    HW112272   4.851   0.412   4.182
 3791SOL    HW212273   4.923   0.507   4.293
 3792SOL     OW12274   6.272   6.850   3.687
 3792SOL    HW112275   6.282   6.913   3.765
 3792SOL    HW212276   6.271   6.756   3.720
 3793SOL     OW12277   4.649   3.642   0.038
 3793SOL    HW112278   4.623   3.545   0.040
 3793SOL    HW212279   4.728   3.657   0.097
 3794SOL     OW12280   1.117   4.966   6.366
 3794SOL    HW112281   1.113   4.926   6.458
 3794SOL    HW212282   1.213   4.970   6.336
 3795SOL     OW12283   3.287   6.400   0.582
 3795SOL    HW112284   3.204   6.429   0.629
 3795SOL    HW212285   3.366   6.448   0.621
 3796SOL     OW12286   5.175   0.570   6.935
 3796SOL    HW112287   5.229   0.652   6.953
 3796SOL    HW212288   5.235   0.490   6.935
 3797SOL     OW12289   0.388   3.078   1.514
 3797SOL    HW112290   0.442   3.004   1.474
 3797SOL    HW212291   0.445   3.133   1.574
 3798SOL     OW12292   0.943   5.100   3.857
 3798SOL    HW112293   0.947   5.026   3.791
 3798SOL    HW212294   0.863   5.088   3.916
 3799SOL     OW12295   6.938   1.597   2.682
 3799SOL    HW112296   6.848   1.600   2.725
 3799SOL    HW212297   6.978   1.689   2.681
 3800SOL     OW12298   5.550   3.010   2.365
 3800SOL    HW112299   5.538   3.028   2.463
 3800SOL    HW212300   5.461   3.016   2.319
 3801SOL     OW12301   6.413   1.372   1.112
 3801SOL    HW112302   6.512   1.370   1.095
 3801SOL    HW212303   6.391   1.303   1.182
 3802SOL     OW12304   6.241   3.587   2.581
 3802SOL    HW112305   6.317   3.524   2.567
 3802SOL    HW212306   6.170   3.569   2.512
 3803SOL     OW12307   4.284   3.757   5.460
 3803SOL    HW112308   4.249   3.842   5.420
 3803SOL    HW212309   4.245   3.744   5.551
 3804SOL     OW12310   3.127   5.867   3.556
 3804SOL    HW112311   3.211   5.849   3.505
 3804SOL    HW212312   3.094   5.959   3.533
 3805SOL     OW12313   2.242   1.815   6.942
 3805SOL    HW112314   2.233   1.866   6.857
 3805SOL    HW212315   2.317   1.749   6.934
 3806SOL     OW12316   1.919   4.195   2.071
 3806SOL    HW112317   1.895   4.129   2.000
 3806SOL    HW212318   1.950   4.280   2.029
 3807SOL     OW12319   0.478   4.158   4.123
 3807SOL    HW112320   0.535   4.146   4.042
 3807SOL    HW212321   0.462   4.069   4.167
 3808SOL     OW12322   2.656   6.972   6.312
 3808SOL    HW112323   2.620   0.010   6.240
 3808SOL    HW212324   2.590   6.965   6.386
 3809SOL     OW12325   5.123   1.259   2.240
 3809SOL    HW112326   5.149   1.305   2.156
 3809SOL    HW212327   5.205   1.226   2.287
 3810SOL     OW12328   5.306   2.248   3.004
 3810SOL    HW112329   5.300   2.183   3.080
 3810SOL    HW212330   5.308   2.341   3.040
 3811SOL     OW12331   0.129   5.991   5.731
 3811SOL    HW112332   0.127   5.912   5.670
 3811SOL    HW212333   0.036   6.027   5.741
 3812SOL     OW12334   3.820   5.575   0.593
 3812SOL    HW112335   3.796   5.595   0.688
 3812SOL    HW212336   3.907   5.620   0.571
 3813SOL     OW12337   5.936   3.399   6.866
 3813SOL    HW112338   5.874   3.457   6.813
 3813SOL    HW212339   5.928   3.421   6.963
 3814SOL     OW12340   0.029   6.989   4.940
 3814SOL    HW112341   0.005   0.062   4.963
 3814SOL    HW212342   0.118   6.988   4.895
 3815SOL     OW12343   4.879   2.369   5.645
 3815SOL    HW112344   4.935   2.449   5.624
 3815SOL    HW212345   4.837   2.380   5.735
 3816SOL     OW12346   6.457   6.655   1.052
 3816SOL    HW112347   6.363   6.621   1.054
 3816SOL    HW212348   6.519   6.586   1.090
 3817SOL     OW12349   3.747   3.732   2.153
 3817SOL    HW112350   3.695   3.747   2.069
 3817SOL    HW212351   3.720   3.800   2.221
 3818SOL     OW12352   4.503   5.632   1.976
 3818SOL    HW112353   4.515   5.730   1.995
 3818SOL    HW212354   4.546   5.609   1.889
 3819SOL     OW12355   6.485   3.343   2.867
 3819SOL    HW112356   6.505   3.253   2.905
 3819SOL    HW212357   6.403   3.381   2.911
 3820SOL     OW12358   3.042   6.582   6.009
 3820SOL    HW112359   3.017   6.623   6.097
 3820SOL    HW212360   3.076   6.489   6.024
 3821SOL     OW12361   2.149   6.870   0.736
 3821SOL    HW112362   2.179   6.956   0.776
 3821SOL    HW212363   2.054   6.851   0.762
 3822SOL     OW12364   5.606   6.821   1.835
 3822SOL    HW112365   5.704   6.821   1.815
 3822SOL    HW212366   5.590   6.777   1.923
 3823SOL     OW12367   5.419   5.866   5.119
 3823SOL    HW112368   5.440   5.870   5.021
 3823SOL    HW212369   5.395   5.771   5.143
 3824SOL     OW12370   2.050   2.575   0.570
 3824SOL    HW112371   1.984   2.505   0.544
 3824SOL    HW212372   2.008   2.640   0.633
 3825SOL     OW12373   0.758   4.747   5.565
 3825SOL    HW112374   0.775   4.825   5.505
 3825SOL    HW212375   0.846   4.707   5.592
 3826SOL     OW12376   4.870   4.016   3.555
 3826SOL    HW112377   4.816   4.086   3.508
 3826SOL    HW212378   4.955   3.999   3.506
 3827SOL     OW12379   0.792   1.532   6.799
 3827SOL    HW112380   0.805   1.446   6.751
 3827SOL    HW212381   0.703   1.532   6.845
 3828SOL     OW12382   3.215   3.416   5.124
 3828SOL    HW112383   3.180   3.501   5.083
 3828SOL    HW212384   3.139   3.352   5.138
 3829SOL     OW12385   0.507   3.274   1.692
 3829SOL    HW112386   0.413   3.308   1.683
 3829SOL    HW212387   0.533   3.275   1.789
 3830SOL     OW12388   5.133   6.859   3.807
 3830SOL    HW112389   5.106   6.887   3.899
 3830SOL    HW212390   5.056   6.816   3.761
 3831SOL     OW12391   5.180   2.372   3.217
 3831SOL    HW112392   5.154   2.302   3.283
 3831SOL    HW212393   5.137   2.353   3.129
 3832SOL     OW12394   6.284   1.435   3.675
 3832SOL    HW112395   6.278   1.373   3.753
 3832SOL    HW212396   6.374   1.479   3.674
 3833SOL     OW12397   1.595   2.936   5.561
 3833SOL    HW112398   1.638   2.903   5.645
 3833SOL    HW212399   1.548   2.861   5.515
 3834SOL     OW12400   5.394   4.547   0.894
 3834SOL    HW112401   5.422   4.628   0.946
 3834SOL    HW212402   5.474   4.495   0.867
 3835SOL     OW12403   4.418   5.449   5.054
 3835SOL    HW112404   4.351   5.480   5.122
 3835SOL    HW212405   4.497   5.510   5.055
 3836SOL     OW12406   0.365   6.783   4.674
 3836SOL    HW112407   0.317   6.715   4.618
 3836SOL    HW212408   0.379   6.866   4.620
 3837SOL     OW12409   4.592   4.428   5.827
 3837SOL    HW112410   4.663   4.444   5.895
 3837SOL    HW212411   4.614   4.477   5.743
 3838SOL     OW12412   6.753   0.665   4.207
 3838SOL    HW112413   6.674   0.644   4.149
 3838SOL    HW212414   6.734   0.747   4.261
 3839SOL     OW12415   4.751   1.036   3.520
 3839SOL    HW112416   4.788   0.974   3.589
 3839SOL    HW212417   4.661   1.002   3.491
 3840SOL     OW12418   3.830   1.415   6.402
 3840SOL    HW112419   3.790   1.479   6.337
 3840SOL    HW212420   3.883   1.346   6.353
 3841SOL     OW12421   5.752   4.154   3.142
 3841SOL    HW112422   5.813   4.101   3.201
 3841SOL    HW212423   5.693   4.092   3.090
 3842SOL     OW12424   2.041   3.979   5.477
 3842SOL    HW112425   2.116   4.034   5.514
 3842SOL    HW212426   2.061   3.882   5.491
 3843SOL     OW12427   5.909   2.480   6.288
 3843SOL    HW112428   5.844   2.404   6.284
 3843SOL    HW212429   5.877   2.548   6.354
 3844SOL     OW12430   6.839   0.137   1.085
 3844SOL    HW112431   6.807   0.198   1.157
 3844SOL    HW212432   6.885   0.058   1.126
 3845SOL     OW12433   2.032   5.619   0.216
 3845SOL    HW112434   2.054   5.636   0.120
 3845SOL    HW212435   1.937   5.646   0.234
 3846SOL     OW12436   6.898   3.146   2.827
 3846SOL    HW112437   6.873   3.115   2.736
 3846SOL    HW212438   6.942   3.236   2.822
 3847SOL     OW12439   0.595   1.783   6.620
 3847SOL    HW112440   0.572   1.735   6.704
 3847SOL    HW212441   0.546   1.742   6.543
 3848SOL     OW12442   6.545   5.017   1.904
 3848SOL    HW112443   6.522   5.061   1.818
 3848SOL    HW212444   6.464   5.015   1.963
 3849SOL     OW12445   0.759   3.939   5.867
 3849SOL    HW112446   0.781   3.990   5.950
 3849SOL    HW212447   0.669   3.896   5.876
 3850SOL     OW12448   2.942   2.657   1.299
 3850SOL    HW112449   2.939   2.596   1.219
 3850SOL    HW212450   3.030   2.648   1.344
 3851SOL     OW12451   0.475   5.829   2.807
 3851SOL    HW112452   0.407   5.804   2.875
 3851SOL    HW212453   0.499   5.749   2.753
 3852SOL     OW12454   2.166   0.544   4.889
 3852SOL    HW112455   2.094   0.492   4.936
 3852SOL    HW212456   2.183   0.504   4.799
 3853SOL     OW12457   2.695   0.827   3.153
 3853SOL    HW112458   2.637   0.760   3.107
 3853SOL    HW212459   2.750   0.875   3.084
 3854SOL     OW12460   0.638   1.935   2.198
 3854SOL    HW112461   0.550   1.889   2.210
 3854SOL    HW212462   0.659   1.989   2.280
 3855SOL     OW12463   3.189   6.518   6.622
 3855SOL    HW112464   3.182   6.440   6.561
 3855SOL    HW212465   3.239   6.592   6.577
 3856SOL     OW12466   6.701   2.506   6.603
 3856SOL    HW112467   6.756   2.479   6.683
 3856SOL    HW212468   6.755   2.567   6.545
 3857SOL     OW12469   2.283   0.596   6.015
 3857SOL    HW112470   2.314   0.660   6.087
 3857SOL    HW212471   2.193   0.559   6.040
 3858SOL     OW12472   3.524   0.853   4.721
 3858SOL    HW112473   3.560   0.928   4.776
 3858SOL    HW212474   3.553   0.766   4.760
 3859SOL     OW12475   6.312   0.239   2.014
 3859SOL    HW112476   6.384   0.296   2.055
 3859SOL    HW212477   6.283   0.170   2.081
 3860SOL     OW12478   1.475   6.841   4.499
 3860SOL    HW112479   1.409   6.855   4.425
 3860SOL    HW212480   1.429   6.849   4.587
 3861SOL     OW12481   3.119   5.510   2.015
 3861SOL    HW112482   3.142   5.418   1.982
 3861SOL    HW212483   3.158   5.577   1.952
 3862SOL     OW12484   1.369   0.787   4.534
 3862SOL    HW112485   1.401   0.880   4.518
 3862SOL    HW212486   1.447   0.727   4.549
 3863SOL     OW12487   3.879   0.586   0.640
 3863SOL    HW112488   3.813   0.542   0.580
 3863SOL    HW212489   3.842   0.672   0.673
 3864SOL     OW12490   1.216   0.356   4.446
 3864SOL    HW112491   1.126   0.392   4.469
 3864SOL    HW212492   1.285   0.400   4.504
 3865SOL     OW12493   5.087   1.374   0.798
 3865SOL    HW112494   5.048   1.292   0.756
 3865SOL    HW212495   5.013   1.433   0.829
 3866SOL     OW12496   3.067   0.738   6.775
 3866SOL    HW112497   3.156   0.776   6.801
 3866SOL    HW212498   3.049   0.656   6.828
 3867SOL     OW12499   6.969   3.349   2.540
 3867SOL    HW112500   6.875   3.376   2.562
 3867SOL    HW212501   0.006   3.429   2.547
 3868SOL     OW12502   4.247   0.420   0.076
 3868SOL    HW112503   4.193   0.444   7.018
 3868SOL    HW212504   4.204   0.458   0.158
 3869SOL     OW12505   4.295   0.902   4.081
 3869SOL    HW112506   4.390   0.891   4.107
 3869SOL    HW212507   4.266   0.826   4.023
 3870SOL     OW12508   7.004   1.708   5.715
 3870SOL    HW112509   7.010   1.622   5.766
 3870SOL    HW212510   0.024   1.697   5.625
 3871SOL     OW12511   2.692   5.980   3.980
 3871SOL    HW112512   2.612   5.931   4.015
 3871SOL    HW212513   2.680   6.078   3.993
 3872SOL     OW12514   2.847   3.684   5.317
 3872SOL    HW112515   2.918   3.707   5.384
 3872SOL    HW212516   2.822   3.766   5.265
 3873SOL     OW12517   4.135   1.799   0.055
 3873SOL    HW112518   4.185   1.840   7.001
 3873SOL    HW212519   4.116   1.869   0.123
 3874SOL     OW12520   2.350   1.435   1.270
 3874SOL    HW112521   2.304   1.359   1.223
 3874SOL    HW212522   2.446   1.438   1.242
 3875SOL     OW12523   0.943   1.990   6.392
 3875SOL    HW112524   0.985   1.941   6.468
 3875SOL    HW212525   0.844   1.984   6.400
 3876SOL     OW12526   3.255   5.389   2.452
 3876SOL    HW112527   3.341   5.438   2.462
 3876SOL    HW212528   3.199   5.434   2.382
 3877SOL     OW12529   0.275   1.496   5.755
 3877SOL    HW112530   0.284   1.577   5.697
 3877SOL    HW212531   0.279   1.413   5.698
 3878SOL     OW12532   4.590   1.318   4.806
 3878SOL    HW112533   4.517   1.346   4.869
 3878SOL    HW212534   4.558   1.240   4.752
 3879SOL     OW12535   5.075   5.996   0.283
 3879SOL    HW112536   5.068   5.903   0.321
 3879SOL    HW212537   5.156   6.002   0.225
 3880SOL     OW12538   5.160   4.679   4.055
 3880SOL    HW112539   5.181   4.585   4.080
 3880SOL    HW212540   5.186   4.740   4.129
 3881SOL     OW12541   1.329   3.129   0.434
 3881SOL    HW112542   1.323   3.078   0.348
 3881SOL    HW212543   1.240   3.125   0.481
 3882SOL     OW12544   0.217   1.950   5.543
 3882SOL    HW112545   0.285   2.023   5.530
 3882SOL    HW212546   0.203   1.935   5.641
 3883SOL     OW12547   4.357   6.115   3.780
 3883SOL    HW112548   4.447   6.122   3.736
 3883SOL    HW212549   4.286   6.117   3.710
 3884SOL     OW12550   0.343   3.875   2.505
 3884SOL    HW112551   0.422   3.831   2.548
 3884SOL    HW212552   0.320   3.828   2.420
 3885SOL     OW12553   4.346   5.699   2.252
 3885SOL    HW112554   4.248   5.720   2.243
 3885SOL    HW212555   4.356   5.601   2.270
 3886SOL     OW12556   2.648   5.634   5.983
 3886SOL    HW112557   2.686   5.657   5.893
 3886SOL    HW212558   2.721   5.636   6.051
 3887SOL     OW12559   1.562   5.879   1.923
 3887SOL    HW112560   1.611   5.964   1.903
 3887SOL    HW212561   1.610   5.802   1.881
 3888SOL     OW12562   5.611   4.876   4.044
 3888SOL    HW112563   5.512   4.864   4.033
 3888SOL    HW212564   5.650   4.795   4.087
 3889SOL     OW12565   5.481   4.317   0.606
 3889SOL    HW112566   5.547   4.374   0.655
 3889SOL    HW212567   5.482   4.342   0.509
 3890SOL     OW12568   5.711   3.680   3.632
 3890SOL    HW112569   5.652   3.634   3.565
 3890SOL    HW212570   5.673   3.771   3.653
 3891SOL     OW12571   5.024   5.381   3.678
 3891SOL    HW112572   5.014   5.282   3.670
 3891SOL    HW212573   5.092   5.401   3.748
 3892SOL     OW12574   6.663   2.108   1.509
 3892SOL    HW112575   6.618   2.171   1.445
 3892SOL    HW212576   6.637   2.014   1.487
 3893SOL     OW12577   4.136   3.375   2.781
 3893SOL    HW112578   4.135   3.374   2.681
 3893SOL    HW212579   4.220   3.334   2.815
 3894SOL     OW12580   4.524   0.732   5.741
 3894SOL    HW112581   4.551   0.811   5.797
 3894SOL    HW212582   4.459   0.761   5.671
 3895SOL     OW12583   0.184   0.301   3.939
 3895SOL    HW112584   0.208   0.390   3.978
 3895SOL    HW212585   0.169   0.311   3.840
 3896SOL     OW12586   2.142   1.659   6.357
 3896SOL    HW112587   2.218   1.645   6.293
 3896SOL    HW212588   2.075   1.720   6.316
 3897SOL     OW12589   3.874   5.524   1.203
 3897SOL    HW112590   3.917   5.609   1.175
 3897SOL    HW212591   3.907   5.498   1.293
 3898SOL     OW12592   3.365   3.229   1.601
 3898SOL    HW112593   3.417   3.301   1.647
 3898SOL    HW212594   3.406   3.140   1.620
 3899SOL     OW12595   3.213   0.163   5.037
 3899SOL    HW112596   3.217   0.075   5.083
 3899SOL    HW212597   3.244   0.235   5.099
 3900SOL     OW12598   4.552   4.458   3.016
 3900SOL    HW112599   4.547   4.462   2.917
 3900SOL    HW212600   4.509   4.374   3.049
 3901SOL     OW12601   2.923   1.240   6.787
 3901SOL    HW112602   2.936   1.141   6.799
 3901SOL    HW212603   2.990   1.288   6.843
 3902SOL     OW12604   5.113   2.887   2.856
 3902SOL    HW112605   5.112   2.916   2.761
 3902SOL    HW212606   5.147   2.793   2.862
 3903SOL     OW12607   2.778   4.219   6.164
 3903SOL    HW112608   2.751   4.306   6.124
 3903SOL    HW212609   2.877   4.219   6.178
 3904SOL     OW12610   1.951   0.326   0.801
 3904SOL    HW112611   1.939   0.278   0.714
 3904SOL    HW212612   1.862   0.340   0.845
 3905SOL     OW12613   6.987   6.414   5.076
 3905SOL    HW112614   6.910   6.351   5.067
 3905SOL    HW212615   7.008   6.454   4.987
 3906SOL     OW12616   0.068   6.454   4.822
 3906SOL    HW112617   0.036   6.389   4.753
 3906SOL    HW212618   0.165   6.475   4.807
 3907SOL     OW12619   5.552   2.105   3.552
 3907SOL    HW112620   5.635   2.114   3.607
 3907SOL    HW212621   5.478   2.159   3.593
 3908SOL     OW12622   2.800   4.285   6.444
 3908SOL    HW112623   2.804   4.271   6.345
 3908SOL    HW212624   2.725   4.347   6.466
 3909SOL     OW12625   5.967   6.000   3.392
 3909SOL    HW112626   6.031   6.045   3.454
 3909SOL    HW212627   5.985   6.030   3.298
 3910SOL     OW12628   3.490   3.233   2.705
 3910SOL    HW112629   3.454   3.285   2.628
 3910SOL    HW212630   3.590   3.226   2.696
 3911SOL     OW12631   6.106   2.585   5.596
 3911SOL    HW112632   6.110   2.666   5.654
 3911SOL    HW212633   6.060   2.607   5.510
 3912SOL     OW12634   5.212   2.651   6.065
 3912SOL    HW112635   5.152   2.656   5.986
 3912SOL    HW212636   5.158   2.642   6.149
 3913SOL     OW12637   1.539   6.871   1.075
 3913SOL    HW112638   1.473   6.895   1.004
 3913SOL    HW212639   1.561   6.952   1.129
 3914SOL     OW12640   2.914   5.753   6.019
 3914SOL    HW112641   2.951   5.738   6.111
 3914SOL    HW212642   2.985   5.789   5.959
 3915SOL     OW12643   0.317   6.087   1.252
 3915SOL    HW112644   0.362   6.171   1.283
 3915SOL    HW212645   0.342   6.012   1.313
 3916SOL     OW12646   0.954   0.139   3.353
 3916SOL    HW112647   0.880   0.195   3.314
 3916SOL    HW212648   0.949   0.046   3.315
 3917SOL     OW12649   2.430   0.431   6.817
 3917SOL    HW112650   2.413   0.454   6.721
 3917SOL    HW212651   2.435   0.332   6.828
 3918SOL     OW12652   5.387   3.462   6.832
 3918SOL    HW112653   5.396   3.363   6.839
 3918SOL    HW212654   5.304   3.491   6.880
 3919SOL     OW12655   3.064   6.734   0.666
 3919SOL    HW112656   3.159   6.751   0.641
 3919SOL    HW212657   3.060   6.711   0.764
 3920SOL     OW12658   2.176   1.386   6.892
 3920SOL    HW112659   2.139   1.381   6.985
 3920SOL    HW212660   2.151   1.473   6.851
 3921SOL     OW12661   0.831   3.754   1.299
 3921SOL    HW112662   0.883   3.803   1.369
 3921SOL    HW212663   0.822   3.658   1.325
 3922SOL     OW12664   1.574   5.226   1.266
 3922SOL    HW112665   1.619   5.189   1.185
 3922SOL    HW212666   1.624   5.306   1.299
 3923SOL     OW12667   6.626   0.433   1.142
 3923SOL    HW112668   6.717   0.394   1.155
 3923SOL    HW212669   6.609   0.446   1.045
 3924SOL     OW12670   6.487   5.200   4.722
 3924SOL    HW112671   6.558   5.255   4.678
 3924SOL    HW212672   6.527   5.112   4.750
 3925SOL     OW12673   1.463   4.954   1.950
 3925SOL    HW112674   1.452   5.006   1.866
 3925SOL    HW212675   1.540   4.990   2.002
 3926SOL     OW12676   3.546   5.371   2.773
 3926SOL    HW112677   3.572   5.309   2.847
 3926SOL    HW212678   3.625   5.427   2.748
 3927SOL     OW12679   0.986   3.104   6.516
 3927SOL    HW112680   0.905   3.091   6.459
 3927SOL    HW212681   0.987   3.035   6.589
 3928SOL     OW12682   6.239   6.042   6.538
 3928SOL    HW112683   6.276   5.974   6.475
 3928SOL    HW212684   6.219   5.998   6.626
 3929SOL     OW12685   0.745   1.711   4.288
 3929SOL    HW112686   0.772   1.619   4.262
 3929SOL    HW212687   0.650   1.710   4.321
 3930SOL     OW12688   2.909   1.864   3.842
 3930SOL    HW112689   3.008   1.881   3.847
 3930SOL    HW212690   2.883   1.844   3.747
 3931SOL     OW12691   4.929   0.403   2.271
 3931SOL    HW112692   4.915   0.330   2.204
 3931SOL    HW212693   5.027   0.418   2.283
 3932SOL     OW12694   1.521   2.162   4.160
 3932SOL    HW112695   1.520   2.205   4.069
 3932SOL    HW212696   1.447   2.095   4.165
 3933SOL     OW12697   1.519   0.135   6.141
 3933SOL    HW112698   1.426   0.127   6.104
 3933SOL    HW212699   1.539   0.231   6.160
 3934SOL     OW12700   5.567   6.410   6.938
 3934SOL    HW112701   5.513   6.445   6.861
 3934SOL    HW212702   5.649   6.467   6.949
 3935SOL     OW12703   5.124   6.705   1.455
 3935SOL    HW112704   5.203   6.758   1.486
 3935SOL    HW212705   5.041   6.760   1.464
 3936SOL     OW12706   0.735   4.179   2.586
 3936SOL    HW112707   0.656   4.157   2.529
 3936SOL    HW212708   0.749   4.278   2.588
 3937SOL     OW12709   0.651   2.226   2.490
 3937SOL    HW112710   0.624   2.221   2.586
 3937SOL    HW212711   0.571   2.251   2.435
 3938SOL     OW12712   0.155   2.483   3.135
 3938SOL    HW112713   0.114   2.547   3.200
 3938SOL    HW212714   0.093   2.469   3.058
 3939SOL     OW12715   1.992   2.098   1.832
 3939SOL    HW112716   1.972   2.194   1.811
 3939SOL    HW212717   2.056   2.063   1.764
 3940SOL     OW12718   4.582   3.816   1.290
 3940SOL    HW112719   4.594   3.796   1.193
 3940SOL    HW212720   4.552   3.911   1.301
 3941SOL     OW12721   4.790   3.277   6.799
 3941SOL    HW112722   4.882   3.238   6.799
 3941SOL    HW212723   4.758   3.287   6.705
 3942SOL     OW12724   0.071   0.333   0.494
 3942SOL    HW112725   0.169   0.349   0.501
 3942SOL    HW212726   0.022   0.412   0.530
 3943SOL     OW12727   6.648   3.075   4.821
 3943SOL    HW112728   6.592   3.100   4.900
 3943SOL    HW212729   6.741   3.108   4.834
 3944SOL     OW12730   5.566   1.372   5.197
 3944SOL    HW112731   5.513   1.296   5.159
 3944SOL    HW212732   5.523   1.459   5.174
 3945SOL     OW12733   6.756   0.702   0.989
 3945SOL    HW112734   6.736   0.712   1.087
 3945SOL    HW212735   6.694   0.761   0.937
 3946SOL     OW12736   3.922   5.160   3.367
 3946SOL    HW112737   3.924   5.202   3.276
 3946SOL    HW212738   3.849   5.202   3.421
 3947SOL     OW12739   6.592   4.099   6.349
 3947SOL    HW112740   6.569   4.036   6.275
 3947SOL    HW212741   6.627   4.049   6.427
 3948SOL     OW12742   6.024   3.928   0.913
 3948SOL    HW112743   6.036   3.998   0.843
 3948SOL    HW212744   6.114   3.893   0.940
 3949SOL     OW12745   5.840   6.301   3.292
 3949SOL    HW112746   5.912   6.263   3.234
 3949SOL    HW212747   5.754   6.253   3.275
 3950SOL     OW12748   1.706   6.325   0.418
 3950SOL    HW112749   1.747   6.408   0.380
 3950SOL    HW212750   1.778   6.258   0.436
 3951SOL     OW12751   6.147   6.197   2.037
 3951SOL    HW112752   6.238   6.216   2.073
 3951SOL    HW212753   6.154   6.156   1.946
 3952SOL     OW12754   5.808   1.973   6.833
 3952SOL    HW112755   5.872   2.040   6.797
 3952SOL    HW212756   5.748   2.016   6.900
 3953SOL     OW12757   3.710   4.065   2.899
 3953SOL    HW112758   3.639   3.994   2.898
 3953SOL    HW212759   3.703   4.117   2.984
 3954SOL     OW12760   3.950   5.153   5.780
 3954SOL    HW112761   3.951   5.158   5.681
 3954SOL    HW212762   3.858   5.129   5.812
 3955SOL     OW12763   3.787   1.233   4.969
 3955SOL    HW112764   3.745   1.162   5.026
 3955SOL    HW212765   3.858   1.280   5.022
 3956SOL     OW12766   2.403   1.323   1.832
 3956SOL    HW112767   2.414   1.419   1.806
 3956SOL    HW212768   2.311   1.292   1.808
 3957SOL     OW12769   3.545   1.052   4.488
 3957SOL    HW112770   3.558   1.007   4.577
 3957SOL    HW212771   3.552   1.151   4.499
 3958SOL     OW12772   5.563   6.719   5.333
 3958SOL    HW112773   5.540   6.807   5.291
 3958SOL    HW212774   5.642   6.680   5.286
 3959SOL     OW12775   5.005   5.195   6.735
 3959SOL    HW112776   4.932   5.263   6.732
 3959SOL    HW212777   5.071   5.215   6.663
 3960SOL     OW12778   6.247   1.896   4.731
 3960SOL    HW112779   6.234   1.821   4.797
 3960SOL    HW212780   6.344   1.918   4.724
 3961SOL     OW12781   5.606   6.389   3.890
 3961SOL    HW112782   5.618   6.474   3.941
 3961SOL    HW212783   5.553   6.407   3.807
 3962SOL     OW12784   6.735   5.391   5.138
 3962SOL    HW112785   6.671   5.315   5.152
 3962SOL    HW212786   6.739   5.447   5.221
 3963SOL     OW12787   4.749   6.888   1.942
 3963SOL    HW112788   4.716   6.956   2.008
 3963SOL    HW212789   4.676   6.821   1.924
 3964SOL     OW12790   5.331   2.735   3.377
 3964SOL    HW112791   5.325   2.774   3.285
 3964SOL    HW212792   5.362   2.805   3.441
 3965SOL     OW12793   4.834   3.972   4.265
 3965SOL    HW112794   4.898   3.896   4.269
 3965SOL    HW212795   4.807   3.998   4.358
 3966SOL     OW12796   2.226   0.028   6.289
 3966SOL    HW112797   2.155   0.004   6.355
 3966SOL    HW212798   2.315   0.004   6.326
 3967SOL     OW12799   1.908   4.383   3.759
 3967SOL    HW112800   1.832   4.338   3.806
 3967SOL    HW212801   1.928   4.470   3.804
 3968SOL     OW12802   3.636   0.098   0.543
 3968SOL    HW112803   3.541   0.122   0.563
 3968SOL    HW212804   3.638   0.008   0.498
 3969SOL     OW12805   0.597   5.005   3.160
 3969SOL    HW112806   0.669   5.066   3.193
 3969SOL    HW212807   0.542   4.973   3.237
 3970SOL     OW12808   5.092   5.905   1.869
 3970SOL    HW112809   5.131   5.959   1.794
 3970SOL    HW212810   4.999   5.876   1.844
 3971SOL     OW12811   1.974   6.355   3.569
 3971SOL    HW112812   1.999   6.427   3.634
 3971SOL    HW212813   1.885   6.316   3.595
 3972SOL     OW12814   1.138   3.295   6.593
 3972SOL    HW112815   1.071   3.225   6.567
 3972SOL    HW212816   1.090   3.380   6.614
 3973SOL     OW12817   2.054   4.811   1.021
 3973SOL    HW112818   1.990   4.768   1.084
 3973SOL    HW212819   2.133   4.752   1.007
 3974SOL     OW12820   2.719   1.428   5.534
 3974SOL    HW112821   2.701   1.497   5.465
 3974SOL    HW212822   2.665   1.447   5.616
 3975SOL     OW12823   6.222   3.005   6.429
 3975SOL    HW112824   6.206   2.980   6.334
 3975SOL    HW212825   6.303   2.957   6.463
 3976SOL     OW12826   2.028   4.636   2.815
 3976SOL    HW112827   1.986   4.711   2.763
 3976SOL    HW212828   2.070   4.673   2.898
 3977SOL     OW12829   0.564   3.078   0.186
 3977SOL    HW112830   0.570   3.119   0.277
 3977SOL    HW212831   0.570   2.978   0.195
 3978SOL     OW12832   5.918   4.508   3.847
 3978SOL    HW112833   5.985   4.486   3.777
 3978SOL    HW212834   5.936   4.600   3.882
 3979SOL     OW12835   4.245   6.247   5.919
 3979SOL    HW112836   4.163   6.299   5.894
 3979SOL    HW212837   4.313   6.308   5.958
 3980SOL     OW12838   5.197   5.325   5.804
 3980SOL    HW112839   5.140   5.393   5.757
 3980SOL    HW212840   5.213   5.355   5.898
 3981SOL     OW12841   4.539   5.506   0.332
 3981SOL    HW112842   4.568   5.497   0.237
 3981SOL    HW212843   4.553   5.420   0.380
 3982SOL     OW12844   2.938   6.077   3.238
 3982SOL    HW112845   3.000   6.006   3.204
 3982SOL    HW212846   2.871   6.036   3.300
 3983SOL     OW12847   3.223   5.620   4.428
 3983SOL    HW112848   3.268   5.621   4.338
 3983SOL    HW212849   3.128   5.650   4.417
 3984SOL     OW12850   6.559   2.781   3.412
 3984SOL    HW112851   6.588   2.761   3.506
 3984SOL    HW212852   6.492   2.713   3.382
 3985SOL     OW12853   4.242   5.101   6.351
 3985SOL    HW112854   4.213   5.009   6.325
 3985SOL    HW212855   4.243   5.108   6.451
 3986SOL     OW12856   5.273   0.558   2.909
 3986SOL    HW112857   5.223   0.600   2.834
 3986SOL    HW212858   5.294   0.627   2.979
 3987SOL     OW12859   3.869   5.761   4.742
 3987SOL    HW112860   3.837   5.807   4.659
 3987SOL    HW212861   3.954   5.804   4.773
 3988SOL     OW12862   3.738   5.497   0.948
 3988SOL    HW112863   3.761   5.489   1.045
 3988SOL    HW212864   3.767   5.587   0.914
 3989SOL     OW12865   5.713   2.831   0.842
 3989SOL    HW112866   5.654   2.751   0.848
 3989SOL    HW212867   5.785   2.825   0.911
 3990SOL     OW12868   6.847   1.587   2.423
 3990SOL    HW112869   6.862   1.673   2.373
 3990SOL    HW212870   6.908   1.584   2.502
 3991SOL     OW12871   5.662   0.538   2.983
 3991SOL    HW112872   5.601   0.492   2.919
 3991SOL    HW212873   5.747   0.486   2.992
 3992SOL     OW12874   3.358   2.183   0.771
 3992SOL    HW112875   3.456   2.200   0.785
 3992SOL    HW212876   3.346   2.118   0.696
 3993SOL     OW12877   0.920   2.852   2.095
 3993SOL    HW112878   0.949   2.872   2.188
 3993SOL    HW212879   1.000   2.853   2.035
 3994SOL     OW12880   2.289   6.278   4.477
 3994SOL    HW112881   2.235   6.362   4.481
 3994SOL    HW212882   2.385   6.299   4.493
 3995SOL     OW12883   1.645   1.757   4.446
 3995SOL    HW112884   1.742   1.752   4.471
 3995SOL    HW212885   1.619   1.853   4.435
 3996SOL     OW12886   6.993   6.318   4.585
 3996SOL    HW112887   0.011   6.249   4.524
 3996SOL    HW212888   6.995   6.407   4.539
 3997SOL     OW12889   3.762   0.905   4.278
 3997SOL    HW112890   3.813   0.865   4.354
 3997SOL    HW212891   3.679   0.949   4.312
 3998SOL     OW12892   4.585   2.020   3.157
 3998SOL    HW112893   4.522   2.050   3.229
 3998SOL    HW212894   4.533   1.974   3.085
 3999SOL     OW12895   4.923   1.609   4.079
 3999SOL    HW112896   4.855   1.639   4.146
 3999SOL    HW212897   5.011   1.598   4.124
 4000SOL     OW12898   4.210   6.687   3.793
 4000SOL    HW112899   4.212   6.786   3.778
 4000SOL    HW212900   4.283   6.662   3.856
 4001SOL     OW12901   0.988   1.619   3.961
 4001SOL    HW112902   0.896   1.628   3.924
 4001SOL    HW212903   1.054   1.651   3.893
 4002SOL     OW12904   2.464   4.698   1.623
 4002SOL    HW112905   2.483   4.736   1.714
 4002SOL    HW212906   2.502   4.606   1.617
 4003SOL     OW12907   3.913   2.185   4.939
 4003SOL    HW112908   3.849   2.128   4.990
 4003SOL    HW212909   3.915   2.277   4.978
 4004SOL     OW12910   6.307   1.953   5.952
 4004SOL    HW112911   6.215   1.966   5.915
 4004SOL    HW212912   6.315   1.862   5.993
 4005SOL     OW12913   5.752   4.561   5.266
 4005SOL    HW112914   5.730   4.492   5.196
 4005SOL    HW212915   5.677   4.626   5.273
 4006SOL     OW12916   3.821   5.887   2.564
 4006SOL    HW112917   3.775   5.932   2.640
 4006SOL    HW212918   3.850   5.956   2.497
 4007SOL     OW12919   0.117   1.428   5.944
 4007SOL    HW112920   0.129   1.329   5.947
 4007SOL    HW212921   0.187   1.468   5.885
 4008SOL     OW12922   2.912   1.819   5.096
 4008SOL    HW112923   2.960   1.777   5.173
 4008SOL    HW212924   2.826   1.858   5.128
 4009SOL     OW12925   3.430   3.532   2.810
 4009SOL    HW112926   3.496   3.603   2.835
 4009SOL    HW212927   3.391   3.553   2.720
 4010SOL     OW12928   1.432   3.162   0.109
 4010SOL    HW112929   1.351   3.179   0.053
 4010SOL    HW212930   1.506   3.222   0.079
 4011SOL     OW12931   0.755   2.906   0.845
 4011SOL    HW112932   0.718   2.816   0.821
 4011SOL    HW212933   0.823   2.933   0.777
 4012SOL     OW12934   5.507   3.220   3.403
 4012SOL    HW112935   5.602   3.251   3.397
 4012SOL    HW212936   5.464   3.228   3.313
 4013SOL     OW12937   5.003   2.346   2.969
 4013SOL    HW112938   5.063   2.286   2.917
 4013SOL    HW212939   4.909   2.314   2.962
 4014SOL     OW12940   5.719   5.850   1.916
 4014SOL    HW112941   5.702   5.936   1.868
 4014SOL    HW212942   5.699   5.861   2.013
 4015SOL     OW12943   4.552   3.732   0.314
 4015SOL    HW112944   4.462   3.770   0.293
 4015SOL    HW212945   4.555   3.637   0.283
 4016SOL     OW12946   3.183   6.345   4.860
 4016SOL    HW112947   3.105   6.313   4.914
 4016SOL    HW212948   3.263   6.288   4.881
 4017SOL     OW12949   6.096   6.678   6.714
 4017SOL    HW112950   6.069   6.611   6.645
 4017SOL    HW212951   6.142   6.755   6.669
 4018SOL     OW12952   2.023   0.287   6.770
 4018SOL    HW112953   2.103   0.232   6.793
 4018SOL    HW212954   1.965   0.237   6.705
 4019SOL     OW12955   4.949   5.383   3.165
 4019SOL    HW112956   4.853   5.386   3.136
 4019SOL    HW212957   4.991   5.472   3.151
 4020SOL     OW12958   5.038   2.129   5.001
 4020SOL    HW112959   5.104   2.092   5.066
 4020SOL    HW212960   5.072   2.117   4.908
 4021SOL     OW12961   4.621   4.011   6.480
 4021SOL    HW112962   4.547   3.969   6.428
 4021SOL    HW212963   4.587   4.037   6.570
 4022SOL     OW12964   5.089   0.179   0.851
 4022SOL    HW112965   5.163   0.243   0.872
 4022SOL    HW212966   5.048   0.203   0.763
 4023SOL     OW12967   6.328   0.229   5.630
 4023SOL    HW112968   6.272   0.249   5.550
 4023SOL    HW212969   6.355   0.316   5.673
 4024SOL     OW12970   4.528   4.609   4.778
 4024SOL    HW112971   4.458   4.632   4.711
 4024SOL    HW212972   4.487   4.607   4.870
 4025SOL     OW12973   0.724   3.854   4.091
 4025SOL    HW112974   0.811   3.881   4.051
 4025SOL    HW212975   0.734   3.843   4.190
 4026SOL     OW12976   4.988   0.015   5.241
 4026SOL    HW112977   5.013   0.091   5.301
 4026SOL    HW212978   4.943   0.050   5.159
 4027SOL     OW12979   3.031   5.195   2.453
 4027SOL    HW112980   3.086   5.272   2.485
 4027SOL    HW212981   3.047   5.180   2.355
 4028SOL     OW12982   2.468   5.968   3.326
 4028SOL    HW112983   2.462   5.944   3.229
 4028SOL    HW212984   2.377   5.993   3.360
 4029SOL     OW12985   1.937   4.022   3.731
 4029SOL    HW112986   2.002   4.054   3.800
 4029SOL    HW212987   1.984   3.963   3.666
 4030SOL     OW12988   1.752   1.831   5.968
 4030SOL    HW112989   1.763   1.928   5.948
 4030SOL    HW212990   1.666   1.798   5.928
 4031SOL     OW12991   6.401   5.684   4.312
 4031SOL    HW112992   6.310   5.676   4.272
 4031SOL    HW212993   6.435   5.593   4.336
 4032SOL     OW12994   3.614   0.030   4.747
 4032SOL    HW112995   3.551   7.003   4.687
 4032SOL    HW212996   3.647   0.113   4.701
 4033SOL     OW12997   3.807   3.752   6.058
 4033SOL    HW112998   3.852   3.676   6.104
 4033SOL    HW212999   3.717   3.723   6.025
 4034SOL     OW13000   5.692   3.151   4.754
 4034SOL    HW113001   5.638   3.071   4.780
 4034SOL    HW213002   5.762   3.168   4.823
 4035SOL     OW13003   0.528   5.799   1.754
 4035SOL    HW113004   0.580   5.724   1.713
 4035SOL    HW213005   0.432   5.771   1.766
 4036SOL     OW13006   6.692   6.299   2.375
 4036SOL    HW113007   6.756   6.250   2.316
 4036SOL    HW213008   6.669   6.387   2.334
 4037SOL     OW13009   0.186   4.087   5.261
 4037SOL    HW113010   0.222   4.032   5.186
 4037SOL    HW213011   0.212   4.044   5.348
 4038SOL     OW13012   5.981   5.155   2.963
 4038SOL    HW113013   6.021   5.218   3.029
 4038SOL    HW213014   5.936   5.080   3.012
 4039SOL     OW13015   2.858   5.866   1.226
 4039SOL    HW113016   2.760   5.881   1.239
 4039SOL    HW213017   2.900   5.949   1.189
 4040SOL     OW13018   3.348   6.593   0.193
 4040SOL    HW113019   3.291   6.594   0.111
 4040SOL    HW213020   3.333   6.508   0.243
 4041SOL     OW13021   0.862   5.803   3.055
 4041SOL    HW113022   0.815   5.779   2.970
 4041SOL    HW213023   0.798   5.843   3.119
 4042SOL     OW13024   5.805   6.225   2.728
 4042SOL    HW113025   5.881   6.184   2.679
 4042SOL    HW213026   5.838   6.302   2.782
 4043SOL     OW13027   6.109   3.931   1.394
 4043SOL    HW113028   6.115   3.862   1.322
 4043SOL    HW213029   6.013   3.951   1.413
 4044SOL     OW13030   5.964   5.074   2.122
 4044SOL    HW113031   5.953   4.976   2.108
 4044SOL    HW213032   5.895   5.107   2.186
 4045SOL     OW13033   2.658   4.527   5.785
 4045SOL    HW113034   2.683   4.504   5.691
 4045SOL    HW213035   2.586   4.596   5.784
 4046SOL     OW13036   0.262   3.247   0.835
 4046SOL    HW113037   0.342   3.271   0.891
 4046SOL    HW213038   0.259   3.306   0.754
 4047SOL     OW13039   2.931   3.834   2.941
 4047SOL    HW113040   2.838   3.869   2.948
 4047SOL    HW213041   2.991   3.886   3.002
 4048SOL     OW13042   4.443   2.551   0.715
 4048SOL    HW113043   4.474   2.646   0.725
 4048SOL    HW213044   4.479   2.496   0.790
 4049SOL     OW13045   6.615   0.563   6.992
 4049SOL    HW113046   6.709   0.545   6.961
 4049SOL    HW213047   6.561   0.596   6.916
 4050SOL     OW13048   2.898   0.474   2.512
 4050SOL    HW113049   2.967   0.523   2.459
 4050SOL    HW213050   2.828   0.438   2.451
 4051SOL     OW13051   1.656   3.636   0.911
 4051SOL    HW113052   1.641   3.672   1.003
 4051SOL    HW213053   1.668   3.537   0.915
 4052SOL     OW13054   1.137   0.149   1.417
 4052SOL    HW113055   1.075   0.187   1.485
 4052SOL    HW213056   1.084   0.121   1.336
 4053SOL     OW13057   2.743   5.064   3.390
 4053SOL    HW113058   2.781   4.976   3.420
 4053SOL    HW213059   2.696   5.107   3.467
 4054SOL     OW13060   4.945   1.590   6.836
 4054SOL    HW113061   4.898   1.669   6.874
 4054SOL    HW213062   4.903   1.564   6.749
 4055SOL     OW13063   4.608   3.275   0.221
 4055SOL    HW113064   4.694   3.325   0.232
 4055SOL    HW213065   4.597   3.209   0.296
 4056SOL     OW13066   4.209   3.095   0.176
 4056SOL    HW113067   4.291   3.127   0.129
 4056SOL    HW213068   4.197   3.147   0.261
 4057SOL     OW13069   6.274   3.004   0.645
 4057SOL    HW113070   6.346   3.073   0.634
 4057SOL    HW213071   6.311   2.925   0.693
 4058SOL     OW13072   0.388   1.937   3.723
 4058SOL    HW113073   0.394   1.998   3.644
 4058SOL    HW213074   0.391   1.991   3.807
 4059SOL     OW13075   6.723   2.229   5.284
 4059SOL    HW113076   6.813   2.212   5.243
 4059SOL    HW213077   6.705   2.159   5.353
 4060SOL     OW13078   3.346   6.455   5.977
 4060SOL    HW113079   3.388   6.494   6.059
 4060SOL    HW213080   3.255   6.420   6.000
 4061SOL     OW13081   2.247   3.208   1.451
 4061SOL    HW113082   2.323   3.209   1.386
 4061SOL    HW213083   2.172   3.153   1.413
 4062SOL     OW13084   2.858   6.645   2.734
 4062SOL    HW113085   2.768   6.633   2.693
 4062SOL    HW213086   2.863   6.595   2.820
 4063SOL     OW13087   2.826   5.579   6.543
 4063SOL    HW113088   2.738   5.586   6.495
 4063SOL    HW213089   2.901   5.583   6.477
 4064SOL     OW13090   6.713   6.953   4.271
 4064SOL    HW113091   6.789   6.915   4.218
 4064SOL    HW213092   6.696   6.895   4.351
 4065SOL     OW13093   0.791   4.102   6.086
 4065SOL    HW113094   0.714   4.157   6.119
 4065SOL    HW213095   0.852   4.160   6.032
 4066SOL     OW13096   4.996   5.385   1.353
 4066SOL    HW113097   4.920   5.385   1.417
 4066SOL    HW213098   4.978   5.322   1.277
 4067SOL     OW13099   5.671   0.749   1.253
 4067SOL    HW113100   5.739   0.819   1.276
 4067SOL    HW213101   5.717   0.665   1.225
 4068SOL     OW13102   5.437   1.138   4.847
 4068SOL    HW113103   5.429   1.039   4.839
 4068SOL    HW213104   5.530   1.166   4.825
 4069SOL     OW13105   6.577   6.073   1.141
 4069SOL    HW113106   6.649   6.142   1.153
 4069SOL    HW213107   6.511   6.081   1.215
 4070SOL     OW13108   6.333   3.807   2.710
 4070SOL    HW113109   6.417   3.839   2.665
 4070SOL    HW213110   6.280   3.752   2.646
 4071SOL     OW13111   2.689   0.675   4.429
 4071SOL    HW113112   2.767   0.626   4.468
 4071SOL    HW213113   2.633   0.712   4.503
 4072SOL     OW13114   0.672   0.068   4.489
 4072SOL    HW113115   0.767   0.054   4.460
 4072SOL    HW213116   0.664   0.049   4.587
 4073SOL     OW13117   2.640   4.952   2.595
 4073SOL    HW113118   2.599   4.937   2.505
 4073SOL    HW213119   2.608   5.039   2.632
 4074SOL     OW13120   0.165   2.987   0.758
 4074SOL    HW113121   0.194   3.073   0.798
 4074SOL    HW213122   0.119   3.004   0.671
 4075SOL     OW13123   5.933   6.869   3.865
 4075SOL    HW113124   5.915   6.918   3.779
 4075SOL    HW213125   6.031   6.873   3.885
 4076SOL     OW13126   1.620   2.742   3.171
 4076SOL    HW113127   1.616   2.841   3.158
 4076SOL    HW213128   1.715   2.712   3.175
 4077SOL     OW13129   3.688   0.749   1.149
 4077SOL    HW113130   3.696   0.719   1.244
 4077SOL    HW213131   3.778   0.777   1.115
 4078SOL     OW13132   4.815   4.550   2.953
 4078SOL    HW113133   4.746   4.510   3.013
 4078SOL    HW213134   4.900   4.497   2.961
 4079SOL     OW13135   5.047   0.791   4.061
 4079SOL    HW113136   5.045   0.706   4.114
 4079SOL    HW213137   5.135   0.837   4.075
 4080SOL     OW13138   3.133   3.996   4.444
 4080SOL    HW113139   3.220   3.946   4.445
 4080SOL    HW213140   3.099   4.006   4.537
 4081SOL     OW13141   2.422   1.287   6.959
 4081SOL    HW113142   2.442   1.203   6.908
 4081SOL    HW213143   2.331   1.320   6.934
 4082SOL     OW13144   1.046   1.370   6.296
 4082SOL    HW113145   0.987   1.300   6.336
 4082SOL    HW213146   0.990   1.447   6.265
 4083SOL     OW13147   6.380   4.989   2.172
 4083SOL    HW113148   6.359   4.892   2.181
 4083SOL    HW213149   6.389   5.029   2.264
 4084SOL     OW13150   4.624   6.645   1.961
 4084SOL    HW113151   4.645   6.580   2.035
 4084SOL    HW213152   4.609   6.594   1.876
 4085SOL     OW13153   2.444   4.405   2.584
 4085SOL    HW113154   2.362   4.442   2.540
 4085SOL    HW213155   2.524   4.458   2.555
 4086SOL     OW13156   5.693   5.302   4.928
 4086SOL    HW113157   5.765   5.240   4.958
 4086SOL    HW213158   5.604   5.260   4.945
 4087SOL     OW13159   2.170   0.780   2.373
 4087SOL    HW113160   2.198   0.876   2.366
 4087SOL    HW213161   2.109   0.769   2.451
 4088SOL     OW13162   6.737   1.835   5.670
 4088SOL    HW113163   6.809   1.777   5.632
 4088SOL    HW213164   6.700   1.793   5.753
 4089SOL     OW13165   1.017   0.421   2.688
 4089SOL    HW113166   1.067   0.496   2.643
 4089SOL    HW213167   1.042   0.418   2.785
 4090SOL     OW13168   3.119   2.484   5.590
 4090SOL    HW113169   3.098   2.451   5.682
 4090SOL    HW213170   3.034   2.499   5.540
 4091SOL     OW13171   3.739   6.073   2.341
 4091SOL    HW113172   3.669   6.099   2.408
 4091SOL    HW213173   3.696   6.025   2.265
 4092SOL     OW13174   5.211   1.845   5.863
 4092SOL    HW113175   5.170   1.759   5.892
 4092SOL    HW213176   5.296   1.827   5.814
 4093SOL     OW13177   5.577   4.033   2.298
 4093SOL    HW113178   5.620   4.122   2.311
 4093SOL    HW213179   5.538   4.002   2.385
 4094SOL     OW13180   6.766   6.980   0.123
 4094SOL    HW113181   6.755   6.971   0.024
 4094SOL    HW213182   6.705   6.917   0.170
 4095SOL     OW13183   1.717   5.123   1.060
 4095SOL    HW113184   1.682   5.072   0.982
 4095SOL    HW213185   1.817   5.122   1.058
 4096SOL     OW13186   0.150   0.167   6.307
 4096SOL    HW113187   0.167   0.092   6.372
 4096SOL    HW213188   0.204   0.152   6.224
 4097SOL     OW13189   1.115   3.813   5.460
 4097SOL    HW113190   1.164   3.899   5.474
 4097SOL    HW213191   1.047   3.825   5.387
 4098SOL     OW13192   1.492   5.804   2.167
 4098SOL    HW113193   1.548   5.861   2.227
 4098SOL    HW213194   1.513   5.826   2.071
 4099SOL     OW13195   0.095   3.122   5.700
 4099SOL    HW113196   0.177   3.121   5.757
 4099SOL    HW213197   0.061   3.029   5.688
 4100SOL     OW13198   2.370   0.565   3.422
 4100SOL    HW113199   2.328   0.547   3.511
 4100SOL    HW213200   2.425   0.486   3.395
 4101SOL     OW13201   6.317   6.251   6.120
 4101SOL    HW113202   6.346   6.170   6.070
 4101SOL    HW213203   6.348   6.333   6.071
 4102SOL     OW13204   2.003   5.139   0.459
 4102SOL    HW113205   2.035   5.229   0.428
 4102SOL    HW213206   1.962   5.148   0.550
 4103SOL     OW13207   2.328   5.081   3.236
 4103SOL    HW113208   2.283   5.097   3.148
 4103SOL    HW213209   2.422   5.114   3.231
 4104SOL     OW13210   1.983   5.915   5.652
 4104SOL    HW113211   1.886   5.939   5.637
 4104SOL    HW213212   1.989   5.825   5.695
 4105SOL     OW13213   3.644   6.787   1.670
 4105SOL    HW113214   3.554   6.791   1.712
 4105SOL    HW213215   3.672   6.879   1.643
 4106SOL     OW13216   1.410   6.981   2.939
 4106SOL    HW113217   1.432   0.036   2.998
 4106SOL    HW213218   1.396   7.012   2.846
 4107SOL     OW13219   1.847   2.061   1.080
 4107SOL    HW113220   1.856   2.068   0.980
 4107SOL    HW213221   1.753   2.081   1.106
 4108SOL     OW13222   0.459   6.367   5.079
 4108SOL    HW113223   0.461   6.420   4.995
 4108SOL    HW213224   0.373   6.315   5.084
 4109SOL     OW13225   4.994   6.675   4.877
 4109SOL    HW113226   4.981   6.773   4.868
 4109SOL    HW213227   5.073   6.646   4.824
 4110SOL     OW13228   4.009   2.989   0.618
 4110SOL    HW113229   4.021   2.956   0.712
 4110SOL    HW213230   4.072   2.942   0.557
 4111SOL     OW13231   5.895   4.954   3.462
 4111SOL    HW113232   5.810   4.940   3.412
 4111SOL    HW213233   5.932   4.866   3.490
 4112SOL     OW13234   4.579   5.685   5.128
 4112SOL    HW113235   4.534   5.701   5.216
 4112SOL    HW213236   4.657   5.747   5.119
 4113SOL     OW13237   4.557   5.501   5.436
 4113SOL    HW113238   4.645   5.537   5.405
 4113SOL    HW213239   4.501   5.576   5.472
 4114SOL     OW13240   6.815   1.150   2.876
 4114SOL    HW113241   6.878   1.073   2.865
 4114SOL    HW213242   6.866   1.231   2.903
 4115SOL     OW13243   3.879   6.305   4.278
 4115SOL    HW113244   3.933   6.265   4.351
 4115SOL    HW213245   3.933   6.306   4.193
 4116SOL     OW13246   6.380   3.432   3.949
 4116SOL    HW113247   6.388   3.442   4.048
 4116SOL    HW213248   6.451   3.369   3.916
 4117SOL     OW13249   0.144   1.931   2.775
 4117SOL    HW113250   0.192   1.903   2.858
 4117SOL    HW213251   0.164   1.865   2.702
 4118SOL     OW13252   1.178   0.357   1.821
 4118SOL    HW113253   1.239   0.281   1.797
 4118SOL    HW213254   1.150   0.405   1.737
 4119SOL     OW13255   6.817   0.858   5.377
 4119SOL    HW113256   6.728   0.858   5.422
 4119SOL    HW213257   6.856   0.950   5.379
 4120SOL     OW13258   1.624   0.749   6.177
 4120SOL    HW113259   1.579   0.772   6.090
 4120SOL    HW213260   1.706   0.807   6.188
 4121SOL     OW13261   6.722   1.119   1.409
 4121SOL    HW113262   6.644   1.079   1.457
 4121SOL    HW213263   6.741   1.209   1.448
 4122SOL     OW13264   0.707   4.806   3.728
 4122SOL    HW113265   0.674   4.725   3.776
 4122SOL    HW213266   0.687   4.888   3.783
 4123SOL     OW13267   5.704   4.302   1.580
 4123SOL    HW113268   5.801   4.322   1.570
 4123SOL    HW213269   5.660   4.304   1.490
 4124SOL     OW13270   6.211   6.759   0.081
 4124SOL    HW113271   6.244   6.738   0.173
 4124SOL    HW213272   6.289   6.774   0.020
 4125SOL     OW13273   6.918   2.405   6.758
 4125SOL    HW113274   6.966   2.319   6.739
 4125SOL    HW213275   6.978   2.481   6.736
 4126SOL     OW13276   1.375   4.163   4.060
 4126SOL    HW113277   1.304   4.151   4.129
 4126SOL    HW213278   1.412   4.074   4.034
 4127SOL     OW13279   4.684   2.255   3.989
 4127SOL    HW113280   4.589   2.255   4.021
 4127SOL    HW213281   4.687   2.287   3.894
 4128SOL     OW13282   6.500   2.074   6.148
 4128SOL    HW113283   6.481   2.163   6.188
 4128SOL    HW213284   6.432   2.054   6.078
 4129SOL     OW13285   3.233   0.523   1.714
 4129SOL    HW113286   3.270   0.614   1.736
 4129SOL    HW213287   3.265   0.495   1.623
 4130SOL     OW13288   5.217   2.681   0.336
 4130SOL    HW113289   5.303   2.647   0.374
 4130SOL    HW213290   5.169   2.606   0.289
 4131SOL     OW13291   4.931   6.173   3.674
 4131SOL    HW113292   4.871   6.094   3.690
 4131SOL    HW213293   4.993   6.153   3.598
 4132SOL     OW13294   6.255   4.035   2.810
 4132SOL    HW113295   6.271   3.946   2.765
 4132SOL    HW213296   6.339   4.065   2.855
 4133SOL     OW13297   5.319   6.549   3.619
 4133SOL    HW113298   5.264   6.550   3.702
 4133SOL    HW213299   5.353   6.456   3.602
 4134SOL     OW13300   1.132   3.218   1.396
 4134SOL    HW113301   1.079   3.141   1.359
 4134SOL    HW213302   1.070   3.292   1.423
 4135SOL     OW13303   6.111   1.368   0.813
 4135SOL    HW113304   6.047   1.403   0.745
 4135SOL    HW213305   6.064   1.356   0.900
 4136SOL     OW13306   0.843   5.057   0.251
 4136SOL    HW113307   0.875   4.999   0.177
 4136SOL    HW213308   0.743   5.064   0.248
 4137SOL     OW13309   0.086   2.643   5.810
 4137SOL    HW113310   0.074   2.580   5.733
 4137SOL    HW213311   0.090   2.591   5.895
 4138SOL     OW13312   5.685   6.804   6.064
 4138SOL    HW113313   5.744   6.725   6.051
 4138SOL    HW213314   5.740   6.885   6.084
 4139SOL     OW13315   1.915   4.308   2.394
 4139SOL    HW113316   1.856   4.285   2.316
 4139SOL    HW213317   1.871   4.380   2.449
 4140SOL     OW13318   2.295   6.932   7.005
 4140SOL    HW113319   2.373   6.961   0.039
 4140SOL    HW213320   2.245   6.860   0.031
 4141SOL     OW13321   5.198   0.268   5.841
 4141SOL    HW113322   5.118   0.227   5.885
 4141SOL    HW213323   5.172   0.355   5.799
 4142SOL     OW13324   0.160   6.709   1.530
 4142SOL    HW113325   0.259   6.699   1.525
 4142SOL    HW213326   0.119   6.685   1.442
 4143SOL     OW13327   6.771   3.457   6.767
 4143SOL    HW113328   6.698   3.434   6.703
 4143SOL    HW213329   6.812   3.544   6.741
 4144SOL     OW13330   4.238   0.393   1.568
 4144SOL    HW113331   4.195   0.436   1.489
 4144SOL    HW213332   4.208   0.439   1.652
 4145SOL     OW13333   5.285   0.753   1.015
 4145SOL    HW113334   5.298   0.813   1.095
 4145SOL    HW213335   5.278   0.658   1.046
 4146SOL     OW13336   3.961   6.785   2.400
 4146SOL    HW113337   3.951   6.784   2.499
 4146SOL    HW213338   3.980   6.692   2.367
 4147SOL     OW13339   4.577   4.392   6.512
 4147SOL    HW113340   4.609   4.306   6.553
 4147SOL    HW213341   4.623   4.469   6.556
 4148SOL     OW13342   3.113   1.279   5.930
 4148SOL    HW113343   3.078   1.366   5.967
 4148SOL    HW213344   3.206   1.292   5.896
 4149SOL     OW13345   1.735   3.151   0.062
 4149SOL    HW113346   1.748   3.243   0.098
 4149SOL    HW213347   1.790   3.086   0.115
 4150SOL     OW13348   6.390   1.273   0.840
 4150SOL    HW113349   6.320   1.307   0.777
 4150SOL    HW213350   6.380   1.319   0.928
 4151SOL     OW13351   2.901   5.844   4.828
 4151SOL    HW113352   2.936   5.767   4.880
 4151SOL    HW213353   2.805   5.859   4.851
 4152SOL     OW13354   2.737   4.216   1.357
 4152SOL    HW113355   2.794   4.185   1.433
 4152SOL    HW213356   2.777   4.186   1.270
 4153SOL     OW13357   6.889   5.937   1.328
 4153SOL    HW113358   6.980   5.896   1.327
 4153SOL    HW213359   6.826   5.880   1.275
 4154SOL     OW13360   0.335   6.259   4.750
 4154SOL    HW113361   0.419   6.255   4.696
 4154SOL    HW213362   0.299   6.166   4.763
 4155SOL     OW13363   5.775   1.185   1.908
 4155SOL    HW113364   5.811   1.098   1.875
 4155SOL    HW213365   5.849   1.236   1.953
 4156SOL     OW13366   0.567   4.971   5.683
 4156SOL    HW113367   0.629   4.926   5.747
 4156SOL    HW213368   0.607   4.969   5.591
 4157SOL     OW13369   5.493   6.144   0.933
 4157SOL    HW113370   5.412   6.154   0.990
 4157SOL    HW213371   5.467   6.109   0.843
 4158SOL     OW13372   6.490   2.295   0.203
 4158SOL    HW113373   6.513   2.201   0.229
 4158SOL    HW213374   6.573   2.343   0.173
 4159SOL     OW13375   3.201   0.262   4.580
 4159SOL    HW113376   3.248   0.185   4.537
 4159SOL    HW213377   3.133   0.299   4.516
 4160SOL     OW13378   1.782   6.799   5.960
 4160SOL    HW113379   1.774   6.716   5.905
 4160SOL    HW213380   1.858   6.788   6.024
 4161SOL     OW13381   3.242   2.975   3.818
 4161SOL    HW113382   3.166   3.040   3.830
 4161SOL    HW213383   3.257   2.926   3.904
 4162SOL     OW13384   5.063   5.915   1.506
 4162SOL    HW113385   5.101   6.001   1.540
 4162SOL    HW213386   5.044   5.923   1.408
 4163SOL     OW13387   3.544   5.474   1.258
 4163SOL    HW113388   3.533   5.392   1.203
 4163SOL    HW213389   3.600   5.453   1.339
 4164SOL     OW13390   5.427   1.915   6.812
 4164SOL    HW113391   5.456   2.011   6.813
 4164SOL    HW213392   5.364   1.899   6.889
 4165SOL     OW13393   3.513   1.805   3.781
 4165SOL    HW113394   3.517   1.712   3.747
 4165SOL    HW213395   3.558   1.810   3.870
 4166SOL     OW13396   6.231   2.348   2.565
 4166SOL    HW113397   6.237   2.300   2.653
 4166SOL    HW213398   6.161   2.306   2.509
 4167SOL     OW13399   4.052   6.179   4.783
 4167SOL    HW113400   4.063   6.253   4.848
 4167SOL    HW213401   4.088   6.094   4.821
 4168SOL     OW13402   4.954   3.820   6.421
 4168SOL    HW113403   4.887   3.798   6.350
 4168SOL    HW213404   4.915   3.886   6.485
 4169SOL     OW13405   5.068   3.911   6.728
 4169SOL    HW113406   5.025   3.998   6.706
 4169SOL    HW213407   4.999   3.848   6.766
 4170SOL     OW13408   1.463   3.478   5.068
 4170SOL    HW113409   1.394   3.504   4.999
 4170SOL    HW213410   1.444   3.385   5.100
 4171SOL     OW13411   0.487   0.995   6.308
 4171SOL    HW113412   0.458   0.907   6.271
 4171SOL    HW213413   0.560   0.980   6.376
 4172SOL     OW13414   2.781   2.788   6.768
 4172SOL    HW113415   2.819   2.747   6.851
 4172SOL    HW213416   2.780   2.888   6.777
 4173SOL     OW13417   5.188   0.942   5.038
 4173SOL    HW113418   5.155   1.010   4.973
 4173SOL    HW213419   5.147   0.959   5.128
 4174SOL     OW13420   3.168   6.778   3.729
 4174SOL    HW113421   3.231   6.710   3.766
 4174SOL    HW213422   3.174   6.778   3.629
 4175SOL     OW13423   1.098   4.859   6.610
 4175SOL    HW113424   1.101   4.954   6.640
 4175SOL    HW213425   1.152   4.803   6.672
 4176SOL     OW13426   4.557   0.293   5.508
 4176SOL    HW113427   4.501   0.211   5.518
 4176SOL    HW213428   4.539   0.335   5.418
 4177SOL     OW13429   4.260   5.648   3.533
 4177SOL    HW113430   4.254   5.725   3.469
 4177SOL    HW213431   4.170   5.632   3.574
 4178SOL     OW13432   3.989   6.450   1.124
 4178SOL    HW113433   3.896   6.463   1.090
 4178SOL    HW213434   4.044   6.530   1.100
 4179SOL     OW13435   4.297   2.328   6.535
 4179SOL    HW113436   4.230   2.398   6.562
 4179SOL    HW213437   4.385   2.371   6.518
 4180SOL     OW13438   3.601   4.170   7.022
 4180SOL    HW113439   3.557   4.085   6.995
 4180SOL    HW213440   3.638   4.216   6.941
 4181SOL     OW13441   5.595   6.201   5.389
 4181SOL    HW113442   5.649   6.117   5.394
 4181SOL    HW213443   5.502   6.179   5.359
 4182SOL     OW13444   0.014   5.656   5.470
 4182SOL    HW113445   0.108   5.678   5.495
 4182SOL    HW213446   7.022   5.557   5.476
 4183SOL     OW13447   5.075   2.462   0.232
 4183SOL    HW113448   4.997   2.523   0.221
 4183SOL    HW213449   5.049   2.384   0.288
 4184SOL     OW13450   3.274   5.531   3.538
 4184SOL    HW113451   3.308   5.595   3.608
 4184SOL    HW213452   3.249   5.445   3.582
 4185SOL     OW13453   4.717   4.123   3.131
 4185SOL    HW113454   4.716   4.187   3.054
 4185SOL    HW213455   4.718   4.029   3.096
 4186SOL     OW13456   1.599   5.052   6.745
 4186SOL    HW113457   1.543   4.971   6.729
 4186SOL    HW213458   1.662   5.035   6.821
 4187SOL     OW13459   2.515   4.330   6.323
 4187SOL    HW113460   2.501   4.232   6.341
 4187SOL    HW213461   2.478   4.353   6.233
 4188SOL     OW13462   5.370   0.641   6.492
 4188SOL    HW113463   5.306   0.569   6.518
 4188SOL    HW213464   5.331   0.696   6.418
 4189SOL     OW13465   4.948   5.220   2.669
 4189SOL    HW113466   4.965   5.307   2.622
 4189SOL    HW213467   4.958   5.233   2.767
 4190SOL     OW13468   6.639   6.475   1.912
 4190SOL    HW113469   6.737   6.482   1.929
 4190SOL    HW213470   6.622   6.484   1.813
 4191SOL     OW13471   4.707   2.437   6.497
 4191SOL    HW113472   4.623   2.458   6.448
 4191SOL    HW213473   4.697   2.350   6.545
 4192SOL     OW13474   1.666   3.735   6.086
 4192SOL    HW113475   1.716   3.661   6.041
 4192SOL    HW213476   1.569   3.712   6.090
 4193SOL     OW13477   6.383   0.072   1.356
 4193SOL    HW113478   6.396   0.017   1.273
 4193SOL    HW213479   6.449   0.046   1.425
 4194SOL     OW13480   5.630   0.696   6.604
 4194SOL    HW113481   5.550   0.655   6.562
 4194SOL    HW213482   5.712   0.668   6.554
 4195SOL     OW13483   2.093   6.002   0.443
 4195SOL    HW113484   2.026   6.053   0.390
 4195SOL    HW213485   2.116   6.053   0.525
 4196SOL     OW13486   0.087   3.009   3.416
 4196SOL    HW113487   0.133   2.950   3.349
 4196SOL    HW213488   0.107   2.976   3.508
 4197SOL     OW13489   4.017   0.817   0.150
 4197SOL    HW113490   4.035   0.738   0.208
 4197SOL    HW213491   3.956   0.881   0.198
 4198SOL     OW13492   6.987   2.319   1.706
 4198SOL    HW113493   6.998   2.408   1.660
 4198SOL    HW213494   0.047   2.299   1.759
 4199SOL     OW13495   0.826   3.775   6.812
 4199SOL    HW113496   0.782   3.820   6.733
 4199SOL    HW213497   0.892   3.838   6.853
 4200SOL     OW13498   5.399   1.752   3.290
 4200SOL    HW113499   5.471   1.821   3.284
 4200SOL    HW213500   5.337   1.761   3.212
 4201SOL     OW13501   5.375   0.224   4.380
 4201SOL    HW113502   5.287   0.270   4.366
 4201SOL    HW213503   5.366   0.154   4.450
 4202SOL     OW13504   4.479   4.011   1.686
 4202SOL    HW113505   4.431   4.067   1.753
 4202SOL    HW213506   4.415   3.950   1.640
 4203SOL     OW13507   6.160   3.946   5.357
 4203SOL    HW113508   6.114   3.995   5.432
 4203SOL    HW213509   6.166   4.006   5.277
 4204SOL     OW13510   2.161   4.353   6.393
 4204SOL    HW113511   2.155   4.308   6.482
 4204SOL    HW213512   2.253   4.392   6.381
 4205SOL     OW13513   5.307   6.244   5.783
 4205SOL    HW113514   5.285   6.236   5.881
 4205SOL    HW213515   5.383   6.308   5.771
 4206SOL     OW13516   2.614   2.462   4.434
 4206SOL    HW113517   2.625   2.426   4.341
 4206SOL    HW213518   2.542   2.532   4.434
 4207SOL     OW13519   2.092   2.755   1.393
 4207SOL    HW113520   2.131   2.663   1.384
 4207SOL    HW213521   1.992   2.748   1.391
 4208SOL     OW13522   2.810   2.319   3.432
 4208SOL    HW113523   2.895   2.305   3.484
 4208SOL    HW213524   2.732   2.320   3.494
 4209SOL     OW13525   6.393   5.705   2.947
 4209SOL    HW113526   6.441   5.765   2.882
 4209SOL    HW213527   6.324   5.757   2.996
 4210SOL     OW13528   2.990   4.558   5.695
 4210SOL    HW113529   2.986   4.658   5.696
 4210SOL    HW213530   2.900   4.521   5.720
 4211SOL     OW13531   4.385   2.692   5.728
 4211SOL    HW113532   4.362   2.598   5.752
 4211SOL    HW213533   4.424   2.738   5.808
 4212SOL     OW13534   0.759   2.706   3.112
 4212SOL    HW113535   0.838   2.646   3.121
 4212SOL    HW213536   0.679   2.653   3.085
 4213SOL     OW13537   3.749   0.669   3.653
 4213SOL    HW113538   3.742   0.768   3.635
 4213SOL    HW213539   3.710   0.649   3.743
 4214SOL     OW13540   6.741   6.320   3.795
 4214SOL    HW113541   6.792   6.235   3.801
 4214SOL    HW213542   6.724   6.342   3.698
 4215SOL     OW13543   6.343   0.003   5.461
 4215SOL    HW113544   6.301   6.940   5.494
 4215SOL    HW213545   6.353   0.067   5.538
 4216SOL     OW13546   2.382   5.400   2.136
 4216SOL    HW113547   2.456   5.465   2.123
 4216SOL    HW213548   2.321   5.432   2.208
 4217SOL     OW13549   1.120   0.461   2.975
 4217SOL    HW113550   1.025   0.430   2.978
 4217SOL    HW213551   1.160   0.457   3.066
 4218SOL     OW13552   3.371   0.993   1.986
 4218SOL    HW113553   3.399   1.049   1.908
 4218SOL    HW213554   3.402   1.037   2.071
 4219SOL     OW13555   3.151   5.136   3.067
 4219SOL    HW113556   3.127   5.228   3.035
 4219SOL    HW213557   3.104   5.118   3.153
 4220SOL     OW13558   6.107   2.388   1.494
 4220SOL    HW113559   6.120   2.340   1.580
 4220SOL    HW213560   6.010   2.393   1.473
 4221SOL     OW13561   0.560   6.584   0.711
 4221SOL    HW113562   0.597   6.498   0.676
 4221SOL    HW213563   0.471   6.602   0.669
 4222SOL     OW13564   4.939   3.364   4.601
 4222SOL    HW113565   4.956   3.457   4.633
 4222SOL    HW213566   4.939   3.362   4.501
 4223SOL     OW13567   3.429   4.077   2.838
 4223SOL    HW113568   3.404   4.073   2.935
 4223SOL    HW213569   3.346   4.075   2.782
 4224SOL     OW13570   4.913   4.528   4.674
 4224SOL    HW113571   4.886   4.433   4.688
 4224SOL    HW213572   4.899   4.580   4.759
 4225SOL     OW13573   0.452   1.702   6.342
 4225SOL    HW113574   0.493   1.610   6.340
 4225SOL    HW213575   0.423   1.727   6.250
 4226SOL     OW13576   5.996   4.514   4.526
 4226SOL    HW113577   6.036   4.562   4.448
 4226SOL    HW213578   5.969   4.421   4.498
 4227SOL     OW13579   5.401   5.460   1.038
 4227SOL    HW113580   5.330   5.421   0.980
 4227SOL    HW213581   5.360   5.524   1.103
 4228SOL     OW13582   1.468   4.386   3.600
 4228SOL    HW113583   1.495   4.480   3.580
 4228SOL    HW213584   1.520   4.324   3.541
 4229SOL     OW13585   6.298   6.199   5.429
 4229SOL    HW113586   6.233   6.268   5.398
 4229SOL    HW213587   6.253   6.109   5.430
 4230SOL     OW13588   0.363   0.832   2.012
 4230SOL    HW113589   0.451   0.830   2.060
 4230SOL    HW213590   0.377   0.808   1.916
 4231SOL     OW13591   0.496   0.493   6.374
 4231SOL    HW113592   0.401   0.460   6.373
 4231SOL    HW213593   0.541   0.463   6.458
 4232SOL     OW13594   1.717   4.539   3.591
 4232SOL    HW113595   1.741   4.588   3.507
 4232SOL    HW213596   1.785   4.469   3.611
 4233SOL     OW13597   4.258   4.893   2.431
 4233SOL    HW113598   4.263   4.978   2.379
 4233SOL    HW213599   4.350   4.866   2.460
 4234SOL     OW13600   3.390   5.425   6.043
 4234SOL    HW113601   3.311   5.402   5.986
 4234SOL    HW213602   3.465   5.455   5.985
 4235SOL     OW13603   0.096   6.222   6.800
 4235SOL    HW113604   0.091   6.125   6.825
 4235SOL    HW213605   0.067   6.233   6.705
 4236SOL     OW13606   0.641   5.348   3.183
 4236SOL    HW113607   0.729   5.308   3.211
 4236SOL    HW213608   0.586   5.368   3.264
 4237SOL     OW13609   6.513   4.615   3.545
 4237SOL    HW113610   6.414   4.622   3.539
 4237SOL    HW213611   6.543   4.634   3.638
 4238SOL     OW13612   3.139   5.724   2.925
 4238SOL    HW113613   3.119   5.714   2.828
 4238SOL    HW213614   3.114   5.640   2.973
 4239SOL     OW13615   3.718   0.977   3.258
 4239SOL    HW113616   3.643   1.012   3.202
 4239SOL    HW213617   3.745   0.886   3.224
 4240SOL     OW13618   5.762   6.784   2.353
 4240SOL    HW113619   5.695   6.814   2.422
 4240SOL    HW213620   5.781   6.686   2.367
 4241SOL     OW13621   6.407   4.745   0.193
 4241SOL    HW113622   6.372   4.654   0.215
 4241SOL    HW213623   6.496   4.737   0.148
 4242SOL     OW13624   3.304   1.930   3.341
 4242SOL    HW113625   3.213   1.908   3.305
 4242SOL    HW213626   3.297   1.949   3.439
 4243SOL     OW13627   3.584   2.004   2.910
 4243SOL    HW113628   3.651   1.993   2.983
 4243SOL    HW213629   3.630   2.037   2.827
 4244SOL     OW13630   2.929   3.306   4.881
 4244SOL    HW113631   2.917   3.398   4.918
 4244SOL    HW213632   2.925   3.309   4.781
 4245SOL     OW13633   6.617   0.761   6.255
 4245SOL    HW113634   6.642   0.801   6.167
 4245SOL    HW213635   6.523   0.729   6.252
 4246SOL     OW13636   0.077   4.957   6.028
 4246SOL    HW113637   0.160   4.907   6.004
 4246SOL    HW213638   0.040   5.001   5.946
 4247SOL     OW13639   0.043   5.414   5.176
 4247SOL    HW113640   0.029   5.473   5.097
 4247SOL    HW213641   0.133   5.432   5.215
 4248SOL     OW13642   2.224   3.375   6.397
 4248SOL    HW113643   2.277   3.449   6.438
 4248SOL    HW213644   2.196   3.311   6.469
 4249SOL     OW13645   5.650   3.242   6.191
 4249SOL    HW113646   5.707   3.184   6.132
 4249SOL    HW213647   5.600   3.184   6.256
 4250SOL     OW13648   6.825   4.070   3.571
 4250SOL    HW113649   6.852   4.140   3.638
 4250SOL    HW213650   6.739   4.028   3.599
 4251SOL     OW13651   6.026   4.887   6.147
 4251SOL    HW113652   5.998   4.791   6.143
 4251SOL    HW213653   5.971   4.940   6.083
 4252SOL     OW13654   6.582   4.835   5.169
 4252SOL    HW113655   6.678   4.813   5.158
 4252SOL    HW213656   6.563   4.925   5.129
 4253SOL     OW13657   3.374   6.149   3.139
 4253SOL    HW113658   3.448   6.128   3.203
 4253SOL    HW213659   3.319   6.067   3.122
 4254SOL     OW13660   2.810   3.592   1.874
 4254SOL    HW113661   2.743   3.536   1.825
 4254SOL    HW213662   2.852   3.657   1.811
 4255SOL     OW13663   0.542   2.212   4.360
 4255SOL    HW113664   0.459   2.264   4.343
 4255SOL    HW213665   0.561   2.211   4.458
 4256SOL     OW13666   2.001   1.241   2.227
 4256SOL    HW113667   1.921   1.296   2.253
 4256SOL    HW213668   2.054   1.291   2.159
 4257SOL     OW13669   4.228   2.189   5.386
 4257SOL    HW113670   4.307   2.229   5.433
 4257SOL    HW213671   4.259   2.121   5.320
 4258SOL     OW13672   5.334   5.999   2.401
 4258SOL    HW113673   5.326   5.922   2.337
 4258SOL    HW213674   5.243   6.030   2.427
 4259SOL     OW13675   2.428   3.541   1.329
 4259SOL    HW113676   2.388   3.604   1.263
 4259SOL    HW213677   2.422   3.581   1.421
 4260SOL     OW13678   3.784   5.896   4.539
 4260SOL    HW113679   3.771   5.954   4.619
 4260SOL    HW213680   3.777   5.952   4.456
 4261SOL     OW13681   0.775   1.177   3.100
 4261SOL    HW113682   0.812   1.092   3.063
 4261SOL    HW213683   0.832   1.207   3.177
 4262SOL     OW13684   0.741   6.288   5.994
 4262SOL    HW113685   0.832   6.326   6.010
 4262SOL    HW213686   0.745   6.226   5.915
 4263SOL     OW13687   4.264   5.094   6.632
 4263SOL    HW113688   4.195   5.081   6.704
 4263SOL    HW213689   4.312   5.180   6.647
 4264SOL     OW13690   0.769   0.369   1.698
 4264SOL    HW113691   0.761   0.379   1.797
 4264SOL    HW213692   0.681   0.341   1.660
 4265SOL     OW13693   1.573   1.573   0.439
 4265SOL    HW113694   1.633   1.633   0.386
 4265SOL    HW213695   1.614   1.481   0.443
 4266SOL     OW13696   3.532   4.487   0.874
 4266SOL    HW113697   3.578   4.545   0.807
 4266SOL    HW213698   3.441   4.523   0.893
 4267SOL     OW13699   1.457   4.098   5.618
 4267SOL    HW113700   1.519   4.060   5.686
 4267SOL    HW213701   1.484   4.192   5.597
 4268SOL     OW13702   1.723   1.186   1.592
 4268SOL    HW113703   1.764   1.100   1.563
 4268SOL    HW213704   1.679   1.174   1.681
 4269SOL     OW13705   2.829   3.722   0.782
 4269SOL    HW113706   2.887   3.672   0.718
 4269SOL    HW213707   2.876   3.729   0.870
 4270SOL     OW13708   3.862   3.036   6.281
 4270SOL    HW113709   3.939   3.062   6.339
 4270SOL    HW213710   3.850   2.937   6.284
 4271SOL     OW13711   1.373   0.941   0.955
 4271SOL    HW113712   1.413   0.854   0.925
 4271SOL    HW213713   1.377   0.947   1.054
 4272SOL     OW13714   0.140   3.793   3.863
 4272SOL    HW113715   0.116   3.755   3.952
 4272SOL    HW213716   0.234   3.768   3.840
 4273SOL     OW13717   5.963   0.071   3.652
 4273SOL    HW113718   6.030   0.145   3.663
 4273SOL    HW213719   5.950   0.052   3.555
 4274SOL     OW13720   2.317   0.415   4.188
 4274SOL    HW113721   2.373   0.490   4.221
 4274SOL    HW213722   2.376   0.343   4.152
 4275SOL     OW13723   0.571   0.381   5.409
 4275SOL    HW113724   0.527   0.319   5.474
 4275SOL    HW213725   0.645   0.430   5.455
 4276SOL     OW13726   2.184   4.339   2.389
 4276SOL    HW113727   2.213   4.288   2.470
 4276SOL    HW213728   2.090   4.313   2.365
 4277SOL     OW13729   0.618   5.433   5.903
 4277SOL    HW113730   0.605   5.350   5.848
 4277SOL    HW213731   0.699   5.482   5.871
 4278SOL     OW13732   1.611   6.248   6.244
 4278SOL    HW113733   1.527   6.300   6.230
 4278SOL    HW213734   1.590   6.150   6.241
 4279SOL     OW13735   2.905   6.061   3.816
 4279SOL    HW113736   2.969   6.111   3.874
 4279SOL    HW213737   2.818   6.049   3.866
 4280SOL     OW13738   4.872   2.575   3.605
 4280SOL    HW113739   4.942   2.588   3.535
 4280SOL    HW213740   4.895   2.628   3.686
 4281SOL     OW13741   2.263   4.186   5.263
 4281SOL    HW113742   2.241   4.157   5.357
 4281SOL    HW213743   2.296   4.107   5.211
 4282SOL     OW13744   0.286   2.371   0.954
 4282SOL    HW113745   0.228   2.339   1.029
 4282SOL    HW213746   0.349   2.298   0.927
 4283SOL     OW13747   2.229   1.106   4.352
 4283SOL    HW113748   2.314   1.056   4.341
 4283SOL    HW213749   2.156   1.061   4.301
 4284SOL     OW13750   6.955   1.885   3.042
 4284SOL    HW113751   6.926   1.948   2.970
 4284SOL    HW213752   6.968   1.936   3.127
 4285SOL     OW13753   1.179   5.983   4.750
 4285SOL    HW113754   1.159   5.909   4.686
 4285SOL    HW213755   1.223   5.945   4.832
 4286SOL     OW13756   4.279   5.538   6.367
 4286SOL    HW113757   4.322   5.450   6.387
 4286SOL    HW213758   4.345   5.611   6.384
 4287SOL     OW13759   3.906   5.659   5.477
 4287SOL    HW113760   3.891   5.747   5.431
 4287SOL    HW213761   3.960   5.599   5.417
 4288SOL     OW13762   1.063   5.822   3.368
 4288SOL    HW113763   1.051   5.907   3.317
 4288SOL    HW213764   1.142   5.773   3.331
 4289SOL     OW13765   7.005   3.951   0.150
 4289SOL    HW113766   0.080   3.975   0.149
 4289SOL    HW213767   6.956   4.008   0.084
 4290SOL     OW13768   2.081   1.665   3.379
 4290SOL    HW113769   2.132   1.739   3.336
 4290SOL    HW213770   2.145   1.601   3.422
 4291SOL     OW13771   6.891   4.433   1.341
 4291SOL    HW113772   6.810   4.423   1.399
 4291SOL    HW213773   6.878   4.510   1.279
 4292SOL     OW13774   5.842   5.586   5.805
 4292SOL    HW113775   5.894   5.565   5.887
 4292SOL    HW213776   5.900   5.574   5.724
 4293SOL     OW13777   0.318   2.154   6.753
 4293SOL    HW113778   0.287   2.127   6.844
 4293SOL    HW213779   0.317   2.074   6.693
 4294SOL     OW13780   4.931   1.519   6.238
 4294SOL    HW113781   4.892   1.580   6.169
 4294SOL    HW213782   5.027   1.501   6.216
 4295SOL     OW13783   3.663   6.202   5.652
 4295SOL    HW113784   3.749   6.193   5.703
 4295SOL    HW213785   3.600   6.260   5.704
 4296SOL     OW13786   2.576   1.502   2.739
 4296SOL    HW113787   2.673   1.508   2.762
 4296SOL    HW213788   2.562   1.524   2.643
 4297SOL     OW13789   5.454   0.149   0.402
 4297SOL    HW113790   5.529   0.092   0.367
 4297SOL    HW213791   5.490   0.237   0.433
 4298SOL     OW13792   2.106   5.358   1.652
 4298SOL    HW113793   2.016   5.402   1.652
 4298SOL    HW213794   2.103   5.276   1.710
 4299SOL     OW13795   1.345   5.110   5.193
 4299SOL    HW113796   1.353   5.141   5.287
 4299SOL    HW213797   1.257   5.064   5.180
 4300SOL     OW13798   6.251   6.574   5.384
 4300SOL    HW113799   6.192   6.494   5.398
 4300SOL    HW213800   6.207   6.655   5.422
 4301SOL     OW13801   3.193   0.861   0.548
 4301SOL    HW113802   3.106   0.826   0.514
 4301SOL    HW213803   3.220   0.940   0.494
 4302SOL     OW13804   0.918   0.418   6.682
 4302SOL    HW113805   0.997   0.363   6.708
 4302SOL    HW213806   0.948   0.496   6.627
 4303SOL     OW13807   6.622   4.364   1.484
 4303SOL    HW113808   6.589   4.371   1.578
 4303SOL    HW213809   6.576   4.287   1.438
 4304SOL     OW13810   3.229   3.501   5.384
 4304SOL    HW113811   3.306   3.463   5.435
 4304SOL    HW213812   3.217   3.449   5.299
 4305SOL     OW13813   6.889   1.143   5.051
 4305SOL    HW113814   6.870   1.215   5.118
 4305SOL    HW213815   6.988   1.134   5.039
 4306SOL     OW13816   6.052   5.589   5.582
 4306SOL    HW113817   6.035   5.672   5.636
 4306SOL    HW213818   6.018   5.602   5.489
 4307SOL     OW13819   5.307   3.343   0.089
 4307SOL    HW113820   5.282   3.432   0.051
 4307SOL    HW213821   5.301   3.347   0.189
 4308SOL     OW13822   3.373   6.699   5.316
 4308SOL    HW113823   3.327   6.767   5.259
 4308SOL    HW213824   3.361   6.608   5.277
 4309SOL     OW13825   1.626   0.679   1.444
 4309SOL    HW113826   1.643   0.750   1.512
 4309SOL    HW213827   1.610   0.592   1.491
 4310SOL     OW13828   1.570   0.549   2.830
 4310SOL    HW113829   1.496   0.616   2.822
 4310SOL    HW213830   1.572   0.513   2.923
 4311SOL     OW13831   1.399   5.387   4.541
 4311SOL    HW113832   1.481   5.329   4.548
 4311SOL    HW213833   1.331   5.355   4.606
 4312SOL     OW13834   1.551   5.872   1.355
 4312SOL    HW113835   1.587   5.795   1.302
 4312SOL    HW213836   1.573   5.958   1.308
 4313SOL     OW13837   5.206   0.905   1.321
 4313SOL    HW113838   5.130   0.890   1.384
 4313SOL    HW213839   5.273   0.831   1.330
 4314SOL     OW13840   5.962   3.240   1.318
 4314SOL    HW113841   5.895   3.180   1.274
 4314SOL    HW213842   5.943   3.245   1.416
 4315SOL     OW13843   2.554   1.475   2.470
 4315SOL    HW113844   2.484   1.429   2.416
 4315SOL    HW213845   2.633   1.414   2.481
 4316SOL     OW13846   0.744   0.983   2.556
 4316SOL    HW113847   0.835   0.940   2.557
 4316SOL    HW213848   0.749   1.072   2.601
 4317SOL     OW13849   3.883   0.464   3.029
 4317SOL    HW113850   3.908   0.538   3.093
 4317SOL    HW213851   3.825   0.501   2.957
 4318SOL     OW13852   6.517   2.613   5.209
 4318SOL    HW113853   6.432   2.658   5.235
 4318SOL    HW213854   6.591   2.680   5.208
 4319SOL     OW13855   3.034   2.568   6.112
 4319SOL    HW113856   2.964   2.639   6.113
 4319SOL    HW213857   3.097   2.585   6.036
 4320SOL     OW13858   0.207   5.919   3.410
 4320SOL    HW113859   0.130   5.867   3.372
 4320SOL    HW213860   0.216   6.006   3.362
 4321SOL     OW13861   0.658   0.661   4.793
 4321SOL    HW113862   0.638   0.759   4.801
 4321SOL    HW213863   0.712   0.645   4.710
 4322SOL     OW13864   5.694   1.280   1.088
 4322SOL    HW113865   5.641   1.273   1.003
 4322SOL    HW213866   5.631   1.294   1.165
 4323SOL     OW13867   0.115   1.882   4.043
 4323SOL    HW113868   0.136   1.886   3.945
 4323SOL    HW213869   0.025   1.841   4.056
 4324SOL     OW13870   5.662   2.736   5.713
 4324SOL    HW113871   5.654   2.759   5.810
 4324SOL    HW213872   5.577   2.693   5.682
 4325SOL     OW13873   1.618   2.368   6.592
 4325SOL    HW113874   1.529   2.407   6.569
 4325SOL    HW213875   1.675   2.439   6.633
 4326SOL     OW13876   6.388   2.587   4.858
 4326SOL    HW113877   6.418   2.672   4.813
 4326SOL    HW213878   6.402   2.596   4.957
 4327SOL     OW13879   4.741   1.213   2.903
 4327SOL    HW113880   4.734   1.301   2.855
 4327SOL    HW213881   4.832   1.174   2.887
 4328SOL     OW13882   5.797   5.042   0.120
 4328SOL    HW113883   5.699   5.025   0.133
 4328SOL    HW213884   5.821   5.130   0.160
 4329SOL     OW13885   5.230   2.308   0.031
 4329SOL    HW113886   5.234   2.244   6.976
 4329SOL    HW213887   5.136   2.340   0.043
 4330SOL     OW13888   0.998   0.871   6.508
 4330SOL    HW113889   1.073   0.805   6.510
 4330SOL    HW213890   1.032   0.960   6.540
 4331SOL     OW13891   5.194   2.313   6.676
 4331SOL    HW113892   5.254   2.391   6.693
 4331SOL    HW213893   5.107   2.344   6.638
 4332SOL     OW13894   5.661   3.347   1.888
 4332SOL    HW113895   5.652   3.411   1.965
 4332SOL    HW213896   5.577   3.349   1.834
 4333SOL     OW13897   6.224   1.497   5.457
 4333SOL    HW113898   6.282   1.443   5.517
 4333SOL    HW213899   6.274   1.578   5.426
 4334SOL     OW13900   4.310   0.131   1.776
 4334SOL    HW113901   4.405   0.147   1.803
 4334SOL    HW213902   4.279   0.206   1.718
 4335SOL     OW13903   3.718   4.425   5.560
 4335SOL    HW113904   3.646   4.487   5.592
 4335SOL    HW213905   3.802   4.478   5.545
 4336SOL     OW13906   0.930   6.704   5.999
 4336SOL    HW113907   0.989   6.640   5.949
 4336SOL    HW213908   0.922   6.674   6.094
 4337SOL     OW13909   0.365   5.704   0.420
 4337SOL    HW113910   0.436   5.642   0.455
 4337SOL    HW213911   0.352   5.686   0.322
 4338SOL     OW13912   5.509   6.452   3.298
 4338SOL    HW113913   5.455   6.476   3.217
 4338SOL    HW213914   5.449   6.451   3.378
 4339SOL     OW13915   6.263   1.195   6.545
 4339SOL    HW113916   6.270   1.171   6.642
 4339SOL    HW213917   6.339   1.153   6.495
 4340SOL     OW13918   4.442   3.417   1.716
 4340SOL    HW113919   4.432   3.318   1.727
 4340SOL    HW213920   4.372   3.450   1.654
 4341SOL     OW13921   0.947   3.594   0.600
 4341SOL    HW113922   1.037   3.572   0.638
 4341SOL    HW213923   0.877   3.584   0.670
 4342SOL     OW13924   0.389   1.992   3.195
 4342SOL    HW113925   0.339   2.076   3.176
 4342SOL    HW213926   0.486   2.006   3.178
 4343SOL     OW13927   2.756   2.030   1.018
 4343SOL    HW113928   2.668   1.982   1.006
 4343SOL    HW213929   2.828   1.962   1.033
 4344SOL     OW13930   1.798   3.726   2.139
 4344SOL    HW113931   1.785   3.802   2.076
 4344SOL    HW213932   1.891   3.690   2.131
 4345SOL     OW13933   2.825   1.377   5.993
 4345SOL    HW113934   2.750   1.331   6.040
 4345SOL    HW213935   2.900   1.393   6.057
 4346SOL     OW13936   6.958   3.513   1.192
 4346SOL    HW113937   6.870   3.478   1.224
 4346SOL    HW213938   0.005   3.441   1.197
 4347SOL     OW13939   4.895   5.758   2.413
 4347SOL    HW113940   4.992   5.747   2.435
 4347SOL    HW213941   4.866   5.686   2.351
 4348SOL     OW13942   1.279   3.712   6.858
 4348SOL    HW113943   1.234   3.626   6.884
 4348SOL    HW213944   1.370   3.692   6.820
 4349SOL     OW13945   6.728   0.921   1.777
 4349SOL    HW113946   6.818   0.925   1.733
 4349SOL    HW213947   6.739   0.923   1.876
 4350SOL     OW13948   4.247   0.394   2.854
 4350SOL    HW113949   4.307   0.432   2.783
 4350SOL    HW213950   4.287   0.412   2.944
 4351SOL     OW13951   2.972   6.962   0.108
 4351SOL    HW113952   2.943   6.888   0.169
 4351SOL    HW213953   2.937   6.946   0.016
 4352SOL     OW13954   6.816   2.110   2.384
 4352SOL    HW113955   6.755   2.156   2.319
 4352SOL    HW213956   6.772   2.028   2.419
 4353SOL     OW13957   2.898   5.969   1.493
 4353SOL    HW113958   2.993   5.945   1.515
 4353SOL    HW213959   2.858   5.897   1.436
 4354SOL     OW13960   2.722   0.755   1.118
 4354SOL    HW113961   2.810   0.777   1.160
 4354SOL    HW213962   2.686   0.671   1.158
 4355SOL     OW13963   4.909   7.005   7.016
 4355SOL    HW113964   4.890   6.908   0.005
 4355SOL    HW213965   4.823   0.032   7.001
 4356SOL     OW13966   3.672   4.134   0.475
 4356SOL    HW113967   3.707   4.103   0.564
 4356SOL    HW213968   3.572   4.130   0.476
 4357SOL     OW13969   5.753   0.904   0.243
 4357SOL    HW113970   5.667   0.892   0.192
 4357SOL    HW213971   5.820   0.837   0.211
 4358SOL     OW13972   6.039   0.642   0.983
 4358SOL    HW113973   6.031   0.729   1.032
 4358SOL    HW213974   6.096   0.579   1.036
 4359SOL     OW13975   6.129   3.663   4.572
 4359SOL    HW113976   6.188   3.642   4.494
 4359SOL    HW213977   6.179   3.649   4.657
 4360SOL     OW13978   2.035   3.586   0.867
 4360SOL    HW113979   2.101   3.537   0.809
 4360SOL    HW213980   2.049   3.561   0.963
 4361SOL     OW13981   5.998   2.213   2.441
 4361SOL    HW113982   5.985   2.207   2.342
 4361SOL    HW213983   5.922   2.263   2.481
 4362SOL     OW13984   5.188   3.741   2.876
 4362SOL    HW113985   5.276   3.703   2.904
 4362SOL    HW213986   5.139   3.775   2.957
 4363SOL     OW13987   5.251   0.388   6.470
 4363SOL    HW113988   5.311   0.416   6.395
 4363SOL    HW213989   5.182   0.324   6.435
 4364SOL     OW13990   3.780   3.924   4.460
 4364SOL    HW113991   3.790   4.023   4.451
 4364SOL    HW213992   3.810   3.896   4.551
 4365SOL     OW13993   4.388   1.962   0.562
 4365SOL    HW113994   4.462   2.019   0.527
 4365SOL    HW213995   4.321   2.020   0.609
 4366SOL     OW13996   5.541   4.994   0.171
 4366SOL    HW113997   5.455   5.002   0.121
 4366SOL    HW213998   5.522   4.987   0.269
 4367SOL     OW13999   6.964   0.297   0.904
 4367SOL    HW114000   6.910   0.377   0.876
 4367SOL    HW214001   6.907   0.237   0.961
 4368SOL     OW14002   4.390   4.593   2.390
 4368SOL    HW114003   4.345   4.652   2.456
 4368SOL    HW214004   4.327   4.570   2.316
 4369SOL     OW14005   3.068   5.251   1.600
 4369SOL    HW114006   3.009   5.307   1.659
 4369SOL    HW214007   3.060   5.155   1.627
 4370SOL     OW14008   5.305   4.510   2.156
 4370SOL    HW114009   5.266   4.418   2.165
 4370SOL    HW214010   5.282   4.548   2.066
 4371SOL     OW14011   1.217   1.784   2.547
 4371SOL    HW114012   1.214   1.685   2.560
 4371SOL    HW214013   1.202   1.829   2.635
 4372SOL     OW14014   5.138   0.134   3.633
 4372SOL    HW114015   5.076   0.061   3.607
 4372SOL    HW214016   5.203   0.152   3.559
 4373SOL     OW14017   6.701   1.450   6.245
 4373SOL    HW114018   6.772   1.447   6.174
 4373SOL    HW214019   6.727   1.516   6.316
 4374SOL     OW14020   3.443   1.138   0.602
 4374SOL    HW114021   3.371   1.203   0.578
 4374SOL    HW214022   3.402   1.057   0.645
 4375SOL     OW14023   3.369   5.803   4.216
 4375SOL    HW114024   3.451   5.757   4.250
 4375SOL    HW214025   3.393   5.858   4.136
 4376SOL     OW14026   0.185   2.059   4.267
 4376SOL    HW114027   0.189   2.159   4.268
 4376SOL    HW214028   0.159   2.027   4.177
 4377SOL     OW14029   6.503   4.845   6.387
 4377SOL    HW114030   6.569   4.832   6.313
 4377SOL    HW214031   6.413   4.865   6.348
 4378SOL     OW14032   3.263   1.931   3.852
 4378SOL    HW114033   3.215   1.889   3.930
 4378SOL    HW214034   3.341   1.874   3.826
 4379SOL     OW14035   3.535   2.153   6.234
 4379SOL    HW114036   3.626   2.192   6.244
 4379SOL    HW214037   3.542   2.057   6.208
 4380SOL     OW14038   0.214   2.196   3.158
 4380SOL    HW114039   0.197   2.294   3.165
 4380SOL    HW214040   0.146   2.147   3.212
 4381SOL     OW14041   1.310   5.621   0.029
 4381SOL    HW114042   1.282   5.526   0.043
 4381SOL    HW214043   1.339   5.661   0.116
 4382SOL     OW14044   0.914   5.466   4.522
 4382SOL    HW114045   0.937   5.372   4.495
 4382SOL    HW214046   0.993   5.508   4.565
 4383SOL     OW14047   6.969   4.161   0.652
 4383SOL    HW114048   0.035   4.127   0.619
 4383SOL    HW214049   6.941   4.107   0.731
 4384SOL     OW14050   4.946   6.940   3.503
 4384SOL    HW114051   4.966   6.987   3.417
 4384SOL    HW214052   4.940   6.842   3.487
 4385SOL     OW14053   4.598   1.374   5.474
 4385SOL    HW114054   4.562   1.299   5.529
 4385SOL    HW214055   4.577   1.358   5.377
 4386SOL     OW14056   1.624   3.435   4.251
 4386SOL    HW114057   1.706   3.413   4.198
 4386SOL    HW214058   1.633   3.398   4.343
 4387SOL     OW14059   5.655   1.889   1.080
 4387SOL    HW114060   5.712   1.807   1.074
 4387SOL    HW214061   5.562   1.862   1.106
 4388SOL     OW14062   5.199   3.563   7.002
 4388SOL    HW114063   5.102   3.549   6.980
 4388SOL    HW214064   5.210   3.651   0.027
 4389SOL     OW14065   2.068   1.598   0.173
 4389SOL    HW114066   2.064   1.688   0.131
 4389SOL    HW214067   2.035   1.529   0.107
 4390SOL     OW14068   0.062   1.986   1.034
 4390SOL    HW114069   6.989   2.002   1.007
 4390SOL    HW214070   0.074   1.889   1.057
 4391SOL     OW14071   0.740   5.932   1.008
 4391SOL    HW114072   0.774   5.977   1.091
 4391SOL    HW214073   0.661   5.982   0.973
 4392SOL     OW14074   1.275   2.816   6.081
 4392SOL    HW114075   1.305   2.856   6.168
 4392SOL    HW214076   1.344   2.835   6.011
 4393SOL     OW14077   5.997   0.332   2.290
 4393SOL    HW114078   5.982   0.284   2.203
 4393SOL    HW214079   5.909   0.351   2.333
 4394SOL     OW14080   0.438   0.351   2.400
 4394SOL    HW114081   0.512   0.290   2.371
 4394SOL    HW214082   0.404   0.321   2.489
 4395SOL     OW14083   1.666   4.179   2.179
 4395SOL    HW114084   1.614   4.141   2.102
 4395SOL    HW214085   1.759   4.144   2.177
 4396SOL     OW14086   2.975   1.156   2.708
 4396SOL    HW114087   2.909   1.227   2.732
 4396SOL    HW214088   3.066   1.184   2.739
 4397SOL     OW14089   3.319   1.276   4.863
 4397SOL    HW114090   3.266   1.355   4.894
 4397SOL    HW214091   3.269   1.228   4.791
 4398SOL     OW14092   2.563   3.412   5.840
 4398SOL    HW114093   2.501   3.335   5.856
 4398SOL    HW214094   2.589   3.415   5.744
 4399SOL     OW14095   2.578   6.760   1.530
 4399SOL    HW114096   2.660   6.728   1.481
 4399SOL    HW214097   2.606   6.815   1.608
 4400SOL     OW14098   1.685   6.165   4.922
 4400SOL    HW114099   1.773   6.138   4.961
 4400SOL    HW214100   1.623   6.087   4.919
 4401SOL     OW14101   2.442   6.864   6.477
 4401SOL    HW114102   2.375   6.799   6.442
 4401SOL    HW214103   2.461   6.844   6.574
 4402SOL     OW14104   1.786   0.884   2.901
 4402SOL    HW114105   1.781   0.827   2.819
 4402SOL    HW214106   1.879   0.880   2.938
 4403SOL     OW14107   0.344   5.483   2.277
 4403SOL    HW114108   0.268   5.425   2.307
 4403SOL    HW214109   0.374   5.540   2.354
 4404SOL     OW14110   0.759   6.873   6.252
 4404SOL    HW114111   0.706   6.861   6.168
 4404SOL    HW214112   0.739   6.798   6.315
 4405SOL     OW14113   1.446   5.110   2.782
 4405SOL    HW114114   1.493   5.186   2.827
 4405SOL    HW214115   1.379   5.147   2.717
 4406SOL     OW14116   6.618   4.590   2.112
 4406SOL    HW114117   6.535   4.638   2.141
 4406SOL    HW214118   6.603   4.492   2.114
 4407SOL     OW14119   6.153   0.080   0.902
 4407SOL    HW114120   6.140   0.005   0.966
 4407SOL    HW214121   6.106   0.162   0.936
 4408SOL     OW14122   4.392   1.009   0.906
 4408SOL    HW114123   4.463   1.037   0.972
 4408SOL    HW214124   4.410   1.052   0.818
 4409SOL     OW14125   2.812   0.806   4.221
 4409SOL    HW114126   2.768   0.762   4.299
 4409SOL    HW214127   2.742   0.836   4.156
 4410SOL     OW14128   0.448   0.454   1.006
 4410SOL    HW114129   0.541   0.485   1.026
 4410SOL    HW214130   0.429   0.370   1.058
 4411SOL     OW14131   4.553   4.614   5.250
 4411SOL    HW114132   4.595   4.573   5.331
 4411SOL    HW214133   4.612   4.597   5.171
 4412SOL     OW14134   4.371   6.222   2.035
 4412SOL    HW114135   4.388   6.265   2.124
 4412SOL    HW214136   4.276   6.192   2.029
 4413SOL     OW14137   4.532   5.776   3.745
 4413SOL    HW114138   4.569   5.692   3.785
 4413SOL    HW214139   4.559   5.854   3.801
 4414SOL     OW14140   5.498   3.867   1.577
 4414SOL    HW114141   5.415   3.814   1.561
 4414SOL    HW214142   5.478   3.964   1.566
 4415SOL     OW14143   1.811   4.072   1.001
 4415SOL    HW114144   1.732   4.084   0.941
 4415SOL    HW214145   1.829   4.157   1.050
 4416SOL     OW14146   4.961   2.923   4.533
 4416SOL    HW114147   4.901   2.852   4.495
 4416SOL    HW214148   5.047   2.925   4.483
 4417SOL     OW14149   7.012   4.553   1.564
 4417SOL    HW114150   6.961   4.477   1.606
 4417SOL    HW214151   0.019   4.527   1.472
 4418SOL     OW14152   5.786   1.243   5.575
 4418SOL    HW114153   5.801   1.203   5.665
 4418SOL    HW214154   5.874   1.259   5.531
 4419SOL     OW14155   6.556   6.214   6.817
 4419SOL    HW114156   6.619   6.291   6.812
 4419SOL    HW214157   6.572   6.153   6.739
 4420SOL     OW14158   3.959   1.361   0.850
 4420SOL    HW114159   3.965   1.445   0.796
 4420SOL    HW214160   3.863   1.339   0.865
 4421SOL     OW14161   2.114   2.768   0.245
 4421SOL    HW114162   2.088   2.855   0.205
 4421SOL    HW214163   2.039   2.703   0.237
 4422SOL     OW14164   0.452   3.065   5.987
 4422SOL    HW114165   0.468   3.106   5.897
 4422SOL    HW214166   0.372   3.107   6.029
 4423SOL     OW14167   5.642   4.352   4.743
 4423SOL    HW114168   5.729   4.307   4.765
 4423SOL    HW214169   5.657   4.417   4.668
 4424SOL     OW14170   4.584   5.974   2.428
 4424SOL    HW114171   4.561   5.880   2.403
 4424SOL    HW214172   4.660   5.974   2.493
 4425SOL     OW14173   1.056   6.153   1.409
 4425SOL    HW114174   1.130   6.086   1.399
 4425SOL    HW214175   0.979   6.110   1.457
 4426SOL     OW14176   0.325   0.315   4.436
 4426SOL    HW114177   0.355   0.244   4.500
 4426SOL    HW214178   0.310   0.274   4.346
 4427SOL     OW14179   2.744   5.828   2.187
 4427SOL    HW114180   2.662   5.811   2.242
 4427SOL    HW214181   2.733   5.785   2.097
 4428SOL     OW14182   6.247   5.633   3.680
 4428SOL    HW114183   6.166   5.615   3.625
 4428SOL    HW214184   6.246   5.728   3.711
 4429SOL     OW14185   2.642   6.363   3.045
 4429SOL    HW114186   2.561   6.376   2.988
 4429SOL    HW214187   2.645   6.432   3.117
 4430SOL     OW14188   6.253   3.235   4.858
 4430SOL    HW114189   6.224   3.316   4.907
 4430SOL    HW214190   6.189   3.217   4.783
 4431SOL     OW14191   4.482   6.742   4.698
 4431SOL    HW114192   4.458   6.799   4.777
 4431SOL    HW214193   4.458   6.647   4.717
 4432SOL     OW14194   1.157   3.219   6.289
 4432SOL    HW114195   1.114   3.201   6.378
 4432SOL    HW214196   1.125   3.151   6.223
 4433SOL     OW14197   0.808   0.620   4.572
 4433SOL    HW114198   0.882   0.553   4.565
 4433SOL    HW214199   0.846   0.713   4.569
 4434SOL     OW14200   6.916   0.973   2.459
 4434SOL    HW114201   7.003   1.017   2.436
 4434SOL    HW214202   6.880   0.927   2.378
 4435SOL     OW14203   2.521   4.500   0.470
 4435SOL    HW114204   2.608   4.547   0.456
 4435SOL    HW214205   2.470   4.497   0.384
 4436SOL     OW14206   4.717   2.134   1.629
 4436SOL    HW114207   4.649   2.165   1.563
 4436SOL    HW214208   4.670   2.087   1.705
 4437SOL     OW14209   6.216   4.603   7.010
 4437SOL    HW114210   6.284   4.676   7.010
 4437SOL    HW214211   6.220   4.553   6.923
 4438SOL     OW14212   4.139   1.351   4.794
 4438SOL    HW114213   4.055   1.397   4.824
 4438SOL    HW214214   4.217   1.412   4.809
 4439SOL     OW14215   2.369   5.538   2.407
 4439SOL    HW114216   2.324   5.555   2.495
 4439SOL    HW214217   2.324   5.591   2.336
 4440SOL     OW14218   1.827   5.171   5.291
 4440SOL    HW114219   1.824   5.111   5.211
 4440SOL    HW214220   1.863   5.121   5.369
 4441SOL     OW14221   6.801   1.747   1.237
 4441SOL    HW114222   6.899   1.725   1.242
 4441SOL    HW214223   6.789   1.842   1.210
 4442SOL     OW14224   2.112   4.933   1.284
 4442SOL    HW114225   2.181   4.889   1.227
 4442SOL    HW214226   2.156   4.992   1.351
 4443SOL     OW14227   0.820   5.673   5.927
 4443SOL    HW114228   0.778   5.712   6.009
 4443SOL    HW214229   0.864   5.586   5.950
 4444SOL     OW14230   5.733   5.576   0.228
 4444SOL    HW114231   5.730   5.589   0.327
 4444SOL    HW214232   5.639   5.580   0.192
 4445SOL     OW14233   2.333   4.100   0.170
 4445SOL    HW114234   2.343   4.001   0.181
 4445SOL    HW214235   2.383   4.146   0.244
 4446SOL     OW14236   4.668   1.858   2.310
 4446SOL    HW114237   4.586   1.804   2.296
 4446SOL    HW214238   4.666   1.899   2.402
 4447SOL     OW14239   4.698   5.454   4.999
 4447SOL    HW114240   4.699   5.549   5.032
 4447SOL    HW214241   4.704   5.392   5.077
 4448SOL     OW14242   3.240   6.674   2.844
 4448SOL    HW114243   3.161   6.624   2.878
 4448SOL    HW214244   3.324   6.633   2.881
 4449SOL     OW14245   4.078   1.440   5.578
 4449SOL    HW114246   4.055   1.536   5.562
 4449SOL    HW214247   4.049   1.413   5.670
 4450SOL     OW14248   1.927   6.138   0.281
 4450SOL    HW114249   1.846   6.083   0.301
 4450SOL    HW214250   1.907   6.201   0.205
 4451SOL     OW14251   4.809   5.742   3.311
 4451SOL    HW114252   4.822   5.646   3.289
 4451SOL    HW214253   4.724   5.753   3.363
 4452SOL     OW14254   5.179   4.603   3.770
 4452SOL    HW114255   5.088   4.586   3.733
 4452SOL    HW214256   5.172   4.661   3.851
 4453SOL     OW14257   0.387   4.852   1.043
 4453SOL    HW114258   0.420   4.782   1.107
 4453SOL    HW214259   0.405   4.822   0.949
 4454SOL     OW14260   0.491   1.843   0.291
 4454SOL    HW114261   0.454   1.796   0.371
 4454SOL    HW214262   0.590   1.853   0.302
 4455SOL     OW14263   1.489   0.315   4.188
 4455SOL    HW114264   1.509   0.321   4.286
 4455SOL    HW214265   1.488   0.219   4.161
 4456SOL     OW14266   1.723   6.161   4.258
 4456SOL    HW114267   1.818   6.186   4.274
 4456SOL    HW214268   1.700   6.175   4.162
 4457SOL     OW14269   1.343   1.590   4.589
 4457SOL    HW114270   1.251   1.583   4.550
 4457SOL    HW214271   1.365   1.686   4.604
 4458SOL     OW14272   1.564   2.990   6.221
 4458SOL    HW114273   1.476   2.993   6.269
 4458SOL    HW214274   1.627   2.931   6.272
 4459SOL     OW14275   0.515   3.763   3.269
 4459SOL    HW114276   0.565   3.800   3.347
 4459SOL    HW214277   0.454   3.834   3.232
 4460SOL     OW14278   6.737   2.759   5.173
 4460SOL    HW114279   6.801   2.725   5.242
 4460SOL    HW214280   6.764   2.724   5.083
 4461SOL     OW14281   1.887   0.712   0.658
 4461SOL    HW114282   1.840   0.776   0.718
 4461SOL    HW214283   1.894   0.752   0.566
 4462SOL     OW14284   6.574   4.289   2.051
 4462SOL    HW114285   6.487   4.241   2.056
 4462SOL    HW214286   6.649   4.226   2.069
 4463SOL     OW14287   5.624   1.971   0.029
 4463SOL    HW114288   5.527   1.959   0.048
 4463SOL    HW214289   5.677   1.904   0.080
 4464SOL     OW14290   0.587   3.692   1.185
 4464SOL    HW114291   0.672   3.723   1.227
 4464SOL    HW214292   0.510   3.720   1.242
 4465SOL     OW14293   4.268   5.235   2.023
 4465SOL    HW114294   4.329   5.183   1.964
 4465SOL    HW214295   4.185   5.259   1.973
 4466SOL     OW14296   0.438   3.270   2.866
 4466SOL    HW114297   0.479   3.186   2.900
 4466SOL    HW214298   0.405   3.326   2.943
 4467SOL     OW14299   5.437   4.640   1.606
 4467SOL    HW114300   5.431   4.637   1.506
 4467SOL    HW214301   5.408   4.730   1.638
 4468SOL     OW14302   2.033   3.148   0.762
 4468SOL    HW114303   2.069   3.063   0.724
 4468SOL    HW214304   1.971   3.127   0.837
 4469SOL     OW14305   1.816   6.212   1.449
 4469SOL    HW114306   1.771   6.148   1.511
 4469SOL    HW214307   1.915   6.203   1.457
 4470SOL     OW14308   1.029   6.866   2.227
 4470SOL    HW114309   0.967   6.923   2.280
 4470SOL    HW214310   0.995   6.859   2.133
 4471SOL     OW14311   1.109   0.684   0.059
 4471SOL    HW114312   1.098   0.611   0.127
 4471SOL    HW214313   1.020   0.703   0.017
 4472SOL     OW14314   1.592   2.699   1.050
 4472SOL    HW114315   1.501   2.725   1.016
 4472SOL    HW214316   1.588   2.606   1.087
 4473SOL     OW14317   0.575   2.792   5.076
 4473SOL    HW114318   0.663   2.767   5.116
 4473SOL    HW214319   0.528   2.856   5.138
 4474SOL     OW14320   2.489   5.931   0.661
 4474SOL    HW114321   2.580   5.938   0.701
 4474SOL    HW214322   2.422   5.912   0.733
 4475SOL     OW14323   0.799   3.616   0.015
 4475SOL    HW114324   0.882   3.563   0.028
 4475SOL    HW214325   0.805   3.667   6.951
 4476SOL     OW14326   5.311   0.705   3.804
 4476SOL    HW114327   5.345   0.624   3.851
 4476SOL    HW214328   5.363   0.719   3.720
 4477SOL     OW14329   6.961   1.086   4.305
 4477SOL    HW114330   7.021   1.166   4.311
 4477SOL    HW214331   7.017   1.003   4.312
 4478SOL     OW14332   1.794   0.789   2.289
 4478SOL    HW114333   1.840   0.700   2.291
 4478SOL    HW214334   1.702   0.780   2.329
 4479SOL     OW14335   2.513   2.658   6.565
 4479SOL    HW114336   2.499   2.727   6.635
 4479SOL    HW214337   2.463   2.683   6.482
 4480SOL     OW14338   0.115   6.849   3.387
 4480SOL    HW114339   0.133   6.940   3.349
 4480SOL    HW214340   0.020   6.843   3.415
 4481SOL     OW14341   2.221   3.964   6.142
 4481SOL    HW114342   2.219   3.880   6.196
 4481SOL    HW214343   2.248   3.943   6.048
 4482SOL     OW14344   2.706   0.243   1.072
 4482SOL    HW114345   2.787   0.238   1.013
 4482SOL    HW214346   2.730   0.287   1.158
 4483SOL     OW14347   0.893   3.338   0.935
 4483SOL    HW114348   0.820   3.270   0.936
 4483SOL    HW214349   0.874   3.407   0.865
 4484SOL     OW14350   3.612   0.842   0.506
 4484SOL    HW114351   3.605   0.747   0.475
 4484SOL    HW214352   3.538   0.863   0.569
 4485SOL     OW14353   0.316   3.234   5.088
 4485SOL    HW114354   0.414   3.223   5.077
 4485SOL    HW214355   0.296   3.325   5.126
 4486SOL     OW14356   4.987   4.510   3.496
 4486SOL    HW114357   4.887   4.508   3.496
 4486SOL    HW214358   5.018   4.605   3.485
 4487SOL     OW14359   0.343   2.885   6.615
 4487SOL    HW114360   0.420   2.925   6.664
 4487SOL    HW214361   0.370   2.796   6.577
 4488SOL     OW14362   6.271   4.772   3.569
 4488SOL    HW114363   6.276   4.871   3.561
 4488SOL    HW214364   6.189   4.739   3.523
 4489SOL     OW14365   3.725   6.178   6.687
 4489SOL    HW114366   3.816   6.148   6.661
 4489SOL    HW214367   3.694   6.126   6.767
 4490SOL     OW14368   5.473   1.572   1.890
 4490SOL    HW114369   5.493   1.592   1.986
 4490SOL    HW214370   5.519   1.486   1.864
 4491SOL     OW14371   0.451   3.976   3.043
 4491SOL    HW114372   0.423   3.923   2.963
 4491SOL    HW214373   0.497   4.060   3.013
 4492SOL     OW14374   5.937   1.387   2.705
 4492SOL    HW114375   5.866   1.451   2.674
 4492SOL    HW214376   6.003   1.436   2.762
 4493SOL     OW14377   5.177   1.391   6.170
 4493SOL    HW114378   5.172   1.305   6.222
 4493SOL    HW214379   5.240   1.380   6.094
 4494SOL     OW14380   1.933   1.047   2.571
 4494SOL    HW114381   1.922   1.133   2.621
 4494SOL    HW214382   1.880   1.052   2.486
 4495SOL     OW14383   4.479   6.079   0.893
 4495SOL    HW114384   4.557   6.104   0.949
 4495SOL    HW214385   4.504   6.082   0.797
 4496SOL     OW14386   2.399   5.639   6.092
 4496SOL    HW114387   2.489   5.630   6.050
 4496SOL    HW214388   2.335   5.678   6.026
 4497SOL     OW14389   4.214   0.098   5.802
 4497SOL    HW114390   4.228   0.018   5.860
 4497SOL    HW214391   4.164   0.168   5.854
 4498SOL     OW14392   1.573   4.763   4.345
 4498SOL    HW114393   1.613   4.827   4.280
 4498SOL    HW214394   1.506   4.810   4.402
 4499SOL     OW14395   5.866   1.563   2.252
 4499SOL    HW114396   5.900   1.650   2.286
 4499SOL    HW214397   5.768   1.556   2.267
 4500SOL     OW14398   3.605   6.586   0.123
 4500SOL    HW114399   3.520   6.598   0.174
 4500SOL    HW214400   3.588   6.598   0.025
 4501SOL     OW14401   6.548   0.247   2.756
 4501SOL    HW114402   6.513   0.336   2.726
 4501SOL    HW214403   6.554   0.186   2.677
 4502SOL     OW14404   1.606   3.727   6.425
 4502SOL    HW114405   1.540   3.794   6.392
 4502SOL    HW214406   1.650   3.683   6.347
 4503SOL     OW14407   3.781   1.512   2.421
 4503SOL    HW114408   3.727   1.592   2.447
 4503SOL    HW214409   3.745   1.473   2.337
 4504SOL     OW14410   1.414   2.327   3.948
 4504SOL    HW114411   1.423   2.410   3.894
 4504SOL    HW214412   1.332   2.277   3.919
 4505SOL     OW14413   6.372   3.176   3.262
 4505SOL    HW114414   6.428   3.258   3.273
 4505SOL    HW214415   6.277   3.202   3.246
 4506SOL     OW14416   4.024   4.059   0.302
 4506SOL    HW114417   3.935   4.054   0.257
 4506SOL    HW214418   4.093   4.092   0.237
 4507SOL     OW14419   6.056   2.570   3.033
 4507SOL    HW114420   6.022   2.570   3.127
 4507SOL    HW214421   6.050   2.662   2.995
 4508SOL     OW14422   6.280   5.228   0.306
 4508SOL    HW114423   6.319   5.145   0.265
 4508SOL    HW214424   6.212   5.202   0.374
 4509SOL     OW14425   5.044   2.276   2.259
 4509SOL    HW114426   5.063   2.348   2.325
 4509SOL    HW214427   4.948   2.248   2.265
 4510SOL     OW14428   4.498   1.249   4.107
 4510SOL    HW114429   4.557   1.184   4.058
 4510SOL    HW214430   4.534   1.263   4.200
 4511SOL     OW14431   0.209   4.384   6.825
 4511SOL    HW114432   0.126   4.438   6.831
 4511SOL    HW214433   0.188   4.295   6.785
 4512SOL     OW14434   2.955   3.254   5.971
 4512SOL    HW114435   3.030   3.187   5.966
 4512SOL    HW214436   2.885   3.220   6.035
 4513SOL     OW14437   0.343   0.728   1.144
 4513SOL    HW114438   0.390   0.760   1.226
 4513SOL    HW214439   0.396   0.654   1.102
 4514SOL     OW14440   4.574   4.675   6.273
 4514SOL    HW114441   4.602   4.770   6.256
 4514SOL    HW214442   4.518   4.672   6.356
 4515SOL     OW14443   4.816   6.991   6.030
 4515SOL    HW114444   4.782   6.954   5.944
 4515SOL    HW214445   4.774   6.940   6.106
 4516SOL     OW14446   3.674   2.186   5.198
 4516SOL    HW114447   3.597   2.208   5.258
 4516SOL    HW214448   3.643   2.126   5.125
 4517SOL     OW14449   3.780   0.361   4.458
 4517SOL    HW114450   3.851   0.408   4.406
 4517SOL    HW214451   3.811   0.269   4.482
 4518SOL     OW14452   6.764   0.470   0.844
 4518SOL    HW114453   6.760   0.562   0.883
 4518SOL    HW214454   6.739   0.475   0.747
 4519SOL     OW14455   5.323   6.977   6.268
 4519SOL    HW114456   5.371   6.901   6.223
 4519SOL    HW214457   5.301   0.025   6.201
 4520SOL     OW14458   4.683   5.191   5.622
 4520SOL    HW114459   4.652   5.115   5.679
 4520SOL    HW214460   4.606   5.226   5.568
 4521SOL     OW14461   4.630   2.546   4.170
 4521SOL    HW114462   4.627   2.489   4.252
 4521SOL    HW214463   4.724   2.551   4.137
 4522SOL     OW14464   5.632   3.769   3.229
 4522SOL    HW114465   5.726   3.737   3.234
 4522SOL    HW214466   5.606   3.810   3.316
 4523SOL     OW14467   0.099   2.984   6.597
 4523SOL    HW114468   0.187   2.937   6.590
 4523SOL    HW214469   0.113   3.083   6.586
 4524SOL     OW14470   2.289   3.831   1.869
 4524SOL    HW114471   2.273   3.929   1.885
 4524SOL    HW214472   2.256   3.779   1.948
 4525SOL     OW14473   3.722   1.884   5.823
 4525SOL    HW114474   3.799   1.924   5.872
 4525SOL    HW214475   3.746   1.794   5.789
 4526SOL     OW14476   1.818   0.400   5.390
 4526SOL    HW114477   1.863   0.488   5.405
 4526SOL    HW214478   1.872   0.346   5.325
 4527SOL     OW14479   0.918   2.132   2.545
 4527SOL    HW114480   0.978   2.206   2.578
 4527SOL    HW214481   0.824   2.166   2.541
 4528SOL     OW14482   5.362   1.406   4.833
 4528SOL    HW114483   5.374   1.307   4.842
 4528SOL    HW214484   5.447   1.453   4.859
 4529SOL     OW14485   2.156   1.718   3.757
 4529SOL    HW114486   2.084   1.659   3.721
 4529SOL    HW214487   2.153   1.807   3.711
 4530SOL     OW14488   4.328   4.713   6.135
 4530SOL    HW114489   4.391   4.651   6.182
 4530SOL    HW214490   4.296   4.669   6.051
 4531SOL     OW14491   1.776   0.341   5.042
 4531SOL    HW114492   1.692   0.355   5.095
 4531SOL    HW214493   1.849   0.312   5.103
 4532SOL     OW14494   5.548   1.164   2.058
 4532SOL    HW114495   5.633   1.175   2.007
 4532SOL    HW214496   5.470   1.181   1.997
 4533SOL     OW14497   2.801   6.553   1.154
 4533SOL    HW114498   2.797   6.460   1.188
 4533SOL    HW214499   2.771   6.616   1.225
 4534SOL     OW14500   5.646   0.954   4.320
 4534SOL    HW114501   5.608   0.885   4.380
 4534SOL    HW214502   5.737   0.980   4.351
 4535SOL     OW14503   1.354   1.000   6.972
 4535SOL    HW114504   1.371   0.982   6.875
 4535SOL    HW214505   1.368   1.098   6.990
 4536SOL     OW14506   3.861   0.770   5.638
 4536SOL    HW114507   3.836   0.678   5.610
 4536SOL    HW214508   3.854   0.832   5.560
 4537SOL     OW14509   3.294   3.351   3.298
 4537SOL    HW114510   3.375   3.316   3.345
 4537SOL    HW214511   3.212   3.310   3.337
 4538SOL     OW14512   1.281   2.831   0.193
 4538SOL    HW114513   1.242   2.740   0.208
 4538SOL    HW214514   1.299   2.844   0.096
 4539SOL     OW14515   1.076   4.975   4.210
 4539SOL    HW114516   1.101   5.071   4.227
 4539SOL    HW214517   0.978   4.970   4.190
 4540SOL     OW14518   1.885   2.185   0.848
 4540SOL    HW114519   1.855   2.274   0.883
 4540SOL    HW214520   1.829   2.159   0.770
 4541SOL     OW14521   4.023   3.120   7.021
 4541SOL    HW114522   3.940   3.114   0.053
 4541SOL    HW214523   4.103   3.110   0.058
 4542SOL     OW14524   0.145   1.401   0.842
 4542SOL    HW114525   0.167   1.414   0.939
 4542SOL    HW214526   0.053   1.362   0.834
 4543SOL     OW14527   4.339   1.430   1.156
 4543SOL    HW114528   4.321   1.495   1.230
 4543SOL    HW214529   4.299   1.465   1.071
 4544SOL     OW14530   4.992   6.163   0.533
 4544SOL    HW114531   4.982   6.066   0.511
 4544SOL    HW214532   4.913   6.194   0.584
 4545SOL     OW14533   2.922   3.070   5.441
 4545SOL    HW114534   2.924   3.115   5.530
 4545SOL    HW214535   2.872   3.127   5.376
 4546SOL     OW14536   4.877   6.992   6.498
 4546SOL    HW114537   4.930   6.954   6.575
 4546SOL    HW214538   4.917   6.960   6.412
 4547SOL     OW14539   6.627   1.302   0.365
 4547SOL    HW114540   6.703   1.366   0.378
 4547SOL    HW214541   6.596   1.305   0.270
 4548SOL     OW14542   2.987   1.416   2.149
 4548SOL    HW114543   3.064   1.470   2.183
 4548SOL    HW214544   3.020   1.325   2.123
 4549SOL     OW14545   6.066   4.409   3.656
 4549SOL    HW114546   6.130   4.349   3.703
 4549SOL    HW214547   6.104   4.437   3.568
 4550SOL     OW14548   2.485   5.463   6.553
 4550SOL    HW114549   2.464   5.367   6.571
 4550SOL    HW214550   2.524   5.472   6.461
 4551SOL     OW14551   3.508   2.802   6.096
 4551SOL    HW114552   3.562   2.718   6.102
 4551SOL    HW214553   3.412   2.782   6.113
 4552SOL     OW14554   4.807   0.780   6.993
 4552SOL    HW114555   4.845   0.864   6.954
 4552SOL    HW214556   4.845   0.701   6.945
 4553SOL     OW14557   0.209   6.891   0.124
 4553SOL    HW114558   0.192   6.878   0.026
 4553SOL    HW214559   0.122   6.900   0.172
 4554SOL     OW14560   5.579   6.492   2.911
 4554SOL    HW114561   5.621   6.473   2.823
 4554SOL    HW214562   5.512   6.421   2.933
 4555SOL     OW14563   0.812   6.942   2.374
 4555SOL    HW114564   0.713   6.953   2.368
 4555SOL    HW214565   0.835   6.882   2.450
 4556SOL     OW14566   5.187   4.716   4.387
 4556SOL    HW114567   5.162   4.775   4.464
 4556SOL    HW214568   5.276   4.745   4.351
 4557SOL     OW14569   6.855   5.388   4.876
 4557SOL    HW114570   6.810   5.352   4.958
 4557SOL    HW214571   6.887   5.311   4.820
 4558SOL     OW14572   0.897   4.419   4.459
 4558SOL    HW114573   0.982   4.435   4.509
 4558SOL    HW214574   0.820   4.449   4.515
 4559SOL     OW14575   0.407   2.914   4.167
 4559SOL    HW114576   0.353   2.831   4.167
 4559SOL    HW214577   0.408   2.953   4.074
 4560SOL     OW14578   6.369   4.367   3.135
 4560SOL    HW114579   6.418   4.375   3.048
 4560SOL    HW214580   6.425   4.404   3.208
 4561SOL     OW14581   4.825   2.864   4.083
 4561SOL    HW114582   4.924   2.862   4.067
 4561SOL    HW214583   4.806   2.919   4.164
 4562SOL     OW14584   4.687   1.150   0.557
 4562SOL    HW114585   4.646   1.120   0.643
 4562SOL    HW214586   4.786   1.144   0.564
 4563SOL     OW14587   1.168   4.200   1.648
 4563SOL    HW114588   1.233   4.212   1.724
 4563SOL    HW214589   1.125   4.110   1.655
 4564SOL     OW14590   1.971   4.029   2.364
 4564SOL    HW114591   1.926   4.113   2.394
 4564SOL    HW214592   1.980   3.967   2.443
 4565SOL     OW14593   2.408   0.171   5.719
 4565SOL    HW114594   2.493   0.171   5.771
 4565SOL    HW214595   2.402   0.254   5.664
 4566SOL     OW14596   6.855   4.996   3.160
 4566SOL    HW114597   6.848   4.977   3.062
 4566SOL    HW214598   6.849   4.910   3.211
 4567SOL     OW14599   0.423   0.270   0.262
 4567SOL    HW114600   0.405   0.336   0.334
 4567SOL    HW214601   0.403   0.178   0.296
 4568SOL     OW14602   0.787   4.064   3.746
 4568SOL    HW114603   0.839   4.035   3.665
 4568SOL    HW214604   0.785   4.164   3.750
 4569SOL     OW14605   0.826   2.893   3.333
 4569SOL    HW114606   0.773   2.975   3.356
 4569SOL    HW214607   0.778   2.841   3.263
 4570SOL     OW14608   5.126   6.002   1.259
 4570SOL    HW114609   5.117   6.102   1.264
 4570SOL    HW214610   5.222   5.977   1.249
 4571SOL     OW14611   2.035   3.026   5.586
 4571SOL    HW114612   2.036   3.120   5.619
 4571SOL    HW214613   1.981   3.021   5.501
 4572SOL     OW14614   4.384   3.113   1.706
 4572SOL    HW114615   4.402   3.108   1.608
 4572SOL    HW214616   4.465   3.084   1.757
 4573SOL     OW14617   2.248   4.946   0.826
 4573SOL    HW114618   2.286   4.895   0.748
 4573SOL    HW214619   2.181   4.889   0.873
 4574SOL     OW14620   5.301   0.445   1.666
 4574SOL    HW114621   5.282   0.372   1.731
 4574SOL    HW214622   5.291   0.410   1.573
 4575SOL     OW14623   0.171   1.280   5.249
 4575SOL    HW114624   0.213   1.365   5.218
 4575SOL    HW214625   0.072   1.286   5.237
 4576SOL     OW14626   3.304   3.422   0.167
 4576SOL    HW114627   3.301   3.481   0.248
 4576SOL    HW214628   3.373   3.351   0.180
 4577SOL     OW14629   0.771   1.548   1.572
 4577SOL    HW114630   0.765   1.586   1.664
 4577SOL    HW214631   0.867   1.538   1.546
 4578SOL     OW14632   1.535   0.861   3.013
 4578SOL    HW114633   1.510   0.955   3.039
 4578SOL    HW214634   1.617   0.863   2.956
 4579SOL     OW14635   4.438   1.015   3.135
 4579SOL    HW114636   4.507   1.021   3.063
 4579SOL    HW214637   4.483   1.000   3.223
 4580SOL     OW14638   0.744   0.660   1.922
 4580SOL    HW114639   0.835   0.701   1.918
 4580SOL    HW214640   0.694   0.697   2.000
 4581SOL     OW14641   2.847   0.173   1.346
 4581SOL    HW114642   2.938   0.201   1.377
 4581SOL    HW214643   2.777   0.219   1.401
 4582SOL     OW14644   6.232   0.632   3.988
 4582SOL    HW114645   6.145   0.678   4.003
 4582SOL    HW214646   6.217   0.534   3.977
 4583SOL     OW14647   1.765   0.023   0.243
 4583SOL    HW114648   1.817   0.009   0.328
 4583SOL    HW214649   1.808   0.096   0.190
 4584SOL     OW14650   0.324   1.142   4.417
 4584SOL    HW114651   0.228   1.150   4.442
 4584SOL    HW214652   0.354   1.047   4.426
 4585SOL     OW14653   1.047   2.930   3.133
 4585SOL    HW114654   1.049   3.027   3.108
 4585SOL    HW214655   0.976   2.915   3.202
 4586SOL     OW14656   6.719   4.873   5.642
 4586SOL    HW114657   6.664   4.938   5.695
 4586SOL    HW214658   6.738   4.912   5.552
 4587SOL     OW14659   4.498   3.483   6.223
 4587SOL    HW114660   4.581   3.434   6.197
 4587SOL    HW214661   4.438   3.493   6.144
 4588SOL     OW14662   3.010   4.277   6.624
 4588SOL    HW114663   2.951   4.322   6.558
 4588SOL    HW214664   2.970   4.285   6.716
 4589SOL     OW14665   5.453   5.982   2.046
 4589SOL    HW114666   5.370   6.003   2.098
 4589SOL    HW214667   5.523   5.947   2.108
 4590SOL     OW14668   2.414   5.227   1.927
 4590SOL    HW114669   2.397   5.297   1.996
 4590SOL    HW214670   2.509   5.195   1.935
 4591SOL     OW14671   2.141   0.898   4.792
 4591SOL    HW114672   2.141   0.995   4.767
 4591SOL    HW214673   2.177   0.888   4.885
 4592SOL     OW14674   3.084   2.210   3.511
 4592SOL    HW114675   3.074   2.175   3.418
 4592SOL    HW214676   3.155   2.158   3.559
 4593SOL     OW14677   1.625   5.803   4.465
 4593SOL    HW114678   1.594   5.887   4.511
 4593SOL    HW214679   1.703   5.765   4.515
 4594SOL     OW14680   1.430   6.079   3.867
 4594SOL    HW114681   1.356   6.011   3.867
 4594SOL    HW214682   1.421   6.139   3.787
 4595SOL     OW14683   5.948   2.174   6.738
 4595SOL    HW114684   5.951   2.247   6.669
 4595SOL    HW214685   6.042   2.150   6.765
 4596SOL     OW14686   1.137   1.452   2.301
 4596SOL    HW114687   1.127   1.383   2.372
 4596SOL    HW214688   1.179   1.410   2.220
 4597SOL     OW14689   2.299   5.681   0.722
 4597SOL    HW114690   2.398   5.673   0.736
 4597SOL    HW214691   2.281   5.715   0.630
 4598SOL     OW14692   0.519   2.798   0.182
 4598SOL    HW114693   0.497   2.701   0.176
 4598SOL    HW214694   0.443   2.846   0.227
 4599SOL     OW14695   3.066   6.348   2.932
 4599SOL    HW114696   3.159   6.369   2.962
 4599SOL    HW214697   3.069   6.293   2.849
 4600SOL     OW14698   0.932   6.300   6.240
 4600SOL    HW114699   0.962   6.231   6.174
 4600SOL    HW214700   0.891   6.255   6.319
 4601SOL     OW14701   1.352   0.974   5.372
 4601SOL    HW114702   1.451   0.979   5.385
 4601SOL    HW214703   1.322   0.879   5.383
 4602SOL     OW14704   4.163   0.988   6.556
 4602SOL    HW114705   4.198   0.921   6.622
 4602SOL    HW214706   4.123   1.065   6.605
 4603SOL     OW14707   3.894   6.999   0.689
 4603SOL    HW114708   3.960   7.007   0.615
 4603SOL    HW214709   3.848   6.910   0.683
 4604SOL     OW14710   0.852   6.533   3.257
 4604SOL    HW114711   0.910   6.610   3.285
 4604SOL    HW214712   0.802   6.558   3.174
 4605SOL     OW14713   4.500   1.129   1.909
 4605SOL    HW114714   4.487   1.043   1.959
 4605SOL    HW214715   4.418   1.184   1.915
 4606SOL     OW14716   6.983   6.812   4.484
 4606SOL    HW114717   7.018   6.891   4.535
 4606SOL    HW214718   6.886   6.825   4.466
 4607SOL     OW14719   3.164   1.955   1.212
 4607SOL    HW114720   3.159   2.040   1.265
 4607SOL    HW214721   3.200   1.975   1.121
 4608SOL     OW14722   0.285   2.531   5.424
 4608SOL    HW114723   0.251   2.461   5.486
 4608SOL    HW214724   0.369   2.498   5.381
 4609SOL     OW14725   6.078   5.098   6.283
 4609SOL    HW114726   6.080   5.013   6.231
 4609SOL    HW214727   6.154   5.099   6.348
 4610SOL     OW14728   5.182   4.953   6.538
 4610SOL    HW114729   5.255   4.947   6.470
 4610SOL    HW214730   5.219   4.931   6.629
 4611SOL     OW14731   0.040   0.787   6.673
 4611SOL    HW114732   7.018   0.825   6.591
 4611SOL    HW214733   6.991   0.760   6.738
 4612SOL     OW14734   2.699   1.253   3.053
 4612SOL    HW114735   2.629   1.232   2.984
 4612SOL    HW214736   2.669   1.222   3.143
 4613SOL     OW14737   1.412   5.046   3.225
 4613SOL    HW114738   1.421   4.975   3.155
 4613SOL    HW214739   1.490   5.109   3.219
 4614SOL     OW14740   0.415   4.456   3.254
 4614SOL    HW114741   0.392   4.527   3.320
 4614SOL    HW214742   0.332   4.407   3.228
 4615SOL     OW14743   1.215   4.577   6.956
 4615SOL    HW114744   1.136   4.517   6.941
 4615SOL    HW214745   1.285   4.528   7.008
 4616SOL     OW14746   0.937   3.969   6.472
 4616SOL    HW114747   0.921   3.940   6.378
 4616SOL    HW214748   0.858   3.945   6.528
 4617SOL     OW14749   0.148   4.096   3.905
 4617SOL    HW114750   0.082   4.138   3.968
 4617SOL    HW214751   0.166   4.002   3.934
 4618SOL     OW14752   2.416   4.069   5.685
 4618SOL    HW114753   2.416   4.010   5.765
 4618SOL    HW214754   2.483   4.035   5.618
 4619SOL     OW14755   4.367   5.559   6.888
 4619SOL    HW114756   4.351   5.625   6.815
 4619SOL    HW214757   4.438   5.593   6.949
 4620SOL     OW14758   1.351   4.793   1.363
 4620SOL    HW114759   1.288   4.791   1.285
 4620SOL    HW214760   1.328   4.719   1.427
 4621SOL     OW14761   2.820   0.109   2.548
 4621SOL    HW114762   2.901   0.052   2.534
 4621SOL    HW214763   2.746   0.053   2.586
 4622SOL     OW14764   5.863   0.064   0.346
 4622SOL    HW114765   5.774   0.042   0.306
 4622SOL    HW214766   5.903   7.003   0.385
 4623SOL     OW14767   3.026   4.903   3.028
 4623SOL    HW114768   3.078   4.988   3.019
 4623SOL    HW214769   3.004   4.888   3.124
 4624SOL     OW14770   5.240   1.931   0.812
 4624SOL    HW114771   5.310   1.865   0.786
 4624SOL    HW214772   5.274   1.987   0.888
 4625SOL     OW14773   1.278   6.466   2.109
 4625SOL    HW114774   1.289   6.555   2.066
 4625SOL    HW214775   1.304   6.473   2.206
 4626SOL     OW14776   4.123   3.521   1.923
 4626SOL    HW114777   4.165   3.431   1.918
 4626SOL    HW214778   4.173   3.585   1.864
 4627SOL     OW14779   5.859   6.168   4.796
 4627SOL    HW114780   5.925   6.227   4.842
 4627SOL    HW214781   5.851   6.194   4.700
 4628SOL     OW14782   6.705   4.651   2.915
 4628SOL    HW114783   6.636   4.724   2.917
 4628SOL    HW214784   6.794   4.689   2.891
 4629SOL     OW14785   1.130   5.214   1.051
 4629SOL    HW114786   1.194   5.156   1.000
 4629SOL    HW214787   1.175   5.249   1.133
 4630SOL     OW14788   1.923   3.823   1.281
 4630SOL    HW114789   1.834   3.858   1.310
 4630SOL    HW214790   1.912   3.734   1.238
 4631SOL     OW14791   6.442   1.607   2.704
 4631SOL    HW114792   6.379   1.532   2.685
 4631SOL    HW214793   6.516   1.575   2.763
 4632SOL     OW14794   3.214   5.019   3.933
 4632SOL    HW114795   3.236   5.052   3.841
 4632SOL    HW214796   3.171   5.093   3.986
 4633SOL     OW14797   5.475   3.089   3.954
 4633SOL    HW114798   5.506   3.172   3.908
 4633SOL    HW214799   5.399   3.049   3.901
 4634SOL     OW14800   3.551   3.031   4.994
 4634SOL    HW114801   3.491   2.981   4.931
 4634SOL    HW214802   3.647   3.008   4.974
 4635SOL     OW14803   4.119   6.554   2.069
 4635SOL    HW114804   4.046   6.614   2.037
 4635SOL    HW214805   4.198   6.609   2.096
 4636SOL     OW14806   1.462   5.577   6.478
 4636SOL    HW114807   1.418   5.493   6.510
 4636SOL    HW214808   1.402   5.623   6.413
 4637SOL     OW14809   1.919   2.372   3.253
 4637SOL    HW114810   1.971   2.353   3.170
 4637SOL    HW214811   1.976   2.422   3.318
 4638SOL     OW14812   3.858   4.765   0.458
 4638SOL    HW114813   3.857   4.811   0.547
 4638SOL    HW214814   3.945   4.717   0.447
 4639SOL     OW14815   4.170   1.981   1.957
 4639SOL    HW114816   4.078   1.979   1.998
 4639SOL    HW214817   4.219   1.898   1.981
 4640SOL     OW14818   6.908   2.819   1.477
 4640SOL    HW114819   6.838   2.880   1.515
 4640SOL    HW214820   6.990   2.873   1.456
 4641SOL     OW14821   0.886   6.064   5.148
 4641SOL    HW114822   0.928   5.974   5.137
 4641SOL    HW214823   0.856   6.077   5.242
 4642SOL     OW14824   6.113   1.284   5.753
 4642SOL    HW114825   6.116   1.251   5.659
 4642SOL    HW214826   6.024   1.263   5.793
 4643SOL     OW14827   0.750   2.010   6.699
 4643SOL    HW114828   0.676   1.943   6.695
 4643SOL    HW214829   0.747   2.068   6.617
 4644SOL     OW14830   1.323   1.548   1.305
 4644SOL    HW114831   1.268   1.549   1.222
 4644SOL    HW214832   1.318   1.638   1.349
 4645SOL     OW14833   6.069   2.580   5.082
 4645SOL    HW114834   6.048   2.566   4.985
 4645SOL    HW214835   6.066   2.677   5.103
 4646SOL     OW14836   1.445   4.055   2.715
 4646SOL    HW114837   1.504   4.131   2.689
 4646SOL    HW214838   1.419   4.063   2.811
 4647SOL     OW14839   1.930   6.462   2.466
 4647SOL    HW114840   1.890   6.480   2.376
 4647SOL    HW214841   1.888   6.381   2.506
 4648SOL     OW14842   2.530   1.075   4.743
 4648SOL    HW114843   2.557   1.161   4.786
 4648SOL    HW214844   2.521   1.089   4.644
 4649SOL     OW14845   5.323   2.387   0.686
 4649SOL    HW114846   5.316   2.485   0.706
 4649SOL    HW214847   5.406   2.369   0.633
 4650SOL     OW14848   3.965   5.286   0.704
 4650SOL    HW114849   3.956   5.287   0.804
 4650SOL    HW214850   4.009   5.370   0.673
 4651SOL     OW14851   1.080   3.911   6.894
 4651SOL    HW114852   1.153   3.850   6.926
 4651SOL    HW214853   1.108   3.954   6.808
 4652SOL     OW14854   0.023   0.180   5.670
 4652SOL    HW114855   0.029   0.104   5.606
 4652SOL    HW214856   6.951   0.189   5.703
 4653SOL     OW14857   0.025   6.184   0.819
 4653SOL    HW114858   0.004   6.092   0.788
 4653SOL    HW214859   0.074   6.179   0.906
 4654SOL     OW14860   0.461   1.047   5.157
 4654SOL    HW114861   0.468   1.130   5.100
 4654SOL    HW214862   0.545   1.035   5.209
 4655SOL     OW14863   5.044   4.396   2.975
 4655SOL    HW114864   5.098   4.441   2.904
 4655SOL    HW214865   5.089   4.407   3.063
 4656SOL     OW14866   5.992   0.552   1.393
 4656SOL    HW114867   5.952   0.567   1.302
 4656SOL    HW214868   5.966   0.461   1.426
 4657SOL     OW14869   3.813   1.775   2.696
 4657SOL    HW114870   3.751   1.786   2.618
 4657SOL    HW214871   3.907   1.784   2.664
 4658SOL     OW14872   1.045   1.897   7.018
 4658SOL    HW114873   0.992   1.973   6.982
 4658SOL    HW214874   0.990   1.845   0.062
 4659SOL     OW14875   2.505   4.837   0.429
 4659SOL    HW114876   2.491   4.832   0.330
 4659SOL    HW214877   2.480   4.928   0.462
 4660SOL     OW14878   0.342   4.780   4.200
 4660SOL    HW114879   0.353   4.874   4.166
 4660SOL    HW214880   0.425   4.728   4.184
 4661SOL     OW14881   1.070   1.137   5.962
 4661SOL    HW114882   1.000   1.108   6.028
 4661SOL    HW214883   1.158   1.145   6.009
 4662SOL     OW14884   3.031   0.590   5.909
 4662SOL    HW114885   3.127   0.563   5.900
 4662SOL    HW214886   3.026   0.689   5.923
 4663SOL     OW14887   0.859   0.660   1.316
 4663SOL    HW114888   0.926   0.732   1.296
 4663SOL    HW214889   0.880   0.579   1.260
 4664SOL     OW14890   5.944   5.907   5.278
 4664SOL    HW114891   5.924   5.930   5.373
 4664SOL    HW214892   5.937   5.808   5.265
 4665SOL     OW14893   6.790   0.822   2.268
 4665SOL    HW114894   6.871   0.765   2.282
 4665SOL    HW214895   6.715   0.789   2.325
 4666SOL     OW14896   1.684   2.615   5.953
 4666SOL    HW114897   1.748   2.620   6.029
 4666SOL    HW214898   1.678   2.521   5.920
 4667SOL     OW14899   6.031   2.882   1.387
 4667SOL    HW114900   6.096   2.952   1.357
 4667SOL    HW214901   6.011   2.896   1.484
 4668SOL     OW14902   4.782   1.500   5.789
 4668SOL    HW114903   4.788   1.585   5.842
 4668SOL    HW214904   4.732   1.517   5.704
 4669SOL     OW14905   5.594   0.050   5.886
 4669SOL    HW114906   5.533   7.014   5.940
 4669SOL    HW214907   5.667   0.085   5.945
 4670SOL     OW14908   0.369   3.394   6.595
 4670SOL    HW114909   0.340   3.434   6.682
 4670SOL    HW214910   0.371   3.466   6.525
 4671SOL     OW14911   6.735   2.549   1.810
 4671SOL    HW114912   6.747   2.533   1.908
 4671SOL    HW214913   6.776   2.473   1.759
 4672SOL     OW14914   3.303   3.468   0.432
 4672SOL    HW114915   3.266   3.378   0.452
 4672SOL    HW214916   3.387   3.481   0.485
 4673SOL     OW14917   5.500   0.768   0.821
 4673SOL    HW114918   5.420   0.759   0.880
 4673SOL    HW214919   5.471   0.799   0.730
 4674SOL     OW14920   1.385   2.742   0.840
 4674SOL    HW114921   1.301   2.758   0.891
 4674SOL    HW214922   1.363   2.706   0.749
 4675SOL     OW14923   1.745   6.015   0.046
 4675SOL    HW114924   1.775   5.944   7.004
 4675SOL    HW214925   1.766   6.105   0.008
 4676SOL     OW14926   1.076   5.594   4.705
 4676SOL    HW114927   1.069   5.633   4.797
 4676SOL    HW214928   1.077   5.668   4.638
 4677SOL     OW14929   4.017   6.984   6.766
 4677SOL    HW114930   4.078   6.925   6.818
 4677SOL    HW214931   3.959   6.928   6.707
 4678SOL     OW14932   2.408   4.744   0.133
 4678SOL    HW114933   2.309   4.743   0.145
 4678SOL    HW214934   2.431   4.715   0.040
 4679SOL     OW14935   2.110   6.950   5.245
 4679SOL    HW114936   2.205   6.947   5.214
 4679SOL    HW214937   2.050   6.910   5.176
 4680SOL     OW14938   0.571   4.880   6.857
 4680SOL    HW114939   0.473   4.898   6.856
 4680SOL    HW214940   0.587   4.782   6.869
 4681SOL     OW14941   6.643   5.582   4.980
 4681SOL    HW114942   6.669   5.661   5.036
 4681SOL    HW214943   6.691   5.501   5.013
 4682SOL     OW14944   2.954   0.456   1.016
 4682SOL    HW114945   2.996   0.525   0.958
 4682SOL    HW214946   2.920   0.499   1.100
 4683SOL     OW14947   0.231   4.828   3.788
 4683SOL    HW114948   0.174   4.810   3.708
 4683SOL    HW214949   0.203   4.913   3.832
 4684SOL     OW14950   1.820   1.402   4.837
 4684SOL    HW114951   1.727   1.368   4.856
 4684SOL    HW214952   1.872   1.406   4.922
 4685SOL     OW14953   5.141   4.184   4.618
 4685SOL    HW114954   5.169   4.277   4.639
 4685SOL    HW214955   5.050   4.185   4.575
 4686SOL     OW14956   4.963   5.553   6.805
 4686SOL    HW114957   4.997   5.589   6.892
 4686SOL    HW214958   5.038   5.511   6.754
 4687SOL     OW14959   5.106   6.969   4.409
 4687SOL    HW114960   5.179   6.982   4.475
 4687SOL    HW214961   5.021   6.945   4.457
 4688SOL     OW14962   6.880   1.329   0.777
 4688SOL    HW114963   6.805   1.266   0.755
 4688SOL    HW214964   6.875   1.354   0.873
 4689SOL     OW14965   1.918   5.718   4.333
 4689SOL    HW114966   1.869   5.670   4.261
 4689SOL    HW214967   1.871   5.706   4.420
 4690SOL     OW14968   2.193   1.898   1.155
 4690SOL    HW114969   2.188   1.799   1.163
 4690SOL    HW214970   2.101   1.936   1.150
 4691SOL     OW14971   3.466   4.461   0.520
 4691SOL    HW114972   3.428   4.373   0.491
 4691SOL    HW214973   3.394   4.530   0.521
 4692SOL     OW14974   1.241   5.505   3.519
 4692SOL    HW114975   1.328   5.459   3.538
 4692SOL    HW214976   1.245   5.546   3.428
 4693SOL     OW14977   0.987   0.788   1.909
 4693SOL    HW114978   1.053   0.832   1.847
 4693SOL    HW214979   0.946   0.856   1.969
 4694SOL     OW14980   1.100   1.064   5.437
 4694SOL    HW114981   1.102   1.164   5.435
 4694SOL    HW214982   1.184   1.028   5.396
 4695SOL     OW14983   3.201   3.675   2.898
 4695SOL    HW114984   3.299   3.655   2.896
 4695SOL    HW214985   3.164   3.654   2.988
 4696SOL     OW14986   6.711   3.620   0.783
 4696SOL    HW114987   6.677   3.619   0.877
 4696SOL    HW214988   6.810   3.613   0.783
 4697SOL     OW14989   1.080   5.843   6.664
 4697SOL    HW114990   1.024   5.828   6.746
 4697SOL    HW214991   1.135   5.762   6.645
 4698SOL     OW14992   6.319   3.547   1.647
 4698SOL    HW114993   6.277   3.464   1.682
 4698SOL    HW214994   6.266   3.627   1.678
 4699SOL     OW14995   6.815   6.694   3.244
 4699SOL    HW114996   6.717   6.674   3.249
 4699SOL    HW214997   6.839   6.757   3.318
 4700SOL     OW14998   5.142   6.642   6.423
 4700SOL    HW114999   5.143   6.718   6.488
 4700SOL    HW215000   5.235   6.607   6.410
 4701SOL     OW15001   1.814   0.517   6.914
 4701SOL    HW115002   1.843   0.422   6.900
 4701SOL    HW215003   1.726   0.519   6.962
 4702SOL     OW15004   2.660   2.778   0.824
 4702SOL    HW115005   2.605   2.695   0.827
 4702SOL    HW215006   2.685   2.799   0.730
 4703SOL     OW15007   0.897   6.887   2.006
 4703SOL    HW115008   0.820   6.895   2.069
 4703SOL    HW215009   0.881   6.810   1.944
 4704SOL     OW15010   4.908   6.702   6.264
 4704SOL    HW115011   4.962   6.786   6.274
 4704SOL    HW215012   4.944   6.632   6.325
 4705SOL     OW15013   3.956   3.100   4.858
 4705SOL    HW115014   3.981   3.181   4.805
 4705SOL    HW215015   3.861   3.076   4.839
 4706SOL     OW15016   5.578   3.998   6.744
 4706SOL    HW115017   5.605   3.906   6.772
 4706SOL    HW215018   5.478   4.001   6.733
 4707SOL     OW15019   2.845   5.471   1.271
 4707SOL    HW115020   2.828   5.518   1.184
 4707SOL    HW215021   2.926   5.508   1.315
 4708SOL     OW15022   1.569   3.351   2.522
 4708SOL    HW115023   1.595   3.262   2.485
 4708SOL    HW215024   1.588   3.422   2.454
 4709SOL     OW15025   2.910   4.468   0.527
 4709SOL    HW115026   2.858   4.542   0.483
 4709SOL    HW215027   2.885   4.462   0.623
 4710SOL     OW15028   4.729   3.269   1.198
 4710SOL    HW115029   4.694   3.362   1.186
 4710SOL    HW215030   4.829   3.270   1.200
 4711SOL     OW15031   2.570   6.937   3.508
 4711SOL    HW115032   2.495   6.962   3.446
 4711SOL    HW215033   2.545   6.853   3.556
 4712SOL     OW15034   1.520   3.652   6.683
 4712SOL    HW115035   1.481   3.561   6.670
 4712SOL    HW215036   1.557   3.685   6.596
 4713SOL     OW15037   0.944   5.165   0.857
 4713SOL    HW115038   0.997   5.164   0.942
 4713SOL    HW215039   0.973   5.088   0.800
 4714SOL     OW15040   4.033   2.673   1.126
 4714SOL    HW115041   4.117   2.624   1.102
 4714SOL    HW215042   4.019   2.669   1.225
 4715SOL     OW15043   4.868   3.926   4.995
 4715SOL    HW115044   4.845   4.006   5.051
 4715SOL    HW215045   4.827   3.844   5.036
 4716SOL     OW15046   2.669   5.449   6.776
 4716SOL    HW115047   2.739   5.480   6.711
 4716SOL    HW215048   2.581   5.441   6.728
 4717SOL     OW15049   2.163   5.195   4.594
 4717SOL    HW115050   2.152   5.202   4.495
 4717SOL    HW215051   2.094   5.252   4.639
 4718SOL     OW15052   4.754   0.385   0.153
 4718SOL    HW115053   4.843   0.428   0.137
 4718SOL    HW215054   4.743   0.307   0.092
 4719SOL     OW15055   4.188   3.256   1.872
 4719SOL    HW115056   4.092   3.229   1.871
 4719SOL    HW215057   4.243   3.190   1.820
 4720SOL     OW15058   2.920   1.238   3.365
 4720SOL    HW115059   2.963   1.301   3.430
 4720SOL    HW215060   2.833   1.276   3.334
 4721SOL     OW15061   1.762   1.450   1.740
 4721SOL    HW115062   1.819   1.399   1.676
 4721SOL    HW215063   1.793   1.433   1.834
 4722SOL     OW15064   3.177   0.170   2.252
 4722SOL    HW115065   3.170   0.261   2.210
 4722SOL    HW215066   3.241   0.174   2.329
 4723SOL     OW15067   2.934   6.922   5.011
 4723SOL    HW115068   2.901   6.830   5.031
 4723SOL    HW215069   2.978   6.923   4.921
 4724SOL     OW15070   4.524   5.072   0.662
 4724SOL    HW115071   4.581   5.000   0.702
 4724SOL    HW215072   4.499   5.138   0.733
 4725SOL     OW15073   6.120   5.476   2.302
 4725SOL    HW115074   6.088   5.410   2.370
 4725SOL    HW215075   6.135   5.429   2.215
 4726SOL     OW15076   0.599   6.521   4.558
 4726SOL    HW115077   0.621   6.550   4.651
 4726SOL    HW215078   0.525   6.577   4.522
 4727SOL     OW15079   5.845   6.632   2.080
 4727SOL    HW115080   5.750   6.619   2.052
 4727SOL    HW215081   5.866   6.730   2.082
 4728SOL     OW15082   6.233   0.723   0.055
 4728SOL    HW115083   6.276   0.633   0.069
 4728SOL    HW215084   6.211   0.734   6.980
 4729SOL     OW15085   3.313   0.664   1.002
 4729SOL    HW115086   3.248   0.677   0.926
 4729SOL    HW215087   3.400   0.707   0.979
 4730SOL     OW15088   1.980   0.715   6.071
 4730SOL    HW115089   2.027   0.776   6.008
 4730SOL    HW215090   1.948   0.634   6.022
 4731SOL     OW15091   4.700   1.957   6.211
 4731SOL    HW115092   4.654   1.944   6.123
 4731SOL    HW215093   4.677   1.881   6.272
 4732SOL     OW15094   0.562   0.440   0.073
 4732SOL    HW115095   0.502   0.376   0.122
 4732SOL    HW215096   0.658   0.415   0.091
 4733SOL     OW15097   6.317   3.459   3.574
 4733SOL    HW115098   6.402   3.420   3.608
 4733SOL    HW215099   6.247   3.388   3.570
 4734SOL     OW15100   6.137   4.506   5.678
 4734SOL    HW115101   6.078   4.503   5.597
 4734SOL    HW215102   6.114   4.430   5.739
 4735SOL     OW15103   0.431   4.151   3.821
 4735SOL    HW115104   0.468   4.063   3.853
 4735SOL    HW215105   0.331   4.148   3.824
 4736SOL     OW15106   1.636   0.133   2.240
 4736SOL    HW115107   1.636   0.231   2.258
 4736SOL    HW215108   1.627   0.117   2.142
 4737SOL     OW15109   3.575   5.096   1.801
 4737SOL    HW115110   3.484   5.055   1.800
 4737SOL    HW215111   3.572   5.183   1.849
 4738SOL     OW15112   0.547   6.893   2.424
 4738SOL    HW115113   0.508   6.894   2.516
 4738SOL    HW215114   0.555   6.798   2.393
 4739SOL     OW15115   3.743   0.202   1.665
 4739SOL    HW115116   3.840   0.180   1.674
 4739SOL    HW215117   3.714   0.256   1.744
 4740SOL     OW15118   0.514   1.979   4.141
 4740SOL    HW115119   0.614   1.977   4.135
 4740SOL    HW215120   0.487   2.026   4.225
 4741SOL     OW15121   4.136   3.694   2.428
 4741SOL    HW115122   4.204   3.621   2.434
 4741SOL    HW215123   4.089   3.688   2.340
 4742SOL     OW15124   5.017   0.839   1.530
 4742SOL    HW115125   4.962   0.899   1.589
 4742SOL    HW215126   5.079   0.784   1.586
 4743SOL     OW15127   1.638   5.334   0.805
 4743SOL    HW115128   1.579   5.254   0.794
 4743SOL    HW215129   1.585   5.408   0.847
 4744SOL     OW15130   1.637   5.651   1.236
 4744SOL    HW115131   1.632   5.557   1.271
 4744SOL    HW215132   1.703   5.655   1.160
 4745SOL     OW15133   1.615   2.943   0.510
 4745SOL    HW115134   1.711   2.970   0.521
 4745SOL    HW215135   1.575   2.991   0.432
 4746SOL     OW15136   5.268   5.594   4.119
 4746SOL    HW115137   5.223   5.552   4.199
 4746SOL    HW215138   5.345   5.537   4.091
 4747SOL     OW15139   3.647   0.584   0.209
 4747SOL    HW115140   3.723   0.623   0.156
 4747SOL    HW215141   3.565   0.640   0.197
 4748SOL     OW15142   1.841   0.136   2.612
 4748SOL    HW115143   1.887   0.122   2.699
 4748SOL    HW215144   1.773   0.209   2.622
 4749SOL     OW15145   2.802   1.647   1.227
 4749SOL    HW115146   2.834   1.702   1.150
 4749SOL    HW215147   2.759   1.708   1.295
 4750SOL     OW15148   4.703   3.277   6.191
 4750SOL    HW115149   4.693   3.221   6.109
 4750SOL    HW215150   4.798   3.307   6.200
 4751SOL     OW15151   4.893   1.099   2.191
 4751SOL    HW115152   4.974   1.149   2.221
 4751SOL    HW215153   4.831   1.087   2.268
 4752SOL     OW15154   5.359   1.387   6.418
 4752SOL    HW115155   5.260   1.375   6.410
 4752SOL    HW215156   5.388   1.371   6.512
 4753SOL     OW15157   2.858   6.282   5.585
 4753SOL    HW115158   2.885   6.324   5.671
 4753SOL    HW215159   2.787   6.337   5.541
 4754SOL     OW15160   5.229   4.227   6.635
 4754SOL    HW115161   5.232   4.187   6.543
 4754SOL    HW215162   5.310   4.283   6.650
 4755SOL     OW15163   0.968   1.234   1.461
 4755SOL    HW115164   0.935   1.177   1.385
 4755SOL    HW215165   0.926   1.204   1.546
 4756SOL     OW15166   0.230   3.813   5.727
 4756SOL    HW115167   0.259   3.876   5.655
 4756SOL    HW215168   0.132   3.795   5.720
 4757SOL     OW15169   1.886   3.018   0.515
 4757SOL    HW115170   1.942   2.949   0.561
 4757SOL    HW215171   1.887   3.001   0.416
 4758SOL     OW15172   1.860   4.846   2.668
 4758SOL    HW115173   1.800   4.805   2.736
 4758SOL    HW215174   1.826   4.936   2.643
 4759SOL     OW15175   0.686   6.613   2.312
 4759SOL    HW115176   0.600   6.577   2.346
 4759SOL    HW215177   0.677   6.636   2.215
 4760SOL     OW15178   1.533   6.744   1.757
 4760SOL    HW115179   1.633   6.749   1.767
 4760SOL    HW215180   1.508   6.653   1.726
 4761SOL     OW15181   5.163   6.471   1.722
 4761SOL    HW115182   5.247   6.449   1.671
 4761SOL    HW215183   5.177   6.557   1.772
 4762SOL     OW15184   1.272   1.122   2.686
 4762SOL    HW115185   1.330   1.200   2.711
 4762SOL    HW215186   1.184   1.129   2.733
 4763SOL     OW15187   5.759   5.220   1.634
 4763SOL    HW115188   5.746   5.246   1.538
 4763SOL    HW215189   5.739   5.299   1.693
 4764SOL     OW15190   4.722   2.914   6.856
 4764SOL    HW115191   4.660   2.951   6.787
 4764SOL    HW215192   4.754   2.824   6.827
 4765SOL     OW15193   3.946   1.412   5.835
 4765SOL    HW115194   4.037   1.397   5.875
 4765SOL    HW215195   3.901   1.324   5.820
 4766SOL     OW15196   0.818   1.123   4.670
 4766SOL    HW115197   0.824   1.094   4.766
 4766SOL    HW215198   0.724   1.148   4.648
 4767SOL     OW15199   2.335   4.899   3.788
 4767SOL    HW115200   2.385   4.974   3.745
 4767SOL    HW215201   2.237   4.917   3.784
 4768SOL     OW15202   4.584   1.614   5.981
 4768SOL    HW115203   4.651   1.680   6.016
 4768SOL    HW215204   4.567   1.632   5.884
 4769SOL     OW15205   2.502   3.172   0.996
 4769SOL    HW115206   2.533   3.090   1.044
 4769SOL    HW215207   2.464   3.147   0.907
 4770SOL     OW15208   6.887   1.508   3.499
 4770SOL    HW115209   6.909   1.580   3.434
 4770SOL    HW215210   6.859   1.549   3.586
 4771SOL     OW15211   2.801   0.377   4.009
 4771SOL    HW115212   2.762   0.331   4.088
 4771SOL    HW215213   2.900   0.387   4.023
 4772SOL     OW15214   2.558   4.631   3.023
 4772SOL    HW115215   2.518   4.711   3.068
 4772SOL    HW215216   2.580   4.654   2.928
 4773SOL     OW15217   3.019   5.113   4.768
 4773SOL    HW115218   3.087   5.055   4.724
 4773SOL    HW215219   2.927   5.080   4.746
 4774SOL     OW15220   1.076   4.481   0.852
 4774SOL    HW115221   1.005   4.552   0.850
 4774SOL    HW215222   1.033   4.391   0.845
 4775SOL     OW15223   6.015   5.139   4.531
 4775SOL    HW115224   5.939   5.198   4.504
 4775SOL    HW215225   6.014   5.128   4.631
 4776SOL     OW15226   6.360   1.838   5.008
 4776SOL    HW115227   6.434   1.774   5.026
 4776SOL    HW215228   6.397   1.931   5.003
 4777SOL     OW15229   1.238   6.867   3.655
 4777SOL    HW115230   1.281   6.777   3.661
 4777SOL    HW215231   1.291   6.926   3.595
 4778SOL     OW15232   1.976   0.166   0.072
 4778SOL    HW115233   2.028   0.188   7.012
 4778SOL    HW215234   2.029   0.191   0.153
 4779SOL     OW15235   4.856   1.183   4.521
 4779SOL    HW115236   4.942   1.132   4.524
 4779SOL    HW215237   4.783   1.128   4.562
 4780SOL     OW15238   4.929   3.004   4.793
 4780SOL    HW115239   4.945   2.967   4.702
 4780SOL    HW215240   4.911   3.102   4.786
 4781SOL     OW15241   1.860   5.372   2.104
 4781SOL    HW115242   1.882   5.313   2.182
 4781SOL    HW215243   1.812   5.319   2.034
 4782SOL     OW15244   1.159   6.129   2.949
 4782SOL    HW115245   1.122   6.200   3.010
 4782SOL    HW215246   1.194   6.172   2.866
 4783SOL     OW15247   0.696   3.323   6.627
 4783SOL    HW115248   0.701   3.376   6.711
 4783SOL    HW215249   0.603   3.324   6.591
 4784SOL     OW15250   5.645   3.106   0.024
 4784SOL    HW115251   5.647   3.037   6.974
 4784SOL    HW215252   5.632   3.061   0.113
 4785SOL     OW15253   6.892   0.008   3.881
 4785SOL    HW115254   6.868   0.102   3.906
 4785SOL    HW215255   6.920   6.980   3.963
 4786SOL     OW15256   1.211   5.503   0.460
 4786SOL    HW115257   1.122   5.524   0.419
 4786SOL    HW215258   1.227   5.405   0.456
 4787SOL     OW15259   4.502   1.039   4.901
 4787SOL    HW115260   4.531   0.943   4.907
 4787SOL    HW215261   4.576   1.094   4.863
 4788SOL     OW15262   0.015   5.574   0.855
 4788SOL    HW115263   0.108   5.589   0.889
 4788SOL    HW215264   6.976   5.554   0.932
 4789SOL     OW15265   5.863   0.924   2.875
 4789SOL    HW115266   5.842   0.981   2.955
 4789SOL    HW215267   5.946   0.958   2.831
 4790SOL     OW15268   6.660   2.348   4.958
 4790SOL    HW115269   6.605   2.307   5.032
 4790SOL    HW215270   6.650   2.293   4.875
 4791SOL     OW15271   0.482   0.716   6.718
 4791SOL    HW115272   0.459   0.711   6.816
 4791SOL    HW215273   0.574   0.682   6.704
 4792SOL     OW15274   0.521   3.854   1.575
 4792SOL    HW115275   0.470   3.861   1.489
 4792SOL    HW215276   0.558   3.943   1.599
 4793SOL     OW15277   1.007   3.574   5.438
 4793SOL    HW115278   1.046   3.667   5.433
 4793SOL    HW215279   0.932   3.573   5.504
 4794SOL     OW15280   5.416   1.595   6.208
 4794SOL    HW115281   5.365   1.545   6.277
 4794SOL    HW215282   5.511   1.564   6.207
 4795SOL     OW15283   6.887   0.723   6.911
 4795SOL    HW115284   6.924   0.695   6.999
 4795SOL    HW215285   6.818   0.794   6.924
 4796SOL     OW15286   5.767   0.782   5.951
 4796SOL    HW115287   5.833   0.833   5.895
 4796SOL    HW215288   5.761   0.688   5.917
 4797SOL     OW15289   2.475   4.801   5.493
 4797SOL    HW115290   2.424   4.779   5.410
 4797SOL    HW215291   2.554   4.740   5.500
 4798SOL     OW15292   3.034   6.184   0.162
 4798SOL    HW115293   3.111   6.243   0.186
 4798SOL    HW215294   3.005   6.203   0.068
 4799SOL     OW15295   3.686   3.198   0.818
 4799SOL    HW115296   3.784   3.187   0.799
 4799SOL    HW215297   3.635   3.127   0.770
 4800SOL     OW15298   1.173   4.563   0.291
 4800SOL    HW115299   1.109   4.554   0.367
 4800SOL    HW215300   1.264   4.534   0.320
 4801SOL     OW15301   4.953   2.780   3.229
 4801SOL    HW115302   4.995   2.732   3.307
 4801SOL    HW215303   4.931   2.714   3.158
 4802SOL     OW15304   6.846   0.397   5.380
 4802SOL    HW115305   6.901   0.314   5.371
 4802SOL    HW215306   6.897   0.475   5.342
 4803SOL     OW15307   4.936   3.521   5.605
 4803SOL    HW115308   4.943   3.548   5.701
 4803SOL    HW215309   4.999   3.577   5.550
 4804SOL     OW15310   5.467   2.613   0.454
 4804SOL    HW115311   5.489   2.515   0.460
 4804SOL    HW215312   5.547   2.663   0.419
 4805SOL     OW15313   5.572   1.073   6.614
 4805SOL    HW115314   5.556   1.012   6.692
 4805SOL    HW215315   5.667   1.104   6.616
 4806SOL     OW15316   0.853   2.289   3.553
 4806SOL    HW115317   0.775   2.229   3.570
 4806SOL    HW215318   0.903   2.257   3.473
 4807SOL     OW15319   0.774   4.050   0.176
 4807SOL    HW115320   0.746   3.956   0.159
 4807SOL    HW215321   0.863   4.067   0.132
 4808SOL     OW15322   3.517   6.161   2.516
 4808SOL    HW115323   3.526   6.075   2.565
 4808SOL    HW215324   3.421   6.177   2.493
 4809SOL     OW15325   2.670   3.673   0.239
 4809SOL    HW115326   2.574   3.692   0.216
 4809SOL    HW215327   2.718   3.760   0.253
 4810SOL     OW15328   1.830   5.226   4.590
 4810SOL    HW115329   1.809   5.221   4.492
 4810SOL    HW215330   1.836   5.322   4.617
 4811SOL     OW15331   3.368   3.428   4.278
 4811SOL    HW115332   3.449   3.475   4.243
 4811SOL    HW215333   3.320   3.383   4.203
 4812SOL     OW15334   2.563   6.652   1.830
 4812SOL    HW115335   2.613   6.726   1.787
 4812SOL    HW215336   2.604   6.630   1.919
 4813SOL     OW15337   0.813   2.693   4.682
 4813SOL    HW115338   0.802   2.772   4.742
 4813SOL    HW215339   0.909   2.680   4.660
 4814SOL     OW15340   6.216   2.106   0.644
 4814SOL    HW115341   6.235   2.102   0.742
 4814SOL    HW215342   6.121   2.137   0.630
 4815SOL     OW15343   6.618   4.364   2.353
 4815SOL    HW115344   6.611   4.409   2.442
 4815SOL    HW215345   6.707   4.384   2.312
 4816SOL     OW15346   2.419   0.355   2.791
 4816SOL    HW115347   2.398   0.295   2.868
 4816SOL    HW215348   2.341   0.357   2.728
 4817SOL     OW15349   3.700   2.400   0.102
 4817SOL    HW115350   3.654   2.328   0.049
 4817SOL    HW215351   3.712   2.370   0.196
 4818SOL     OW15352   4.975   6.651   4.440
 4818SOL    HW115353   4.928   6.569   4.408
 4818SOL    HW215354   5.039   6.627   4.512
 4819SOL     OW15355   3.504   0.806   0.138
 4819SOL    HW115356   3.432   0.864   0.175
 4819SOL    HW215357   3.574   0.864   0.095
 4820SOL     OW15358   6.637   4.952   1.559
 4820SOL    HW115359   6.549   4.906   1.546
 4820SOL    HW215360   6.693   4.900   1.624
 4821SOL     OW15361   7.001   6.631   1.330
 4821SOL    HW115362   6.952   6.582   1.402
 4821SOL    HW215363   6.955   6.616   1.242
 4822SOL     OW15364   0.603   4.100   1.603
 4822SOL    HW115365   0.677   4.099   1.669
 4822SOL    HW215366   0.564   4.192   1.598
 4823SOL     OW15367   0.239   1.801   3.038
 4823SOL    HW115368   0.139   1.803   3.043
 4823SOL    HW215369   0.278   1.873   3.096
 4824SOL     OW15370   5.560   2.239   2.045
 4824SOL    HW115371   5.494   2.308   2.016
 4824SOL    HW215372   5.527   2.192   2.127
 4825SOL     OW15373   1.316   3.464   4.456
 4825SOL    HW115374   1.360   3.544   4.495
 4825SOL    HW215375   1.346   3.453   4.361
 4826SOL     OW15376   6.605   7.018   0.592
 4826SOL    HW115377   6.583   0.087   0.627
 4826SOL    HW215378   6.698   6.993   0.620
 4827SOL     OW15379   4.894   2.190   0.058
 4827SOL    HW115380   4.934   2.176   6.989
 4827SOL    HW215381   4.796   2.206   0.049
 4828SOL     OW15382   5.668   3.249   6.589
 4828SOL    HW115383   5.641   3.324   6.649
 4828SOL    HW215384   5.741   3.197   6.631
 4829SOL     OW15385   3.172   0.469   5.521
 4829SOL    HW115386   3.086   0.432   5.557
 4829SOL    HW215387   3.228   0.503   5.596
 4830SOL     OW15388   5.117   4.849   4.906
 4830SOL    HW115389   5.109   4.936   4.953
 4830SOL    HW215390   5.153   4.780   4.969
 4831SOL     OW15391   6.232   2.083   6.799
 4831SOL    HW115392   6.326   2.117   6.789
 4831SOL    HW215393   6.229   1.986   6.773
 4832SOL     OW15394   1.151   2.846   6.479
 4832SOL    HW115395   1.119   2.778   6.413
 4832SOL    HW215396   1.079   2.863   6.547
 4833SOL     OW15397   6.515   2.541   3.665
 4833SOL    HW115398   6.524   2.453   3.618
 4833SOL    HW215399   6.421   2.573   3.656
 4834SOL     OW15400   5.873   0.296   3.315
 4834SOL    HW115401   5.867   0.198   3.333
 4834SOL    HW215402   5.809   0.345   3.374
 4835SOL     OW15403   1.952   1.770   6.666
 4835SOL    HW115404   2.029   1.708   6.650
 4835SOL    HW215405   1.968   1.856   6.617
 4836SOL     OW15406   5.779   3.523   2.626
 4836SOL    HW115407   5.823   3.574   2.551
 4836SOL    HW215408   5.845   3.459   2.666
 4837SOL     OW15409   0.515   5.226   1.164
 4837SOL    HW115410   0.565   5.258   1.083
 4837SOL    HW215411   0.577   5.220   1.242
 4838SOL     OW15412   2.548   5.773   2.414
 4838SOL    HW115413   2.492   5.850   2.382
 4838SOL    HW215414   2.501   5.687   2.392
 4839SOL     OW15415   0.872   0.280   6.196
 4839SOL    HW115416   0.964   0.294   6.232
 4839SOL    HW215417   0.864   0.321   6.106
 4840SOL     OW15418   6.841   6.058   6.297
 4840SOL    HW115419   6.766   6.123   6.308
 4840SOL    HW215420   6.803   5.966   6.284
 4841SOL     OW15421   1.673   5.877   0.815
 4841SOL    HW115422   1.708   5.816   0.886
 4841SOL    HW215423   1.650   5.824   0.733
 4842SOL     OW15424   3.064   6.721   0.978
 4842SOL    HW115425   2.987   6.785   0.982
 4842SOL    HW215426   3.099   6.705   1.070
 4843SOL     OW15427   1.678   3.700   6.903
 4843SOL    HW115428   1.622   3.657   6.974
 4843SOL    HW215429   1.643   3.675   6.813
 4844SOL     OW15430   0.994   1.722   5.527
 4844SOL    HW115431   1.072   1.752   5.471
 4844SOL    HW215432   0.909   1.736   5.476
 4845SOL     OW15433   5.593   6.190   3.322
 4845SOL    HW115434   5.513   6.134   3.344
 4845SOL    HW215435   5.567   6.287   3.324
 4846SOL     OW15436   6.805   5.282   6.198
 4846SOL    HW115437   6.860   5.320   6.273
 4846SOL    HW215438   6.825   5.185   6.188
 4847SOL     OW15439   4.851   2.688   4.385
 4847SOL    HW115440   4.769   2.631   4.394
 4847SOL    HW215441   4.847   2.739   4.299
 4848SOL     OW15442   2.835   3.283   1.728
 4848SOL    HW115443   2.880   3.279   1.639
 4848SOL    HW215444   2.878   3.217   1.790
 4849SOL     OW15445   2.311   6.313   6.074
 4849SOL    HW115446   2.310   6.226   6.124
 4849SOL    HW215447   2.233   6.316   6.011
 4850SOL     OW15448   3.665   6.746   2.949
 4850SOL    HW115449   3.745   6.786   2.903
 4850SOL    HW215450   3.619   6.817   3.002
 4851SOL     OW15451   4.885   1.095   5.826
 4851SOL    HW115452   4.953   1.037   5.870
 4851SOL    HW215453   4.874   1.067   5.731
 4852SOL     OW15454   1.839   1.892   1.930
 4852SOL    HW115455   1.895   1.965   1.891
 4852SOL    HW215456   1.748   1.928   1.952
 4853SOL     OW15457   3.846   1.467   2.128
 4853SOL    HW115458   3.924   1.430   2.078
 4853SOL    HW215459   3.849   1.567   2.124
 4854SOL     OW15460   3.809   0.159   5.956
 4854SOL    HW115461   3.821   0.064   5.927
 4854SOL    HW215462   3.723   0.168   6.006
 4855SOL     OW15463   0.074   2.600   2.148
 4855SOL    HW115464   0.058   2.584   2.246
 4855SOL    HW215465   0.091   2.697   2.132
 4856SOL     OW15466   0.484   4.268   2.255
 4856SOL    HW115467   0.456   4.224   2.170
 4856SOL    HW215468   0.500   4.198   2.325
 4857SOL     OW15469   0.166   1.028   5.407
 4857SOL    HW115470   0.221   1.082   5.344
 4857SOL    HW215471   0.183   0.930   5.391
 4858SOL     OW15472   1.693   0.822   3.811
 4858SOL    HW115473   1.729   0.729   3.804
 4858SOL    HW215474   1.759   0.886   3.770
 4859SOL     OW15475   3.823   6.199   6.023
 4859SOL    HW115476   3.867   6.154   5.946
 4859SOL    HW215477   3.874   6.180   6.107
 4860SOL     OW15478   3.648   4.608   0.644
 4860SOL    HW115479   3.591   4.531   0.616
 4860SOL    HW215480   3.711   4.631   0.570
 4861SOL     OW15481   4.021   4.204   6.459
 4861SOL    HW115482   3.965   4.146   6.518
 4861SOL    HW215483   4.115   4.205   6.494
 4862SOL     OW15484   1.486   0.087   0.303
 4862SOL    HW115485   1.569   0.112   0.353
 4862SOL    HW215486   1.498   7.019   0.263
 4863SOL     OW15487   5.147   3.811   6.152
 4863SOL    HW115488   5.064   3.824   6.206
 4863SOL    HW215489   5.131   3.844   6.059
 4864SOL     OW15490   3.337   1.471   4.167
 4864SOL    HW115491   3.291   1.486   4.080
 4864SOL    HW215492   3.292   1.524   4.239
 4865SOL     OW15493   1.519   6.471   5.277
 4865SOL    HW115494   1.435   6.475   5.330
 4865SOL    HW215495   1.499   6.438   5.185
 4866SOL     OW15496   0.109   4.518   5.967
 4866SOL    HW115497   0.083   4.592   5.906
 4866SOL    HW215498   0.105   4.550   6.062
 4867SOL     OW15499   4.191   1.070   3.010
 4867SOL    HW115500   4.275   1.066   3.065
 4867SOL    HW215501   4.142   1.156   3.030
 4868SOL     OW15502   6.907   4.924   0.247
 4868SOL    HW115503   6.988   4.950   0.299
 4868SOL    HW215504   6.867   5.005   0.204
 4869SOL     OW15505   0.315   1.583   0.757
 4869SOL    HW115506   0.410   1.565   0.783
 4869SOL    HW215507   0.257   1.507   0.786
 4870SOL     OW15508   0.378   0.271   1.186
 4870SOL    HW115509   0.361   0.175   1.209
 4870SOL    HW215510   0.291   0.320   1.179
 4871SOL     OW15511   0.733   1.855   3.143
 4871SOL    HW115512   0.815   1.911   3.130
 4871SOL    HW215513   0.742   1.803   3.228
 4872SOL     OW15514   5.496   0.195   3.276
 4872SOL    HW115515   5.474   0.290   3.250
 4872SOL    HW215516   5.524   0.145   3.194
 4873SOL     OW15517   0.002   5.571   4.049
 4873SOL    HW115518   0.099   5.545   4.056
 4873SOL    HW215519   6.970   5.490   4.025
 4874SOL     OW15520   5.567   3.771   2.175
 4874SOL    HW115521   5.557   3.832   2.253
 4874SOL    HW215522   5.503   3.799   2.103
 4875SOL     OW15523   6.214   6.103   4.948
 4875SOL    HW115524   6.294   6.094   5.008
 4875SOL    HW215525   6.147   6.164   4.991
 4876SOL     OW15526   6.744   1.354   2.388
 4876SOL    HW115527   6.790   1.289   2.449
 4876SOL    HW215528   6.794   1.441   2.389
 4877SOL     OW15529   0.245   1.358   6.842
 4877SOL    HW115530   0.292   1.270   6.843
 4877SOL    HW215531   0.246   1.398   6.933
 4878SOL     OW15532   6.079   4.223   3.245
 4878SOL    HW115533   6.087   4.318   3.276
 4878SOL    HW215534   6.099   4.219   3.147
 4879SOL     OW15535   5.306   0.312   3.007
 4879SOL    HW115536   5.247   0.335   3.085
 4879SOL    HW215537   5.323   0.394   2.953
 4880SOL     OW15538   6.939   3.165   5.981
 4880SOL    HW115539   6.875   3.145   5.907
 4880SOL    HW215540   6.986   3.081   6.008
 4881SOL     OW15541   0.541   3.848   1.920
 4881SOL    HW115542   0.527   3.910   1.997
 4881SOL    HW215543   0.456   3.840   1.867
 4882SOL     OW15544   5.177   1.527   4.207
 4882SOL    HW115545   5.178   1.454   4.275
 4882SOL    HW215546   5.267   1.535   4.165
 4883SOL     OW15547   5.864   4.173   6.759
 4883SOL    HW115548   5.891   4.199   6.852
 4883SOL    HW215549   5.880   4.075   6.745
 4884SOL     OW15550   2.257   1.663   1.887
 4884SOL    HW115551   2.356   1.655   1.899
 4884SOL    HW215552   2.222   1.735   1.946
 4885SOL     OW15553   0.777   5.265   7.006
 4885SOL    HW115554   0.721   5.275   0.066
 4885SOL    HW215555   0.763   5.174   6.966
 4886SOL     OW15556   2.931   0.935   2.331
 4886SOL    HW115557   2.921   0.858   2.268
 4886SOL    HW215558   2.845   0.986   2.336
 4887SOL     OW15559   4.496   5.431   0.687
 4887SOL    HW115560   4.445   5.389   0.762
 4887SOL    HW215561   4.449   5.513   0.655
 4888SOL     OW15562   4.736   0.424   2.737
 4888SOL    HW115563   4.719   0.462   2.646
 4888SOL    HW215564   4.810   0.474   2.782
 4889SOL     OW15565   5.819   3.666   3.903
 4889SOL    HW115566   5.896   3.728   3.920
 4889SOL    HW215567   5.783   3.683   3.811
 4890SOL     OW15568   6.528   1.922   4.751
 4890SOL    HW115569   6.618   1.935   4.792
 4890SOL    HW215570   6.538   1.887   4.658
 4891SOL     OW15571   2.415   6.131   0.399
 4891SOL    HW115572   2.473   6.204   0.363
 4891SOL    HW215573   2.379   6.158   0.488
 4892SOL     OW15574   5.654   5.026   2.063
 4892SOL    HW115575   5.660   5.028   1.964
 4892SOL    HW215576   5.740   5.061   2.102
 4893SOL     OW15577   1.271   2.952   1.376
 4893SOL    HW115578   1.346   2.889   1.397
 4893SOL    HW215579   1.192   2.901   1.343
 4894SOL     OW15580   5.007   5.908   0.724
 4894SOL    HW115581   4.923   5.870   0.764
 4894SOL    HW215582   5.014   6.005   0.747
 4895SOL     OW15583   6.673   4.016   5.158
 4895SOL    HW115584   6.652   3.960   5.238
 4895SOL    HW215585   6.772   4.025   5.149
 4896SOL     OW15586   2.871   5.401   4.893
 4896SOL    HW115587   2.932   5.379   4.817
 4896SOL    HW215588   2.820   5.319   4.919
 4897SOL     OW15589   2.078   1.613   5.170
 4897SOL    HW115590   2.111   1.617   5.264
 4897SOL    HW215591   2.156   1.611   5.107
 4898SOL     OW15592   4.379   1.885   4.249
 4898SOL    HW115593   4.316   1.928   4.185
 4898SOL    HW215594   4.393   1.945   4.328
 4899SOL     OW15595   6.367   6.297   1.556
 4899SOL    HW115596   6.458   6.260   1.572
 4899SOL    HW215597   6.332   6.340   1.639
 4900SOL     OW15598   3.532   6.084   6.067
 4900SOL    HW115599   3.485   6.156   6.119
 4900SOL    HW215600   3.624   6.116   6.043
 4901SOL     OW15601   2.136   1.125   6.791
 4901SOL    HW115602   2.144   1.219   6.826
 4901SOL    HW215603   2.135   1.062   6.868
 4902SOL     OW15604   3.044   0.199   5.338
 4902SOL    HW115605   3.018   0.145   5.418
 4902SOL    HW215606   2.977   0.184   5.265
 4903SOL     OW15607   5.019   4.039   2.451
 4903SOL    HW115608   4.941   4.022   2.512
 4903SOL    HW215609   5.096   3.981   2.478
 4904SOL     OW15610   1.705   0.399   2.181
 4904SOL    HW115611   1.642   0.460   2.134
 4904SOL    HW215612   1.760   0.451   2.246
 4905SOL     OW15613   2.684   1.035   2.361
 4905SOL    HW115614   2.661   0.994   2.449
 4905SOL    HW215615   2.692   1.134   2.371
 4906SOL     OW15616   5.299   3.268   5.076
 4906SOL    HW115617   5.252   3.180   5.071
 4906SOL    HW215618   5.327   3.296   4.984
 4907SOL     OW15619   3.046   2.121   0.398
 4907SOL    HW115620   3.074   2.215   0.382
 4907SOL    HW215621   2.958   2.104   0.354
 4908SOL     OW15622   3.641   6.641   6.287
 4908SOL    HW115623   3.556   6.684   6.257
 4908SOL    HW215624   3.675   6.581   6.215
 4909SOL     OW15625   5.139   5.238   4.212
 4909SOL    HW115626   5.093   5.327   4.222
 4909SOL    HW215627   5.175   5.210   4.301
 4910SOL     OW15628   3.780   1.674   0.126
 4910SOL    HW115629   3.795   1.733   0.046
 4910SOL    HW215630   3.851   1.692   0.194
 4911SOL     OW15631   6.510   4.428   3.353
 4911SOL    HW115632   6.511   4.502   3.420
 4911SOL    HW215633   6.601   4.387   3.347
 4912SOL     OW15634   5.908   2.615   3.979
 4912SOL    HW115635   5.894   2.661   3.891
 4912SOL    HW215636   6.006   2.595   3.990
 4913SOL     OW15637   0.554   3.909   5.130
 4913SOL    HW115638   0.525   3.883   5.038
 4913SOL    HW215639   0.503   3.856   5.197
 4914SOL     OW15640   4.031   6.551   3.652
 4914SOL    HW115641   3.940   6.568   3.689
 4914SOL    HW215642   4.097   6.609   3.699
 4915SOL     OW15643   3.954   6.296   5.546
 4915SOL    HW115644   3.880   6.314   5.481
 4915SOL    HW215645   3.958   6.369   5.613
 4916SOL     OW15646   5.511   2.672   3.781
 4916SOL    HW115647   5.546   2.657   3.874
 4916SOL    HW215648   5.412   2.686   3.786
 4917SOL     OW15649   4.315   6.744   6.376
 4917SOL    HW115650   4.217   6.735   6.396
 4917SOL    HW215651   4.357   6.805   6.443
 4918SOL     OW15652   5.460   5.696   3.782
 4918SOL    HW115653   5.432   5.605   3.750
 4918SOL    HW215654   5.498   5.748   3.706
 4919SOL     OW15655   4.016   3.951   2.144
 4919SOL    HW115656   4.007   3.947   2.244
 4919SOL    HW215657   4.102   3.997   2.121
 4920SOL     OW15658   6.040   0.937   6.194
 4920SOL    HW115659   5.942   0.927   6.174
 4920SOL    HW215660   6.056   1.028   6.234
 4921SOL     OW15661   0.129   7.007   2.677
 4921SOL    HW115662   0.128   0.070   2.625
 4921SOL    HW215663   0.046   6.955   2.658
 4922SOL     OW15664   4.213   0.908   5.962
 4922SOL    HW115665   4.132   0.851   5.953
 4922SOL    HW215666   4.232   0.926   6.059
 4923SOL     OW15667   3.949   1.534   1.717
 4923SOL    HW115668   3.978   1.587   1.637
 4923SOL    HW215669   3.880   1.467   1.689
 4924SOL     OW15670   2.671   1.156   5.054
 4924SOL    HW115671   2.633   1.174   5.144
 4924SOL    HW215672   2.765   1.123   5.063
 4925SOL     OW15673   4.607   6.140   3.675
 4925SOL    HW115674   4.627   6.174   3.583
 4925SOL    HW215675   4.678   6.075   3.702
 4926SOL     OW15676   5.015   2.689   1.569
 4926SOL    HW115677   5.048   2.775   1.530
 4926SOL    HW215678   4.970   2.708   1.657
 4927SOL     OW15679   2.212   1.372   0.491
 4927SOL    HW115680   2.265   1.355   0.574
 4927SOL    HW215681   2.122   1.407   0.515
 4928SOL     OW15682   0.350   0.962   0.957
 4928SOL    HW115683   0.376   0.868   0.975
 4928SOL    HW215684   0.286   0.994   1.027
 4929SOL     OW15685   6.752   6.673   4.935
 4929SOL    HW115686   6.833   6.719   4.970
 4929SOL    HW215687   6.767   6.645   4.840
 4930SOL     OW15688   4.231   5.754   2.784
 4930SOL    HW115689   4.240   5.673   2.726
 4930SOL    HW215690   4.150   5.744   2.843
 4931SOL     OW15691   6.073   0.252   1.257
 4931SOL    HW115692   6.166   0.237   1.221
 4931SOL    HW215693   6.007   0.247   1.182
 4932SOL     OW15694   3.530   3.627   3.161
 4932SOL    HW115695   3.595   3.702   3.174
 4932SOL    HW215696   3.569   3.560   3.097
 4933SOL     OW15697   1.928   6.818   5.048
 4933SOL    HW115698   1.977   6.803   4.962
 4933SOL    HW215699   1.829   6.819   5.030
 4934SOL     OW15700   3.115   6.940   2.760
 4934SOL    HW115701   3.173   6.860   2.748
 4934SOL    HW215702   3.059   6.928   2.843
 4935SOL     OW15703   6.335   0.403   5.091
 4935SOL    HW115704   6.373   0.408   5.183
 4935SOL    HW215705   6.259   0.338   5.090
 4936SOL     OW15706   4.212   2.867   0.498
 4936SOL    HW115707   4.231   2.871   0.399
 4936SOL    HW215708   4.207   2.772   0.527
 4937SOL     OW15709   3.695   2.647   5.357
 4937SOL    HW115710   3.608   2.672   5.313
 4937SOL    HW215711   3.759   2.724   5.349
 4938SOL     OW15712   3.262   4.343   6.933
 4938SOL    HW115713   3.344   4.378   6.978
 4938SOL    HW215714   3.194   4.415   6.926
 4939SOL     OW15715   4.484   3.654   6.456
 4939SOL    HW115716   4.479   3.579   6.391
 4939SOL    HW215717   4.431   3.731   6.422
 4940SOL     OW15718   1.832   6.036   3.756
 4940SOL    HW115719   1.780   5.958   3.722
 4940SOL    HW215720   1.811   6.051   3.852
 4941SOL     OW15721   6.012   1.110   1.441
 4941SOL    HW115722   6.061   1.043   1.496
 4941SOL    HW215723   6.019   1.200   1.485
 4942SOL     OW15724   5.392   2.318   5.555
 4942SOL    HW115725   5.350   2.333   5.644
 4942SOL    HW215726   5.417   2.406   5.514
 4943SOL     OW15727   5.587   2.882   1.165
 4943SOL    HW115728   5.558   2.969   1.125
 4943SOL    HW215729   5.679   2.860   1.132
 4944SOL     OW15730   2.078   3.656   2.138
 4944SOL    HW115731   2.142   3.632   2.066
 4944SOL    HW215732   2.110   3.619   2.225
 4945SOL     OW15733   0.057   5.879   4.515
 4945SOL    HW115734   0.079   5.973   4.489
 4945SOL    HW215735   0.102   5.816   4.452
 4946SOL     OW15736   6.910   4.594   2.076
 4946SOL    HW115737   6.938   4.498   2.080
 4946SOL    HW215738   6.815   4.599   2.047
 4947SOL     OW15739   5.992   0.751   0.561
 4947SOL    HW115740   6.035   0.741   0.472
 4947SOL    HW215741   5.911   0.810   0.552
 4948SOL     OW15742   2.275   1.731   2.584
 4948SOL    HW115743   2.265   1.794   2.506
 4948SOL    HW215744   2.285   1.638   2.550
 4949SOL     OW15745   5.436   2.267   5.127
 4949SOL    HW115746   5.399   2.286   5.036
 4949SOL    HW215747   5.362   2.266   5.193
 4950SOL     OW15748   2.974   5.709   4.358
 4950SOL    HW115749   2.892   5.725   4.303
 4950SOL    HW215750   2.948   5.698   4.454
 4951SOL     OW15751   4.260   2.351   3.893
 4951SOL    HW115752   4.358   2.362   3.881
 4951SOL    HW215753   4.233   2.257   3.871
 4952SOL     OW15754   6.511   4.279   4.115
 4952SOL    HW115755   6.437   4.225   4.155
 4952SOL    HW215756   6.475   4.334   4.039
 4953SOL     OW15757   1.080   4.499   1.826
 4953SOL    HW115758   1.140   4.520   1.903
 4953SOL    HW215759   1.071   4.580   1.767
 4954SOL     OW15760   6.488   6.346   6.539
 4954SOL    HW115761   6.398   6.333   6.581
 4954SOL    HW215762   6.551   6.387   6.605
 4955SOL     OW15763   1.742   0.317   1.719
 4955SOL    HW115764   1.799   0.357   1.792
 4955SOL    HW215765   1.797   0.305   1.637
 4956SOL     OW15766   6.098   6.446   3.490
 4956SOL    HW115767   6.080   6.541   3.516
 4956SOL    HW215768   6.026   6.414   3.428
 4957SOL     OW15769   1.343   5.821   4.013
 4957SOL    HW115770   1.429   5.779   3.984
 4957SOL    HW215771   1.363   5.900   4.071
 4958SOL     OW15772   6.652   6.758   6.908
 4958SOL    HW115773   6.732   6.818   6.903
 4958SOL    HW215774   6.607   6.770   6.997
 4959SOL     OW15775   0.626   2.110   6.952
 4959SOL    HW115776   0.587   2.199   6.973
 4959SOL    HW215777   0.649   2.105   6.855
 4960SOL     OW15778   3.254   0.025   5.394
 4960SOL    HW115779   3.188   0.100   5.391
 4960SOL    HW215780   3.263   7.007   5.302
 4961SOL     OW15781   5.383   0.435   5.173
 4961SOL    HW115782   5.355   0.528   5.196
 4961SOL    HW215783   5.412   0.388   5.256
 4962SOL     OW15784   6.618   2.593   2.275
 4962SOL    HW115785   6.548   2.615   2.207
 4962SOL    HW215786   6.579   2.534   2.346
 4963SOL     OW15787   0.339   4.318   1.219
 4963SOL    HW115788   0.397   4.259   1.275
 4963SOL    HW215789   0.265   4.355   1.276
 4964SOL     OW15790   2.871   6.575   3.030
 4964SOL    HW115791   2.887   6.481   3.058
 4964SOL    HW215792   2.920   6.637   3.091
 4965SOL     OW15793   0.069   6.022   4.841
 4965SOL    HW115794   0.025   5.997   4.927
 4965SOL    HW215795   0.163   5.985   4.839
 4966SOL     OW15796   4.959   5.585   5.143
 4966SOL    HW115797   4.900   5.666   5.137
 4966SOL    HW215798   5.034   5.604   5.207
 4967SOL     OW15799   5.757   1.800   6.558
 4967SOL    HW115800   5.790   1.755   6.641
 4967SOL    HW215801   5.721   1.890   6.581
 4968SOL     OW15802   5.184   4.069   6.411
 4968SOL    HW115803   5.221   3.980   6.438
 4968SOL    HW215804   5.113   4.056   6.342
 4969SOL     OW15805   1.637   1.851   1.518
 4969SOL    HW115806   1.648   1.781   1.589
 4969SOL    HW215807   1.694   1.827   1.439
 4970SOL     OW15808   1.712   2.391   5.805
 4970SOL    HW115809   1.780   2.352   5.867
 4970SOL    HW215810   1.758   2.430   5.725
 4971SOL     OW15811   6.325   5.374   3.740
 4971SOL    HW115812   6.339   5.466   3.704
 4971SOL    HW215813   6.386   5.359   3.817
 4972SOL     OW15814   1.897   1.988   4.699
 4972SOL    HW115815   1.848   2.056   4.644
 4972SOL    HW215816   1.989   2.021   4.718
 4973SOL     OW15817   4.804   5.608   2.633
 4973SOL    HW115818   4.863   5.560   2.567
 4973SOL    HW215819   4.756   5.682   2.586
 4974SOL     OW15820   4.045   6.752   6.450
 4974SOL    HW115821   3.993   6.814   6.509
 4974SOL    HW215822   4.000   6.663   6.447
 4975SOL     OW15823   3.969   6.068   0.656
 4975SOL    HW115824   4.017   6.155   0.667
 4975SOL    HW215825   4.017   6.011   0.590
 4976SOL     OW15826   2.254   0.719   4.622
 4976SOL    HW115827   2.218   0.760   4.707
 4976SOL    HW215828   2.206   0.759   4.544
 4977SOL     OW15829   3.473   3.157   1.030
 4977SOL    HW115830   3.403   3.194   0.968
 4977SOL    HW215831   3.542   3.110   0.976
 4978SOL     OW15832   6.333   4.015   6.512
 4978SOL    HW115833   6.332   3.920   6.541
 4978SOL    HW215834   6.427   4.045   6.496
 4979SOL     OW15835   2.384   2.577   3.650
 4979SOL    HW115836   2.478   2.546   3.668
 4979SOL    HW215837   2.327   2.557   3.729
 4980SOL     OW15838   2.349   4.733   3.493
 4980SOL    HW115839   2.342   4.833   3.485
 4980SOL    HW215840   2.271   4.698   3.545
 4981SOL     OW15841   5.502   5.666   5.330
 4981SOL    HW115842   5.488   5.695   5.424
 4981SOL    HW215843   5.596   5.685   5.302
 4982SOL     OW15844   2.152   1.569   6.673
 4982SOL    HW115845   2.229   1.632   6.663
 4982SOL    HW215846   2.158   1.498   6.603
 4983SOL     OW15847   6.861   2.499   4.407
 4983SOL    HW115848   6.777   2.531   4.452
 4983SOL    HW215849   6.885   2.561   4.333
 4984SOL     OW15850   5.053   5.244   3.359
 4984SOL    HW115851   5.082   5.299   3.436
 4984SOL    HW215852   5.010   5.302   3.290
 4985SOL     OW15853   5.850   3.791   2.215
 4985SOL    HW115854   5.751   3.781   2.204
 4985SOL    HW215855   5.876   3.765   2.308
 4986SOL     OW15856   4.399   5.131   2.983
 4986SOL    HW115857   4.321   5.086   3.027
 4986SOL    HW215858   4.472   5.064   2.969
 4987SOL     OW15859   1.061   3.111   0.518
 4987SOL    HW115860   0.994   3.183   0.501
 4987SOL    HW215861   1.087   3.069   0.431
 4988SOL     OW15862   2.141   2.574   5.333
 4988SOL    HW115863   2.232   2.574   5.374
 4988SOL    HW215864   2.088   2.650   5.371
 4989SOL     OW15865   0.186   1.099   1.130
 4989SOL    HW115866   0.164   1.098   1.227
 4989SOL    HW215867   0.193   1.194   1.099
 4990SOL     OW15868   1.473   2.196   6.915
 4990SOL    HW115869   1.374   2.200   6.900
 4990SOL    HW215870   1.518   2.161   6.833
 4991SOL     OW15871   2.848   1.766   5.437
 4991SOL    HW115872   2.898   1.684   5.467
 4991SOL    HW215873   2.901   1.847   5.461
 4992SOL     OW15874   4.154   6.731   4.880
 4992SOL    HW115875   4.060   6.713   4.908
 4992SOL    HW215876   4.155   6.761   4.785
 4993SOL     OW15877   1.364   6.561   4.161
 4993SOL    HW115878   1.393   6.491   4.226
 4993SOL    HW215879   1.372   6.651   4.203
 4994SOL     OW15880   0.157   6.665   3.164
 4994SOL    HW115881   0.254   6.672   3.144
 4994SOL    HW215882   0.135   6.721   3.244
 4995SOL     OW15883   5.952   3.230   5.492
 4995SOL    HW115884   5.999   3.181   5.418
 4995SOL    HW215885   5.866   3.184   5.513
 4996SOL     OW15886   0.669   1.854   3.749
 4996SOL    HW115887   0.571   1.875   3.756
 4996SOL    HW215888   0.690   1.776   3.808
 4997SOL     OW15889   0.059   2.518   4.037
 4997SOL    HW115890   0.128   2.589   4.054
 4997SOL    HW215891   0.089   2.459   3.962
 4998SOL     OW15892   1.142   5.977   5.863
 4998SOL    HW115893   1.052   5.946   5.831
 4998SOL    HW215894   1.182   5.908   5.923
 4999SOL     OW15895   5.984   4.897   0.906
 4999SOL    HW115896   6.052   4.969   0.916
 4999SOL    HW215897   5.897   4.937   0.879
 5000SOL     OW15898   6.387   5.368   4.340
 5000SOL    HW115899   6.361   5.286   4.390
 5000SOL    HW215900   6.314   5.395   4.277
 5001SOL     OW15901   4.839   3.478   5.368
 5001SOL    HW115902   4.745   3.443   5.364
 5001SOL    HW215903   4.859   3.511   5.460
 5002SOL     OW15904   1.438   2.227   1.864
 5002SOL    HW115905   1.352   2.194   1.904
 5002SOL    HW215906   1.479   2.154   1.810
 5003SOL     OW15907   6.698   5.445   4.234
 5003SOL    HW115908   6.719   5.527   4.180
 5003SOL    HW215909   6.600   5.442   4.252
 5004SOL     OW15910   1.829   4.236   6.045
 5004SOL    HW115911   1.898   4.230   6.118
 5004SOL    HW215912   1.789   4.146   6.030
 5005SOL     OW15913   4.962   2.329   0.447
 5005SOL    HW115914   4.966   2.345   0.546
 5005SOL    HW215915   4.871   2.352   0.414
 5006SOL     OW15916   5.085   4.782   2.196
 5006SOL    HW115917   5.004   4.727   2.218
 5006SOL    HW215918   5.097   4.785   2.097
 5007SOL     OW15919   4.338   0.358   5.089
 5007SOL    HW115920   4.272   0.433   5.084
 5007SOL    HW215921   4.308   0.291   5.157
 5008SOL     OW15922   6.436   1.598   3.968
 5008SOL    HW115923   6.409   1.671   3.904
 5008SOL    HW215924   6.495   1.533   3.920
 5009SOL     OW15925   2.295   6.573   1.756
 5009SOL    HW115926   2.293   6.535   1.663
 5009SOL    HW215927   2.388   6.566   1.792
 5010SOL     OW15928   3.231   3.668   6.019
 5010SOL    HW115929   3.178   3.585   6.039
 5010SOL    HW215930   3.319   3.642   5.979
 5011SOL     OW15931   1.362   1.475   3.666
 5011SOL    HW115932   1.410   1.387   3.674
 5011SOL    HW215933   1.427   1.550   3.679
 5012SOL     OW15934   5.926   3.146   0.083
 5012SOL    HW115935   5.835   3.163   0.045
 5012SOL    HW215936   5.945   3.048   0.083
 5013SOL     OW15937   4.818   1.879   5.473
 5013SOL    HW115938   4.808   1.779   5.480
 5013SOL    HW215939   4.864   1.902   5.388
 5014SOL     OW15940   6.946   4.945   6.737
 5014SOL    HW115941   6.961   5.025   6.678
 5014SOL    HW215942   6.938   4.975   6.832
 5015SOL     OW15943   4.615   1.964   3.867
 5015SOL    HW115944   4.712   1.967   3.846
 5015SOL    HW215945   4.598   1.895   3.937
 5016SOL     OW15946   2.800   6.214   1.490
 5016SOL    HW115947   2.798   6.262   1.578
 5016SOL    HW215948   2.825   6.119   1.505
 5017SOL     OW15949   1.183   2.044   1.883
 5017SOL    HW115950   1.221   1.955   1.911
 5017SOL    HW215951   1.135   2.085   1.961
 5018SOL     OW15952   6.184   5.386   4.069
 5018SOL    HW115953   6.125   5.339   4.136
 5018SOL    HW215954   6.199   5.326   3.991
 5019SOL     OW15955   3.182   5.571   5.299
 5019SOL    HW115956   3.154   5.514   5.376
 5019SOL    HW215957   3.281   5.567   5.288
 5020SOL     OW15958   4.413   4.714   0.077
 5020SOL    HW115959   4.474   4.770   0.133
 5020SOL    HW215960   4.452   4.622   0.066
 5021SOL     OW15961   1.767   4.621   5.628
 5021SOL    HW115962   1.832   4.645   5.700
 5021SOL    HW215963   1.814   4.570   5.555
 5022SOL     OW15964   1.896   4.045   0.089
 5022SOL    HW115965   1.835   4.066   0.165
 5022SOL    HW215966   1.965   3.978   0.119
 5023SOL     OW15967   0.400   2.841   4.853
 5023SOL    HW115968   0.464   2.825   4.928
 5023SOL    HW215969   0.373   2.754   4.813
 5024SOL     OW15970   4.850   3.816   5.390
 5024SOL    HW115971   4.880   3.877   5.463
 5024SOL    HW215972   4.752   3.798   5.400
 5025SOL     OW15973   5.866   0.596   4.339
 5025SOL    HW115974   5.940   0.663   4.348
 5025SOL    HW215975   5.861   0.565   4.244
 5026SOL     OW15976   0.948   5.573   3.181
 5026SOL    HW115977   0.914   5.573   3.275
 5026SOL    HW215978   0.932   5.662   3.139
 5027SOL     OW15979   1.314   5.640   3.292
 5027SOL    HW115980   1.307   5.581   3.211
 5027SOL    HW215981   1.376   5.716   3.272
 5028SOL     OW15982   0.880   6.258   3.395
 5028SOL    HW115983   0.882   6.333   3.330
 5028SOL    HW215984   0.918   6.288   3.482
 5029SOL     OW15985   5.991   0.735   4.055
 5029SOL    HW115986   5.915   0.752   4.117
 5029SOL    HW215987   6.044   0.819   4.043
 5030SOL     OW15988   1.424   6.379   0.205
 5030SOL    HW115989   1.441   6.322   0.286
 5030SOL    HW215990   1.417   6.321   0.124
 5031SOL     OW15991   5.666   0.360   6.685
 5031SOL    HW115992   5.622   0.357   6.775
 5031SOL    HW215993   5.765   0.364   6.696
 5032SOL     OW15994   1.250   5.221   2.622
 5032SOL    HW115995   1.184   5.172   2.680
 5032SOL    HW215996   1.272   5.164   2.543
 5033SOL     OW15997   0.489   4.648   4.612
 5033SOL    HW115998   0.421   4.684   4.549
 5033SOL    HW215999   0.452   4.648   4.705
 5034SOL     OW16000   0.469   3.337   6.289
 5034SOL    HW116001   0.474   3.265   6.358
 5034SOL    HW216002   0.398   3.313   6.222
 5035SOL     OW16003   6.891   3.977   1.448
 5035SOL    HW116004   6.828   3.953   1.522
 5035SOL    HW216005   6.843   4.030   1.378
 5036SOL     OW16006   1.112   1.848   2.815
 5036SOL    HW116007   1.017   1.840   2.784
 5036SOL    HW216008   1.114   1.846   2.915
 5037SOL     OW16009   5.059   4.397   1.969
 5037SOL    HW116010   4.960   4.395   1.957
 5037SOL    HW216011   5.101   4.447   1.893
 5038SOL     OW16012   3.280   5.697   5.861
 5038SOL    HW116013   3.283   5.738   5.952
 5038SOL    HW216014   3.270   5.768   5.792
 5039SOL     OW16015   1.056   2.368   3.723
 5039SOL    HW116016   0.967   2.341   3.687
 5039SOL    HW216017   1.107   2.417   3.652
 5040SOL     OW16018   2.809   3.505   5.945
 5040SOL    HW116019   2.869   3.425   5.953
 5040SOL    HW216020   2.719   3.476   5.912
 5041SOL     OW16021   6.874   5.630   0.334
 5041SOL    HW116022   6.863   5.622   0.235
 5041SOL    HW216023   6.793   5.675   0.372
 5042SOL     OW16024   5.735   1.939   6.097
 5042SOL    HW116025   5.781   1.884   6.167
 5042SOL    HW216026   5.642   1.959   6.126
 5043SOL     OW16027   5.201   6.129   3.467
 5043SOL    HW116028   5.229   6.069   3.542
 5043SOL    HW216029   5.249   6.103   3.383
 5044SOL     OW16030   6.119   4.151   1.753
 5044SOL    HW116031   6.206   4.199   1.754
 5044SOL    HW216032   6.093   4.127   1.847
 5045SOL     OW16033   5.454   2.939   5.416
 5045SOL    HW116034   5.398   2.909   5.338
 5045SOL    HW216035   5.445   2.873   5.490
 5046SOL     OW16036   4.135   3.028   5.820
 5046SOL    HW116037   4.118   2.994   5.913
 5046SOL    HW216038   4.157   2.951   5.760
 5047SOL     OW16039   0.528   1.673   2.515
 5047SOL    HW116040   0.454   1.626   2.468
 5047SOL    HW216041   0.601   1.608   2.535
 5048SOL     OW16042   6.169   3.373   0.967
 5048SOL    HW116043   6.085   3.418   0.936
 5048SOL    HW216044   6.156   3.274   0.967
 5049SOL     OW16045   0.678   1.345   1.896
 5049SOL    HW116046   0.650   1.266   1.841
 5049SOL    HW216047   0.599   1.402   1.916
 5050SOL     OW16048   1.897   4.517   0.482
 5050SOL    HW116049   1.852   4.457   0.416
 5050SOL    HW216050   1.827   4.568   0.533
 5051SOL     OW16051   2.460   4.051   6.344
 5051SOL    HW116052   2.389   4.030   6.276
 5051SOL    HW216053   2.455   3.985   6.419
 5052SOL     OW16054   6.275   2.850   0.978
 5052SOL    HW116055   6.239   2.793   0.904
 5052SOL    HW216056   6.375   2.846   0.977
 5053SOL     OW16057   1.330   3.998   1.503
 5053SOL    HW116058   1.289   4.086   1.523
 5053SOL    HW216059   1.303   3.931   1.573
 5054SOL     OW16060   4.181   5.849   5.296
 5054SOL    HW116061   4.124   5.804   5.227
 5054SOL    HW216062   4.140   5.938   5.319
 5055SOL     OW16063   0.581   0.238   3.622
 5055SOL    HW116064   0.541   0.228   3.712
 5055SOL    HW216065   0.554   0.326   3.583
 5056SOL     OW16066   3.290   2.239   6.093
 5056SOL    HW116067   3.381   2.242   6.133
 5056SOL    HW216068   3.282   2.159   6.034
 5057SOL     OW16069   0.428   4.295   2.656
 5057SOL    HW116070   0.455   4.270   2.749
 5057SOL    HW216071   0.408   4.393   2.653
 5058SOL     OW16072   3.751   1.855   0.368
 5058SOL    HW116073   3.672   1.795   0.354
 5058SOL    HW216074   3.724   1.930   0.428
 5059SOL     OW16075   5.692   2.251   2.411
 5059SOL    HW116076   5.653   2.286   2.326
 5059SOL    HW216077   5.632   2.276   2.487
 5060SOL     OW16078   6.268   2.970   5.617
 5060SOL    HW116079   6.268   3.070   5.631
 5060SOL    HW216080   6.312   2.949   5.530
 5061SOL     OW16081   3.931   2.522   5.635
 5061SOL    HW116082   3.969   2.614   5.626
 5061SOL    HW216083   3.993   2.466   5.689
 5062SOL     OW16084   5.382   1.239   3.129
 5062SOL    HW116085   5.381   1.178   3.208
 5062SOL    HW216086   5.422   1.327   3.155
 5063SOL     OW16087   0.575   1.713   1.485
 5063SOL    HW116088   0.489   1.671   1.457
 5063SOL    HW216089   0.641   1.641   1.509
 5064SOL     OW16090   6.240   5.193   1.142
 5064SOL    HW116091   6.241   5.186   1.042
 5064SOL    HW216092   6.260   5.288   1.168
 5065SOL     OW16093   2.116   2.006   2.642
 5065SOL    HW116094   2.174   1.946   2.698
 5065SOL    HW216095   2.160   2.095   2.631
 5066SOL     OW16096   1.297   5.053   3.707
 5066SOL    HW116097   1.392   5.030   3.684
 5066SOL    HW216098   1.242   4.969   3.706
 5067SOL     OW16099   5.264   2.621   0.819
 5067SOL    HW116100   5.256   2.712   0.779
 5067SOL    HW216101   5.244   2.626   0.917
 5068SOL     OW16102   1.580   0.072   1.253
 5068SOL    HW116103   1.506   0.036   1.310
 5068SOL    HW216104   1.664   0.078   1.308
 5069SOL     OW16105   4.512   4.223   5.971
 5069SOL    HW116106   4.542   4.312   5.935
 5069SOL    HW216107   4.435   4.237   6.033
 5070SOL     OW16108   6.790   3.721   5.913
 5070SOL    HW116109   6.861   3.759   5.973
 5070SOL    HW216110   6.701   3.757   5.940
 5071SOL     OW16111   2.293   6.661   2.485
 5071SOL    HW116112   2.257   6.586   2.541
 5071SOL    HW216113   2.243   6.745   2.505
 5072SOL     OW16114   0.964   1.655   2.357
 5072SOL    HW116115   0.944   1.645   2.455
 5072SOL    HW216116   1.011   1.573   2.324
 5073SOL     OW16117   1.806   1.437   3.437
 5073SOL    HW116118   1.724   1.380   3.445
 5073SOL    HW216119   1.866   1.399   3.367
 5074SOL     OW16120   3.834   1.874   0.900
 5074SOL    HW116121   3.775   1.820   0.840
 5074SOL    HW216122   3.779   1.937   0.953
 5075SOL     OW16123   6.025   2.231   0.446
 5075SOL    HW116124   6.073   2.211   0.361
 5075SOL    HW216125   6.068   2.308   0.492
 5076SOL     OW16126   6.871   1.098   5.744
 5076SOL    HW116127   6.933   1.087   5.821
 5076SOL    HW216128   6.802   1.167   5.766
 5077SOL     OW16129   6.960   4.661   3.913
 5077SOL    HW116130   0.032   4.674   3.944
 5077SOL    HW216131   6.948   4.569   3.878
 5078SOL     OW16132   6.211   2.363   3.112
 5078SOL    HW116133   6.206   2.283   3.052
 5078SOL    HW216134   6.161   2.439   3.071
 5079SOL     OW16135   1.992   3.923   5.219
 5079SOL    HW116136   2.043   3.977   5.152
 5079SOL    HW216137   2.006   3.962   5.311
 5080SOL     OW16138   6.773   5.302   6.985
 5080SOL    HW116139   6.675   5.285   6.999
 5080SOL    HW216140   6.788   5.346   6.897
 5081SOL     OW16141   2.769   4.551   5.506
 5081SOL    HW116142   2.713   4.504   5.438
 5081SOL    HW216143   2.851   4.588   5.463
 5082SOL     OW16144   6.208   0.282   2.450
 5082SOL    HW116145   6.137   0.275   2.380
 5082SOL    HW216146   6.167   0.311   2.536
 5083SOL     OW16147   0.673   6.818   3.704
 5083SOL    HW116148   0.715   6.890   3.759
 5083SOL    HW216149   0.742   6.777   3.645
 5084SOL     OW16150   3.357   5.006   5.796
 5084SOL    HW116151   3.426   5.051   5.740
 5084SOL    HW216152   3.345   4.911   5.765
 5085SOL     OW16153   6.809   4.309   5.232
 5085SOL    HW116154   6.837   4.215   5.253
 5085SOL    HW216155   6.718   4.326   5.270
 5086SOL     OW16156   1.168   4.707   2.330
 5086SOL    HW116157   1.196   4.622   2.373
 5086SOL    HW216158   1.247   4.749   2.284
 5087SOL     OW16159   6.930   5.979   1.578
 5087SOL    HW116160   6.957   5.885   1.602
 5087SOL    HW216161   6.896   5.981   1.484
 5088SOL     OW16162   4.341   4.845   2.071
 5088SOL    HW116163   4.337   4.748   2.098
 5088SOL    HW216164   4.411   4.892   2.125
 5089SOL     OW16165   5.154   6.353   5.552
 5089SOL    HW116166   5.235   6.411   5.560
 5089SOL    HW216167   5.140   6.302   5.637
 5090SOL     OW16168   2.307   6.706   4.307
 5090SOL    HW116169   2.216   6.723   4.268
 5090SOL    HW216170   2.300   6.635   4.377
 5091SOL     OW16171   6.145   5.979   5.815
 5091SOL    HW116172   6.197   5.893   5.822
 5091SOL    HW216173   6.205   6.050   5.778
 5092SOL     OW16174   3.680   2.864   4.275
 5092SOL    HW116175   3.599   2.845   4.219
 5092SOL    HW216176   3.670   2.820   4.364
 5093SOL     OW16177   3.578   2.049   3.613
 5093SOL    HW116178   3.589   1.959   3.570
 5093SOL    HW216179   3.575   2.037   3.713
 5094SOL     OW16180   2.045   5.977   5.140
 5094SOL    HW116181   2.121   5.976   5.205
 5094SOL    HW216182   2.025   5.883   5.111
 5095SOL     OW16183   6.065   1.628   3.323
 5095SOL    HW116184   6.086   1.536   3.355
 5095SOL    HW216185   5.970   1.630   3.289
 5096SOL     OW16186   5.991   2.860   5.956
 5096SOL    HW116187   5.985   2.767   5.992
 5096SOL    HW216188   5.973   2.858   5.858
 5097SOL     OW16189   0.987   1.390   5.659
 5097SOL    HW116190   0.920   1.454   5.621
 5097SOL    HW216191   0.974   1.383   5.758
 5098SOL     OW16192   3.050   2.228   1.270
 5098SOL    HW116193   3.017   2.242   1.363
 5098SOL    HW216194   2.973   2.226   1.207
 5099SOL     OW16195   2.106   5.369   2.553
 5099SOL    HW116196   2.120   5.374   2.652
 5099SOL    HW216197   2.081   5.459   2.518
 5100SOL     OW16198   5.776   3.449   1.639
 5100SOL    HW116199   5.776   3.549   1.649
 5100SOL    HW216200   5.739   3.407   1.722
 5101SOL     OW16201   3.009   1.435   5.021
 5101SOL    HW116202   3.078   1.369   5.051
 5101SOL    HW216203   3.027   1.524   5.065
 5102SOL     OW16204   5.619   4.361   5.502
 5102SOL    HW116205   5.696   4.311   5.463
 5102SOL    HW216206   5.610   4.450   5.458
 5103SOL     OW16207   0.754   0.615   5.693
 5103SOL    HW116208   0.809   0.559   5.756
 5103SOL    HW216209   0.658   0.606   5.717
 5104SOL     OW16210   3.895   3.765   3.640
 5104SOL    HW116211   3.986   3.726   3.654
 5104SOL    HW216212   3.825   3.695   3.653
 5105SOL     OW16213   4.337   3.253   6.811
 5105SOL    HW116214   4.394   3.260   6.893
 5105SOL    HW216215   4.316   3.157   6.793
 5106SOL     OW16216   3.575   1.338   1.476
 5106SOL    HW116217   3.590   1.395   1.396
 5106SOL    HW216218   3.489   1.287   1.464
 5107SOL     OW16219   6.106   5.198   6.608
 5107SOL    HW116220   6.106   5.139   6.689
 5107SOL    HW216221   6.198   5.234   6.593
 5108SOL     OW16222   4.091   4.050   1.344
 5108SOL    HW116223   4.157   4.124   1.328
 5108SOL    HW216224   4.016   4.084   1.401
 5109SOL     OW16225   1.981   2.586   2.556
 5109SOL    HW116226   2.013   2.590   2.462
 5109SOL    HW216227   2.056   2.558   2.616
 5110SOL     OW16228   3.779   6.088   4.722
 5110SOL    HW116229   3.877   6.108   4.735
 5110SOL    HW216230   3.729   6.175   4.718
 5111SOL     OW16231   2.077   5.118   5.433
 5111SOL    HW116232   2.133   5.199   5.415
 5111SOL    HW216233   2.044   5.119   5.527
 5112SOL     OW16234   1.048   4.480   2.590
 5112SOL    HW116235   0.973   4.449   2.532
 5112SOL    HW216236   1.133   4.480   2.538
 5113SOL     OW16237   2.482   4.038   0.783
 5113SOL    HW116238   2.461   4.099   0.706
 5113SOL    HW216239   2.427   3.955   0.775
 5114SOL     OW16240   4.609   4.607   1.900
 5114SOL    HW116241   4.692   4.563   1.866
 5114SOL    HW216242   4.634   4.679   1.965
 5115SOL     OW16243   1.430   4.685   0.613
 5115SOL    HW116244   1.387   4.648   0.695
 5115SOL    HW216245   1.404   4.781   0.602
 5116SOL     OW16246   0.280   6.224   5.762
 5116SOL    HW116247   0.242   6.307   5.802
 5116SOL    HW216248   0.207   6.156   5.750
 5117SOL     OW16249   6.868   3.356   3.521
 5117SOL    HW116250   6.846   3.258   3.517
 5117SOL    HW216251   6.926   3.380   3.444
 5118SOL     OW16252   4.124   5.071   6.887
 5118SOL    HW116253   4.064   4.993   6.868
 5118SOL    HW216254   4.091   5.119   6.969
 5119SOL     OW16255   5.436   1.730   0.735
 5119SOL    HW116256   5.424   1.651   0.796
 5119SOL    HW216257   5.529   1.766   0.746
 5120SOL     OW16258   5.993   6.389   6.168
 5120SOL    HW116259   6.001   6.301   6.215
 5120SOL    HW216260   5.978   6.462   6.235
 5121SOL     OW16261   1.479   3.561   0.325
 5121SOL    HW116262   1.440   3.637   0.377
 5121SOL    HW216263   1.463   3.476   0.374
 5122SOL     OW16264   4.682   4.813   3.451
 5122SOL    HW116265   4.663   4.716   3.444
 5122SOL    HW216266   4.741   4.831   3.530
 5123SOL     OW16267   5.029   2.461   0.981
 5123SOL    HW116268   5.039   2.367   1.013
 5123SOL    HW216269   5.087   2.522   1.036
 5124SOL     OW16270   0.546   5.613   4.281
 5124SOL    HW116271   0.619   5.546   4.267
 5124SOL    HW216272   0.547   5.680   4.206
 5125SOL     OW16273   5.770   2.154   3.707
 5125SOL    HW116274   5.782   2.253   3.708
 5125SOL    HW216275   5.848   2.111   3.753
 5126SOL     OW16276   2.137   1.255   1.765
 5126SOL    HW116277   2.071   1.308   1.713
 5126SOL    HW216278   2.105   1.161   1.774
 5127SOL     OW16279   1.881   6.964   6.930
 5127SOL    HW116280   1.914   0.022   6.978
 5127SOL    HW216281   1.806   6.922   6.981
 5128SOL     OW16282   4.094   6.704   1.041
 5128SOL    HW116283   4.148   6.739   1.117
 5128SOL    HW216284   4.067   6.779   0.981
 5129SOL     OW16285   6.076   5.794   0.435
 5129SOL    HW116286   5.977   5.801   0.424
 5129SOL    HW216287   6.102   5.829   0.525
 5130SOL     OW16288   6.379   5.312   2.316
 5130SOL    HW116289   6.389   5.377   2.391
 5130SOL    HW216290   6.287   5.272   2.318
 5131SOL     OW16291   2.511   2.564   2.560
 5131SOL    HW116292   2.533   2.527   2.470
 5131SOL    HW216293   2.442   2.635   2.551
 5132SOL     OW16294   2.309   6.002   5.231
 5132SOL    HW116295   2.323   5.927   5.295
 5132SOL    HW216296   2.394   6.052   5.219
 5133SOL     OW16297   3.719   6.596   4.716
 5133SOL    HW116298   3.797   6.632   4.767
 5133SOL    HW216299   3.637   6.648   4.740
 5134SOL     OW16300   6.860   3.273   6.479
 5134SOL    HW116301   6.856   3.183   6.437
 5134SOL    HW216302   6.938   3.277   6.542
 5135SOL     OW16303   6.870   1.738   4.124
 5135SOL    HW116304   6.785   1.685   4.121
 5135SOL    HW216305   6.850   1.834   4.141
 5136SOL     OW16306   3.172   2.008   6.771
 5136SOL    HW116307   3.085   2.002   6.721
 5136SOL    HW216308   3.243   2.045   6.711
 5137SOL     OW16309   3.808   3.351   6.882
 5137SOL    HW116310   3.714   3.316   6.883
 5137SOL    HW216311   3.816   3.425   6.816
 5138SOL     OW16312   2.391   3.180   5.856
 5138SOL    HW116313   2.448   3.107   5.819
 5138SOL    HW216314   2.354   3.152   5.944
 5139SOL     OW16315   1.167   6.397   3.831
 5139SOL    HW116316   1.153   6.331   3.905
 5139SOL    HW216317   1.106   6.375   3.755
 5140SOL     OW16318   3.142   3.054   1.742
 5140SOL    HW116319   3.191   3.136   1.770
 5140SOL    HW216320   3.207   2.983   1.715
 5141SOL     OW16321   0.931   3.820   5.703
 5141SOL    HW116322   0.853   3.856   5.755
 5141SOL    HW216323   1.007   3.885   5.708
 5142SOL     OW16324   5.859   3.155   1.873
 5142SOL    HW116325   5.902   3.111   1.952
 5142SOL    HW216326   5.790   3.221   1.904
 5143SOL     OW16327   6.895   4.659   5.789
 5143SOL    HW116328   6.942   4.623   5.708
 5143SOL    HW216329   6.840   4.738   5.763
 5144SOL     OW16330   1.787   1.922   4.957
 5144SOL    HW116331   1.831   1.918   4.868
 5144SOL    HW216332   1.741   2.010   4.968
 5145SOL     OW16333   3.485   5.923   5.807
 5145SOL    HW116334   3.552   5.850   5.794
 5145SOL    HW216335   3.494   5.961   5.899
 5146SOL     OW16336   3.234   4.412   1.082
 5146SOL    HW116337   3.219   4.340   1.015
 5146SOL    HW216338   3.146   4.441   1.119
 5147SOL     OW16339   6.910   5.203   6.480
 5147SOL    HW116340   7.010   5.199   6.484
 5147SOL    HW216341   6.875   5.113   6.453
 5148SOL     OW16342   0.345   0.732   1.450
 5148SOL    HW116343   0.426   0.698   1.403
 5148SOL    HW216344   0.287   0.655   1.476
 5149SOL     OW16345   6.605   0.415   5.954
 5149SOL    HW116346   6.644   0.466   6.031
 5149SOL    HW216347   6.676   0.395   5.887
 5150SOL     OW16348   2.472   5.335   5.401
 5150SOL    HW116349   2.447   5.357   5.495
 5150SOL    HW216350   2.562   5.374   5.380
 5151SOL     OW16351   3.966   0.436   5.665
 5151SOL    HW116352   3.878   0.446   5.709
 5151SOL    HW216353   3.982   0.340   5.641
 5152SOL     OW16354   0.043   4.702   6.649
 5152SOL    HW116355   0.066   4.643   6.727
 5152SOL    HW216356   7.011   4.780   6.680
 5153SOL     OW16357   1.994   2.501   1.045
 5153SOL    HW116358   2.006   2.409   1.083
 5153SOL    HW216359   2.084   2.537   1.019
 5154SOL     OW16360   1.660   4.480   4.884
 5154SOL    HW116361   1.576   4.432   4.859
 5154SOL    HW216362   1.637   4.571   4.918
 5155SOL     OW16363   4.096   0.444   2.430
 5155SOL    HW116364   4.140   0.420   2.344
 5155SOL    HW216365   4.146   0.404   2.507
 5156SOL     OW16366   5.135   3.258   5.988
 5156SOL    HW116367   5.199   3.206   6.043
 5156SOL    HW216368   5.170   3.351   5.973
 5157SOL     OW16369   6.201   1.884   4.082
 5157SOL    HW116370   6.245   1.839   4.159
 5157SOL    HW216371   6.189   1.818   4.007
 5158SOL     OW16372   3.718   0.620   1.395
 5158SOL    HW116373   3.670   0.532   1.389
 5158SOL    HW216374   3.711   0.656   1.488
 5159SOL     OW16375   1.978   3.512   4.630
 5159SOL    HW116376   1.944   3.498   4.723
 5159SOL    HW216377   1.923   3.582   4.584
 5160SOL     OW16378   2.588   2.464   3.772
 5160SOL    HW116379   2.624   2.488   3.863
 5160SOL    HW216380   2.644   2.390   3.733
 5161SOL     OW16381   1.827   3.322   6.576
 5161SOL    HW116382   1.730   3.299   6.583
 5161SOL    HW216383   1.880   3.266   6.640
 5162SOL     OW16384   6.770   5.593   4.686
 5162SOL    HW116385   6.694   5.564   4.629
 5162SOL    HW216386   6.798   5.517   4.746
 5163SOL     OW16387   5.230   3.945   0.844
 5163SOL    HW116388   5.182   3.899   0.769
 5163SOL    HW216389   5.182   4.030   0.867
 5164SOL     OW16390   6.504   6.165   4.650
 5164SOL    HW116391   6.420   6.117   4.675
 5164SOL    HW216392   6.516   6.244   4.711
 5165SOL     OW16393   5.827   3.559   4.964
 5165SOL    HW116394   5.808   3.651   4.928
 5165SOL    HW216395   5.757   3.496   4.930
 5166SOL     OW16396   1.240   6.840   2.687
 5166SOL    HW116397   1.241   6.868   2.591
 5166SOL    HW216398   1.257   6.919   2.746
 5167SOL     OW16399   2.004   0.409   5.718
 5167SOL    HW116400   1.948   0.332   5.688
 5167SOL    HW216401   2.084   0.375   5.768
 5168SOL     OW16402   3.495   2.078   2.616
 5168SOL    HW116403   3.426   2.098   2.547
 5168SOL    HW216404   3.465   2.001   2.672
 5169SOL     OW16405   4.173   4.835   6.306
 5169SOL    HW116406   4.230   4.778   6.247
 5169SOL    HW216407   4.087   4.788   6.325
 5170SOL     OW16408   3.932   5.345   4.184
 5170SOL    HW116409   3.971   5.280   4.249
 5170SOL    HW216410   3.994   5.423   4.173
 5171SOL     OW16411   2.653   4.757   5.222
 5171SOL    HW116412   2.574   4.704   5.255
 5171SOL    HW216413   2.722   4.694   5.187
 5172SOL     OW16414   1.789   4.318   6.522
 5172SOL    HW116415   1.744   4.229   6.516
 5172SOL    HW216416   1.888   4.305   6.533
 5173SOL     OW16417   0.069   2.587   4.949
 5173SOL    HW116418   0.143   2.601   4.883
 5173SOL    HW216419   0.107   2.589   5.042
 5174SOL     OW16420   2.422   5.023   6.783
 5174SOL    HW116421   2.347   5.089   6.774
 5174SOL    HW216422   2.494   5.063   6.840
 5175SOL     OW16423   0.082   5.554   6.710
 5175SOL    HW116424   0.125   5.644   6.706
 5175SOL    HW216425   0.149   5.486   6.742
 5176SOL     OW16426   5.622   3.753   6.054
 5176SOL    HW116427   5.692   3.822   6.038
 5176SOL    HW216428   5.535   3.797   6.075
 5177SOL     OW16429   5.410   5.270   5.592
 5177SOL    HW116430   5.350   5.238   5.666
 5177SOL    HW216431   5.493   5.309   5.632
 5178SOL     OW16432   3.176   4.192   0.891
 5178SOL    HW116433   3.125   4.106   0.882
 5178SOL    HW216434   3.215   4.218   0.803
 5179SOL     OW16435   3.354   6.459   5.198
 5179SOL    HW116436   3.404   6.479   5.114
 5179SOL    HW216437   3.391   6.377   5.241
 5180SOL     OW16438   4.345   1.692   0.210
 5180SOL    HW116439   4.266   1.744   0.178
 5180SOL    HW216440   4.425   1.717   0.156
 5181SOL     OW16441   3.142   6.002   2.367
 5181SOL    HW116442   3.104   6.001   2.274
 5181SOL    HW216443   3.154   5.909   2.399
 5182SOL     OW16444   4.815   4.065   1.212
 5182SOL    HW116445   4.721   4.043   1.238
 5182SOL    HW216446   4.818   4.094   1.117
 5183SOL     OW16447   3.523   0.536   3.805
 5183SOL    HW116448   3.522   0.502   3.899
 5183SOL    HW216449   3.448   0.602   3.793
 5184SOL     OW16450   0.640   2.489   3.531
 5184SOL    HW116451   0.737   2.474   3.514
 5184SOL    HW216452   0.594   2.511   3.445
 5185SOL     OW16453   3.943   6.905   1.323
 5185SOL    HW116454   3.920   6.940   1.232
 5185SOL    HW216455   4.031   6.942   1.352
 5186SOL     OW16456   5.359   4.409   6.928
 5186SOL    HW116457   5.333   4.486   6.871
 5186SOL    HW216458   5.455   4.386   6.911
 5187SOL     OW16459   4.890   3.049   4.279
 5187SOL    HW116460   4.923   3.006   4.363
 5187SOL    HW216461   4.924   3.143   4.275
 5188SOL     OW16462   0.459   0.961   3.799
 5188SOL    HW116463   0.392   0.888   3.818
 5188SOL    HW216464   0.494   0.997   3.885
 5189SOL     OW16465   4.469   5.715   5.806
 5189SOL    HW116466   4.448   5.648   5.734
 5189SOL    HW216467   4.541   5.776   5.774
 5190SOL     OW16468   2.355   2.734   2.018
 5190SOL    HW116469   2.335   2.787   2.101
 5190SOL    HW216470   2.292   2.760   1.945
 5191SOL     OW16471   4.810   0.570   2.525
 5191SOL    HW116472   4.812   0.669   2.531
 5191SOL    HW216473   4.832   0.541   2.432
 5192SOL     OW16474   6.286   4.170   1.389
 5192SOL    HW116475   6.193   4.140   1.409
 5192SOL    HW216476   6.296   4.266   1.416
 5193SOL     OW16477   3.628   4.863   2.233
 5193SOL    HW116478   3.605   4.959   2.214
 5193SOL    HW216479   3.631   4.812   2.147
 5194SOL     OW16480   4.936   0.686   0.499
 5194SOL    HW116481   4.942   0.752   0.425
 5194SOL    HW216482   4.840   0.667   0.520
 5195SOL     OW16483   0.756   6.326   4.959
 5195SOL    HW116484   0.750   6.228   4.974
 5195SOL    HW216485   0.777   6.372   5.046
 5196SOL     OW16486   0.101   4.025   3.641
 5196SOL    HW116487   0.103   4.001   3.738
 5196SOL    HW216488   0.008   4.051   3.615
 5197SOL     OW16489   3.995   5.711   5.150
 5197SOL    HW116490   4.012   5.648   5.073
 5197SOL    HW216491   3.910   5.760   5.135
 5198SOL     OW16492   4.511   1.102   5.608
 5198SOL    HW116493   4.438   1.169   5.619
 5198SOL    HW216494   4.474   1.018   5.569
 5199SOL     OW16495   0.603   5.808   1.353
 5199SOL    HW116496   0.649   5.791   1.439
 5199SOL    HW216497   0.626   5.735   1.288
 5200SOL     OW16498   6.217   6.690   5.067
 5200SOL    HW116499   6.285   6.731   5.128
 5200SOL    HW216500   6.143   6.756   5.050
 5201SOL     OW16501   6.606   4.285   5.387
 5201SOL    HW116502   6.528   4.340   5.419
 5201SOL    HW216503   6.657   4.252   5.466
 5202SOL     OW16504   3.538   2.205   5.896
 5202SOL    HW116505   3.565   2.169   5.806
 5202SOL    HW216506   3.543   2.132   5.964
 5203SOL     OW16507   0.956   0.540   6.414
 5203SOL    HW116508   0.907   0.581   6.337
 5203SOL    HW216509   1.007   0.460   6.383
 5204SOL     OW16510   1.640   0.705   1.772
 5204SOL    HW116511   1.736   0.691   1.748
 5204SOL    HW216512   1.584   0.632   1.732
 5205SOL     OW16513   6.567   0.102   2.152
 5205SOL    HW116514   6.628   0.026   2.129
 5205SOL    HW216515   6.559   0.164   2.074
 5206SOL     OW16516   1.078   5.058   4.811
 5206SOL    HW116517   1.028   5.038   4.727
 5206SOL    HW216518   1.135   4.980   4.836
 5207SOL     OW16519   4.628   0.543   4.870
 5207SOL    HW116520   4.568   0.561   4.948
 5207SOL    HW216521   4.640   0.445   4.859
 5208SOL     OW16522   6.646   1.656   0.098
 5208SOL    HW116523   6.691   1.641   0.187
 5208SOL    HW216524   6.553   1.689   0.114
 5209SOL     OW16525   5.155   6.010   2.129
 5209SOL    HW116526   5.150   5.955   2.046
 5209SOL    HW216527   5.062   6.033   2.160
 5210SOL     OW16528   5.856   4.422   1.117
 5210SOL    HW116529   5.875   4.518   1.099
 5210SOL    HW216530   5.786   4.414   1.188
 5211SOL     OW16531   5.728   2.926   5.235
 5211SOL    HW116532   5.661   2.854   5.253
 5211SOL    HW216533   5.681   3.007   5.199
 5212SOL     OW16534   6.513   3.538   6.617
 5212SOL    HW116535   6.538   3.496   6.530
 5212SOL    HW216536   6.447   3.481   6.664
 5213SOL     OW16537   3.517   3.254   3.414
 5213SOL    HW116538   3.550   3.257   3.320
 5213SOL    HW216539   3.590   3.224   3.475
 5214SOL     OW16540   5.264   3.100   6.169
 5214SOL    HW116541   5.176   3.063   6.199
 5214SOL    HW216542   5.333   3.027   6.171
 5215SOL     OW16543   0.081   5.220   4.957
 5215SOL    HW116544   0.149   5.285   4.921
 5215SOL    HW216545   0.043   5.255   5.042
 5216SOL     OW16546   6.378   4.447   0.802
 5216SOL    HW116547   6.334   4.514   0.742
 5216SOL    HW216548   6.360   4.470   0.897
 5217SOL     OW16549   3.509   6.738   2.451
 5217SOL    HW116550   3.514   6.814   2.387
 5217SOL    HW216551   3.516   6.773   2.545
 5218SOL     OW16552   6.074   0.059   0.603
 5218SOL    HW116553   6.100   0.089   0.695
 5218SOL    HW216554   6.093   0.132   0.537
 5219SOL     OW16555   4.057   1.749   5.000
 5219SOL    HW116556   4.141   1.701   4.976
 5219SOL    HW216557   3.981   1.711   4.948
 5220SOL     OW16558   1.862   4.804   4.415
 5220SOL    HW116559   1.772   4.763   4.426
 5220SOL    HW216560   1.896   4.836   4.503
 5221SOL     OW16561   4.748   6.116   0.975
 5221SOL    HW116562   4.780   6.172   1.052
 5221SOL    HW216563   4.769   6.020   0.994
 5222SOL     OW16564   6.651   3.443   2.216
 5222SOL    HW116565   6.686   3.354   2.246
 5222SOL    HW216566   6.556   3.453   2.246
 5223SOL     OW16567   0.077   2.546   0.828
 5223SOL    HW116568   7.013   2.521   0.783
 5223SOL    HW216569   0.115   2.465   0.874
 5224SOL     OW16570   1.553   1.292   4.444
 5224SOL    HW116571   1.517   1.360   4.380
 5224SOL    HW216572   1.653   1.289   4.436
 5225SOL     OW16573   6.738   2.163   6.031
 5225SOL    HW116574   6.768   2.122   5.945
 5225SOL    HW216575   6.653   2.119   6.061
 5226SOL     OW16576   0.146   6.744   4.079
 5226SOL    HW116577   0.154   6.652   4.042
 5226SOL    HW216578   0.222   6.800   4.046
 5227SOL     OW16579   1.479   2.809   5.900
 5227SOL    HW116580   1.529   2.723   5.890
 5227SOL    HW216581   1.543   2.884   5.916
 5228SOL     OW16582   1.108   2.296   5.164
 5228SOL    HW116583   1.129   2.380   5.214
 5228SOL    HW216584   1.165   2.292   5.081
 5229SOL     OW16585   3.548   1.470   6.826
 5229SOL    HW116586   3.533   1.515   6.914
 5229SOL    HW216587   3.519   1.531   6.752
 5230SOL     OW16588   6.807   0.419   2.121
 5230SOL    HW116589   6.874   0.384   2.187
 5230SOL    HW216590   6.832   0.388   2.029
 5231SOL     OW16591   6.173   3.291   1.642
 5231SOL    HW116592   6.211   3.215   1.694
 5231SOL    HW216593   6.075   3.280   1.633
 5232SOL     OW16594   1.854   1.640   5.697
 5232SOL    HW116595   1.847   1.631   5.796
 5232SOL    HW216596   1.763   1.656   5.658
 5233SOL     OW16597   2.772   0.089   3.595
 5233SOL    HW116598   2.854   0.069   3.542
 5233SOL    HW216599   2.696   0.033   3.563
 5234SOL     OW16600   2.920   2.390   6.749
 5234SOL    HW116601   2.916   2.425   6.655
 5234SOL    HW216602   2.828   2.388   6.788
 5235SOL     OW16603   2.387   2.818   1.483
 5235SOL    HW116604   2.323   2.761   1.431
 5235SOL    HW216605   2.443   2.870   1.419
 5236SOL     OW16606   2.840   4.811   2.480
 5236SOL    HW116607   2.776   4.857   2.541
 5236SOL    HW216608   2.933   4.819   2.517
 5237SOL     OW16609   1.636   1.696   2.162
 5237SOL    HW116610   1.682   1.738   2.240
 5237SOL    HW216611   1.563   1.635   2.195
 5238SOL     OW16612   5.974   0.635   2.896
 5238SOL    HW116613   5.956   0.568   2.968
 5238SOL    HW216614   5.984   0.726   2.937
 5239SOL     OW16615   2.853   4.276   0.320
 5239SOL    HW116616   2.924   4.244   0.257
 5239SOL    HW216617   2.893   4.341   0.384
 5240SOL     OW16618   2.068   4.356   5.737
 5240SOL    HW116619   2.045   4.262   5.714
 5240SOL    HW216620   2.135   4.391   5.671
 5241SOL     OW16621   2.188   6.056   3.406
 5241SOL    HW116622   2.183   6.113   3.488
 5241SOL    HW216623   2.174   5.961   3.431
 5242SOL     OW16624   4.548   5.969   5.507
 5242SOL    HW116625   4.575   6.063   5.483
 5242SOL    HW216626   4.504   5.969   5.597
 5243SOL     OW16627   2.104   6.089   3.707
 5243SOL    HW116628   2.012   6.052   3.703
 5243SOL    HW216629   2.101   6.182   3.745
 5244SOL     OW16630   4.859   1.261   6.278
 5244SOL    HW116631   4.770   1.246   6.236
 5244SOL    HW216632   4.894   1.351   6.254
 5245SOL     OW16633   3.272   4.034   2.299
 5245SOL    HW116634   3.302   3.939   2.290
 5245SOL    HW216635   3.196   4.051   2.238
 5246SOL     OW16636   6.606   3.241   5.889
 5246SOL    HW116637   6.517   3.286   5.896
 5246SOL    HW216638   6.653   3.246   5.978
 5247SOL     OW16639   4.646   0.928   5.865
 5247SOL    HW116640   4.595   1.003   5.821
 5247SOL    HW216641   4.738   0.959   5.887
 5248SOL     OW16642   4.614   0.959   2.931
 5248SOL    HW116643   4.660   0.884   2.882
 5248SOL    HW216644   4.679   1.032   2.948
 5249SOL     OW16645   0.082   5.620   1.591
 5249SOL    HW116646   0.008   5.556   1.613
 5249SOL    HW216647   0.129   5.590   1.508
 5250SOL     OW16648   1.849   4.885   0.845
 5250SOL    HW116649   1.927   4.860   0.903
 5250SOL    HW216650   1.869   4.857   0.751
 5251SOL     OW16651   0.817   4.989   6.861
 5251SOL    HW116652   0.844   5.005   6.766
 5251SOL    HW216653   0.727   4.944   6.862
 5252SOL     OW16654   3.744   5.560   3.109
 5252SOL    HW116655   3.759   5.656   3.133
 5252SOL    HW216656   3.795   5.538   3.026
 5253SOL     OW16657   0.334   5.915   4.875
 5253SOL    HW116658   0.396   5.964   4.937
 5253SOL    HW216659   0.366   5.821   4.865
 5254SOL     OW16660   4.656   6.465   2.150
 5254SOL    HW116661   4.624   6.536   2.213
 5254SOL    HW216662   4.702   6.393   2.203
 5255SOL     OW16663   0.331   1.342   6.593
 5255SOL    HW116664   0.427   1.312   6.595
 5255SOL    HW216665   0.301   1.364   6.686
 5256SOL     OW16666   4.237   2.225   2.671
 5256SOL    HW116667   4.288   2.306   2.697
 5256SOL    HW216668   4.204   2.179   2.753
 5257SOL     OW16669   5.141   1.361   6.921
 5257SOL    HW116670   5.235   1.380   6.893
 5257SOL    HW216671   5.080   1.429   6.880
 5258SOL     OW16672   5.444   1.643   5.173
 5258SOL    HW116673   5.510   1.699   5.122
 5258SOL    HW216674   5.354   1.650   5.130
 5259SOL     OW16675   4.840   5.816   3.916
 5259SOL    HW116676   4.766   5.862   3.965
 5259SOL    HW216677   4.875   5.741   3.972
 5260SOL     OW16678   1.553   6.442   1.608
 5260SOL    HW116679   1.615   6.482   1.540
 5260SOL    HW216680   1.463   6.430   1.568
 5261SOL     OW16681   5.956   4.841   7.004
 5261SOL    HW116682   5.877   4.895   0.012
 5261SOL    HW216683   6.014   4.821   0.061
 5262SOL     OW16684   1.974   2.226   1.406
 5262SOL    HW116685   1.897   2.170   1.435
 5262SOL    HW216686   2.040   2.233   1.481
 5263SOL     OW16687   0.624   5.828   3.204
 5263SOL    HW116688   0.531   5.848   3.173
 5263SOL    HW216689   0.669   5.912   3.232
 5264SOL     OW16690   6.811   2.513   2.077
 5264SOL    HW116691   6.749   2.542   2.150
 5264SOL    HW216692   6.905   2.523   2.108
 5265SOL     OW16693   0.405   5.802   6.142
 5265SOL    HW116694   0.502   5.823   6.152
 5265SOL    HW216695   0.383   5.791   6.045
 5266SOL     OW16696   1.589   6.978   6.375
 5266SOL    HW116697   1.644   6.896   6.359
 5266SOL    HW216698   1.622   0.029   6.316
 5267SOL     OW16699   6.234   1.242   4.772
 5267SOL    HW116700   6.281   1.325   4.802
 5267SOL    HW216701   6.298   1.165   4.773
 5268SOL     OW16702   5.889   6.657   5.981
 5268SOL    HW116703   5.837   6.628   5.902
 5268SOL    HW216704   5.974   6.604   5.986
 5269SOL     OW16705   1.111   0.729   4.357
 5269SOL    HW116706   1.197   0.762   4.394
 5269SOL    HW216707   1.036   0.757   4.417
 5270SOL     OW16708   1.090   1.596   6.987
 5270SOL    HW116709   1.057   1.689   6.971
 5270SOL    HW216710   1.156   1.572   6.915
 5271SOL     OW16711   1.545   5.543   5.986
 5271SOL    HW116712   1.447   5.557   5.969
 5271SOL    HW216713   1.562   5.538   6.084
 5272SOL     OW16714   4.309   0.442   6.333
 5272SOL    HW116715   4.304   0.525   6.276
 5272SOL    HW216716   4.221   0.427   6.378
 5273SOL     OW16717   2.218   1.467   3.493
 5273SOL    HW116718   2.290   1.444   3.559
 5273SOL    HW216719   2.137   1.411   3.511
 5274SOL     OW16720   5.309   4.201   1.176
 5274SOL    HW116721   5.372   4.127   1.152
 5274SOL    HW216722   5.247   4.220   1.100
 5275SOL     OW16723   5.550   1.047   6.327
 5275SOL    HW116724   5.574   1.142   6.306
 5275SOL    HW216725   5.562   1.031   6.425
 5276SOL     OW16726   3.583   6.488   1.348
 5276SOL    HW116727   3.682   6.476   1.355
 5276SOL    HW216728   3.560   6.583   1.367
 5277SOL     OW16729   2.016   3.701   1.699
 5277SOL    HW116730   2.032   3.769   1.628
 5277SOL    HW216731   1.921   3.708   1.731
 5278SOL     OW16732   3.795   3.528   2.664
 5278SOL    HW116733   3.888   3.556   2.688
 5278SOL    HW216734   3.778   3.547   2.568
 5279SOL     OW16735   1.475   6.500   3.118
 5279SOL    HW116736   1.488   6.462   3.026
 5279SOL    HW216737   1.474   6.600   3.113
 5280SOL     OW16738   3.593   0.451   4.049
 5280SOL    HW116739   3.564   0.461   4.144
 5280SOL    HW216740   3.689   0.423   4.047
 5281SOL     OW16741   6.404   2.948   3.981
 5281SOL    HW116742   6.487   2.894   3.969
 5281SOL    HW216743   6.407   2.995   4.069
 5282SOL     OW16744   4.587   2.521   1.375
 5282SOL    HW116745   4.579   2.425   1.404
 5282SOL    HW216746   4.684   2.547   1.372
 5283SOL     OW16747   5.084   4.886   5.534
 5283SOL    HW116748   5.105   4.908   5.439
 5283SOL    HW216749   4.997   4.836   5.539
 5284SOL     OW16750   5.189   2.822   4.105
 5284SOL    HW116751   5.173   2.910   4.060
 5284SOL    HW216752   5.171   2.830   4.203
 5285SOL     OW16753   4.290   6.328   2.291
 5285SOL    HW116754   4.295   6.237   2.332
 5285SOL    HW216755   4.218   6.330   2.222
 5286SOL     OW16756   1.653   5.040   2.328
 5286SOL    HW116757   1.745   5.027   2.292
 5286SOL    HW216758   1.659   5.073   2.423
 5287SOL     OW16759   1.212   0.610   2.604
 5287SOL    HW116760   1.179   0.704   2.615
 5287SOL    HW216761   1.299   0.599   2.651
 5288SOL     OW16762   3.921   0.258   0.769
 5288SOL    HW116763   3.911   0.158   0.769
 5288SOL    HW216764   3.830   0.300   0.777
 5289SOL     OW16765   1.988   6.471   1.560
 5289SOL    HW116766   1.910   6.417   1.528
 5289SOL    HW216767   1.981   6.484   1.659
 5290SOL     OW16768   5.728   6.010   6.541
 5290SOL    HW116769   5.765   6.024   6.632
 5290SOL    HW216770   5.713   6.099   6.496
 5291SOL     OW16771   0.996   5.629   0.344
 5291SOL    HW116772   0.998   5.729   0.341
 5291SOL    HW216773   0.954   5.594   0.261
 5292SOL     OW16774   5.875   1.508   1.172
 5292SOL    HW116775   5.862   1.410   1.160
 5292SOL    HW216776   5.790   1.550   1.203
 5293SOL     OW16777   1.680   1.153   4.167
 5293SOL    HW116778   1.626   1.237   4.173
 5293SOL    HW216779   1.740   1.145   4.247
 5294SOL     OW16780   3.622   1.965   6.537
 5294SOL    HW116781   3.678   1.908   6.598
 5294SOL    HW216782   3.536   1.987   6.582
 5295SOL     OW16783   6.948   1.789   3.471
 5295SOL    HW116784   0.011   1.840   3.480
 5295SOL    HW216785   6.871   1.852   3.458
 5296SOL     OW16786   0.064   2.613   6.730
 5296SOL    HW116787   0.117   2.620   6.814
 5296SOL    HW216788   0.006   2.694   6.720
 5297SOL     OW16789   1.209   2.279   2.097
 5297SOL    HW116790   1.116   2.245   2.081
 5297SOL    HW216791   1.215   2.316   2.190
 5298SOL     OW16792   1.284   4.503   2.012
 5298SOL    HW116793   1.343   4.495   2.092
 5298SOL    HW216794   1.297   4.593   1.969
 5299SOL     OW16795   4.065   0.192   7.020
 5299SOL    HW116796   4.109   0.262   6.963
 5299SOL    HW216797   3.981   0.162   6.977
 5300SOL     OW16798   6.317   4.906   4.048
 5300SOL    HW116799   6.378   4.837   4.009
 5300SOL    HW216800   6.330   4.993   4.000
 5301SOL     OW16801   5.917   0.373   6.747
 5301SOL    HW116802   5.902   0.471   6.735
 5301SOL    HW216803   5.934   0.353   6.843
 5302SOL     OW16804   6.779   4.407   3.464
 5302SOL    HW116805   6.864   4.427   3.416
 5302SOL    HW216806   6.775   4.309   3.485
 5303SOL     OW16807   1.997   4.560   3.234
 5303SOL    HW116808   1.918   4.499   3.240
 5303SOL    HW216809   2.080   4.505   3.220
 5304SOL     OW16810   4.415   1.953   5.760
 5304SOL    HW116811   4.422   1.912   5.669
 5304SOL    HW216812   4.327   1.999   5.769
 5305SOL     OW16813   3.605   2.007   5.014
 5305SOL    HW116814   3.516   2.016   4.971
 5305SOL    HW216815   3.649   1.922   4.984
 5306SOL     OW16816   2.629   6.787   2.905
 5306SOL    HW116817   2.620   6.713   2.839
 5306SOL    HW216818   2.537   6.817   2.934
 5307SOL     OW16819   5.128   6.382   6.824
 5307SOL    HW116820   5.066   6.393   6.746
 5307SOL    HW216821   5.120   6.462   6.884
 5308SOL     OW16822   0.126   1.554   1.814
 5308SOL    HW116823   0.057   1.566   1.743
 5308SOL    HW216824   0.214   1.531   1.771
 5309SOL     OW16825   3.831   3.399   5.272
 5309SOL    HW116826   3.774   3.389   5.191
 5309SOL    HW216827   3.900   3.326   5.274
 5310SOL     OW16828   4.950   2.828   0.304
 5310SOL    HW116829   4.854   2.798   0.299
 5310SOL    HW216830   4.992   2.790   0.387
 5311SOL     OW16831   6.823   6.280   0.464
 5311SOL    HW116832   6.881   6.324   0.533
 5311SOL    HW216833   6.874   6.208   0.419
 5312SOL     OW16834   0.427   3.382   1.980
 5312SOL    HW116835   0.489   3.459   1.964
 5312SOL    HW216836   0.478   3.308   2.024
 5313SOL     OW16837   0.004   6.813   6.807
 5313SOL    HW116838   6.958   6.886   6.805
 5313SOL    HW216839   0.095   6.854   6.814
 5314SOL     OW16840   3.932   4.813   1.342
 5314SOL    HW116841   3.978   4.748   1.281
 5314SOL    HW216842   3.836   4.788   1.352
 5315SOL     OW16843   5.391   1.215   2.298
 5315SOL    HW116844   5.456   1.266   2.355
 5315SOL    HW216845   5.436   1.190   2.212
 5316SOL     OW16846   5.217   5.398   4.556
 5316SOL    HW116847   5.255   5.361   4.641
 5316SOL    HW216848   5.147   5.337   4.522
 5317SOL     OW16849   6.402   5.112   1.666
 5317SOL    HW116850   6.444   5.153   1.586
 5317SOL    HW216851   6.349   5.032   1.638
 5318SOL     OW16852   6.934   2.696   3.667
 5318SOL    HW116853   6.927   2.610   3.615
 5318SOL    HW216854   6.849   2.747   3.657
 5319SOL     OW16855   3.086   6.204   2.703
 5319SOL    HW116856   2.998   6.200   2.657
 5319SOL    HW216857   3.159   6.215   2.635
 5320SOL     OW16858   6.206   2.206   0.209
 5320SOL    HW116859   6.303   2.224   0.225
 5320SOL    HW216860   6.197   2.123   0.154
 5321SOL     OW16861   2.674   4.481   7.005
 5321SOL    HW116862   2.676   4.432   0.070
 5321SOL    HW216863   2.724   4.567   7.014
 5322SOL     OW16864   2.495   6.732   0.303
 5322SOL    HW116865   2.467   6.701   0.394
 5322SOL    HW216866   2.461   6.667   0.234
 5323SOL     OW16867   6.465   3.408   0.494
 5323SOL    HW116868   6.366   3.420   0.494
 5323SOL    HW216869   6.490   3.332   0.554
 5324SOL     OW16870   3.883   3.564   1.797
 5324SOL    HW116871   3.826   3.505   1.853
 5324SOL    HW216872   3.979   3.547   1.818
 5325SOL     OW16873   3.456   6.356   5.752
 5325SOL    HW116874   3.398   6.404   5.686
 5325SOL    HW216875   3.419   6.368   5.844
 5326SOL     OW16876   6.188   0.980   3.064
 5326SOL    HW116877   6.285   0.962   3.083
 5326SOL    HW216878   6.132   0.938   3.135
 5327SOL     OW16879   6.185   6.839   4.309
 5327SOL    HW116880   6.102   6.793   4.280
 5327SOL    HW216881   6.208   6.810   4.402
 5328SOL     OW16882   2.490   4.898   6.470
 5328SOL    HW116883   2.450   4.839   6.400
 5328SOL    HW216884   2.417   4.951   6.514
 5329SOL     OW16885   6.893   6.756   6.564
 5329SOL    HW116886   6.953   6.763   6.643
 5329SOL    HW216887   6.939   6.794   6.483
 5330SOL     OW16888   4.540   4.625   1.196
 5330SOL    HW116889   4.618   4.601   1.254
 5330SOL    HW216890   4.522   4.550   1.133
 5331SOL     OW16891   5.725   1.383   6.686
 5331SOL    HW116892   5.809   1.352   6.731
 5331SOL    HW216893   5.738   1.382   6.587
 5332SOL     OW16894   6.308   2.725   6.953
 5332SOL    HW116895   6.362   2.809   6.947
 5332SOL    HW216896   6.368   2.646   6.941
 5333SOL     OW16897   0.797   6.974   4.186
 5333SOL    HW116898   0.738   6.912   4.134
 5333SOL    HW216899   0.893   6.957   4.162
 5334SOL     OW16900   3.621   5.895   1.387
 5334SOL    HW116901   3.600   5.837   1.308
 5334SOL    HW216902   3.714   5.931   1.377
 5335SOL     OW16903   0.389   4.938   1.505
 5335SOL    HW116904   0.298   4.969   1.480
 5335SOL    HW216905   0.403   4.949   1.603
 5336SOL     OW16906   1.191   3.437   5.617
 5336SOL    HW116907   1.132   3.458   5.539
 5336SOL    HW216908   1.248   3.517   5.639
 5337SOL     OW16909   6.673   1.630   1.038
 5337SOL    HW116910   6.716   1.671   1.118
 5337SOL    HW216911   6.573   1.634   1.047
 5338SOL     OW16912   0.249   3.358   1.653
 5338SOL    HW116913   0.256   3.455   1.632
 5338SOL    HW216914   0.182   3.344   1.726
 5339SOL     OW16915   4.994   3.378   3.011
 5339SOL    HW116916   5.080   3.428   3.020
 5339SOL    HW216917   4.936   3.395   3.090
 5340SOL     OW16918   4.851   3.681   0.987
 5340SOL    HW116919   4.942   3.722   0.994
 5340SOL    HW216920   4.852   3.611   0.915
 5341SOL     OW16921   4.900   5.004   3.268
 5341SOL    HW116922   4.822   4.992   3.329
 5341SOL    HW216923   4.963   5.071   3.306
 5342SOL     OW16924   6.060   5.133   5.240
 5342SOL    HW116925   6.081   5.219   5.287
 5342SOL    HW216926   6.044   5.061   5.307
 5343SOL     OW16927   3.518   3.617   6.862
 5343SOL    HW116928   3.442   3.627   6.798
 5343SOL    HW216929   3.561   3.706   6.877
 5344SOL     OW16930   5.726   1.437   0.130
 5344SOL    HW116931   5.737   1.339   0.112
 5344SOL    HW216932   5.660   1.476   0.067
 5345SOL     OW16933   3.658   1.392   0.086
 5345SOL    HW116934   3.704   1.476   0.058
 5345SOL    HW216935   3.712   1.347   0.157
 5346SOL     OW16936   2.077   5.909   2.843
 5346SOL    HW116937   2.106   5.814   2.854
 5346SOL    HW216938   2.157   5.968   2.840
 5347SOL     OW16939   5.989   1.794   5.331
 5347SOL    HW116940   5.985   1.723   5.401
 5347SOL    HW216941   5.906   1.850   5.336
 5348SOL     OW16942   4.802   2.449   5.107
 5348SOL    HW116943   4.840   2.465   5.197
 5348SOL    HW216944   4.858   2.494   5.038
 5349SOL     OW16945   1.100   4.265   0.395
 5349SOL    HW116946   1.135   4.315   0.475
 5349SOL    HW216947   1.160   4.280   0.317
 5350SOL     OW16948   0.943   6.696   6.694
 5350SOL    HW116949   1.019   6.745   6.651
 5350SOL    HW216950   0.862   6.703   6.636
 5351SOL     OW16951   0.726   5.703   3.691
 5351SOL    HW116952   0.778   5.765   3.633
 5351SOL    HW216953   0.728   5.611   3.651
 5352SOL     OW16954   0.239   2.334   5.658
 5352SOL    HW116955   0.149   2.309   5.694
 5352SOL    HW216956   0.297   2.366   5.732
 5353SOL     OW16957   2.564   0.020   3.205
 5353SOL    HW116958   2.475   0.019   3.250
 5353SOL    HW216959   2.624   0.085   3.251
 5354SOL     OW16960   3.600   5.924   2.147
 5354SOL    HW116961   3.619   5.865   2.226
 5354SOL    HW216962   3.502   5.940   2.140
 5355SOL     OW16963   5.443   4.633   5.228
 5355SOL    HW116964   5.467   4.654   5.323
 5355SOL    HW216965   5.427   4.718   5.179
 5356SOL     OW16966   0.442   6.701   1.511
 5356SOL    HW116967   0.484   6.652   1.434
 5356SOL    HW216968   0.513   6.738   1.570
 5357SOL     OW16969   6.454   3.410   2.591
 5357SOL    HW116970   6.458   3.321   2.546
 5357SOL    HW216971   6.455   3.398   2.690
 5358SOL     OW16972   6.269   0.528   6.692
 5358SOL    HW116973   6.237   0.482   6.609
 5358SOL    HW216974   6.291   0.460   6.762
 5359SOL     OW16975   3.162   2.370   0.384
 5359SOL    HW116976   3.149   2.400   0.290
 5359SOL    HW216977   3.216   2.437   0.434
 5360SOL     OW16978   5.401   5.299   2.813
 5360SOL    HW116979   5.484   5.347   2.842
 5360SOL    HW216980   5.352   5.265   2.894
 5361SOL     OW16981   1.737   3.972   2.912
 5361SOL    HW116982   1.781   4.040   2.853
 5361SOL    HW216983   1.736   3.884   2.865
 5362SOL     OW16984   5.791   1.645   3.873
 5362SOL    HW116985   5.704   1.653   3.823
 5362SOL    HW216986   5.856   1.594   3.818
 5363SOL     OW16987   5.977   4.774   5.183
 5363SOL    HW116988   6.039   4.803   5.111
 5363SOL    HW216989   5.977   4.674   5.188
 5364SOL     OW16990   4.473   2.371   1.730
 5364SOL    HW116991   4.421   2.288   1.752
 5364SOL    HW216992   4.514   2.361   1.639
 5365SOL     OW16993   3.346   3.249   6.143
 5365SOL    HW116994   3.271   3.304   6.180
 5365SOL    HW216995   3.372   3.179   6.210
 5366SOL     OW16996   0.532   4.344   3.676
 5366SOL    HW116997   0.488   4.282   3.742
 5366SOL    HW216998   0.469   4.417   3.652
 5367SOL     OW16999   6.365   6.126   1.310
 5367SOL    HW117000   6.388   6.118   1.407
 5367SOL    HW217001   6.272   6.161   1.301
 5368SOL     OW17002   6.825   6.085   5.391
 5368SOL    HW117003   6.725   6.088   5.381
 5368SOL    HW217004   6.859   5.998   5.355
 5369SOL     OW17005   3.760   0.014   2.894
 5369SOL    HW117006   3.682   0.018   2.832
 5369SOL    HW217007   3.845   0.026   2.842
 5370SOL     OW17008   2.702   2.493   0.576
 5370SOL    HW117009   2.769   2.526   0.510
 5370SOL    HW217010   2.696   2.393   0.571
 5371SOL     OW17011   6.246   5.332   3.385
 5371SOL    HW117012   6.335   5.294   3.411
 5371SOL    HW217013   6.181   5.319   3.459
 5372SOL     OW17014   0.492   0.062   4.222
 5372SOL    HW117015   0.555   0.093   4.293
 5372SOL    HW217016   0.538   0.064   4.133
 5373SOL     OW17017   4.278   6.837   0.583
 5373SOL    HW117018   4.310   6.827   0.676
 5373SOL    HW217019   4.356   6.846   0.521
 5374SOL     OW17020   1.664   3.847   1.161
 5374SOL    HW117021   1.580   3.900   1.171
 5374SOL    HW217022   1.727   3.895   1.100
 5375SOL     OW17023   2.746   5.059   5.234
 5375SOL    HW117024   2.794   4.971   5.234
 5375SOL    HW217025   2.812   5.133   5.218
 5376SOL     OW17026   0.136   6.851   1.996
 5376SOL    HW117027   0.073   6.818   1.925
 5376SOL    HW217028   0.156   6.947   1.980
 5377SOL     OW17029   1.086   2.538   2.385
 5377SOL    HW117030   0.988   2.528   2.364
 5377SOL    HW217031   1.097   2.599   2.464
 5378SOL     OW17032   5.253   0.197   3.388
 5378SOL    HW117033   5.187   0.245   3.330
 5378SOL    HW217034   5.344   0.204   3.347
 5379SOL     OW17035   3.076   2.193   4.349
 5379SOL    HW117036   3.080   2.237   4.439
 5379SOL    HW217037   3.112   2.100   4.356
 5380SOL     OW17038   4.700   6.652   1.468
 5380SOL    HW117039   4.662   6.616   1.384
 5380SOL    HW217040   4.636   6.637   1.543
 5381SOL     OW17041   3.142   2.031   2.620
 5381SOL    HW117042   3.115   1.935   2.634
 5381SOL    HW217043   3.179   2.042   2.527
 5382SOL     OW17044   4.736   0.824   2.456
 5382SOL    HW117045   4.708   0.918   2.435
 5382SOL    HW217046   4.761   0.776   2.372
 5383SOL     OW17047   2.499   3.965   5.419
 5383SOL    HW117048   2.447   3.975   5.334
 5383SOL    HW217049   2.567   4.038   5.425
 5384SOL     OW17050   5.052   6.453   6.127
 5384SOL    HW117051   5.036   6.514   6.050
 5384SOL    HW217052   4.980   6.466   6.195
 5385SOL     OW17053   3.751   4.073   0.717
 5385SOL    HW117054   3.683   4.128   0.766
 5385SOL    HW217055   3.839   4.078   0.764
 5386SOL     OW17056   4.462   4.534   3.388
 5386SOL    HW117057   4.538   4.551   3.450
 5386SOL    HW217058   4.381   4.583   3.420
 5387SOL     OW17059   0.970   2.562   5.032
 5387SOL    HW117060   1.061   2.558   5.073
 5387SOL    HW217061   0.953   2.478   4.980
 5388SOL     OW17062   6.516   6.673   3.292
 5388SOL    HW117063   6.447   6.709   3.229
 5388SOL    HW217064   6.471   6.624   3.367
 5389SOL     OW17065   5.951   1.499   4.911
 5389SOL    HW117066   5.960   1.410   4.866
 5389SOL    HW217067   5.902   1.488   4.998
 5390SOL     OW17068   5.634   3.363   3.128
 5390SOL    HW117069   5.603   3.274   3.095
 5390SOL    HW217070   5.680   3.353   3.216
 5391SOL     OW17071   4.470   3.213   0.767
 5391SOL    HW117072   4.458   3.310   0.745
 5391SOL    HW217073   4.437   3.158   0.690
 5392SOL     OW17074   5.174   1.023   4.255
 5392SOL    HW117075   5.271   1.028   4.230
 5392SOL    HW217076   5.123   1.091   4.204
 5393SOL     OW17077   4.871   2.573   3.079
 5393SOL    HW117078   4.933   2.505   3.039
 5393SOL    HW217079   4.796   2.525   3.126
 5394SOL     OW17080   0.017   3.176   3.200
 5394SOL    HW117081   0.024   3.123   3.116
 5394SOL    HW217082   0.024   3.115   3.279
 5395SOL     OW17083   0.035   0.633   1.958
 5395SOL    HW117084   7.008   0.546   1.954
 5395SOL    HW217085   7.001   0.700   2.006
 5396SOL     OW17086   4.199   2.543   0.135
 5396SOL    HW117087   4.112   2.502   0.163
 5396SOL    HW217088   4.201   2.552   0.036
 5397SOL     OW17089   0.948   6.650   2.373
 5397SOL    HW117090   0.986   6.722   2.315
 5397SOL    HW217091   0.854   6.630   2.344
 5398SOL     OW17092   5.931   2.528   3.544
 5398SOL    HW117093   5.857   2.495   3.602
 5398SOL    HW217094   6.000   2.575   3.600
 5399SOL     OW17095   2.652   2.965   0.328
 5399SOL    HW117096   2.686   3.058   0.313
 5399SOL    HW217097   2.602   2.934   0.248
 5400SOL     OW17098   5.339   2.807   0.617
 5400SOL    HW117099   5.414   2.753   0.579
 5400SOL    HW217100   5.295   2.860   0.544
 5401SOL     OW17101   5.105   4.164   0.942
 5401SOL    HW117102   5.005   4.158   0.938
 5401SOL    HW217103   5.134   4.255   0.914
 5402SOL     OW17104   2.069   6.054   1.724
 5402SOL    HW117105   2.030   5.979   1.670
 5402SOL    HW217106   2.127   6.110   1.665
 5403SOL     OW17107   6.242   2.653   5.328
 5403SOL    HW117108   6.240   2.557   5.300
 5403SOL    HW217109   6.149   2.684   5.349
 5404SOL     OW17110   5.014   6.559   0.892
 5404SOL    HW117111   5.069   6.487   0.849
 5404SOL    HW217112   4.927   6.521   0.922
 5405SOL     OW17113   6.553   4.606   6.066
 5405SOL    HW117114   6.455   4.615   6.079
 5405SOL    HW217115   6.596   4.696   6.077
 5406SOL     OW17116   1.947   1.102   5.359
 5406SOL    HW117117   1.919   1.025   5.416
 5406SOL    HW217118   1.894   1.183   5.385
 5407SOL     OW17119   2.248   1.474   2.787
 5407SOL    HW117120   2.228   1.469   2.689
 5407SOL    HW217121   2.166   1.451   2.839
 5408SOL     OW17122   2.067   2.433   4.534
 5408SOL    HW117123   2.121   2.458   4.453
 5408SOL    HW217124   1.994   2.500   4.548
 5409SOL     OW17125   6.836   4.730   3.261
 5409SOL    HW117126   6.815   4.706   3.356
 5409SOL    HW217127   6.789   4.667   3.199
 5410SOL     OW17128   5.791   2.372   0.422
 5410SOL    HW117129   5.877   2.323   0.436
 5410SOL    HW217130   5.809   2.458   0.374
 5411SOL     OW17131   3.144   5.868   1.639
 5411SOL    HW117132   3.149   5.808   1.719
 5411SOL    HW217133   3.211   5.839   1.571
 5412SOL     OW17134   1.967   1.841   6.277
 5412SOL    HW117135   1.977   1.833   6.178
 5412SOL    HW217136   1.874   1.819   6.304
 5413SOL     OW17137   6.922   5.783   5.817
 5413SOL    HW117138   6.926   5.850   5.742
 5413SOL    HW217139   6.892   5.695   5.780
 5414SOL     OW17140   5.553   5.986   5.940
 5414SOL    HW117141   5.587   6.023   6.026
 5414SOL    HW217142   5.598   6.032   5.864
 5415SOL     OW17143   2.030   1.170   0.122
 5415SOL    HW117144   2.065   1.103   0.057
 5415SOL    HW217145   1.961   1.227   0.078
 5416SOL     OW17146   3.672   5.495   6.354
 5416SOL    HW117147   3.611   5.417   6.341
 5416SOL    HW217148   3.766   5.467   6.340
 5417SOL     OW17149   5.613   0.058   2.149
 5417SOL    HW117150   5.548   0.086   2.219
 5417SOL    HW217151   5.566   0.046   2.062
 5418SOL     OW17152   0.694   3.083   5.339
 5418SOL    HW117153   0.746   3.168   5.333
 5418SOL    HW217154   0.607   3.100   5.385
 5419SOL     OW17155   3.784   2.272   6.280
 5419SOL    HW117156   3.845   2.193   6.274
 5419SOL    HW217157   3.777   2.301   6.375
 5420SOL     OW17158   2.174   1.621   1.202
 5420SOL    HW117159   2.111   1.605   1.278
 5420SOL    HW217160   2.257   1.567   1.215
 5421SOL     OW17161   4.354   5.270   1.448
 5421SOL    HW117162   4.304   5.356   1.461
 5421SOL    HW217163   4.434   5.269   1.507
 5422SOL     OW17164   2.153   6.844   2.863
 5422SOL    HW117165   2.196   6.842   2.953
 5422SOL    HW217166   2.109   6.756   2.845
 5423SOL     OW17167   4.372   6.708   2.079
 5423SOL    HW117168   4.463   6.672   2.059
 5423SOL    HW217169   4.370   6.806   2.058
 5424SOL     OW17170   3.450   3.312   4.994
 5424SOL    HW117171   3.470   3.216   5.011
 5424SOL    HW217172   3.358   3.334   5.029
 5425SOL     OW17173   1.081   5.335   5.289
 5425SOL    HW117174   1.092   5.239   5.317
 5425SOL    HW217175   1.004   5.375   5.338
 5426SOL     OW17176   1.447   4.486   0.087
 5426SOL    HW117177   1.447   4.499   0.186
 5426SOL    HW217178   1.534   4.517   0.050
 5427SOL     OW17179   5.031   2.363   0.705
 5427SOL    HW117180   4.998   2.411   0.787
 5427SOL    HW217181   5.130   2.369   0.701
 5428SOL     OW17182   4.469   5.330   2.713
 5428SOL    HW117183   4.446   5.272   2.791
 5428SOL    HW217184   4.563   5.361   2.721
 5429SOL     OW17185   2.282   6.714   3.297
 5429SOL    HW117186   2.286   6.702   3.396
 5429SOL    HW217187   2.270   6.626   3.252
 5430SOL     OW17188   0.939   4.587   5.233
 5430SOL    HW117189   0.985   4.616   5.317
 5430SOL    HW217190   0.985   4.505   5.196
 5431SOL     OW17191   5.299   4.359   1.409
 5431SOL    HW117192   5.227   4.326   1.470
 5431SOL    HW217193   5.293   4.312   1.322
 5432SOL     OW17194   1.173   5.112   5.730
 5432SOL    HW117195   1.247   5.053   5.764
 5432SOL    HW217196   1.191   5.137   5.635
 5433SOL     OW17197   2.565   6.947   1.295
 5433SOL    HW117198   2.657   6.939   1.256
 5433SOL    HW217199   2.553   6.879   1.367
 5434SOL     OW17200   4.904   5.632   4.119
 5434SOL    HW117201   4.971   5.561   4.141
 5434SOL    HW217202   4.885   5.687   4.200
 5435SOL     OW17203   6.765   3.440   0.073
 5435SOL    HW117204   6.749   3.522   0.128
 5435SOL    HW217205   6.788   3.467   7.001
 5436SOL     OW17206   1.231   4.689   1.124
 5436SOL    HW117207   1.258   4.646   1.037
 5436SOL    HW217208   1.224   4.619   1.195
 5437SOL     OW17209   3.624   6.657   6.560
 5437SOL    HW117210   3.644   6.632   6.465
 5437SOL    HW217211   3.584   6.579   6.608
 5438SOL     OW17212   5.168   6.515   2.682
 5438SOL    HW117213   5.254   6.550   2.720
 5438SOL    HW217214   5.186   6.470   2.595
 5439SOL     OW17215   1.192   3.812   1.711
 5439SOL    HW117216   1.209   3.730   1.656
 5439SOL    HW217217   1.206   3.790   1.808
 5440SOL     OW17218   6.378   6.541   3.510
 5440SOL    HW117219   6.386   6.543   3.610
 5440SOL    HW217220   6.295   6.491   3.485
 5441SOL     OW17221   5.405   0.865   4.870
 5441SOL    HW117222   5.455   0.788   4.910
 5441SOL    HW217223   5.321   0.881   4.922
 5442SOL     OW17224   2.906   0.023   6.888
 5442SOL    HW117225   2.832   0.034   6.953
 5442SOL    HW217226   2.872   7.003   6.804
 5443SOL     OW17227   5.725   1.311   3.357
 5443SOL    HW117228   5.642   1.362   3.336
 5443SOL    HW217229   5.700   1.221   3.393
 5444SOL     OW17230   1.714   1.517   6.324
 5444SOL    HW117231   1.695   1.468   6.409
 5444SOL    HW217232   1.778   1.463   6.269
 5445SOL     OW17233   5.685   6.589   4.857
 5445SOL    HW117234   5.747   6.562   4.931
 5445SOL    HW217235   5.600   6.537   4.864
 5446SOL     OW17236   2.212   4.521   6.675
 5446SOL    HW117237   2.205   4.614   6.639
 5446SOL    HW217238   2.294   4.512   6.731
 5447SOL     OW17239   6.092   2.211   1.707
 5447SOL    HW117240   6.181   2.204   1.751
 5447SOL    HW217241   6.020   2.183   1.771
 5448SOL     OW17242   6.133   4.863   1.705
 5448SOL    HW117243   6.119   4.961   1.717
 5448SOL    HW217244   6.220   4.847   1.658
 5449SOL     OW17245   2.456   0.178   2.339
 5449SOL    HW117246   2.408   0.136   2.262
 5449SOL    HW217247   2.543   0.131   2.355
 5450SOL     OW17248   4.590   5.223   1.864
 5450SOL    HW117249   4.593   5.123   1.853
 5450SOL    HW217250   4.683   5.258   1.877
 5451SOL     OW17251   0.793   5.447   3.812
 5451SOL    HW117252   0.878   5.449   3.865
 5451SOL    HW217253   0.800   5.379   3.739
 5452SOL     OW17254   2.195   4.097   2.851
 5452SOL    HW117255   2.098   4.122   2.853
 5452SOL    HW217256   2.204   3.998   2.862
 5453SOL     OW17257   5.739   5.081   4.153
 5453SOL    HW117258   5.683   5.006   4.116
 5453SOL    HW217259   5.817   5.043   4.202
 5454SOL     OW17260   6.284   3.906   1.940
 5454SOL    HW117261   6.312   3.909   1.844
 5454SOL    HW217262   6.201   3.850   1.948
 5455SOL     OW17263   2.246   2.560   3.049
 5455SOL    HW117264   2.320   2.568   2.983
 5455SOL    HW217265   2.283   2.556   3.142
 5456SOL     OW17266   5.253   2.941   0.390
 5456SOL    HW117267   5.225   2.852   0.354
 5456SOL    HW217268   5.279   3.001   0.315
 5457SOL     OW17269   6.373   1.630   0.494
 5457SOL    HW117270   6.436   1.563   0.533
 5457SOL    HW217271   6.348   1.601   0.401
 5458SOL     OW17272   5.988   4.824   5.803
 5458SOL    HW117273   6.046   4.793   5.728
 5458SOL    HW217274   5.997   4.762   5.881
 5459SOL     OW17275   2.486   3.679   5.427
 5459SOL    HW117276   2.531   3.767   5.416
 5459SOL    HW217277   2.390   3.686   5.399
 5460SOL     OW17278   0.201   0.955   1.726
 5460SOL    HW117279   0.277   0.890   1.734
 5460SOL    HW217280   0.237   1.047   1.714
 5461SOL     OW17281   5.299   1.082   6.526
 5461SOL    HW117282   5.269   1.021   6.599
 5461SOL    HW217283   5.399   1.089   6.528
 5462SOL     OW17284   4.928   5.178   6.304
 5462SOL    HW117285   4.898   5.221   6.219
 5462SOL    HW217286   4.850   5.170   6.366
 5463SOL     OW17287   1.901   5.336   7.012
 5463SOL    HW117288   1.848   5.389   6.945
 5463SOL    HW217289   1.998   5.345   6.993
 5464SOL     OW17290   2.001   5.971   4.137
 5464SOL    HW117291   1.983   5.899   4.204
 5464SOL    HW217292   2.014   6.058   4.184
 5465SOL     OW17293   0.861   1.084   4.976
 5465SOL    HW117294   0.947   1.121   4.942
 5465SOL    HW217295   0.825   1.143   5.048
 5466SOL     OW17296   5.257   2.321   4.840
 5466SOL    HW117297   5.193   2.346   4.913
 5466SOL    HW217298   5.233   2.231   4.804
 5467SOL     OW17299   5.694   3.938   3.753
 5467SOL    HW117300   5.600   3.972   3.746
 5467SOL    HW217301   5.751   3.983   3.684
 5468SOL     OW17302   0.493   2.889   1.328
 5468SOL    HW117303   0.564   2.839   1.378
 5468SOL    HW217304   0.534   2.939   1.252
 5469SOL     OW17305   4.489   1.333   3.362
 5469SOL    HW117306   4.490   1.371   3.269
 5469SOL    HW217307   4.575   1.355   3.408
 5470SOL     OW17308   2.937   4.835   3.983
 5470SOL    HW117309   2.875   4.867   3.911
 5470SOL    HW217310   3.004   4.772   3.943
 5471SOL     OW17311   5.417   0.490   3.895
 5471SOL    HW117312   5.389   0.405   3.940
 5471SOL    HW217313   5.513   0.508   3.916
 5472SOL     OW17314   2.528   3.759   6.784
 5472SOL    HW117315   2.626   3.742   6.788
 5472SOL    HW217316   2.496   3.744   6.690
 5473SOL     OW17317   2.672   4.686   2.225
 5473SOL    HW117318   2.760   4.713   2.263
 5473SOL    HW217319   2.683   4.665   2.127
 5474SOL     OW17320   1.067   5.136   1.754
 5474SOL    HW117321   1.132   5.209   1.733
 5474SOL    HW217322   1.062   5.124   1.854
 5475SOL     OW17323   0.669   0.964   5.315
 5475SOL    HW117324   0.685   0.885   5.255
 5475SOL    HW217325   0.730   0.959   5.394
 5476SOL     OW17326   2.519   0.970   5.273
 5476SOL    HW117327   2.526   0.998   5.177
 5476SOL    HW217328   2.457   1.032   5.321
 5477SOL     OW17329   2.114   3.764   3.284
 5477SOL    HW117330   2.031   3.808   3.248
 5477SOL    HW217331   2.192   3.824   3.271
 5478SOL     OW17332   6.641   3.596   5.326
 5478SOL    HW117333   6.663   3.529   5.398
 5478SOL    HW217334   6.629   3.548   5.239
 5479SOL     OW17335   5.118   3.699   4.449
 5479SOL    HW117336   5.019   3.703   4.436
 5479SOL    HW217337   5.144   3.754   4.529
 5480SOL     OW17338   1.650   3.367   5.659
 5480SOL    HW117339   1.577   3.425   5.622
 5480SOL    HW217340   1.679   3.303   5.587
 5481SOL     OW17341   4.395   1.257   0.398
 5481SOL    HW117342   4.327   1.331   0.401
 5481SOL    HW217343   4.382   1.203   0.316
 5482SOL     OW17344   5.257   4.524   2.475
 5482SOL    HW117345   5.193   4.601   2.486
 5482SOL    HW217346   5.233   4.473   2.393
 5483SOL     OW17347   5.864   2.165   0.808
 5483SOL    HW117348   5.851   2.257   0.771
 5483SOL    HW217349   5.873   2.100   0.733
 5484SOL     OW17350   6.257   0.766   5.451
 5484SOL    HW117351   6.264   0.667   5.438
 5484SOL    HW217352   6.163   0.790   5.475
 5485SOL     OW17353   2.666   0.834   3.977
 5485SOL    HW117354   2.599   0.908   3.970
 5485SOL    HW217355   2.624   0.748   3.948
 5486SOL     OW17356   0.152   0.050   3.838
 5486SOL    HW117357   0.183   0.125   3.897
 5486SOL    HW217358   0.054   0.036   3.852
 5487SOL     OW17359   4.655   5.491   1.101
 5487SOL    HW117360   4.696   5.437   1.174
 5487SOL    HW217361   4.556   5.474   1.098
 5488SOL     OW17362   5.233   0.771   6.272
 5488SOL    HW117363   5.282   0.852   6.238
 5488SOL    HW217364   5.137   0.795   6.285
 5489SOL     OW17365   6.797   4.016   2.537
 5489SOL    HW117366   6.853   4.084   2.584
 5489SOL    HW217367   6.734   4.062   2.474
 5490SOL     OW17368   2.919   1.449   6.416
 5490SOL    HW117369   2.862   1.424   6.494
 5490SOL    HW217370   2.923   1.372   6.352
 5491SOL     OW17371   6.961   6.123   2.510
 5491SOL    HW117372   6.971   6.127   2.411
 5491SOL    HW217373   6.921   6.036   2.536
 5492SOL     OW17374   1.137   1.156   4.871
 5492SOL    HW117375   1.151   1.148   4.772
 5492SOL    HW217376   1.142   1.253   4.896
 5493SOL     OW17377   4.197   1.455   0.416
 5493SOL    HW117378   4.246   1.524   0.468
 5493SOL    HW217379   4.170   1.493   0.328
 5494SOL     OW17380   5.189   3.225   2.457
 5494SOL    HW117381   5.168   3.305   2.401
 5494SOL    HW217382   5.151   3.238   2.549
 5495SOL     OW17383   3.604   2.883   3.972
 5495SOL    HW117384   3.530   2.889   4.039
 5495SOL    HW217385   3.565   2.878   3.880
 5496SOL     OW17386   4.553   5.388   2.112
 5496SOL    HW117387   4.493   5.334   2.053
 5496SOL    HW217388   4.555   5.482   2.080
 5497SOL     OW17389   5.463   0.460   6.946
 5497SOL    HW117390   5.426   0.420   0.008
 5497SOL    HW217391   5.557   0.489   6.961
 5498SOL     OW17392   4.151   1.812   4.570
 5498SOL    HW117393   4.079   1.858   4.518
 5498SOL    HW217394   4.230   1.873   4.580
 5499SOL     OW17395   0.274   0.549   4.981
 5499SOL    HW117396   0.216   0.483   4.934
 5499SOL    HW217397   0.338   0.501   5.041
 5500SOL     OW17398   1.931   6.328   0.826
 5500SOL    HW117399   1.865   6.255   0.808
 5500SOL    HW217400   2.009   6.318   0.765
 5501SOL     OW17401   2.923   0.723   2.142
 5501SOL    HW117402   2.984   0.687   2.072
 5501SOL    HW217403   2.919   0.659   2.220
 5502SOL     OW17404   4.712   3.717   0.686
 5502SOL    HW117405   4.697   3.618   0.687
 5502SOL    HW217406   4.767   3.742   0.606
 5503SOL     OW17407   6.966   0.136   3.532
 5503SOL    HW117408   6.895   0.088   3.481
 5503SOL    HW217409   0.031   0.127   3.484
 5504SOL     OW17410   3.084   2.224   4.625
 5504SOL    HW117411   3.112   2.260   4.713
 5504SOL    HW217412   2.986   2.239   4.612
 5505SOL     OW17413   3.296   4.682   0.885
 5505SOL    HW117414   3.362   4.744   0.842
 5505SOL    HW217415   3.204   4.703   0.851
 5506SOL     OW17416   0.635   0.300   5.838
 5506SOL    HW117417   0.591   0.248   5.765
 5506SOL    HW217418   0.623   0.253   5.925
 5507SOL     OW17419   2.815   5.405   5.229
 5507SOL    HW117420   2.915   5.404   5.230
 5507SOL    HW217421   2.782   5.488   5.183
 5508SOL     OW17422   1.502   0.928   5.035
 5508SOL    HW117423   1.405   0.947   5.045
 5508SOL    HW217424   1.517   0.829   5.029
 5509SOL     OW17425   6.520   0.168   6.013
 5509SOL    HW117426   6.553   0.258   5.984
 5509SOL    HW217427   6.592   0.122   6.064
 5510SOL     OW17428   6.904   6.990   5.938
 5510SOL    HW117429   6.988   6.943   5.964
 5510SOL    HW217430   6.828   6.925   5.934
 5511SOL     OW17431   0.628   2.528   1.222
 5511SOL    HW117432   0.683   2.539   1.305
 5511SOL    HW217433   0.537   2.495   1.248
 5512SOL     OW17434   6.211   0.727   0.355
 5512SOL    HW117435   6.266   0.810   0.364
 5512SOL    HW217436   6.177   0.721   0.261
 5513SOL     OW17437   3.132   5.940   4.721
 5513SOL    HW117438   3.049   5.913   4.771
 5513SOL    HW217439   3.116   6.025   4.672
 5514SOL     OW17440   6.199   6.248   3.711
 5514SOL    HW117441   6.146   6.332   3.702
 5514SOL    HW217442   6.193   6.214   3.805
 5515SOL     OW17443   0.077   4.055   3.152
 5515SOL    HW117444   7.015   4.093   3.191
 5515SOL    HW217445   0.059   3.962   3.119
 5516SOL     OW17446   1.362   2.380   0.406
 5516SOL    HW117447   1.421   2.443   0.355
 5516SOL    HW217448   1.390   2.379   0.502
 5517SOL     OW17449   3.094   1.185   2.025
 5517SOL    HW117450   3.049   1.097   2.008
 5517SOL    HW217451   3.121   1.226   1.938
 5518SOL     OW17452   5.739   3.966   5.210
 5518SOL    HW117453   5.661   4.028   5.208
 5518SOL    HW217454   5.707   3.872   5.198
 5519SOL     OW17455   5.503   4.650   2.271
 5519SOL    HW117456   5.542   4.638   2.363
 5519SOL    HW217457   5.426   4.586   2.260
 5520SOL     OW17458   1.383   2.496   1.064
 5520SOL    HW117459   1.454   2.429   1.042
 5520SOL    HW217460   1.368   2.497   1.163
 5521SOL     OW17461   5.166   5.108   6.203
 5521SOL    HW117462   5.166   5.127   6.105
 5521SOL    HW217463   5.089   5.155   6.247
 5522SOL     OW17464   1.552   2.291   2.095
 5522SOL    HW117465   1.533   2.266   2.000
 5522SOL    HW217466   1.486   2.245   2.155
 5523SOL     OW17467   3.424   6.666   1.538
 5523SOL    HW117468   3.517   6.682   1.572
 5523SOL    HW217469   3.380   6.596   1.593
 5524SOL     OW17470   6.172   6.673   5.786
 5524SOL    HW117471   6.149   6.650   5.881
 5524SOL    HW217472   6.155   6.770   5.770
 5525SOL     OW17473   6.691   6.015   3.339
 5525SOL    HW117474   6.668   6.111   3.321
 5525SOL    HW217475   6.713   6.004   3.436
 5526SOL     OW17476   5.281   2.812   4.604
 5526SOL    HW117477   5.260   2.724   4.647
 5526SOL    HW217478   5.313   2.876   4.675
 5527SOL     OW17479   2.084   3.172   0.219
 5527SOL    HW117480   1.985   3.175   0.210
 5527SOL    HW217481   2.109   3.144   0.312
 5528SOL     OW17482   6.861   2.741   2.366
 5528SOL    HW117483   6.845   2.810   2.437
 5528SOL    HW217484   6.774   2.696   2.345
 5529SOL     OW17485   1.168   0.714   3.606
 5529SOL    HW117486   1.142   0.759   3.691
 5529SOL    HW217487   1.102   0.641   3.584
 5530SOL     OW17488   6.403   2.991   6.931
 5530SOL    HW117489   6.448   3.021   7.016
 5530SOL    HW217490   6.307   3.017   6.933
 5531SOL     OW17491   1.813   2.946   0.222
 5531SOL    HW117492   1.722   2.913   0.247
 5531SOL    HW217493   1.853   2.885   0.153
 5532SOL     OW17494   2.663   2.741   1.271
 5532SOL    HW117495   2.752   2.697   1.287
 5532SOL    HW217496   2.678   2.833   1.235
 5533SOL     OW17497   3.632   0.323   1.421
 5533SOL    HW117498   3.686   0.303   1.502
 5533SOL    HW217499   3.663   0.265   1.345
 5534SOL     OW17500   0.742   3.603   5.185
 5534SOL    HW117501   0.646   3.604   5.156
 5534SOL    HW217502   0.801   3.619   5.106
 5535SOL     OW17503   5.119   4.002   3.493
 5535SOL    HW117504   5.181   3.972   3.420
 5535SOL    HW217505   5.160   4.079   3.542
 5536SOL     OW17506   2.481   1.001   4.249
 5536SOL    HW117507   2.414   0.928   4.251
 5536SOL    HW217508   2.488   1.038   4.156
 5537SOL     OW17509   3.937   0.491   4.288
 5537SOL    HW117510   4.014   0.491   4.225
 5537SOL    HW217511   3.912   0.585   4.309
 5538SOL     OW17512   5.329   2.150   2.236
 5538SOL    HW117513   5.308   2.238   2.279
 5538SOL    HW217514   5.248   2.115   2.189
 5539SOL     OW17515   2.118   0.490   6.654
 5539SOL    HW117516   2.060   0.521   6.579
 5539SOL    HW217517   2.070   0.419   6.706
 5540SOL     OW17518   5.226   6.969   5.112
 5540SOL    HW117519   5.130   6.978   5.138
 5540SOL    HW217520   5.244   6.875   5.083
 5541SOL     OW17521   4.645   2.336   6.926
 5541SOL    HW117522   4.571   2.298   6.870
 5541SOL    HW217523   4.625   2.321   0.000
 5542SOL     OW17524   4.759   4.571   6.602
 5542SOL    HW117525   4.761   4.561   6.701
 5542SOL    HW217526   4.844   4.535   6.562
 5543SOL     OW17527   0.632   0.387   6.588
 5543SOL    HW117528   0.726   0.418   6.604
 5543SOL    HW217529   0.628   0.287   6.589
 5544SOL     OW17530   3.611   5.110   0.462
 5544SOL    HW117531   3.623   5.011   0.453
 5544SOL    HW217532   3.664   5.143   0.540
 5545SOL     OW17533   5.790   1.619   2.626
 5545SOL    HW117534   5.821   1.679   2.553
 5545SOL    HW217535   5.703   1.653   2.662
 5546SOL     OW17536   0.295   5.469   4.297
 5546SOL    HW117537   0.362   5.540   4.317
 5546SOL    HW217538   0.332   5.380   4.323
 5547SOL     OW17539   5.217   1.697   4.998
 5547SOL    HW117540   5.280   1.708   4.921
 5547SOL    HW217541   5.131   1.657   4.965
 5548SOL     OW17542   0.531   3.540   4.987
 5548SOL    HW117543   0.536   3.632   4.948
 5548SOL    HW217544   0.435   3.515   5.001
 5549SOL     OW17545   3.719   2.530   0.574
 5549SOL    HW117546   3.687   2.543   0.668
 5549SOL    HW217547   3.808   2.574   0.562
 5550SOL     OW17548   2.679   4.189   1.691
 5550SOL    HW117549   2.625   4.105   1.683
 5550SOL    HW217550   2.772   4.173   1.658
 5551SOL     OW17551   1.516   4.578   2.642
 5551SOL    HW117552   1.515   4.653   2.708
 5551SOL    HW217553   1.439   4.587   2.579
 5552SOL     OW17554   1.008   0.266   0.296
 5552SOL    HW117555   1.090   0.243   0.244
 5552SOL    HW217556   0.978   0.186   0.348
 5553SOL     OW17557   5.288   0.029   0.034
 5553SOL    HW117558   5.270   7.004   0.121
 5553SOL    HW217559   5.387   0.038   0.021
 5554SOL     OW17560   6.859   2.415   1.351
 5554SOL    HW117561   6.891   2.505   1.381
 5554SOL    HW217562   6.760   2.417   1.337
 5555SOL     OW17563   1.347   5.305   2.357
 5555SOL    HW117564   1.323   5.351   2.443
 5555SOL    HW217565   1.391   5.371   2.296
 5556SOL     OW17566   0.110   1.311   4.767
 5556SOL    HW117567   0.148   1.389   4.817
 5556SOL    HW217568   0.108   1.332   4.670
 5557SOL     OW17569   3.624   6.320   2.700
 5557SOL    HW117570   3.717   6.321   2.662
 5557SOL    HW217571   3.565   6.266   2.641
 5558SOL     OW17572   4.791   3.540   6.401
 5558SOL    HW117573   4.762   3.513   6.309
 5558SOL    HW217574   4.777   3.638   6.413
 5559SOL     OW17575   3.713   0.654   2.336
 5559SOL    HW117576   3.621   0.685   2.312
 5559SOL    HW217577   3.710   0.556   2.359
 5560SOL     OW17578   0.151   5.567   3.756
 5560SOL    HW117579   0.108   5.657   3.760
 5560SOL    HW217580   0.175   5.536   3.848
 5561SOL     OW17581   3.481   0.422   3.414
 5561SOL    HW117582   3.555   0.409   3.480
 5561SOL    HW217583   3.417   0.346   3.422
 5562SOL     OW17584   3.963   3.233   0.746
 5562SOL    HW117585   4.037   3.275   0.798
 5562SOL    HW217586   3.996   3.147   0.705
 5563SOL     OW17587   2.284   4.862   2.547
 5563SOL    HW117588   2.281   4.762   2.547
 5563SOL    HW217589   2.336   4.894   2.468
 5564SOL     OW17590   5.062   0.238   6.330
 5564SOL    HW117591   5.087   0.220   6.235
 5564SOL    HW217592   5.004   0.164   6.364
 5565SOL     OW17593   3.777   1.159   5.823
 5565SOL    HW117594   3.712   1.088   5.849
 5565SOL    HW217595   3.864   1.117   5.795
 5566SOL     OW17596   1.464   5.245   5.928
 5566SOL    HW117597   1.445   5.251   5.830
 5566SOL    HW217598   1.413   5.316   5.976
 5567SOL     OW17599   0.568   5.048   0.225
 5567SOL    HW117600   0.529   4.964   0.187
 5567SOL    HW217601   0.520   5.072   0.309
 5568SOL     OW17602   4.625   4.909   1.344
 5568SOL    HW117603   4.554   4.958   1.293
 5568SOL    HW217604   4.583   4.864   1.423
 5569SOL     OW17605   2.204   2.485   2.707
 5569SOL    HW117606   2.136   2.431   2.757
 5569SOL    HW217607   2.265   2.424   2.657
 5570SOL     OW17608   6.630   3.841   1.285
 5570SOL    HW117609   6.556   3.868   1.224
 5570SOL    HW217610   6.623   3.743   1.304
 5571SOL     OW17611   6.749   4.220   0.943
 5571SOL    HW117612   6.756   4.272   0.858
 5571SOL    HW217613   6.689   4.269   1.006
 5572SOL     OW17614   1.602   4.066   5.195
 5572SOL    HW117615   1.617   4.145   5.135
 5572SOL    HW217616   1.582   3.985   5.140
 5573SOL     OW17617   3.298   5.514   4.018
 5573SOL    HW117618   3.368   5.500   3.948
 5573SOL    HW217619   3.341   5.527   4.107
 5574SOL     OW17620   0.858   1.901   5.932
 5574SOL    HW117621   0.942   1.897   5.985
 5574SOL    HW217622   0.846   1.817   5.880
 5575SOL     OW17623   7.015   0.219   1.716
 5575SOL    HW117624   6.996   0.192   1.621
 5575SOL    HW217625   0.025   0.313   1.719
 5576SOL     OW17626   1.568   4.999   3.623
 5576SOL    HW117627   1.610   4.929   3.682
 5576SOL    HW217628   1.636   5.068   3.600
 5577SOL     OW17629   2.283   2.553   6.238
 5577SOL    HW117630   2.281   2.641   6.191
 5577SOL    HW217631   2.378   2.522   6.247
 5578SOL     OW17632   3.845   4.001   4.086
 5578SOL    HW117633   3.870   3.977   3.992
 5578SOL    HW217634   3.923   3.983   4.146
 5579SOL     OW17635   6.248   3.083   1.804
 5579SOL    HW117636   6.296   2.995   1.792
 5579SOL    HW217637   6.284   3.129   1.886
 5580SOL     OW17638   5.225   1.826   5.398
 5580SOL    HW117639   5.270   1.742   5.429
 5580SOL    HW217640   5.278   1.905   5.428
 5581SOL     OW17641   1.283   1.918   6.282
 5581SOL    HW117642   1.245   2.002   6.322
 5581SOL    HW217643   1.305   1.853   6.355
 5582SOL     OW17644   2.942   2.397   5.932
 5582SOL    HW117645   3.027   2.355   5.898
 5582SOL    HW217646   2.957   2.433   6.024
 5583SOL     OW17647   5.846   6.973   0.844
 5583SOL    HW117648   5.884   0.043   0.835
 5583SOL    HW217649   5.779   6.957   0.772
 5584SOL     OW17650   2.176   3.235   4.653
 5584SOL    HW117651   2.250   3.173   4.678
 5584SOL    HW217652   2.174   3.312   4.717
 5585SOL     OW17653   5.454   4.908   1.475
 5585SOL    HW117654   5.551   4.885   1.473
 5585SOL    HW217655   5.441   5.000   1.437
 5586SOL     OW17656   0.915   5.356   1.176
 5586SOL    HW117657   0.994   5.379   1.119
 5586SOL    HW217658   0.832   5.369   1.123
 5587SOL     OW17659   6.039   0.658   5.801
 5587SOL    HW117660   6.061   0.710   5.883
 5587SOL    HW217661   6.054   0.715   5.720
 5588SOL     OW17662   3.254   6.564   0.850
 5588SOL    HW117663   3.186   6.623   0.894
 5588SOL    HW217664   3.233   6.468   0.870
 5589SOL     OW17665   6.725   4.383   6.010
 5589SOL    HW117666   6.815   4.424   5.996
 5589SOL    HW217667   6.662   4.451   6.047
 5590SOL     OW17668   6.113   5.583   3.374
 5590SOL    HW117669   6.032   5.542   3.333
 5590SOL    HW217670   6.180   5.512   3.395
 5591SOL     OW17671   5.326   1.200   1.894
 5591SOL    HW117672   5.400   1.222   1.830
 5591SOL    HW217673   5.264   1.278   1.901
 5592SOL     OW17674   0.065   4.818   3.572
 5592SOL    HW117675   0.079   4.883   3.498
 5592SOL    HW217676   6.991   4.794   3.578
 5593SOL     OW17677   1.003   4.039   0.626
 5593SOL    HW117678   0.914   4.019   0.586
 5593SOL    HW217679   0.990   4.091   0.710
 5594SOL     OW17680   5.864   1.386   5.883
 5594SOL    HW117681   5.869   1.427   5.973
 5594SOL    HW217682   5.819   1.297   5.889
 5595SOL     OW17683   0.538   2.405   0.637
 5595SOL    HW117684   0.627   2.363   0.659
 5595SOL    HW217685   0.490   2.346   0.572
 5596SOL     OW17686   3.158   6.142   3.432
 5596SOL    HW117687   3.069   6.176   3.464
 5596SOL    HW217688   3.150   6.108   3.339
 5597SOL     OW17689   5.150   3.090   1.681
 5597SOL    HW117690   5.190   3.030   1.612
 5597SOL    HW217691   5.158   3.047   1.771
 5598SOL     OW17692   4.453   0.783   4.501
 5598SOL    HW117693   4.423   0.701   4.550
 5598SOL    HW217694   4.544   0.767   4.463
 5599SOL     OW17695   0.792   1.272   3.484
 5599SOL    HW117696   0.767   1.212   3.560
 5599SOL    HW217697   0.765   1.366   3.505
 5600SOL     OW17698   2.397   2.785   5.523
 5600SOL    HW117699   2.308   2.827   5.503
 5600SOL    HW217700   2.467   2.827   5.466
 5601SOL     OW17701   2.845   1.075   6.482
 5601SOL    HW117702   2.764   1.131   6.500
 5601SOL    HW217703   2.838   1.035   6.390
 5602SOL     OW17704   1.879   0.877   6.784
 5602SOL    HW117705   1.907   0.797   6.839
 5602SOL    HW217706   1.956   0.941   6.778
 5603SOL     OW17707   6.251   4.253   5.577
 5603SOL    HW117708   6.297   4.331   5.535
 5603SOL    HW217709   6.284   4.241   5.671
 5604SOL     OW17710   5.645   1.229   6.019
 5604SOL    HW117711   5.663   1.266   6.110
 5604SOL    HW217712   5.561   1.270   5.982
 5605SOL     OW17713   0.298   1.890   6.625
 5605SOL    HW117714   0.369   1.895   6.555
 5605SOL    HW217715   0.310   1.807   6.679
 5606SOL     OW17716   5.780   0.017   3.094
 5606SOL    HW117717   5.842   6.979   3.044
 5606SOL    HW217718   5.702   0.040   3.036
 5607SOL     OW17719   5.406   0.428   1.040
 5607SOL    HW117720   5.326   0.427   0.979
 5607SOL    HW217721   5.489   0.417   0.985
 5608SOL     OW17722   4.036   6.089   5.286
 5608SOL    HW117723   3.989   6.111   5.201
 5608SOL    HW217724   4.118   6.145   5.295
 5609SOL     OW17725   1.284   5.595   5.773
 5609SOL    HW117726   1.262   5.540   5.853
 5609SOL    HW217727   1.201   5.613   5.720
 5610SOL     OW17728   4.478   0.177   6.386
 5610SOL    HW117729   4.471   0.094   6.331
 5610SOL    HW217730   4.426   0.251   6.342
 5611SOL     OW17731   2.140   4.285   3.907
 5611SOL    HW117732   2.171   4.368   3.955
 5611SOL    HW217733   2.047   4.299   3.872
 5612SOL     OW17734   3.510   6.776   4.730
 5612SOL    HW117735   3.436   6.831   4.769
 5612SOL    HW217736   3.504   6.778   4.630
 5613SOL     OW17737   3.324   5.464   1.656
 5613SOL    HW117738   3.235   5.510   1.652
 5613SOL    HW217739   3.380   5.504   1.729
 5614SOL     OW17740   5.536   1.701   4.574
 5614SOL    HW117741   5.474   1.623   4.569
 5614SOL    HW217742   5.534   1.752   4.487
 5615SOL     OW17743   1.710   1.451   2.018
 5615SOL    HW117744   1.686   1.548   2.026
 5615SOL    HW217745   1.628   1.398   1.996
 5616SOL     OW17746   2.053   6.830   4.807
 5616SOL    HW117747   2.133   6.779   4.838
 5616SOL    HW217748   1.986   6.766   4.768
 5617SOL     OW17749   0.471   1.074   5.480
 5617SOL    HW117750   0.423   1.002   5.530
 5617SOL    HW217751   0.539   1.032   5.419
 5618SOL     OW17752   6.148   5.031   2.777
 5618SOL    HW117753   6.098   5.082   2.848
 5618SOL    HW217754   6.090   5.020   2.697
 5619SOL     OW17755   2.266   3.776   5.274
 5619SOL    HW117756   2.324   3.848   5.235
 5619SOL    HW217757   2.174   3.813   5.288
 5620SOL     OW17758   4.516   1.670   0.022
 5620SOL    HW117759   4.584   1.627   0.081
 5620SOL    HW217760   4.561   1.709   6.963
 5621SOL     OW17761   2.703   2.076   6.554
 5621SOL    HW117762   2.653   1.990   6.543
 5621SOL    HW217763   2.673   2.142   6.486
 5622SOL     OW17764   5.554   0.668   5.015
 5622SOL    HW117765   5.620   0.597   5.041
 5622SOL    HW217766   5.467   0.650   5.062
 5623SOL     OW17767   0.124   6.530   0.088
 5623SOL    HW117768   0.212   6.578   0.078
 5623SOL    HW217769   0.107   6.512   0.184
 5624SOL     OW17770   0.208   4.066   1.812
 5624SOL    HW117771   0.269   4.139   1.781
 5624SOL    HW217772   0.239   3.978   1.775
 5625SOL     OW17773   6.331   1.780   5.480
 5625SOL    HW117774   6.350   1.730   5.564
 5625SOL    HW217775   6.277   1.861   5.500
 5626SOL     OW17776   5.507   6.874   4.616
 5626SOL    HW117777   5.533   6.953   4.672
 5626SOL    HW217778   5.572   6.863   4.542
 5627SOL     OW17779   0.632   0.186   1.096
 5627SOL    HW117780   0.538   0.217   1.083
 5627SOL    HW217781   0.648   0.170   1.194
 5628SOL     OW17782   1.756   1.499   4.099
 5628SOL    HW117783   1.854   1.500   4.119
 5628SOL    HW217784   1.718   1.590   4.116
 5629SOL     OW17785   3.477   2.867   3.438
 5629SOL    HW117786   3.558   2.913   3.403
 5629SOL    HW217787   3.411   2.855   3.365
 5630SOL     OW17788   6.423   4.176   1.123
 5630SOL    HW117789   6.370   4.156   1.205
 5630SOL    HW217790   6.517   4.198   1.149
 5631SOL     OW17791   5.573   1.312   6.271
 5631SOL    HW117792   5.487   1.321   6.322
 5631SOL    HW217793   5.647   1.356   6.323
 5632SOL     OW17794   2.900   2.132   0.774
 5632SOL    HW117795   2.835   2.164   0.706
 5632SOL    HW217796   2.851   2.104   0.857
 5633SOL     OW17797   0.042   2.876   5.633
 5633SOL    HW117798   0.063   2.800   5.694
 5633SOL    HW217799   6.977   2.858   5.587
 5634SOL     OW17800   4.977   6.357   4.375
 5634SOL    HW117801   5.077   6.351   4.377
 5634SOL    HW217802   4.942   6.296   4.305
 5635SOL     OW17803   3.471   1.576   5.799
 5635SOL    HW117804   3.469   1.636   5.719
 5635SOL    HW217805   3.452   1.629   5.882
 5636SOL     OW17806   4.206   6.525   4.521
 5636SOL    HW117807   4.272   6.511   4.594
 5636SOL    HW217808   4.133   6.457   4.528
 5637SOL     OW17809   6.147   0.316   3.413
 5637SOL    HW117810   6.085   0.275   3.346
 5637SOL    HW217811   6.239   0.278   3.402
 5638SOL     OW17812   0.132   3.685   0.169
 5638SOL    HW117813   0.035   3.659   0.165
 5638SOL    HW217814   0.142   3.769   0.222
 5639SOL     OW17815   4.303   0.001   6.966
 5639SOL    HW117816   4.387   0.019   6.915
 5639SOL    HW217817   4.277   0.083   7.018
 5640SOL     OW17818   1.466   0.206   3.110
 5640SOL    HW117819   1.451   0.299   3.144
 5640SOL    HW217820   1.532   0.208   3.036
 5641SOL     OW17821   6.584   5.443   4.525
 5641SOL    HW117822   6.650   5.368   4.523
 5641SOL    HW217823   6.501   5.415   4.475
 5642SOL     OW17824   1.670   1.556   0.097
 5642SOL    HW117825   1.614   1.607   0.032
 5642SOL    HW217826   1.625   1.471   0.122
 5643SOL     OW17827   5.110   2.027   6.046
 5643SOL    HW117828   5.144   1.969   5.973
 5643SOL    HW217829   5.181   2.092   6.073
 5644SOL     OW17830   2.613   0.966   6.003
 5644SOL    HW117831   2.622   0.890   5.939
 5644SOL    HW217832   2.702   0.985   6.045
 5645SOL     OW17833   5.861   3.639   4.596
 5645SOL    HW117834   5.852   3.610   4.691
 5645SOL    HW217835   5.957   3.653   4.573
 5646SOL     OW17836   0.742   3.766   2.935
 5646SOL    HW117837   0.827   3.789   2.886
 5646SOL    HW217838   0.668   3.824   2.902
 5647SOL     OW17839   5.440   5.790   2.875
 5647SOL    HW117840   5.471   5.700   2.908
 5647SOL    HW217841   5.511   5.858   2.894
 5648SOL     OW17842   4.981   6.153   2.984
 5648SOL    HW117843   4.904   6.117   3.038
 5648SOL    HW217844   4.956   6.240   2.944
 5649SOL     OW17845   0.803   0.018   4.902
 5649SOL    HW117846   0.761   6.964   4.952
 5649SOL    HW217847   0.863   7.005   4.831
 5650SOL     OW17848   6.982   3.884   6.041
 5650SOL    HW117849   0.053   3.909   6.018
 5650SOL    HW217850   6.931   3.965   6.069
 5651SOL     OW17851   2.586   1.243   0.622
 5651SOL    HW117852   2.611   1.288   0.537
 5651SOL    HW217853   2.489   1.256   0.640
 5652SOL     OW17854   0.367   5.880   3.171
 5652SOL    HW117855   0.324   5.857   3.258
 5652SOL    HW217856   0.307   5.853   3.095
 5653SOL     OW17857   6.978   0.298   2.988
 5653SOL    HW117858   6.958   0.317   3.084
 5653SOL    HW217859   0.021   0.222   2.982
 5654SOL     OW17860   3.326   6.115   5.722
 5654SOL    HW117861   3.373   6.202   5.735
 5654SOL    HW217862   3.378   6.043   5.768
 5655SOL     OW17863   5.200   3.035   4.949
 5655SOL    HW117864   5.262   3.079   4.884
 5655SOL    HW217865   5.111   3.022   4.905
 5656SOL     OW17866   0.174   3.689   0.526
 5656SOL    HW117867   0.176   3.702   0.625
 5656SOL    HW217868   0.113   3.757   0.485
 5657SOL     OW17869   5.453   6.103   4.736
 5657SOL    HW117870   5.458   6.012   4.776
 5657SOL    HW217871   5.529   6.115   4.672
 5658SOL     OW17872   2.352   2.849   6.383
 5658SOL    HW117873   2.391   2.846   6.291
 5658SOL    HW217874   2.423   2.878   6.448
 5659SOL     OW17875   2.658   3.995   7.016
 5659SOL    HW117876   2.710   3.972   0.076
 5659SOL    HW217877   2.627   3.912   6.971
 5660SOL     OW17878   3.962   0.129   4.930
 5660SOL    HW117879   4.039   0.108   4.869
 5660SOL    HW217880   3.902   0.050   4.937
 5661SOL     OW17881   1.141   5.718   6.006
 5661SOL    HW117882   1.212   5.689   5.942
 5661SOL    HW217883   1.096   5.637   6.045
 5662SOL     OW17884   3.090   6.328   0.882
 5662SOL    HW117885   3.118   6.244   0.929
 5662SOL    HW217886   2.999   6.316   0.844
 5663SOL     OW17887   2.089   2.855   6.368
 5663SOL    HW117888   2.030   2.883   6.291
 5663SOL    HW217889   2.184   2.865   6.341
 5664SOL     OW17890   4.984   4.997   4.199
 5664SOL    HW117891   4.950   4.989   4.292
 5664SOL    HW217892   5.051   5.071   4.194
 5665SOL     OW17893   1.706   1.796   0.851
 5665SOL    HW117894   1.654   1.749   0.780
 5665SOL    HW217895   1.688   1.752   0.939
 5666SOL     OW17896   5.649   2.890   4.830
 5666SOL    HW117897   5.670   2.848   4.742
 5666SOL    HW217898   5.563   2.854   4.865
 5667SOL     OW17899   3.148   4.877   4.178
 5667SOL    HW117900   3.083   4.858   4.105
 5667SOL    HW217901   3.107   4.854   4.266
 5668SOL     OW17902   4.646   4.339   3.973
 5668SOL    HW117903   4.687   4.378   4.056
 5668SOL    HW217904   4.704   4.266   3.939
 5669SOL     OW17905   5.694   4.230   5.745
 5669SOL    HW117906   5.611   4.245   5.799
 5669SOL    HW217907   5.684   4.273   5.655
 5670SOL     OW17908   1.280   2.679   4.127
 5670SOL    HW117909   1.321   2.756   4.078
 5670SOL    HW217910   1.348   2.607   4.140
 5671SOL     OW17911   6.778   5.415   3.036
 5671SOL    HW117912   6.734   5.484   3.094
 5671SOL    HW217913   6.774   5.444   2.941
 5672SOL     OW17914   5.136   3.180   4.613
 5672SOL    HW117915   5.043   3.213   4.632
 5672SOL    HW217916   5.167   3.215   4.525
 5673SOL     OW17917   0.357   2.540   0.271
 5673SOL    HW117918   0.283   2.474   0.288
 5673SOL    HW217919   0.428   2.495   0.217
 5674SOL     OW17920   2.474   5.140   5.150
 5674SOL    HW117921   2.566   5.101   5.141
 5674SOL    HW217922   2.466   5.187   5.238
 5675SOL     OW17923   3.110   1.992   0.675
 5675SOL    HW117924   3.038   2.022   0.738
 5675SOL    HW217925   3.095   2.035   0.586
 5676SOL     OW17926   3.562   1.451   1.752
 5676SOL    HW117927   3.578   1.420   1.658
 5676SOL    HW217928   3.604   1.386   1.816
 5677SOL     OW17929   0.487   1.455   6.068
 5677SOL    HW117930   0.444   1.545   6.075
 5677SOL    HW217931   0.579   1.464   6.030
 5678SOL     OW17932   3.936   2.136   2.273
 5678SOL    HW117933   3.849   2.140   2.323
 5678SOL    HW217934   3.919   2.106   2.179
 5679SOL     OW17935   6.960   4.004   5.162
 5679SOL    HW117936   0.007   4.061   5.207
 5679SOL    HW217937   6.998   3.914   5.143
 5680SOL     OW17938   0.556   5.566   4.966
 5680SOL    HW117939   0.486   5.597   4.902
 5680SOL    HW217940   0.626   5.513   4.917
 5681SOL     OW17941   1.393   3.544   3.425
 5681SOL    HW117942   1.423   3.529   3.331
 5681SOL    HW217943   1.316   3.608   3.426
 5682SOL     OW17944   1.814   4.740   1.236
 5682SOL    HW117945   1.735   4.800   1.254
 5682SOL    HW217946   1.888   4.764   1.299
 5683SOL     OW17947   6.902   0.233   5.984
 5683SOL    HW117948   6.917   0.135   5.972
 5683SOL    HW217949   6.867   0.271   5.898
 5684SOL     OW17950   2.302   2.987   4.721
 5684SOL    HW117951   2.305   3.036   4.807
 5684SOL    HW217952   2.306   2.888   4.738
 5685SOL     OW17953   2.334   1.375   2.253
 5685SOL    HW117954   2.278   1.396   2.173
 5685SOL    HW217955   2.404   1.308   2.228
 5686SOL     OW17956   5.272   6.025   5.615
 5686SOL    HW117957   5.180   6.012   5.654
 5686SOL    HW217958   5.308   6.113   5.645
 5687SOL     OW17959   1.970   6.766   6.172
 5687SOL    HW117960   2.021   6.850   6.156
 5687SOL    HW217961   2.031   6.688   6.163
 5688SOL     OW17962   1.655   1.670   3.133
 5688SOL    HW117963   1.748   1.654   3.101
 5688SOL    HW217964   1.657   1.717   3.221
 5689SOL     OW17965   0.345   2.421   1.263
 5689SOL    HW117966   0.275   2.486   1.235
 5689SOL    HW217967   0.337   2.338   1.209
 5690SOL     OW17968   3.395   5.193   0.296
 5690SOL    HW117969   3.336   5.253   0.349
 5690SOL    HW217970   3.459   5.146   0.357
 5691SOL     OW17971   4.528   2.602   3.787
 5691SOL    HW117972   4.550   2.578   3.881
 5691SOL    HW217973   4.434   2.638   3.783
 5692SOL     OW17974   6.196   5.020   1.348
 5692SOL    HW117975   6.219   5.054   1.257
 5692SOL    HW217976   6.166   5.096   1.406
 5693SOL     OW17977   3.625   0.199   2.049
 5693SOL    HW117978   3.613   0.259   1.971
 5693SOL    HW217979   3.681   0.245   2.118
 5694SOL     OW17980   0.536   0.381   1.389
 5694SOL    HW117981   0.486   0.328   1.320
 5694SOL    HW217982   0.541   0.329   1.474
 5695SOL     OW17983   2.185   1.057   2.379
 5695SOL    HW117984   2.150   1.124   2.313
 5695SOL    HW217985   2.115   1.040   2.449
 5696SOL     OW17986   0.549   6.764   4.120
 5696SOL    HW117987   0.478   6.821   4.078
 5696SOL    HW217988   0.588   6.703   4.051
 5697SOL     OW17989   6.399   1.782   0.159
 5697SOL    HW117990   6.346   1.860   0.126
 5697SOL    HW217991   6.337   1.712   0.194
 5698SOL     OW17992   3.375   2.125   4.065
 5698SOL    HW117993   3.449   2.117   3.998
 5698SOL    HW217994   3.338   2.217   4.062
 5699SOL     OW17995   1.970   3.258   2.842
 5699SOL    HW117996   1.962   3.302   2.753
 5699SOL    HW217997   1.886   3.274   2.894
 5700SOL     OW17998   6.051   0.252   2.690
 5700SOL    HW117999   6.100   0.275   2.774
 5700SOL    HW218000   5.974   0.315   2.678
 5701SOL     OW18001   1.064   0.623   0.833
 5701SOL    HW118002   0.970   0.590   0.829
 5701SOL    HW218003   1.087   0.670   0.748
 5702SOL     OW18004   1.535   6.383   4.966
 5702SOL    HW118005   1.571   6.460   4.913
 5702SOL    HW218006   1.593   6.302   4.951
 5703SOL     OW18007   0.432   2.812   6.078
 5703SOL    HW118008   0.423   2.773   5.986
 5703SOL    HW218009   0.455   2.909   6.071
 5704SOL     OW18010   3.860   5.617   4.310
 5704SOL    HW118011   3.930   5.641   4.378
 5704SOL    HW218012   3.884   5.530   4.267
 5705SOL     OW18013   5.779   0.556   5.163
 5705SOL    HW118014   5.834   0.509   5.232
 5705SOL    HW218015   5.810   0.651   5.155
 5706SOL     OW18016   5.322   2.065   1.018
 5706SOL    HW118017   5.256   2.141   1.021
 5706SOL    HW218018   5.412   2.099   1.044
 5707SOL     OW18019   5.861   5.474   1.059
 5707SOL    HW118020   5.880   5.572   1.060
 5707SOL    HW218021   5.803   5.453   0.980
 5708SOL     OW18022   5.548   6.043   1.791
 5708SOL    HW118023   5.515   5.980   1.721
 5708SOL    HW218024   5.503   6.023   1.878
 5709SOL     OW18025   0.258   2.834   2.300
 5709SOL    HW118026   0.276   2.909   2.236
 5709SOL    HW218027   0.303   2.751   2.268
 5710SOL     OW18028   4.827   1.460   0.844
 5710SOL    HW118029   4.756   1.491   0.907
 5710SOL    HW218030   4.805   1.490   0.751
 5711SOL     OW18031   4.597   1.917   2.040
 5711SOL    HW118032   4.586   1.941   2.136
 5711SOL    HW218033   4.681   1.863   2.028
 5712SOL     OW18034   6.130   5.981   6.796
 5712SOL    HW118035   6.191   6.058   6.817
 5712SOL    HW218036   6.091   5.946   6.881
 5713SOL     OW18037   1.334   1.498   0.808
 5713SOL    HW118038   1.286   1.551   0.878
 5713SOL    HW218039   1.374   1.417   0.849
 5714SOL     OW18040   5.917   0.233   0.786
 5714SOL    HW118041   5.955   0.326   0.785
 5714SOL    HW218042   5.874   0.215   0.698
 5715SOL     OW18043   6.971   6.892   1.163
 5715SOL    HW118044   6.987   6.890   1.262
 5715SOL    HW218045   0.028   6.932   1.117
 5716SOL     OW18046   0.728   4.789   5.250
 5716SOL    HW118047   0.799   4.719   5.244
 5716SOL    HW218048   0.694   4.810   5.158
 5717SOL     OW18049   0.432   5.224   3.736
 5717SOL    HW118050   0.521   5.223   3.691
 5717SOL    HW218051   0.362   5.254   3.671
 5718SOL     OW18052   1.024   4.100   0.071
 5718SOL    HW118053   1.051   4.180   0.017
 5718SOL    HW218054   1.049   4.017   0.020
 5719SOL     OW18055   2.701   3.233   0.267
 5719SOL    HW118056   2.684   3.318   0.317
 5719SOL    HW218057   2.800   3.219   0.259
 5720SOL     OW18058   2.855   5.206   6.421
 5720SOL    HW118059   2.922   5.164   6.359
 5720SOL    HW218060   2.903   5.259   6.491
 5721SOL     OW18061   0.969   2.864   0.674
 5721SOL    HW118062   1.017   2.918   0.605
 5721SOL    HW218063   0.953   2.771   0.639
 5722SOL     OW18064   1.556   0.373   5.949
 5722SOL    HW118065   1.476   0.372   5.890
 5722SOL    HW218066   1.530   0.405   6.040
 5723SOL     OW18067   4.341   3.128   0.555
 5723SOL    HW118068   4.260   3.177   0.526
 5723SOL    HW218069   4.319   3.031   0.568
 5724SOL     OW18070   5.793   2.049   5.779
 5724SOL    HW118071   5.718   2.116   5.778
 5724SOL    HW218072   5.757   1.959   5.803
 5725SOL     OW18073   0.107   4.249   4.873
 5725SOL    HW118074   0.093   4.150   4.873
 5725SOL    HW218075   0.144   4.278   4.784
 5726SOL     OW18076   4.598   4.393   2.175
 5726SOL    HW118077   4.570   4.358   2.085
 5726SOL    HW218078   4.669   4.462   2.163
 5727SOL     OW18079   1.158   2.869   5.494
 5727SOL    HW118080   1.194   2.960   5.513
 5727SOL    HW218081   1.165   2.811   5.575
 5728SOL     OW18082   2.968   6.646   5.371
 5728SOL    HW118083   2.891   6.599   5.414
 5728SOL    HW218084   3.048   6.585   5.370
 5729SOL     OW18085   2.511   1.965   4.834
 5729SOL    HW118086   2.514   1.987   4.932
 5729SOL    HW218087   2.604   1.955   4.799
 5730SOL     OW18088   6.430   4.342   4.917
 5730SOL    HW118089   6.402   4.438   4.916
 5730SOL    HW218090   6.433   4.310   5.012
 5731SOL     OW18091   1.105   6.340   2.637
 5731SOL    HW118092   1.100   6.440   2.645
 5731SOL    HW218093   1.059   6.312   2.552
 5732SOL     OW18094   5.669   0.367   3.514
 5732SOL    HW118095   5.588   0.425   3.529
 5732SOL    HW218096   5.642   0.271   3.521
 5733SOL     OW18097   2.786   0.877   5.208
 5733SOL    HW118098   2.809   0.796   5.154
 5733SOL    HW218099   2.689   0.874   5.232
 5734SOL     OW18100   1.676   6.755   3.693
 5734SOL    HW118101   1.623   6.739   3.777
 5734SOL    HW218102   1.628   6.821   3.635
 5735SOL     OW18103   3.096   0.797   1.377
 5735SOL    HW118104   3.104   0.835   1.469
 5735SOL    HW218105   3.025   0.846   1.327
 5736SOL     OW18106   1.889   5.118   0.706
 5736SOL    HW118107   1.960   5.102   0.774
 5736SOL    HW218108   1.809   5.159   0.750
 5737SOL     OW18109   5.893   3.880   7.022
 5737SOL    HW118110   5.867   3.903   6.928
 5737SOL    HW218111   5.950   3.798   7.021
 5738SOL     OW18112   0.583   5.132   4.787
 5738SOL    HW118113   0.652   5.065   4.761
 5738SOL    HW218114   0.624   5.223   4.791
 5739SOL     OW18115   0.690   3.166   0.933
 5739SOL    HW118116   0.669   3.163   1.030
 5739SOL    HW218117   0.719   3.075   0.902
 5740SOL     OW18118   4.465   4.783   6.796
 5740SOL    HW118119   4.416   4.700   6.820
 5740SOL    HW218120   4.486   4.835   6.878
 5741SOL     OW18121   0.191   3.038   2.108
 5741SOL    HW118122   0.182   2.963   2.043
 5741SOL    HW218123   0.197   3.124   2.059
 5742SOL     OW18124   0.548   5.389   3.917
 5742SOL    HW118125   0.626   5.431   3.871
 5742SOL    HW218126   0.505   5.322   3.856
 5743SOL     OW18127   1.305   6.486   5.706
 5743SOL    HW118128   1.311   6.386   5.703
 5743SOL    HW218129   1.223   6.516   5.657
 5744SOL     OW18130   6.371   0.638   1.999
 5744SOL    HW118131   6.401   0.717   2.052
 5744SOL    HW218132   6.281   0.657   1.959
 5745SOL     OW18133   0.377   3.668   3.033
 5745SOL    HW118134   0.454   3.691   3.093
 5745SOL    HW218135   0.375   3.730   2.955
 5746SOL     OW18136   6.264   4.407   6.832
 5746SOL    HW118137   6.339   4.389   6.895
 5746SOL    HW218138   6.280   4.357   6.746
 5747SOL     OW18139   0.518   5.800   3.835
 5747SOL    HW118140   0.583   5.754   3.774
 5747SOL    HW218141   0.433   5.817   3.786
 5748SOL     OW18142   1.746   0.304   4.011
 5748SOL    HW118143   1.719   0.375   3.946
 5748SOL    HW218144   1.666   0.276   4.065
 5749SOL     OW18145   0.938   0.993   2.997
 5749SOL    HW118146   0.968   0.899   2.979
 5749SOL    HW218147   0.994   1.033   3.069
 5750SOL     OW18148   5.783   6.482   2.360
 5750SOL    HW118149   5.848   6.459   2.433
 5750SOL    HW218150   5.828   6.472   2.271
 5751SOL     OW18151   0.422   2.465   6.127
 5751SOL    HW118152   0.333   2.501   6.153
 5751SOL    HW218153   0.494   2.519   6.171
 5752SOL     OW18154   1.346   1.428   6.801
 5752SOL    HW118155   1.359   1.346   6.858
 5752SOL    HW218156   1.375   1.509   6.853
 5753SOL     OW18157   4.667   1.760   0.340
 5753SOL    HW118158   4.576   1.723   0.359
 5753SOL    HW218159   4.723   1.690   0.295
 5754SOL     OW18160   6.368   5.871   0.906
 5754SOL    HW118161   6.333   5.947   0.960
 5754SOL    HW218162   6.463   5.853   0.931
 5755SOL     OW18163   3.362   3.680   1.557
 5755SOL    HW118164   3.379   3.594   1.510
 5755SOL    HW218165   3.277   3.673   1.610
 5756SOL     OW18166   6.869   6.522   4.221
 5756SOL    HW118167   6.885   6.560   4.130
 5756SOL    HW218168   6.772   6.499   4.231
 5757SOL     OW18169   6.624   6.490   2.177
 5757SOL    HW118170   6.562   6.568   2.180
 5757SOL    HW218171   6.642   6.465   2.082
 5758SOL     OW18172   2.772   1.148   5.576
 5758SOL    HW118173   2.748   1.245   5.581
 5758SOL    HW218174   2.818   1.129   5.490
 5759SOL     OW18175   0.867   1.155   6.368
 5759SOL    HW118176   0.782   1.202   6.345
 5759SOL    HW218177   0.887   1.086   6.299
 5760SOL     OW18178   6.913   5.887   0.954
 5760SOL    HW118179   6.981   5.928   1.015
 5760SOL    HW218180   6.864   5.814   1.002
 5761SOL     OW18181   4.299   0.665   3.938
 5761SOL    HW118182   4.398   0.652   3.941
 5761SOL    HW218183   4.267   0.661   3.843
 5762SOL     OW18184   5.204   6.099   1.641
 5762SOL    HW118185   5.125   6.150   1.675
 5762SOL    HW218186   5.249   6.153   1.569
 5763SOL     OW18187   3.142   0.696   0.798
 5763SOL    HW118188   3.143   0.705   0.698
 5763SOL    HW218189   3.052   0.721   0.833
 5764SOL     OW18190   3.820   3.084   5.884
 5764SOL    HW118191   3.889   3.040   5.827
 5764SOL    HW218192   3.746   3.019   5.904
 5765SOL     OW18193   6.440   5.584   6.592
 5765SOL    HW118194   6.373   5.648   6.628
 5765SOL    HW218195   6.532   5.618   6.612
 5766SOL     OW18196   2.617   1.164   3.304
 5766SOL    HW118197   2.518   1.161   3.310
 5766SOL    HW218198   2.657   1.143   3.394
 5767SOL     OW18199   5.386   6.354   0.117
 5767SOL    HW118200   5.312   6.421   0.115
 5767SOL    HW218201   5.456   6.379   0.049
 5768SOL     OW18202   6.515   6.725   2.256
 5768SOL    HW118203   6.433   6.773   2.288
 5768SOL    HW218204   6.565   6.785   2.193
 5769SOL     OW18205   0.884   4.246   3.407
 5769SOL    HW118206   0.785   4.243   3.389
 5769SOL    HW218207   0.912   4.341   3.420
 5770SOL     OW18208   5.175   2.053   1.766
 5770SOL    HW118209   5.159   2.020   1.859
 5770SOL    HW218210   5.103   2.118   1.741
 5771SOL     OW18211   1.134   0.912   1.693
 5771SOL    HW118212   1.172   0.833   1.644
 5771SOL    HW218213   1.207   0.955   1.747
 5772SOL     OW18214   6.427   5.126   5.619
 5772SOL    HW118215   6.460   5.070   5.694
 5772SOL    HW218216   6.332   5.104   5.600
 5773SOL     OW18217   5.431   5.781   4.539
 5773SOL    HW118218   5.433   5.861   4.479
 5773SOL    HW218219   5.475   5.804   4.626
 5774SOL     OW18220   1.924   5.108   2.245
 5774SOL    HW118221   1.960   5.032   2.191
 5774SOL    HW218222   1.997   5.174   2.263
 5775SOL     OW18223   1.070   0.697   0.525
 5775SOL    HW118224   0.994   0.640   0.495
 5775SOL    HW218225   1.122   0.727   0.445
 5776SOL     OW18226   5.088   0.978   6.011
 5776SOL    HW118227   5.019   0.951   6.078
 5776SOL    HW218228   5.172   1.005   6.059
 5777SOL     OW18229   5.678   5.991   4.603
 5777SOL    HW118230   5.655   5.931   4.526
 5777SOL    HW218231   5.775   6.013   4.600
 5778SOL     OW18232   2.908   0.035   3.985
 5778SOL    HW118233   2.820   0.080   4.003
 5778SOL    HW218234   2.950   0.075   3.904
 5779SOL     OW18235   4.028   0.303   1.811
 5779SOL    HW118236   4.035   0.248   1.728
 5779SOL    HW218237   4.060   0.396   1.792
 5780SOL     OW18238   6.216   4.462   0.441
 5780SOL    HW118239   6.181   4.369   0.433
 5780SOL    HW218240   6.267   4.486   0.359
 5781SOL     OW18241   3.904   4.065   5.304
 5781SOL    HW118242   3.830   4.111   5.254
 5781SOL    HW218243   3.896   3.966   5.292
 5782SOL     OW18244   4.705   1.834   2.900
 5782SOL    HW118245   4.618   1.881   2.883
 5782SOL    HW218246   4.780   1.900   2.896
 5783SOL     OW18247   3.362   5.554   3.037
 5783SOL    HW118248   3.416   5.637   3.026
 5783SOL    HW218249   3.350   5.510   2.947
 5784SOL     OW18250   1.292   6.196   0.932
 5784SOL    HW118251   1.197   6.166   0.935
 5784SOL    HW218252   1.295   6.295   0.916
 5785SOL     OW18253   2.327   2.163   6.492
 5785SOL    HW118254   2.339   2.257   6.524
 5785SOL    HW218255   2.306   2.103   6.569
 5786SOL     OW18256   1.711   1.788   6.319
 5786SOL    HW118257   1.646   1.820   6.250
 5786SOL    HW218258   1.704   1.689   6.329
 5787SOL     OW18259   0.875   2.325   5.293
 5787SOL    HW118260   0.789   2.322   5.243
 5787SOL    HW218261   0.950   2.296   5.233
 5788SOL     OW18262   0.562   2.125   1.972
 5788SOL    HW118263   0.640   2.173   1.930
 5788SOL    HW218264   0.595   2.058   2.038
 5789SOL     OW18265   2.505   6.950   0.159
 5789SOL    HW118266   2.561   7.017   0.209
 5789SOL    HW218267   2.488   6.871   0.217
 5790SOL     OW18268   6.961   6.536   2.441
 5790SOL    HW118269   6.957   6.474   2.520
 5790SOL    HW218270   6.872   6.579   2.428
 5791SOL     OW18271   4.358   0.693   1.304
 5791SOL    HW118272   4.320   0.768   1.358
 5791SOL    HW218273   4.310   0.688   1.216
 5792SOL     OW18274   4.611   2.600   2.819
 5792SOL    HW118275   4.650   2.675   2.872
 5792SOL    HW218276   4.511   2.599   2.831
 5793SOL     OW18277   4.091   1.967   0.273
 5793SOL    HW118278   4.023   2.034   0.243
 5793SOL    HW218279   4.045   1.881   0.296
 5794SOL     OW18280   2.932   6.214   6.919
 5794SOL    HW118281   2.904   6.302   6.959
 5794SOL    HW218282   2.858   6.147   6.932
 5795SOL     OW18283   1.453   1.129   1.299
 5795SOL    HW118284   1.432   1.134   1.396
 5795SOL    HW218285   1.540   1.175   1.280
 5796SOL     OW18286   4.752   0.509   5.637
 5796SOL    HW118287   4.683   0.439   5.657
 5796SOL    HW218288   4.799   0.486   5.552
 5797SOL     OW18289   5.958   1.560   0.180
 5797SOL    HW118290   5.860   1.546   0.165
 5797SOL    HW218291   5.986   1.645   0.135
 5798SOL     OW18292   2.262   2.468   4.755
 5798SOL    HW118293   2.348   2.430   4.721
 5798SOL    HW218294   2.186   2.427   4.705
 5799SOL     OW18295   2.986   0.143   3.754
 5799SOL    HW118296   3.011   0.237   3.732
 5799SOL    HW218297   2.895   0.124   3.718
 5800SOL     OW18298   1.672   6.083   1.635
 5800SOL    HW118299   1.726   6.011   1.677
 5800SOL    HW218300   1.621   6.132   1.705
 5801SOL     OW18301   1.512   2.116   2.992
 5801SOL    HW118302   1.565   2.200   3.005
 5801SOL    HW218303   1.419   2.139   2.962
 5802SOL     OW18304   0.083   0.029   3.191
 5802SOL    HW118305   0.130   0.073   3.115
 5802SOL    HW218306   7.011   0.008   3.165
 5803SOL     OW18307   0.842   6.690   4.376
 5803SOL    HW118308   0.849   6.705   4.475
 5803SOL    HW218309   0.788   6.763   4.335
 5804SOL     OW18310   6.355   2.164   3.371
 5804SOL    HW118311   6.294   2.231   3.413
 5804SOL    HW218312   6.301   2.096   3.323
 5805SOL     OW18313   1.135   2.426   1.446
 5805SOL    HW118314   1.098   2.338   1.476
 5805SOL    HW218315   1.086   2.500   1.492
 5806SOL     OW18316   6.665   4.594   1.630
 5806SOL    HW118317   6.631   4.549   1.712
 5806SOL    HW218318   6.692   4.524   1.563
 5807SOL     OW18319   0.959   0.934   2.313
 5807SOL    HW118320   0.923   1.026   2.299
 5807SOL    HW218321   1.052   0.940   2.349
 5808SOL     OW18322   6.551   6.457   6.025
 5808SOL    HW118323   6.526   6.498   5.938
 5808SOL    HW218324   6.644   6.419   6.019
 5809SOL     OW18325   0.106   3.428   4.438
 5809SOL    HW118326   0.108   3.366   4.517
 5809SOL    HW218327   0.177   3.498   4.447
 5810SOL     OW18328   1.104   6.636   5.590
 5810SOL    HW118329   1.112   6.733   5.565
 5810SOL    HW218330   1.008   6.609   5.586
 5811SOL     OW18331   3.186   5.029   6.933
 5811SOL    HW118332   3.218   5.066   6.846
 5811SOL    HW218333   3.204   4.930   6.935
 5812SOL     OW18334   6.565   2.747   6.197
 5812SOL    HW118335   6.503   2.792   6.132
 5812SOL    HW218336   6.536   2.652   6.211
 5813SOL     OW18337   6.223   5.501   1.201
 5813SOL    HW118338   6.199   5.549   1.116
 5813SOL    HW218339   6.178   5.547   1.278
 5814SOL     OW18340   5.305   1.908   2.750
 5814SOL    HW118341   5.283   1.828   2.695
 5814SOL    HW218342   5.404   1.921   2.754
 5815SOL     OW18343   6.471   3.581   4.573
 5815SOL    HW118344   6.559   3.567   4.526
 5815SOL    HW218345   6.397   3.576   4.507
 5816SOL     OW18346   0.050   4.471   0.907
 5816SOL    HW118347   0.026   4.532   0.983
 5816SOL    HW218348   7.000   4.473   0.838
 5817SOL     OW18349   6.049   2.796   4.279
 5817SOL    HW118350   6.056   2.873   4.343
 5817SOL    HW218351   6.140   2.762   4.257
 5818SOL     OW18352   2.516   0.207   4.160
 5818SOL    HW118353   2.468   0.137   4.212
 5818SOL    HW218354   2.593   0.241   4.213
 5819SOL     OW18355   4.324   4.237   1.261
 5819SOL    HW118356   4.323   4.279   1.352
 5819SOL    HW218357   4.332   4.309   1.192
 5820SOL     OW18358   1.175   6.233   2.241
 5820SOL    HW118359   1.186   6.317   2.189
 5820SOL    HW218360   1.257   6.217   2.297
 5821SOL     OW18361   5.955   6.429   2.555
 5821SOL    HW118362   6.033   6.372   2.531
 5821SOL    HW218363   5.956   6.449   2.653
 5822SOL     OW18364   1.025   4.137   3.028
 5822SOL    HW118365   1.101   4.157   3.091
 5822SOL    HW218366   1.062   4.100   2.943
 5823SOL     OW18367   2.609   6.508   5.069
 5823SOL    HW118368   2.518   6.483   5.102
 5823SOL    HW218369   2.677   6.446   5.109
 5824SOL     OW18370   2.708   5.483   2.931
 5824SOL    HW118371   2.728   5.388   2.955
 5824SOL    HW218372   2.645   5.485   2.853
 5825SOL     OW18373   3.761   2.146   4.594
 5825SOL    HW118374   3.731   2.151   4.690
 5825SOL    HW218375   3.845   2.198   4.583
 5826SOL     OW18376   1.343   6.195   5.064
 5826SOL    HW118377   1.407   6.270   5.044
 5826SOL    HW218378   1.250   6.232   5.071
 5827SOL     OW18379   2.247   4.035   3.792
 5827SOL    HW118380   2.199   4.112   3.835
 5827SOL    HW218381   2.337   4.024   3.835
 5828SOL     OW18382   4.632   6.997   4.799
 5828SOL    HW118383   4.630   6.928   4.727
 5828SOL    HW218384   4.542   0.016   4.808
 5829SOL     OW18385   2.316   1.511   3.223
 5829SOL    HW118386   2.356   1.584   3.168
 5829SOL    HW218387   2.291   1.545   3.313
 5830SOL     OW18388   4.648   5.025   4.583
 5830SOL    HW118389   4.645   4.988   4.676
 5830SOL    HW218390   4.578   4.979   4.527
 5831SOL     OW18391   2.336   1.722   4.763
 5831SOL    HW118392   2.269   1.769   4.706
 5831SOL    HW218393   2.410   1.786   4.786
 5832SOL     OW18394   2.434   5.122   3.628
 5832SOL    HW118395   2.503   5.176   3.579
 5832SOL    HW218396   2.369   5.083   3.561
 5833SOL     OW18397   2.681   4.718   1.157
 5833SOL    HW118398   2.642   4.725   1.248
 5833SOL    HW218399   2.676   4.623   1.126
 5834SOL     OW18400   5.714   1.780   5.896
 5834SOL    HW118401   5.661   1.699   5.920
 5834SOL    HW218402   5.719   1.841   5.975
 5835SOL     OW18403   3.671   1.092   3.816
 5835SOL    HW118404   3.762   1.131   3.830
 5835SOL    HW218405   3.669   1.045   3.728
 5836SOL     OW18406   4.924   5.180   1.158
 5836SOL    HW118407   4.879   5.163   1.070
 5836SOL    HW218408   4.966   5.096   1.191
 5837SOL     OW18409   1.969   4.843   6.951
 5837SOL    HW118410   2.025   4.839   0.011
 5837SOL    HW218411   2.026   4.824   6.871
 5838SOL     OW18412   2.902   3.501   0.242
 5838SOL    HW118413   2.820   3.552   0.216
 5838SOL    HW218414   2.971   3.512   0.171
 5839SOL     OW18415   2.630   1.439   1.235
 5839SOL    HW118416   2.693   1.517   1.237
 5839SOL    HW218417   2.602   1.421   1.140
 5840SOL     OW18418   6.580   3.868   2.602
 5840SOL    HW118419   6.614   3.954   2.563
 5840SOL    HW218420   6.658   3.812   2.631
 5841SOL     OW18421   5.554   2.617   0.840
 5841SOL    HW118422   5.560   2.597   0.938
 5841SOL    HW218423   5.459   2.605   0.809
 5842SOL     OW18424   4.080   2.073   2.493
 5842SOL    HW118425   4.025   2.104   2.416
 5842SOL    HW218426   4.132   2.150   2.530
 5843SOL     OW18427   3.186   2.575   1.065
 5843SOL    HW118428   3.233   2.487   1.068
 5843SOL    HW218429   3.090   2.561   1.041
 5844SOL     OW18430   6.759   5.285   5.486
 5844SOL    HW118431   6.731   5.373   5.448
 5844SOL    HW218432   6.728   5.211   5.427
 5845SOL     OW18433   2.134   6.262   2.835
 5845SOL    HW118434   2.069   6.310   2.894
 5845SOL    HW218435   2.184   6.194   2.889
 5846SOL     OW18436   0.759   4.435   4.929
 5846SOL    HW118437   0.677   4.427   4.986
 5846SOL    HW218438   0.840   4.411   4.983
 5847SOL     OW18439   2.066   4.233   6.161
 5847SOL    HW118440   2.108   4.245   6.251
 5847SOL    HW218441   2.083   4.140   6.127
 5848SOL     OW18442   3.294   6.517   1.709
 5848SOL    HW118443   3.369   6.475   1.760
 5848SOL    HW218444   3.259   6.596   1.758
 5849SOL     OW18445   3.264   5.441   6.953
 5849SOL    HW118446   3.320   5.474   6.877
 5849SOL    HW218447   3.312   5.368   7.001
 5850SOL     OW18448   5.039   2.252   1.402
 5850SOL    HW118449   5.013   2.234   1.497
 5850SOL    HW218450   5.138   2.242   1.392
 5851SOL     OW18451   1.210   3.194   5.498
 5851SOL    HW118452   1.215   3.291   5.524
 5851SOL    HW218453   1.145   3.183   5.423
 5852SOL     OW18454   4.589   4.920   2.961
 5852SOL    HW118455   4.666   4.895   2.902
 5852SOL    HW218456   4.601   4.877   3.050
 5853SOL     OW18457   4.081   4.605   0.394
 5853SOL    HW118458   4.161   4.561   0.434
 5853SOL    HW218459   4.029   4.538   0.341
 5854SOL     OW18460   2.674   4.401   5.306
 5854SOL    HW118461   2.599   4.390   5.240
 5854SOL    HW218462   2.756   4.432   5.258
 5855SOL     OW18463   1.570   1.829   4.720
 5855SOL    HW118464   1.598   1.795   4.630
 5855SOL    HW218465   1.617   1.915   4.738
 5856SOL     OW18466   0.524   0.646   2.460
 5856SOL    HW118467   0.488   0.562   2.420
 5856SOL    HW218468   0.515   0.641   2.560
 5857SOL     OW18469   6.200   5.733   6.670
 5857SOL    HW118470   6.271   5.791   6.710
 5857SOL    HW218471   6.111   5.757   6.709
 5858SOL     OW18472   3.162   1.617   2.218
 5858SOL    HW118473   3.248   1.570   2.195
 5858SOL    HW218474   3.158   1.704   2.168
 5859SOL     OW18475   5.700   4.747   1.431
 5859SOL    HW118476   5.684   4.654   1.465
 5859SOL    HW218477   5.756   4.797   1.496
 5860SOL     OW18478   1.519   3.649   1.843
 5860SOL    HW118479   1.502   3.639   1.941
 5860SOL    HW218480   1.473   3.575   1.794
 5861SOL     OW18481   5.640   0.350   4.689
 5861SOL    HW118482   5.712   0.330   4.621
 5861SOL    HW218483   5.665   0.431   4.741
 5862SOL     OW18484   0.051   4.801   2.067
 5862SOL    HW118485   7.010   4.724   2.066
 5862SOL    HW218486   0.011   4.878   2.017
 5863SOL     OW18487   4.161   6.921   5.981
 5863SOL    HW118488   4.157   6.821   5.975
 5863SOL    HW218489   4.150   6.949   6.076
 5864SOL     OW18490   3.842   3.010   3.617
 5864SOL    HW118491   3.764   3.008   3.555
 5864SOL    HW218492   3.899   2.929   3.603
 5865SOL     OW18493   6.625   6.571   1.624
 5865SOL    HW118494   6.565   6.576   1.545
 5865SOL    HW218495   6.718   6.599   1.597
 5866SOL     OW18496   3.584   3.249   3.869
 5866SOL    HW118497   3.672   3.204   3.855
 5866SOL    HW218498   3.534   3.252   3.783
 5867SOL     OW18499   4.882   1.521   1.167
 5867SOL    HW118500   4.802   1.547   1.113
 5867SOL    HW218501   4.869   1.428   1.202
 5868SOL     OW18502   1.091   1.207   0.934
 5868SOL    HW118503   1.148   1.181   0.855
 5868SOL    HW218504   1.150   1.230   1.011
 5869SOL     OW18505   2.052   5.578   3.631
 5869SOL    HW118506   2.127   5.513   3.627
 5869SOL    HW218507   1.995   5.559   3.711
 5870SOL     OW18508   4.487   6.611   3.888
 5870SOL    HW118509   4.531   6.569   3.809
 5870SOL    HW218510   4.483   6.546   3.963
 5871SOL     OW18511   4.096   3.413   3.779
 5871SOL    HW118512   4.035   3.388   3.854
 5871SOL    HW218513   4.165   3.342   3.767
 5872SOL     OW18514   3.288   5.608   1.295
 5872SOL    HW118515   3.232   5.535   1.334
 5872SOL    HW218516   3.381   5.573   1.280
 5873SOL     OW18517   4.086   6.953   1.971
 5873SOL    HW118518   4.171   6.955   2.024
 5873SOL    HW218519   4.107   6.949   1.874
 5874SOL     OW18520   0.051   4.344   4.551
 5874SOL    HW118521   0.074   4.352   4.454
 5874SOL    HW218522   6.979   4.311   4.560
 5875SOL     OW18523   3.892   2.380   0.840
 5875SOL    HW118524   3.884   2.479   0.846
 5875SOL    HW218525   3.988   2.354   0.848
 5876SOL     OW18526   2.979   3.360   2.959
 5876SOL    HW118527   2.952   3.445   3.003
 5876SOL    HW218528   2.965   3.284   3.022
 5877SOL     OW18529   4.904   4.148   1.704
 5877SOL    HW118530   4.865   4.134   1.795
 5877SOL    HW218531   4.935   4.060   1.667
 5878SOL     OW18532   0.757   3.801   1.733
 5878SOL    HW118533   0.682   3.800   1.666
 5878SOL    HW218534   0.725   3.842   1.818
 5879SOL     OW18535   1.963   4.562   4.742
 5879SOL    HW118536   1.999   4.521   4.826
 5879SOL    HW218537   1.868   4.535   4.730
 5880SOL     OW18538   2.883   5.086   6.838
 5880SOL    HW118539   2.960   5.097   6.901
 5880SOL    HW218540   2.900   5.138   6.755
 5881SOL     OW18541   1.791   6.535   3.815
 5881SOL    HW118542   1.807   6.624   3.858
 5881SOL    HW218543   1.740   6.548   3.730
 5882SOL     OW18544   4.645   0.377   3.013
 5882SOL    HW118545   4.660   0.389   2.915
 5882SOL    HW218546   4.555   0.414   3.037
 5883SOL     OW18547   1.728   3.200   5.461
 5883SOL    HW118548   1.813   3.197   5.408
 5883SOL    HW218549   1.711   3.109   5.501
 5884SOL     OW18550   6.994   0.691   3.252
 5884SOL    HW118551   6.946   0.663   3.335
 5884SOL    HW218552   0.035   0.765   3.273
 5885SOL     OW18553   5.507   6.320   0.351
 5885SOL    HW118554   5.430   6.294   0.409
 5885SOL    HW218555   5.478   6.317   0.255
 5886SOL     OW18556   5.900   1.444   6.158
 5886SOL    HW118557   5.992   1.412   6.141
 5886SOL    HW218558   5.881   1.442   6.256
 5887SOL     OW18559   3.520   6.505   2.874
 5887SOL    HW118560   3.558   6.439   2.810
 5887SOL    HW218561   3.589   6.574   2.896
 5888SOL     OW18562   6.695   6.145   1.836
 5888SOL    HW118563   6.793   6.154   1.822
 5888SOL    HW218564   6.655   6.235   1.853
 5889SOL     OW18565   2.807   6.707   0.211
 5889SOL    HW118566   2.707   6.710   0.221
 5889SOL    HW218567   2.850   6.720   0.300
 5890SOL     OW18568   3.837   5.647   5.903
 5890SOL    HW118569   3.884   5.559   5.909
 5890SOL    HW218570   3.794   5.668   5.991
 5891SOL     OW18571   1.636   3.255   6.335
 5891SOL    HW118572   1.586   3.238   6.250
 5891SOL    HW218573   1.674   3.347   6.334
 5892SOL     OW18574   2.693   5.670   1.966
 5892SOL    HW118575   2.744   5.709   1.889
 5892SOL    HW218576   2.704   5.571   1.968
 5893SOL     OW18577   1.387   2.892   2.894
 5893SOL    HW118578   1.465   2.953   2.905
 5893SOL    HW218579   1.349   2.902   2.802
 5894SOL     OW18580   1.380   3.677   3.771
 5894SOL    HW118581   1.323   3.677   3.688
 5894SOL    HW218582   1.409   3.770   3.791
 5895SOL     OW18583   5.653   4.680   2.748
 5895SOL    HW118584   5.612   4.617   2.681
 5895SOL    HW218585   5.581   4.738   2.787
 5896SOL     OW18586   4.855   2.036   5.690
 5896SOL    HW118587   4.821   2.125   5.660
 5896SOL    HW218588   4.858   1.973   5.612
 5897SOL     OW18589   4.378   4.425   1.057
 5897SOL    HW118590   4.317   4.503   1.043
 5897SOL    HW218591   4.367   4.360   0.982
 5898SOL     OW18592   1.955   6.318   3.046
 5898SOL    HW118593   1.870   6.328   3.099
 5898SOL    HW218594   2.020   6.263   3.097
 5899SOL     OW18595   5.114   0.543   3.259
 5899SOL    HW118596   5.194   0.597   3.234
 5899SOL    HW218597   5.050   0.600   3.311
 5900SOL     OW18598   3.804   4.909   1.893
 5900SOL    HW118599   3.731   4.854   1.934
 5900SOL    HW218600   3.764   4.984   1.840
 5901SOL     OW18601   3.093   6.181   4.247
 5901SOL    HW118602   3.103   6.087   4.282
 5901SOL    HW218603   3.005   6.218   4.277
 5902SOL     OW18604   5.947   2.858   0.485
 5902SOL    HW118605   5.849   2.866   0.502
 5902SOL    HW218606   5.986   2.949   0.472
 5903SOL     OW18607   0.435   1.978   6.402
 5903SOL    HW118608   0.397   2.030   6.325
 5903SOL    HW218609   0.441   1.881   6.377
 5904SOL     OW18610   1.449   3.328   2.246
 5904SOL    HW118611   1.540   3.349   2.279
 5904SOL    HW218612   1.455   3.262   2.171
 5905SOL     OW18613   7.000   3.579   2.097
 5905SOL    HW118614   0.047   3.507   2.110
 5905SOL    HW218615   6.920   3.540   2.051
 5906SOL     OW18616   0.044   1.000   3.353
 5906SOL    HW118617   0.049   1.100   3.363
 5906SOL    HW218618   0.134   0.965   3.325
 5907SOL     OW18619   2.156   1.256   3.105
 5907SOL    HW118620   2.203   1.177   3.145
 5907SOL    HW218621   2.198   1.341   3.138
 5908SOL     OW18622   0.616   2.844   5.784
 5908SOL    HW118623   0.525   2.803   5.788
 5908SOL    HW218624   0.674   2.803   5.854
 5909SOL     OW18625   6.663   4.703   6.736
 5909SOL    HW118626   6.694   4.664   6.649
 5909SOL    HW218627   6.678   4.802   6.736
 5910SOL     OW18628   1.183   1.386   3.309
 5910SOL    HW118629   1.258   1.452   3.302
 5910SOL    HW218630   1.207   1.316   3.376
 5911SOL     OW18631   7.009   6.180   0.294
 5911SOL    HW118632   7.012   6.223   0.203
 5911SOL    HW218633   7.001   6.081   0.284
 5912SOL     OW18634   0.667   0.868   2.928
 5912SOL    HW118635   0.713   0.825   2.850
 5912SOL    HW218636   0.636   0.959   2.901
 5913SOL     OW18637   6.567   2.817   1.349
 5913SOL    HW118638   6.476   2.783   1.325
 5913SOL    HW218639   6.591   2.892   1.288
 5914SOL     OW18640   1.359   0.179   0.699
 5914SOL    HW118641   1.306   0.251   0.654
 5914SOL    HW218642   1.453   0.210   0.713
 5915SOL     OW18643   3.867   0.336   5.210
 5915SOL    HW118644   3.800   0.346   5.136
 5915SOL    HW218645   3.820   0.342   5.298
 5916SOL     OW18646   1.222   0.238   2.534
 5916SOL    HW118647   1.138   0.184   2.537
 5916SOL    HW218648   1.206   0.323   2.486
 5917SOL     OW18649   3.190   3.095   0.694
 5917SOL    HW118650   3.220   2.999   0.696
 5917SOL    HW218651   3.104   3.104   0.744
 5918SOL     OW18652   3.655   6.816   4.007
 5918SOL    HW118653   3.597   6.776   4.078
 5918SOL    HW218654   3.648   6.761   3.924
 5919SOL     OW18655   3.188   4.092   4.771
 5919SOL    HW118656   3.152   4.185   4.768
 5919SOL    HW218657   3.271   4.090   4.827
 5920SOL     OW18658   1.131   0.721   5.673
 5920SOL    HW118659   1.133   0.820   5.689
 5920SOL    HW218660   1.172   0.700   5.585
 5921SOL     OW18661   2.579   5.303   0.691
 5921SOL    HW118662   2.648   5.235   0.717
 5921SOL    HW218663   2.622   5.393   0.682
 5922SOL     OW18664   5.124   2.491   2.429
 5922SOL    HW118665   5.108   2.536   2.517
 5922SOL    HW218666   5.165   2.556   2.366
 5923SOL     OW18667   5.611   0.794   2.888
 5923SOL    HW118668   5.633   0.725   2.957
 5923SOL    HW218669   5.692   0.849   2.870
 5924SOL     OW18670   6.864   6.835   3.475
 5924SOL    HW118671   6.877   6.821   3.573
 5924SOL    HW218672   6.805   6.914   3.460
 5925SOL     OW18673   4.801   1.137   0.879
 5925SOL    HW118674   4.797   1.236   0.866
 5925SOL    HW218675   4.872   1.099   0.820
 5926SOL     OW18676   5.307   3.221   2.864
 5926SOL    HW118677   5.271   3.283   2.795
 5926SOL    HW218678   5.256   3.134   2.861
 5927SOL     OW18679   0.636   6.438   1.131
 5927SOL    HW118680   0.586   6.522   1.148
 5927SOL    HW218681   0.634   6.381   1.214
 5928SOL     OW18682   3.121   0.256   0.219
 5928SOL    HW118683   3.145   0.172   0.268
 5928SOL    HW218684   3.022   0.262   0.210
 5929SOL     OW18685   1.260   0.715   1.530
 5929SOL    HW118686   1.213   0.631   1.558
 5929SOL    HW218687   1.310   0.699   1.445
 5930SOL     OW18688   1.015   4.379   1.526
 5930SOL    HW118689   1.088   4.341   1.583
 5930SOL    HW218690   0.928   4.374   1.575
 5931SOL     OW18691   4.604   5.876   4.051
 5931SOL    HW118692   4.610   5.957   4.109
 5931SOL    HW218693   4.509   5.847   4.045
 5932SOL     OW18694   3.918   5.828   0.262
 5932SOL    HW118695   3.838   5.805   0.206
 5932SOL    HW218696   3.933   5.927   0.261
 5933SOL     OW18697   6.735   5.752   4.266
 5933SOL    HW118698   6.831   5.771   4.244
 5933SOL    HW218699   6.722   5.756   4.365
 5934SOL     OW18700   3.286   4.156   0.111
 5934SOL    HW118701   3.252   4.225   0.175
 5934SOL    HW218702   3.293   4.196   0.019
 5935SOL     OW18703   1.384   0.364   5.735
 5935SOL    HW118704   1.463   0.392   5.682
 5935SOL    HW218705   1.384   0.265   5.745
 5936SOL     OW18706   3.629   2.812   2.201
 5936SOL    HW118707   3.602   2.721   2.171
 5936SOL    HW218708   3.680   2.857   2.128
 5937SOL     OW18709   0.451   3.136   0.433
 5937SOL    HW118710   0.429   3.061   0.495
 5937SOL    HW218711   0.460   3.221   0.486
 5938SOL     OW18712   1.174   3.241   4.579
 5938SOL    HW118713   1.225   3.310   4.528
 5938SOL    HW218714   1.223   3.218   4.663
 5939SOL     OW18715   4.817   0.688   5.863
 5939SOL    HW118716   4.799   0.598   5.823
 5939SOL    HW218717   4.748   0.753   5.832
 5940SOL     OW18718   5.183   5.059   1.271
 5940SOL    HW118719   5.271   5.073   1.316
 5940SOL    HW218720   5.185   5.103   1.181
 5941SOL     OW18721   0.808   1.560   3.531
 5941SOL    HW118722   0.776   1.640   3.479
 5941SOL    HW218723   0.903   1.575   3.559
 5942SOL     OW18724   4.989   2.300   6.324
 5942SOL    HW118725   4.954   2.343   6.408
 5942SOL    HW218726   5.087   2.286   6.333
 5943SOL     OW18727   2.068   4.845   1.805
 5943SOL    HW118728   2.098   4.937   1.831
 5943SOL    HW218729   2.123   4.814   1.727
 5944SOL     OW18730   6.516   3.839   5.949
 5944SOL    HW118731   6.493   3.837   6.046
 5944SOL    HW218732   6.573   3.918   5.929
 5945SOL     OW18733   0.159   6.494   4.245
 5945SOL    HW118734   0.148   6.486   4.146
 5945SOL    HW218735   0.072   6.523   4.287
 5946SOL     OW18736   2.943   2.985   0.157
 5946SOL    HW118737   2.951   3.080   0.189
 5946SOL    HW218738   2.963   2.981   0.059
 5947SOL     OW18739   3.288   3.254   4.720
 5947SOL    HW118740   3.229   3.195   4.774
 5947SOL    HW218741   3.234   3.301   4.650
 5948SOL     OW18742   4.667   4.153   1.555
 5948SOL    HW118743   4.759   4.132   1.589
 5948SOL    HW218744   4.599   4.109   1.614
 5949SOL     OW18745   0.945   4.185   4.151
 5949SOL    HW118746   0.950   4.099   4.101
 5949SOL    HW218747   0.884   4.174   4.230
 5950SOL     OW18748   2.491   6.718   4.944
 5950SOL    HW118749   2.540   6.794   4.986
 5950SOL    HW218750   2.512   6.633   4.993
 5951SOL     OW18751   6.819   2.851   6.152
 5951SOL    HW118752   6.844   2.839   6.056
 5951SOL    HW218753   6.726   2.818   6.167
 5952SOL     OW18754   3.869   4.166   1.763
 5952SOL    HW118755   3.859   4.111   1.846
 5952SOL    HW218756   3.783   4.214   1.744
 5953SOL     OW18757   6.921   2.479   7.017
 5953SOL    HW118758   6.926   2.432   6.929
 5953SOL    HW218759   7.005   2.464   0.046
 5954SOL     OW18760   1.829   4.979   3.920
 5954SOL    HW118761   1.794   5.073   3.913
 5954SOL    HW218762   1.902   4.966   3.852
 5955SOL     OW18763   3.875   2.771   0.370
 5955SOL    HW118764   3.859   2.730   0.281
 5955SOL    HW218765   3.872   2.871   0.362
 5956SOL     OW18766   4.475   2.571   6.394
 5956SOL    HW118767   4.392   2.614   6.428
 5956SOL    HW218768   4.515   2.628   6.322
 5957SOL     OW18769   6.492   1.984   3.639
 5957SOL    HW118770   6.422   2.054   3.624
 5957SOL    HW218771   6.548   2.009   3.718
 5958SOL     OW18772   2.440   6.242   2.529
 5958SOL    HW118773   2.459   6.163   2.586
 5958SOL    HW218774   2.366   6.220   2.465
 5959SOL     OW18775   5.116   3.806   3.129
 5959SOL    HW118776   5.205   3.822   3.170
 5959SOL    HW218777   5.062   3.890   3.130
 5960SOL     OW18778   5.876   0.257   6.277
 5960SOL    HW118779   5.786   0.229   6.313
 5960SOL    HW218780   5.904   0.342   6.321
 5961SOL     OW18781   2.901   1.693   4.067
 5961SOL    HW118782   2.807   1.671   4.092
 5961SOL    HW218783   2.901   1.747   3.983
 5962SOL     OW18784   4.971   4.460   0.560
 5962SOL    HW118785   4.994   4.441   0.464
 5962SOL    HW218786   5.056   4.464   0.614
 5963SOL     OW18787   1.607   4.168   0.353
 5963SOL    HW118788   1.596   4.112   0.271
 5963SOL    HW218789   1.703   4.174   0.377
 5964SOL     OW18790   1.764   6.970   2.937
 5964SOL    HW118791   1.757   6.920   2.851
 5964SOL    HW218792   1.848   0.003   2.936
 5965SOL     OW18793   2.231   0.554   1.285
 5965SOL    HW118794   2.271   0.607   1.360
 5965SOL    HW218795   2.242   0.605   1.199
 5966SOL     OW18796   2.856   1.723   4.804
 5966SOL    HW118797   2.870   1.625   4.815
 5966SOL    HW218798   2.855   1.767   4.893
 5967SOL     OW18799   4.545   2.527   5.400
 5967SOL    HW118800   4.485   2.589   5.349
 5967SOL    HW218801   4.495   2.443   5.423
 5968SOL     OW18802   6.524   1.984   3.256
 5968SOL    HW118803   6.486   2.064   3.303
 5968SOL    HW218804   6.454   1.943   3.199
 5969SOL     OW18805   5.048   6.707   1.141
 5969SOL    HW118806   5.109   6.777   1.178
 5969SOL    HW218807   5.050   6.710   1.041
 5970SOL     OW18808   6.348   2.777   0.451
 5970SOL    HW118809   6.313   2.870   0.452
 5970SOL    HW218810   6.383   2.753   0.542
 5971SOL     OW18811   6.608   5.373   3.767
 5971SOL    HW118812   6.688   5.316   3.748
 5971SOL    HW218813   6.571   5.408   3.681
 5972SOL     OW18814   5.659   5.065   0.688
 5972SOL    HW118815   5.637   4.982   0.738
 5972SOL    HW218816   5.589   5.134   0.704
 5973SOL     OW18817   3.616   0.988   2.463
 5973SOL    HW118818   3.525   0.947   2.452
 5973SOL    HW218819   3.677   0.922   2.507
 5974SOL     OW18820   5.544   1.129   4.537
 5974SOL    HW118821   5.614   1.141   4.467
 5974SOL    HW218822   5.583   1.147   4.627
 5975SOL     OW18823   4.023   5.007   0.953
 5975SOL    HW118824   4.031   4.914   0.918
 5975SOL    HW218825   4.088   5.067   0.906
 5976SOL     OW18826   1.636   3.315   5.932
 5976SOL    HW118827   1.628   3.371   5.850
 5976SOL    HW218828   1.718   3.342   5.983
 5977SOL     OW18829   0.346   5.524   1.292
 5977SOL    HW118830   0.262   5.470   1.293
 5977SOL    HW218831   0.409   5.486   1.225
 5978SOL     OW18832   2.823   3.758   5.970
 5978SOL    HW118833   2.835   3.660   5.954
 5978SOL    HW218834   2.905   3.795   6.013
 5979SOL     OW18835   5.886   0.193   1.059
 5979SOL    HW118836   5.792   0.186   1.094
 5979SOL    HW218837   5.885   0.231   0.967
 5980SOL     OW18838   3.412   2.706   1.180
 5980SOL    HW118839   3.356   2.641   1.128
 5980SOL    HW218840   3.377   2.713   1.273
 5981SOL     OW18841   3.035   2.764   0.786
 5981SOL    HW118842   2.977   2.836   0.749
 5981SOL    HW218843   2.978   2.688   0.818
 5982SOL     OW18844   5.554   2.543   1.117
 5982SOL    HW118845   5.640   2.492   1.119
 5982SOL    HW218846   5.479   2.481   1.092
 5983SOL     OW18847   6.897   1.269   3.935
 5983SOL    HW118848   6.948   1.356   3.933
 5983SOL    HW218849   6.854   1.259   4.025
 5984SOL     OW18850   6.256   6.389   2.838
 5984SOL    HW118851   6.234   6.292   2.848
 5984SOL    HW218852   6.269   6.429   2.929
 5985SOL     OW18853   6.288   4.507   2.740
 5985SOL    HW118854   6.211   4.469   2.688
 5985SOL    HW218855   6.285   4.607   2.736
 5986SOL     OW18856   3.926   3.061   2.980
 5986SOL    HW118857   3.895   3.150   2.947
 5986SOL    HW218858   3.999   3.027   2.920
 5987SOL     OW18859   0.093   6.131   4.423
 5987SOL    HW118860   0.191   6.123   4.440
 5987SOL    HW218861   0.078   6.184   4.339
 5988SOL     OW18862   1.209   2.250   0.104
 5988SOL    HW118863   1.263   2.169   0.128
 5988SOL    HW218864   1.195   2.306   0.186
 5989SOL     OW18865   2.469   6.380   5.387
 5989SOL    HW118866   2.405   6.432   5.444
 5989SOL    HW218867   2.432   6.372   5.294
 5990SOL     OW18868   2.515   3.927   1.654
 5990SOL    HW118869   2.456   3.916   1.734
 5990SOL    HW218870   2.462   3.963   1.578
 5991SOL     OW18871   5.257   1.404   0.542
 5991SOL    HW118872   5.353   1.409   0.570
 5991SOL    HW218873   5.198   1.409   0.623
 5992SOL     OW18874   2.575   4.619   3.462
 5992SOL    HW118875   2.483   4.659   3.466
 5992SOL    HW218876   2.614   4.616   3.554
 5993SOL     OW18877   5.479   2.713   0.121
 5993SOL    HW118878   5.414   2.780   0.086
 5993SOL    HW218879   5.536   2.755   0.191
 5994SOL     OW18880   0.066   4.605   0.524
 5994SOL    HW118881   0.043   4.530   0.586
 5994SOL    HW218882   7.019   4.610   0.452
 5995SOL     OW18883   5.358   3.362   0.897
 5995SOL    HW118884   5.381   3.419   0.818
 5995SOL    HW218885   5.434   3.299   0.916
 5996SOL     OW18886   2.535   0.438   1.823
 5996SOL    HW118887   2.553   0.352   1.871
 5996SOL    HW218888   2.504   0.507   1.888
 5997SOL     OW18889   6.424   0.224   4.600
 5997SOL    HW118890   6.420   0.214   4.501
 5997SOL    HW218891   6.514   0.261   4.626
 5998SOL     OW18892   5.956   6.199   5.825
 5998SOL    HW118893   5.998   6.282   5.789
 5998SOL    HW218894   6.023   6.149   5.880
 5999SOL     OW18895   5.229   3.458   1.105
 5999SOL    HW118896   5.305   3.502   1.152
 5999SOL    HW218897   5.263   3.403   1.029
 6000SOL     OW18898   1.126   4.739   1.688
 6000SOL    HW118899   1.207   4.743   1.746
 6000SOL    HW218900   1.097   4.832   1.664
 6001SOL     OW18901   6.896   6.015   5.669
 6001SOL    HW118902   6.867   6.066   5.587
 6001SOL    HW218903   6.855   6.057   5.750
 6002SOL     OW18904   5.459   4.376   5.187
 6002SOL    HW118905   5.397   4.365   5.110
 6002SOL    HW218906   5.473   4.473   5.205
 6003SOL     OW18907   2.671   1.598   5.340
 6003SOL    HW118908   2.742   1.668   5.345
 6003SOL    HW218909   2.588   1.638   5.301
 6004SOL     OW18910   5.720   3.286   5.222
 6004SOL    HW118911   5.756   3.222   5.154
 6004SOL    HW218912   5.796   3.327   5.273
 6005SOL     OW18913   3.970   4.147   0.870
 6005SOL    HW118914   4.009   4.055   0.871
 6005SOL    HW218915   4.038   4.212   0.903
 6006SOL     OW18916   3.305   6.173   6.578
 6006SOL    HW118917   3.212   6.179   6.612
 6006SOL    HW218918   3.305   6.134   6.485
 6007SOL     OW18919   2.807   6.577   4.698
 6007SOL    HW118920   2.773   6.491   4.737
 6007SOL    HW218921   2.887   6.607   4.749
 6008SOL     OW18922   2.273   3.858   6.790
 6008SOL    HW118923   2.274   3.942   6.845
 6008SOL    HW218924   2.365   3.820   6.784
 6009SOL     OW18925   2.920   5.570   3.102
 6009SOL    HW118926   2.977   5.494   3.070
 6009SOL    HW218927   2.844   5.583   3.039
 6010SOL     OW18928   0.002   5.391   5.474
 6010SOL    HW118929   0.058   5.324   5.425
 6010SOL    HW218930   6.928   5.364   5.469
 6011SOL     OW18931   5.444   1.577   2.900
 6011SOL    HW118932   5.499   1.494   2.889
 6011SOL    HW218933   5.485   1.652   2.849
 6012SOL     OW18934   6.480   1.117   6.152
 6012SOL    HW118935   6.573   1.096   6.120
 6012SOL    HW218936   6.415   1.104   6.078
 6013SOL     OW18937   5.569   1.362   2.473
 6013SOL    HW118938   5.527   1.344   2.562
 6013SOL    HW218939   5.648   1.302   2.460
 6014SOL     OW18940   3.696   3.365   4.084
 6014SOL    HW118941   3.668   3.316   4.166
 6014SOL    HW218942   3.636   3.340   4.008
 6015SOL     OW18943   6.318   0.078   3.803
 6015SOL    HW118944   6.283   0.148   3.741
 6015SOL    HW218945   6.418   0.076   3.797
 6016SOL     OW18946   4.351   2.307   4.764
 6016SOL    HW118947   4.326   2.332   4.857
 6016SOL    HW218948   4.374   2.210   4.760
 6017SOL     OW18949   1.530   1.725   5.292
 6017SOL    HW118950   1.499   1.820   5.304
 6017SOL    HW218951   1.604   1.723   5.225
 6018SOL     OW18952   2.511   1.563   3.532
 6018SOL    HW118953   2.468   1.530   3.615
 6018SOL    HW218954   2.471   1.651   3.506
 6019SOL     OW18955   6.666   4.039   5.862
 6019SOL    HW118956   6.715   4.081   5.785
 6019SOL    HW218957   6.710   4.067   5.948
 6020SOL     OW18958   0.610   5.519   5.222
 6020SOL    HW118959   0.667   5.595   5.254
 6020SOL    HW218960   0.618   5.511   5.123
 6021SOL     OW18961   5.079   0.296   3.222
 6021SOL    HW118962   5.029   0.298   3.135
 6021SOL    HW218963   5.110   0.388   3.245
 6022SOL     OW18964   6.698   2.944   1.575
 6022SOL    HW118965   6.650   2.917   1.491
 6022SOL    HW218966   6.660   2.893   1.653
 6023SOL     OW18967   4.549   6.649   2.310
 6023SOL    HW118968   4.481   6.706   2.265
 6023SOL    HW218969   4.507   6.602   2.387
 6024SOL     OW18970   0.714   6.287   0.306
 6024SOL    HW118971   0.801   6.337   0.309
 6024SOL    HW218972   0.649   6.336   0.249
 6025SOL     OW18973   3.309   0.521   5.743
 6025SOL    HW118974   3.362   0.596   5.704
 6025SOL    HW218975   3.371   0.447   5.770
 6026SOL     OW18976   5.589   5.826   3.546
 6026SOL    HW118977   5.557   5.825   3.451
 6026SOL    HW218978   5.614   5.920   3.572
 6027SOL     OW18979   5.983   4.632   6.012
 6027SOL    HW118980   5.923   4.574   5.956
 6027SOL    HW218981   5.977   4.604   6.108
 6028SOL     OW18982   6.136   5.699   6.012
 6028SOL    HW118983   6.203   5.713   5.939
 6028SOL    HW218984   6.175   5.637   6.080
 6029SOL     OW18985   2.915   1.965   2.947
 6029SOL    HW118986   2.981   2.028   2.905
 6029SOL    HW218987   2.901   1.887   2.887
 6030SOL     OW18988   5.588   3.106   4.330
 6030SOL    HW118989   5.575   3.123   4.428
 6030SOL    HW218990   5.637   3.019   4.318
 6031SOL     OW18991   6.911   6.778   3.755
 6031SOL    HW118992   6.997   6.738   3.722
 6031SOL    HW218993   6.927   6.872   3.785
 6032SOL     OW18994   3.179   6.882   3.462
 6032SOL    HW118995   3.101   6.944   3.449
 6032SOL    HW218996   3.261   6.923   3.421
 6033SOL     OW18997   0.934   1.597   2.642
 6033SOL    HW118998   0.878   1.592   2.724
 6033SOL    HW218999   1.020   1.548   2.657
 6034SOL     OW19000   0.705   0.622   0.591
 6034SOL    HW119001   0.797   0.592   0.564
 6034SOL    HW219002   0.712   0.706   0.644
 6035SOL     OW19003   2.200   0.666   2.765
 6035SOL    HW119004   2.143   0.744   2.742
 6035SOL    HW219005   2.212   0.608   2.684
 6036SOL     OW19006   6.808   3.514   0.538
 6036SOL    HW119007   6.783   3.573   0.461
 6036SOL    HW219008   6.755   3.540   0.618
 6037SOL     OW19009   4.605   0.609   6.347
 6037SOL    HW119010   4.629   0.544   6.418
 6037SOL    HW219011   4.545   0.565   6.280
 6038SOL     OW19012   1.713   1.423   6.563
 6038SOL    HW119013   1.778   1.378   6.624
 6038SOL    HW219014   1.622   1.385   6.577
 6039SOL     OW19015   3.401   2.923   4.151
 6039SOL    HW119016   3.414   3.019   4.125
 6039SOL    HW219017   3.331   2.917   4.223
 6040SOL     OW19018   0.333   1.664   0.191
 6040SOL    HW119019   0.383   1.751   0.192
 6040SOL    HW219020   0.395   1.590   0.167
 6041SOL     OW19021   0.914   3.149   4.965
 6041SOL    HW119022   0.998   3.156   4.911
 6041SOL    HW219023   0.843   3.108   4.909
 6042SOL     OW19024   2.282   6.295   4.159
 6042SOL    HW119025   2.293   6.285   4.060
 6042SOL    HW219026   2.289   6.205   4.202
 6043SOL     OW19027   2.351   5.936   2.311
 6043SOL    HW119028   2.346   5.941   2.211
 6043SOL    HW219029   2.307   6.017   2.350
 6044SOL     OW19030   6.941   3.315   0.651
 6044SOL    HW119031   6.901   3.393   0.602
 6044SOL    HW219032   0.009   3.295   0.612
 6045SOL     OW19033   5.207   1.312   4.364
 6045SOL    HW119034   5.145   1.296   4.287
 6045SOL    HW219035   5.175   1.259   4.443
 6046SOL     OW19036   3.642   3.728   2.803
 6046SOL    HW119037   3.690   3.653   2.759
 6046SOL    HW219038   3.597   3.785   2.734
 6047SOL     OW19039   0.159   1.306   0.186
 6047SOL    HW119040   0.095   1.301   0.110
 6047SOL    HW219041   0.246   1.262   0.160
 6048SOL     OW19042   5.943   5.455   3.146
 6048SOL    HW119043   5.873   5.395   3.185
 6048SOL    HW219044   6.032   5.410   3.149
 6049SOL     OW19045   4.919   5.282   6.055
 6049SOL    HW119046   4.941   5.201   6.002
 6049SOL    HW219047   4.928   5.363   5.997
 6050SOL     OW19048   2.597   5.164   3.198
 6050SOL    HW119049   2.661   5.127   3.266
 6050SOL    HW219050   2.608   5.116   3.111
 6051SOL     OW19051   0.864   1.237   2.268
 6051SOL    HW119052   0.958   1.264   2.286
 6051SOL    HW219053   0.810   1.319   2.246
 6052SOL     OW19054   5.600   5.769   6.901
 6052SOL    HW119055   5.512   5.785   6.856
 6052SOL    HW219056   5.650   5.699   6.851
 6053SOL     OW19057   3.750   2.384   5.940
 6053SOL    HW119058   3.713   2.298   5.976
 6053SOL    HW219059   3.747   2.382   5.840
 6054SOL     OW19060   4.125   3.534   0.276
 6054SOL    HW119061   4.220   3.548   0.248
 6054SOL    HW219062   4.108   3.581   0.363
 6055SOL     OW19063   3.229   4.550   1.659
 6055SOL    HW119064   3.188   4.569   1.569
 6055SOL    HW219065   3.228   4.633   1.714
 6056SOL     OW19066   5.009   5.993   2.749
 6056SOL    HW119067   5.046   5.900   2.754
 6056SOL    HW219068   5.011   6.034   2.840
 6057SOL     OW19069   5.683   1.303   3.961
 6057SOL    HW119070   5.700   1.346   3.873
 6057SOL    HW219071   5.655   1.372   4.028
 6058SOL     OW19072   0.003   2.304   5.743
 6058SOL    HW119073   7.007   2.210   5.772
 6058SOL    HW219074   6.939   2.349   5.719
 6059SOL     OW19075   3.873   1.860   6.946
 6059SOL    HW119076   3.876   1.951   6.905
 6059SOL    HW219077   3.963   1.817   6.939
 6060SOL     OW19078   1.863   2.734   1.082
 6060SOL    HW119079   1.910   2.646   1.082
 6060SOL    HW219080   1.765   2.718   1.073
 6061SOL     OW19081   2.679   4.626   6.665
 6061SOL    HW119082   2.618   4.548   6.683
 6061SOL    HW219083   2.773   4.593   6.659
 6062SOL     OW19084   2.318   1.988   5.797
 6062SOL    HW119085   2.285   1.894   5.797
 6062SOL    HW219086   2.418   1.989   5.801
 6063SOL     OW19087   4.987   4.072   6.222
 6063SOL    HW119088   4.935   3.993   6.188
 6063SOL    HW219089   5.005   4.135   6.147
 6064SOL     OW19090   5.775   6.302   0.683
 6064SOL    HW119091   5.734   6.392   0.695
 6064SOL    HW219092   5.706   6.238   0.648
 6065SOL     OW19093   2.036   5.814   1.514
 6065SOL    HW119094   2.067   5.877   1.443
 6065SOL    HW219095   2.013   5.726   1.472
 6066SOL     OW19096   6.265   5.896   2.175
 6066SOL    HW119097   6.211   5.942   2.246
 6066SOL    HW219098   6.209   5.884   2.093
 6067SOL     OW19099   0.383   5.439   5.500
 6067SOL    HW119100   0.331   5.354   5.499
 6067SOL    HW219101   0.388   5.477   5.407
 6068SOL     OW19102   4.315   1.680   4.408
 6068SOL    HW119103   4.339   1.752   4.343
 6068SOL    HW219104   4.237   1.710   4.463
 6069SOL     OW19105   0.366   5.064   5.233
 6069SOL    HW119106   0.351   5.110   5.146
 6069SOL    HW219107   0.395   4.970   5.217
 6070SOL     OW19108   2.873   0.725   0.900
 6070SOL    HW119109   2.823   0.672   0.832
 6070SOL    HW219110   2.810   0.755   0.972
 6071SOL     OW19111   5.422   0.316   6.256
 6071SOL    HW119112   5.496   0.266   6.299
 6071SOL    HW219113   5.455   0.406   6.227
 6072SOL     OW19114   6.862   2.958   0.423
 6072SOL    HW119115   6.798   3.026   0.388
 6072SOL    HW219116   6.833   2.928   0.514
 6073SOL     OW19117   4.816   3.964   0.759
 6073SOL    HW119118   4.795   4.030   0.686
 6073SOL    HW219119   4.790   3.872   0.729
 6074SOL     OW19120   1.319   6.209   2.744
 6074SOL    HW119121   1.245   6.235   2.683
 6074SOL    HW219122   1.360   6.123   2.713
 6075SOL     OW19123   6.284   6.925   6.726
 6075SOL    HW119124   6.335   6.964   6.802
 6075SOL    HW219125   6.340   6.857   6.680
 6076SOL     OW19126   0.316   6.601   3.773
 6076SOL    HW119127   0.371   6.531   3.730
 6076SOL    HW219128   0.369   6.645   3.846
 6077SOL     OW19129   5.104   6.124   2.509
 6077SOL    HW119130   5.073   6.219   2.503
 6077SOL    HW219131   5.057   6.078   2.584
 6078SOL     OW19132   5.348   4.424   0.180
 6078SOL    HW119133   5.339   4.524   0.183
 6078SOL    HW219134   5.376   4.396   0.089
 6079SOL     OW19135   3.175   1.902   0.275
 6079SOL    HW119136   3.124   1.964   0.334
 6079SOL    HW219137   3.207   1.952   0.194
 6080SOL     OW19138   0.450   3.201   5.435
 6080SOL    HW119139   0.355   3.189   5.408
 6080SOL    HW219140   0.478   3.296   5.419
 6081SOL     OW19141   2.239   4.076   4.100
 6081SOL    HW119142   2.219   4.094   4.196
 6081SOL    HW219143   2.169   4.119   4.043
 6082SOL     OW19144   5.245   1.191   1.301
 6082SOL    HW119145   5.217   1.212   1.207
 6082SOL    HW219146   5.256   1.092   1.311
 6083SOL     OW19147   5.459   6.602   6.460
 6083SOL    HW119148   5.491   6.659   6.536
 6083SOL    HW219149   5.476   6.650   6.374
 6084SOL     OW19150   6.422   5.568   3.306
 6084SOL    HW119151   6.343   5.628   3.312
 6084SOL    HW219152   6.393   5.478   3.272
 6085SOL     OW19153   0.609   6.742   0.928
 6085SOL    HW119154   0.514   6.753   0.959
 6085SOL    HW219155   0.610   6.677   0.851
 6086SOL     OW19156   3.861   3.344   0.510
 6086SOL    HW119157   3.800   3.423   0.500
 6086SOL    HW219158   3.880   3.329   0.607
 6087SOL     OW19159   4.173   0.216   0.683
 6087SOL    HW119160   4.159   0.136   0.625
 6087SOL    HW219161   4.090   0.234   0.735
 6088SOL     OW19162   4.168   5.796   1.869
 6088SOL    HW119163   4.240   5.858   1.902
 6088SOL    HW219164   4.186   5.704   1.904
 6089SOL     OW19165   6.178   4.444   3.395
 6089SOL    HW119166   6.186   4.515   3.326
 6089SOL    HW219167   6.265   4.394   3.401
 6090SOL     OW19168   3.843   5.924   5.071
 6090SOL    HW119169   3.812   5.970   5.154
 6090SOL    HW219170   3.771   5.929   5.001
 6091SOL     OW19171   0.917   2.591   2.807
 6091SOL    HW119172   0.985   2.641   2.862
 6091SOL    HW219173   0.873   2.522   2.864
 6092SOL     OW19174   1.956   6.913   0.984
 6092SOL    HW119175   1.930   6.871   1.072
 6092SOL    HW219176   1.992   7.005   1.001
 6093SOL     OW19177   3.096   2.851   1.542
 6093SOL    HW119178   3.083   2.940   1.586
 6093SOL    HW219179   3.020   2.791   1.565
 6094SOL     OW19180   1.169   0.115   5.632
 6094SOL    HW119181   1.166   0.212   5.654
 6094SOL    HW219182   1.256   0.077   5.664
 6095SOL     OW19183   5.444   5.135   2.179
 6095SOL    HW119184   5.517   5.089   2.129
 6095SOL    HW219185   5.419   5.220   2.132
 6096SOL     OW19186   4.911   5.999   2.236
 6096SOL    HW119187   4.836   5.943   2.200
 6096SOL    HW219188   4.957   5.949   2.309
 6097SOL     OW19189   2.591   5.147   2.223
 6097SOL    HW119190   2.553   5.081   2.289
 6097SOL    HW219191   2.516   5.201   2.184
 6098SOL     OW19192   5.763   1.083   5.346
 6098SOL    HW119193   5.819   1.109   5.267
 6098SOL    HW219194   5.766   1.156   5.414
 6099SOL     OW19195   3.843   6.859   5.387
 6099SOL    HW119196   3.787   6.935   5.422
 6099SOL    HW219197   3.804   6.772   5.417
 6100SOL     OW19198   0.158   6.100   5.379
 6100SOL    HW119199   0.238   6.146   5.419
 6100SOL    HW219200   0.091   6.168   5.351
 6101SOL     OW19201   0.661   2.818   1.523
 6101SOL    HW119202   0.743   2.867   1.551
 6101SOL    HW219203   0.645   2.742   1.586
 6102SOL     OW19204   3.219   0.175   2.742
 6102SOL    HW119205   3.170   0.254   2.780
 6102SOL    HW219206   3.177   0.091   2.775
 6103SOL     OW19207   5.359   0.931   2.362
 6103SOL    HW119208   5.367   1.030   2.369
 6103SOL    HW219209   5.273   0.901   2.404
 6104SOL     OW19210   6.606   0.480   4.921
 6104SOL    HW119211   6.520   0.452   4.963
 6104SOL    HW219212   6.606   0.579   4.906
 6105SOL     OW19213   3.953   4.574   5.525
 6105SOL    HW119214   4.017   4.556   5.600
 6105SOL    HW219215   3.995   4.549   5.438
 6106SOL     OW19216   6.499   3.803   4.715
 6106SOL    HW119217   6.402   3.797   4.738
 6106SOL    HW219218   6.528   3.720   4.669
 6107SOL     OW19219   5.696   4.643   4.882
 6107SOL    HW119220   5.658   4.593   4.804
 6107SOL    HW219221   5.747   4.580   4.941
 6108SOL     OW19222   3.137   1.086   6.142
 6108SOL    HW119223   3.202   1.026   6.096
 6108SOL    HW219224   3.119   1.166   6.085
 6109SOL     OW19225   0.130   6.483   3.975
 6109SOL    HW119226   0.045   6.520   3.938
 6109SOL    HW219227   0.176   6.429   3.904
 6110SOL     OW19228   1.261   1.707   3.804
 6110SOL    HW119229   1.343   1.721   3.859
 6110SOL    HW219230   1.258   1.613   3.772
 6111SOL     OW19231   2.480   3.074   0.749
 6111SOL    HW119232   2.469   3.142   0.677
 6111SOL    HW219233   2.574   3.074   0.782
 6112SOL     OW19234   4.509   6.518   3.609
 6112SOL    HW119235   4.512   6.465   3.524
 6112SOL    HW219236   4.515   6.615   3.588
 6113SOL     OW19237   3.021   5.534   0.952
 6113SOL    HW119238   3.030   5.625   0.911
 6113SOL    HW219239   3.111   5.502   0.981
 6114SOL     OW19240   4.733   3.409   1.736
 6114SOL    HW119241   4.704   3.373   1.647
 6114SOL    HW219242   4.652   3.437   1.788
 6115SOL     OW19243   6.685   0.628   5.222
 6115SOL    HW119244   6.783   0.609   5.221
 6115SOL    HW219245   6.669   0.725   5.203
 6116SOL     OW19246   6.347   3.371   0.018
 6116SOL    HW119247   6.400   3.343   0.098
 6116SOL    HW219248   6.258   3.406   0.047
 6117SOL     OW19249   2.223   2.498   1.357
 6117SOL    HW119250   2.169   2.414   1.346
 6117SOL    HW219251   2.306   2.492   1.302
 6118SOL     OW19252   5.853   0.936   1.864
 6118SOL    HW119253   5.946   0.962   1.838
 6118SOL    HW219254   5.828   0.851   1.818
 6119SOL     OW19255   0.273   1.138   6.386
 6119SOL    HW119256   0.314   1.211   6.441
 6119SOL    HW219257   0.342   1.069   6.366
 6120SOL     OW19258   2.968   0.624   3.760
 6120SOL    HW119259   3.010   0.612   3.670
 6120SOL    HW219260   3.034   0.666   3.822
 6121SOL     OW19261   2.297   1.589   4.993
 6121SOL    HW119262   2.280   1.646   4.912
 6121SOL    HW219263   2.340   1.503   4.965
 6122SOL     OW19264   4.892   4.678   4.892
 6122SOL    HW119265   4.973   4.727   4.860
 6122SOL    HW219266   4.855   4.724   4.972
 6123SOL     OW19267   6.607   1.142   5.062
 6123SOL    HW119268   6.581   1.217   5.122
 6123SOL    HW219269   6.703   1.150   5.037
 6124SOL     OW19270   2.489   6.442   4.270
 6124SOL    HW119271   2.400   6.398   4.259
 6124SOL    HW219272   2.525   6.423   4.361
 6125SOL     OW19273   3.646   1.348   5.316
 6125SOL    HW119274   3.668   1.270   5.257
 6125SOL    HW219275   3.637   1.316   5.411
 6126SOL     OW19276   6.099   3.001   6.672
 6126SOL    HW119277   6.099   2.904   6.697
 6126SOL    HW219278   6.144   3.012   6.583
 6127SOL     OW19279   6.051   1.980   2.613
 6127SOL    HW119280   6.053   2.045   2.537
 6127SOL    HW219281   6.015   2.026   2.694
 6128SOL     OW19282   5.973   5.818   5.698
 6128SOL    HW119283   5.936   5.760   5.771
 6128SOL    HW219284   6.028   5.891   5.737
 6129SOL     OW19285   2.479   5.633   2.968
 6129SOL    HW119286   2.563   5.585   2.992
 6129SOL    HW219287   2.402   5.591   3.015
 6130SOL     OW19288   5.890   3.255   0.362
 6130SOL    HW119289   5.881   3.216   0.270
 6130SOL    HW219290   5.960   3.205   0.413
 6131SOL     OW19291   6.350   2.579   2.944
 6131SOL    HW119292   6.270   2.611   2.894
 6131SOL    HW219293   6.321   2.530   3.026
 6132SOL     OW19294   4.473   6.337   6.084
 6132SOL    HW119295   4.425   6.341   6.171
 6132SOL    HW219296   4.503   6.244   6.066
 6133SOL     OW19297   0.569   2.292   3.240
 6133SOL    HW119298   0.506   2.365   3.268
 6133SOL    HW219299   0.603   2.312   3.149
 6134SOL     OW19300   0.012   6.528   5.515
 6134SOL    HW119301   0.033   6.431   5.529
 6134SOL    HW219302   6.995   6.541   5.424
 6135SOL     OW19303   6.102   6.469   0.396
 6135SOL    HW119304   6.173   6.480   0.465
 6135SOL    HW219305   6.080   6.372   0.386
 6136SOL     OW19306   1.121   1.950   3.484
 6136SOL    HW119307   1.128   1.949   3.584
 6136SOL    HW219308   1.155   2.038   3.450
 6137SOL     OW19309   6.669   5.074   0.904
 6137SOL    HW119310   6.647   5.077   0.806
 6137SOL    HW219311   6.682   4.978   0.932
 6138SOL     OW19312   5.425   0.673   2.059
 6138SOL    HW119313   5.346   0.695   2.115
 6138SOL    HW219314   5.426   0.731   1.977
 6139SOL     OW19315   1.651   2.178   4.943
 6139SOL    HW119316   1.649   2.192   4.844
 6139SOL    HW219317   1.745   2.193   4.976
 6140SOL     OW19318   2.209   0.304   3.257
 6140SOL    HW119319   2.241   0.327   3.349
 6140SOL    HW219320   2.235   0.209   3.236
 6141SOL     OW19321   0.823   0.721   0.176
 6141SOL    HW119322   0.846   0.625   0.159
 6141SOL    HW219323   0.724   0.730   0.184
 6142SOL     OW19324   0.147   0.496   1.455
 6142SOL    HW119325   0.153   0.412   1.401
 6142SOL    HW219326   0.060   0.541   1.437
 6143SOL     OW19327   0.777   3.418   5.362
 6143SOL    HW119328   0.839   3.444   5.437
 6143SOL    HW219329   0.761   3.497   5.303
 6144SOL     OW19330   3.260   5.393   2.769
 6144SOL    HW119331   3.228   5.380   2.676
 6144SOL    HW219332   3.360   5.396   2.770
 6145SOL     OW19333   4.940   3.328   4.044
 6145SOL    HW119334   4.920   3.233   4.018
 6145SOL    HW219335   5.022   3.359   3.997
 6146SOL     OW19336   5.906   0.378   5.353
 6146SOL    HW119337   6.002   0.377   5.382
 6146SOL    HW219338   5.848   0.398   5.432
 6147SOL     OW19339   1.256   1.954   5.744
 6147SOL    HW119340   1.348   1.973   5.708
 6147SOL    HW219341   1.190   2.012   5.697
 6148SOL     OW19342   3.800   4.880   0.222
 6148SOL    HW119343   3.876   4.887   0.157
 6148SOL    HW219344   3.830   4.832   0.304
 6149SOL     OW19345   3.558   1.770   1.218
 6149SOL    HW119346   3.602   1.856   1.195
 6149SOL    HW219347   3.523   1.726   1.135
 6150SOL     OW19348   0.323   4.798   4.472
 6150SOL    HW119349   0.310   4.777   4.375
 6150SOL    HW219350   0.299   4.893   4.489
 6151SOL     OW19351   3.676   5.244   2.966
 6151SOL    HW119352   3.652   5.150   2.989
 6151SOL    HW219353   3.664   5.302   3.047
 6152SOL     OW19354   0.830   3.471   2.954
 6152SOL    HW119355   0.786   3.438   3.037
 6152SOL    HW219356   0.911   3.524   2.978
 6153SOL     OW19357   4.784   6.278   1.207
 6153SOL    HW119358   4.684   6.279   1.216
 6153SOL    HW219359   4.826   6.301   1.295
 6154SOL     OW19360   4.721   4.327   2.548
 6154SOL    HW119361   4.810   4.357   2.584
 6154SOL    HW219362   4.736   4.261   2.474
 6155SOL     OW19363   1.863   1.226   3.857
 6155SOL    HW119364   1.912   1.194   3.938
 6155SOL    HW219365   1.852   1.151   3.792
 6156SOL     OW19366   4.764   4.083   1.948
 6156SOL    HW119367   4.819   4.116   2.025
 6156SOL    HW219368   4.669   4.110   1.961
 6157SOL     OW19369   0.696   3.133   1.210
 6157SOL    HW119370   0.682   3.190   1.292
 6157SOL    HW219371   0.790   3.099   1.209
 6158SOL     OW19372   2.911   1.099   5.855
 6158SOL    HW119373   2.987   1.148   5.898
 6158SOL    HW219374   2.838   1.163   5.833
 6159SOL     OW19375   5.890   2.631   0.267
 6159SOL    HW119376   5.903   2.554   0.205
 6159SOL    HW219377   5.977   2.678   0.281
 6160SOL     OW19378   0.638   6.885   1.145
 6160SOL    HW119379   0.649   6.847   1.052
 6160SOL    HW219380   0.655   6.984   1.142
 6161SOL     OW19381   4.974   4.156   6.693
 6161SOL    HW119382   4.910   4.147   6.617
 6161SOL    HW219383   5.052   4.211   6.664
 6162SOL     OW19384   6.404   5.762   1.194
 6162SOL    HW119385   6.340   5.822   1.147
 6162SOL    HW219386   6.360   5.674   1.211
 6163SOL     OW19387   6.346   6.055   3.282
 6163SOL    HW119388   6.325   6.153   3.283
 6163SOL    HW219389   6.434   6.040   3.327
 6164SOL     OW19390   3.366   3.879   4.237
 6164SOL    HW119391   3.421   3.800   4.213
 6164SOL    HW219392   3.283   3.881   4.181
 6165SOL     OW19393   3.841   1.113   6.779
 6165SOL    HW119394   3.822   1.018   6.805
 6165SOL    HW219395   3.766   1.171   6.810
 6166SOL     OW19396   3.153   1.595   5.784
 6166SOL    HW119397   3.218   1.622   5.713
 6166SOL    HW219398   3.197   1.601   5.873
 6167SOL     OW19399   1.461   3.499   3.154
 6167SOL    HW119400   1.366   3.467   3.146
 6167SOL    HW219401   1.465   3.596   3.129
 6168SOL     OW19402   0.317   3.617   4.473
 6168SOL    HW119403   0.391   3.568   4.520
 6168SOL    HW219404   0.348   3.710   4.450
 6169SOL     OW19405   2.772   0.593   0.131
 6169SOL    HW119406   2.807   0.504   0.161
 6169SOL    HW219407   2.847   0.660   0.131
 6170SOL     OW19408   2.994   4.571   1.124
 6170SOL    HW119409   3.034   4.652   1.165
 6170SOL    HW219410   2.953   4.594   1.036
 6171SOL     OW19411   2.347   4.349   1.771
 6171SOL    HW119412   2.272   4.414   1.765
 6171SOL    HW219413   2.372   4.319   1.678
 6172SOL     OW19414   2.888   5.389   1.724
 6172SOL    HW119415   2.872   5.399   1.822
 6172SOL    HW219416   2.800   5.384   1.676
 6173SOL     OW19417   1.406   5.560   2.251
 6173SOL    HW119418   1.425   5.646   2.204
 6173SOL    HW219419   1.391   5.577   2.349
 6174SOL     OW19420   5.649   4.320   1.314
 6174SOL    HW119421   5.579   4.364   1.258
 6174SOL    HW219422   5.645   4.221   1.301
 6175SOL     OW19423   5.028   0.189   4.005
 6175SOL    HW119424   5.068   0.103   4.039
 6175SOL    HW219425   4.974   0.232   4.077
 6176SOL     OW19426   4.912   3.194   0.075
 6176SOL    HW119427   4.982   3.212   0.006
 6176SOL    HW219428   4.887   3.280   0.120
 6177SOL     OW19429   6.546   3.154   2.566
 6177SOL    HW119430   6.479   3.091   2.606
 6177SOL    HW219431   6.633   3.105   2.552
 6178SOL     OW19432   5.604   3.411   1.288
 6178SOL    HW119433   5.699   3.438   1.307
 6178SOL    HW219434   5.600   3.312   1.275
 6179SOL     OW19435   0.443   1.802   5.172
 6179SOL    HW119436   0.526   1.783   5.120
 6179SOL    HW219437   0.461   1.791   5.269
 6180SOL     OW19438   3.443   0.269   5.889
 6180SOL    HW119439   3.462   0.324   5.971
 6180SOL    HW219440   3.445   0.172   5.912
 6181SOL     OW19441   4.376   5.999   6.822
 6181SOL    HW119442   4.296   5.985   6.764
 6181SOL    HW219443   4.443   5.928   6.805
 6182SOL     OW19444   4.923   7.021   5.766
 6182SOL    HW119445   4.872   0.029   5.685
 6182SOL    HW219446   4.908   0.064   5.840
 6183SOL     OW19447   3.683   0.383   2.407
 6183SOL    HW119448   3.684   0.356   2.504
 6183SOL    HW219449   3.754   0.332   2.358
 6184SOL     OW19450   5.959   0.013   6.361
 6184SOL    HW119451   5.954   6.986   6.274
 6184SOL    HW219452   5.955   0.112   6.344
 6185SOL     OW19453   1.702   2.958   6.560
 6185SOL    HW119454   1.680   2.864   6.533
 6185SOL    HW219455   1.747   2.957   6.649
 6186SOL     OW19456   5.065   0.629   4.320
 6186SOL    HW119457   5.113   0.563   4.263
 6186SOL    HW219458   5.120   0.650   4.400
 6187SOL     OW19459   3.008   5.138   5.111
 6187SOL    HW119460   3.055   5.225   5.096
 6187SOL    HW219461   2.963   5.110   5.026
 6188SOL     OW19462   2.969   6.939   1.336
 6188SOL    HW119463   2.919   0.004   1.330
 6188SOL    HW219464   2.997   6.911   1.244
 6189SOL     OW19465   4.976   4.793   3.081
 6189SOL    HW119466   4.983   4.862   3.153
 6189SOL    HW219467   4.901   4.730   3.103
 6190SOL     OW19468   4.715   2.634   5.824
 6190SOL    HW119469   4.730   2.541   5.859
 6190SOL    HW219470   4.746   2.639   5.729
 6191SOL     OW19471   6.496   1.747   6.583
 6191SOL    HW119472   6.406   1.725   6.546
 6191SOL    HW219473   6.513   1.694   6.665
 6192SOL     OW19474   3.064   2.347   0.816
 6192SOL    HW119475   3.156   2.329   0.849
 6192SOL    HW219476   3.017   2.260   0.801
 6193SOL     OW19477   6.185   0.044   1.520
 6193SOL    HW119478   6.257   0.063   1.453
 6193SOL    HW219479   6.143   0.129   1.549
 6194SOL     OW19480   2.288   0.706   0.477
 6194SOL    HW119481   2.300   0.717   0.379
 6194SOL    HW219482   2.197   0.736   0.503
 6195SOL     OW19483   2.373   6.740   5.512
 6195SOL    HW119484   2.328   6.651   5.499
 6195SOL    HW219485   2.330   6.788   5.587
 6196SOL     OW19486   0.603   1.553   5.727
 6196SOL    HW119487   0.527   1.611   5.699
 6196SOL    HW219488   0.580   1.457   5.710
 6197SOL     OW19489   2.491   2.917   1.081
 6197SOL    HW119490   2.407   2.876   1.114
 6197SOL    HW219491   2.566   2.851   1.088
 6198SOL     OW19492   3.547   5.229   2.529
 6198SOL    HW119493   3.535   5.288   2.608
 6198SOL    HW219494   3.523   5.135   2.553
 6199SOL     OW19495   0.821   0.736   6.257
 6199SOL    HW119496   0.722   0.736   6.241
 6199SOL    HW219497   0.839   0.752   6.354
 6200SOL     OW19498   3.964   0.752   5.932
 6200SOL    HW119499   3.961   0.660   5.973
 6200SOL    HW219500   3.948   0.745   5.834
 6201SOL     OW19501   2.095   4.592   3.961
 6201SOL    HW119502   2.015   4.633   4.007
 6201SOL    HW219503   2.172   4.655   3.966
 6202SOL     OW19504   2.641   2.427   1.650
 6202SOL    HW119505   2.550   2.436   1.690
 6202SOL    HW219506   2.683   2.517   1.641
 6203SOL     OW19507   5.512   2.043   4.874
 6203SOL    HW119508   5.561   2.035   4.788
 6203SOL    HW219509   5.567   2.003   4.948
 6204SOL     OW19510   1.498   6.719   6.079
 6204SOL    HW119511   1.585   6.726   6.128
 6204SOL    HW219512   1.482   6.804   6.028
 6205SOL     OW19513   5.334   5.980   6.822
 6205SOL    HW119514   5.268   6.040   6.866
 6205SOL    HW219515   5.414   6.034   6.793
 6206SOL     OW19516   5.465   6.760   3.537
 6206SOL    HW119517   5.422   6.815   3.465
 6206SOL    HW219518   5.409   6.679   3.554
 6207SOL     OW19519   2.156   4.158   4.358
 6207SOL    HW119520   2.227   4.227   4.371
 6207SOL    HW219521   2.140   4.110   4.444
 6208SOL     OW19522   5.756   5.651   5.264
 6208SOL    HW119523   5.758   5.624   5.167
 6208SOL    HW219524   5.793   5.577   5.319
 6209SOL     OW19525   2.783   4.813   0.921
 6209SOL    HW119526   2.718   4.855   0.857
 6209SOL    HW219527   2.733   4.764   0.992
 6210SOL     OW19528   6.738   5.060   2.852
 6210SOL    HW119529   6.660   5.005   2.884
 6210SOL    HW219530   6.706   5.153   2.831
 6211SOL     OW19531   2.465   0.659   5.061
 6211SOL    HW119532   2.400   0.652   5.137
 6211SOL    HW219533   2.441   0.737   5.004
 6212SOL     OW19534   6.795   0.362   3.475
 6212SOL    HW119535   6.798   0.265   3.500
 6212SOL    HW219536   6.700   0.390   3.459
 6213SOL     OW19537   6.659   0.373   0.341
 6213SOL    HW119538   6.700   0.316   0.270
 6213SOL    HW219539   6.662   0.469   0.312
 6214SOL     OW19540   5.494   4.800   2.065
 6214SOL    HW119541   5.509   4.735   2.139
 6214SOL    HW219542   5.560   4.875   2.071
 6215SOL     OW19543   2.568   4.803   1.385
 6215SOL    HW119544   2.603   4.896   1.385
 6215SOL    HW219545   2.540   4.777   1.478
 6216SOL     OW19546   6.487   2.150   2.372
 6216SOL    HW119547   6.429   2.158   2.291
 6216SOL    HW219548   6.483   2.236   2.423
 6217SOL     OW19549   5.150   1.888   1.299
 6217SOL    HW119550   5.082   1.900   1.371
 6217SOL    HW219551   5.111   1.917   1.212
 6218SOL     OW19552   4.158   4.895   3.854
 6218SOL    HW119553   4.171   4.948   3.937
 6218SOL    HW219554   4.220   4.817   3.854
 6219SOL     OW19555   6.854   1.201   4.571
 6219SOL    HW119556   6.859   1.298   4.549
 6219SOL    HW219557   6.889   1.147   4.494
 6220SOL     OW19558   1.785   3.603   5.461
 6220SOL    HW119559   1.695   3.625   5.500
 6220SOL    HW219560   1.774   3.534   5.389
 6221SOL     OW19561   4.386   5.002   4.497
 6221SOL    HW119562   4.347   5.074   4.554
 6221SOL    HW219563   4.445   5.042   4.427
 6222SOL     OW19564   0.324   1.596   1.427
 6222SOL    HW119565   0.351   1.563   1.336
 6222SOL    HW219566   0.226   1.618   1.426
 6223SOL     OW19567   4.871   4.204   4.515
 6223SOL    HW119568   4.784   4.253   4.507
 6223SOL    HW219569   4.861   4.127   4.578
 6224SOL     OW19570   2.635   0.288   4.527
 6224SOL    HW119571   2.701   0.300   4.601
 6224SOL    HW219572   2.555   0.346   4.544
 6225SOL     OW19573   3.835   2.107   6.830
 6225SOL    HW119574   3.827   2.193   6.879
 6225SOL    HW219575   3.850   2.124   6.733
 6226SOL     OW19576   6.977   6.537   4.459
 6226SOL    HW119577   7.021   6.626   4.474
 6226SOL    HW219578   6.927   6.538   4.372
 6227SOL     OW19579   2.996   4.170   0.060
 6227SOL    HW119580   2.952   4.128   7.003
 6227SOL    HW219581   3.085   4.127   0.076
 6228SOL     OW19582   6.686   2.133   2.706
 6228SOL    HW119583   6.720   2.090   2.622
 6228SOL    HW219584   6.650   2.062   2.767
 6229SOL     OW19585   1.807   2.386   1.999
 6229SOL    HW119586   1.732   2.357   2.057
 6229SOL    HW219587   1.772   2.411   1.908
 6230SOL     OW19588   2.149   2.007   4.030
 6230SOL    HW119589   2.150   1.912   4.062
 6230SOL    HW219590   2.059   2.028   3.993
 6231SOL     OW19591   6.856   5.503   1.384
 6231SOL    HW119592   6.757   5.495   1.379
 6231SOL    HW219593   6.888   5.465   1.471
 6232SOL     OW19594   1.140   1.369   0.099
 6232SOL    HW119595   1.049   1.333   0.081
 6232SOL    HW219596   1.139   1.469   0.089
 6233SOL     OW19597   4.447   1.235   6.526
 6233SOL    HW119598   4.464   1.137   6.516
 6233SOL    HW219599   4.380   1.250   6.599
 6234SOL     OW19600   1.875   2.519   3.609
 6234SOL    HW119601   1.938   2.588   3.644
 6234SOL    HW219602   1.781   2.544   3.634
 6235SOL     OW19603   1.951   5.887   2.474
 6235SOL    HW119604   1.948   5.971   2.420
 6235SOL    HW219605   1.965   5.910   2.570
 6236SOL     OW19606   6.652   4.131   0.098
 6236SOL    HW119607   6.746   4.139   0.064
 6236SOL    HW219608   6.611   4.222   0.104
 6237SOL     OW19609   4.100   5.993   6.659
 6237SOL    HW119610   4.051   6.039   6.585
 6237SOL    HW219611   4.047   5.997   6.743
 6238SOL     OW19612   5.390   3.801   0.664
 6238SOL    HW119613   5.373   3.812   0.761
 6238SOL    HW219614   5.406   3.890   0.622
 6239SOL     OW19615   2.342   6.984   3.358
 6239SOL    HW119616   2.310   6.894   3.328
 6239SOL    HW219617   2.274   0.003   3.419
 6240SOL     OW19618   1.817   3.449   0.118
 6240SOL    HW119619   1.831   3.396   0.202
 6240SOL    HW219620   1.750   3.521   0.134
 6241SOL     OW19621   5.115   0.032   1.718
 6241SOL    HW119622   5.143   0.021   1.623
 6241SOL    HW219623   5.049   6.982   1.742
 6242SOL     OW19624   4.103   2.165   3.329
 6242SOL    HW119625   4.038   2.198   3.398
 6242SOL    HW219626   4.099   2.066   3.325
 6243SOL     OW19627   5.785   5.419   2.841
 6243SOL    HW119628   5.775   5.345   2.908
 6243SOL    HW219629   5.880   5.426   2.813
 6244SOL     OW19630   1.955   1.795   2.571
 6244SOL    HW119631   2.021   1.724   2.546
 6244SOL    HW219632   2.003   1.877   2.599
 6245SOL     OW19633   2.360   3.785   0.754
 6245SOL    HW119634   2.261   3.794   0.766
 6245SOL    HW219635   2.380   3.758   0.660
 6246SOL     OW19636   4.420   0.191   0.130
 6246SOL    HW119637   4.420   0.180   0.229
 6246SOL    HW219638   4.362   0.269   0.105
 6247SOL     OW19639   6.829   6.413   3.072
 6247SOL    HW119640   6.876   6.496   3.101
 6247SOL    HW219641   6.880   6.333   3.103
 6248SOL     OW19642   1.161   5.880   1.091
 6248SOL    HW119643   1.242   5.822   1.080
 6248SOL    HW219644   1.079   5.826   1.069
 6249SOL     OW19645   6.337   3.753   6.569
 6249SOL    HW119646   6.405   3.698   6.618
 6249SOL    HW219647   6.278   3.693   6.514
 6250SOL     OW19648   6.144   4.762   5.589
 6250SOL    HW119649   6.229   4.797   5.549
 6250SOL    HW219650   6.147   4.662   5.593
 6251SOL     OW19651   4.648   1.609   1.029
 6251SOL    HW119652   4.645   1.707   1.008
 6251SOL    HW219653   4.557   1.579   1.058
 6252SOL     OW19654   2.086   6.276   5.231
 6252SOL    HW119655   1.995   6.300   5.196
 6252SOL    HW219656   2.087   6.178   5.254
 6253SOL     OW19657   2.918   4.116   1.554
 6253SOL    HW119658   2.973   4.190   1.592
 6253SOL    HW219659   2.978   4.045   1.518
 6254SOL     OW19660   5.364   0.294   0.137
 6254SOL    HW119661   5.314   0.221   0.091
 6254SOL    HW219662   5.306   0.334   0.208
 6255SOL     OW19663   6.752   2.824   3.222
 6255SOL    HW119664   6.683   2.802   3.291
 6255SOL    HW219665   6.789   2.915   3.239
 6256SOL     OW19666   3.822   5.320   3.939
 6256SOL    HW119667   3.863   5.336   4.029
 6256SOL    HW219668   3.869   5.243   3.895
 6257SOL     OW19669   4.457   3.089   0.017
 6257SOL    HW119670   4.429   3.023   6.969
 6257SOL    HW219671   4.543   3.059   0.059
 6258SOL     OW19672   4.353   2.384   2.838
 6258SOL    HW119673   4.336   2.370   2.936
 6258SOL    HW219674   4.451   2.391   2.822
 6259SOL     OW19675   3.016   2.052   1.564
 6259SOL    HW119676   3.112   2.053   1.533
 6259SOL    HW219677   3.002   2.128   1.628
 6260SOL     OW19678   3.376   4.190   1.200
 6260SOL    HW119679   3.384   4.108   1.143
 6260SOL    HW219680   3.320   4.258   1.154
 6261SOL     OW19681   4.538   7.003   6.797
 6261SOL    HW119682   4.573   6.951   6.875
 6261SOL    HW219683   4.614   0.029   6.753
 6262SOL     OW19684   0.584   6.018   5.390
 6262SOL    HW119685   0.649   5.975   5.452
 6262SOL    HW219686   0.631   6.086   5.333
 6263SOL     OW19687   6.167   1.162   1.193
 6263SOL    HW119688   6.093   1.136   1.255
 6263SOL    HW219689   6.253   1.170   1.245
 6264SOL     OW19690   2.212   1.767   0.517
 6264SOL    HW119691   2.119   1.736   0.496
 6264SOL    HW219692   2.278   1.704   0.477
 6265SOL     OW19693   5.706   3.642   0.522
 6265SOL    HW119694   5.700   3.664   0.620
 6265SOL    HW219695   5.739   3.721   0.472
 6266SOL     OW19696   2.760   0.384   2.294
 6266SOL    HW119697   2.795   0.303   2.247
 6266SOL    HW219698   2.708   0.440   2.230
 6267SOL     OW19699   2.634   0.289   0.038
 6267SOL    HW119700   2.545   0.329   0.061
 6267SOL    HW219701   2.623   0.221   6.988
 6268SOL     OW19702   2.475   5.889   3.064
 6268SOL    HW119703   2.457   5.794   3.038
 6268SOL    HW219704   2.574   5.903   3.070
 6269SOL     OW19705   5.827   4.430   0.158
 6269SOL    HW119706   5.786   4.413   0.248
 6269SOL    HW219707   5.895   4.360   0.139
 6270SOL     OW19708   0.749   1.002   3.943
 6270SOL    HW119709   0.727   1.083   3.997
 6270SOL    HW219710   0.719   0.920   3.990
 6271SOL     OW19711   6.385   1.647   1.101
 6271SOL    HW119712   6.365   1.679   1.194
 6271SOL    HW219713   6.394   1.548   1.101
 6272SOL     OW19714   1.708   2.234   3.621
 6272SOL    HW119715   1.737   2.330   3.621
 6272SOL    HW219716   1.781   2.177   3.583
 6273SOL     OW19717   4.500   0.636   2.383
 6273SOL    HW119718   4.586   0.680   2.408
 6273SOL    HW219719   4.427   0.669   2.443
 6274SOL     OW19720   2.655   6.502   6.639
 6274SOL    HW119721   2.597   6.426   6.670
 6274SOL    HW219722   2.700   6.545   6.717
 6275SOL     OW19723   3.154   0.786   4.396
 6275SOL    HW119724   3.096   0.843   4.338
 6275SOL    HW219725   3.126   0.690   4.386
 6276SOL     OW19726   1.374   5.519   3.869
 6276SOL    HW119727   1.381   5.467   3.954
 6276SOL    HW219728   1.321   5.602   3.885
 6277SOL     OW19729   5.632   3.343   3.864
 6277SOL    HW119730   5.725   3.337   3.827
 6277SOL    HW219731   5.636   3.342   3.964
 6278SOL     OW19732   4.439   0.366   3.722
 6278SOL    HW119733   4.444   0.371   3.822
 6278SOL    HW219734   4.514   0.309   3.688
 6279SOL     OW19735   4.704   1.993   6.852
 6279SOL    HW119736   4.773   2.062   6.829
 6279SOL    HW219737   4.630   2.036   6.903
 6280SOL     OW19738   1.207   5.402   5.964
 6280SOL    HW119739   1.126   5.349   5.940
 6280SOL    HW219740   1.216   5.408   6.063
 6281SOL     OW19741   3.225   6.692   4.589
 6281SOL    HW119742   3.258   6.609   4.544
 6281SOL    HW219743   3.232   6.769   4.525
 6282SOL     OW19744   0.561   0.029   3.969
 6282SOL    HW119745   0.657   0.006   3.953
 6282SOL    HW219746   0.543   0.121   3.934
 6283SOL     OW19747   1.320   3.270   5.138
 6283SOL    HW119748   1.238   3.304   5.185
 6283SOL    HW219749   1.369   3.207   5.198
 6284SOL     OW19750   2.753   4.626   6.382
 6284SOL    HW119751   2.686   4.634   6.307
 6284SOL    HW219752   2.704   4.628   6.469
 6285SOL     OW19753   1.667   4.763   2.834
 6285SOL    HW119754   1.646   4.846   2.886
 6285SOL    HW219755   1.677   4.686   2.897
 6286SOL     OW19756   6.238   6.080   4.671
 6286SOL    HW119757   6.216   6.088   4.768
 6286SOL    HW219758   6.225   5.985   4.641
 6287SOL     OW19759   3.466   4.946   2.649
 6287SOL    HW119760   3.390   4.930   2.712
 6287SOL    HW219761   3.550   4.908   2.688
 6288SOL     OW19762   5.614   3.105   0.977
 6288SOL    HW119763   5.541   3.055   0.932
 6288SOL    HW219764   5.670   3.151   0.908
 6289SOL     OW19765   1.060   6.633   2.619
 6289SOL    HW119766   1.129   6.705   2.623
 6289SOL    HW219767   1.004   6.645   2.537
 6290SOL     OW19768   6.097   3.986   3.394
 6290SOL    HW119769   6.108   3.903   3.339
 6290SOL    HW219770   6.052   4.056   3.339
 6291SOL     OW19771   3.821   3.878   3.194
 6291SOL    HW119772   3.902   3.853   3.247
 6291SOL    HW219773   3.846   3.889   3.098
 6292SOL     OW19774   0.085   1.302   2.231
 6292SOL    HW119775   0.009   1.366   2.217
 6292SOL    HW219776   0.151   1.312   2.156
 6293SOL     OW19777   5.680   5.267   7.003
 6293SOL    HW119778   5.601   5.274   0.042
 6293SOL    HW219779   5.735   5.188   0.007
 6294SOL     OW19780   3.816   5.756   2.031
 6294SOL    HW119781   3.854   5.831   1.978
 6294SOL    HW219782   3.736   5.788   2.081
 6295SOL     OW19783   6.975   5.978   6.009
 6295SOL    HW119784   6.968   5.894   5.955
 6295SOL    HW219785   6.951   5.959   6.104
 6296SOL     OW19786   6.697   1.056   3.096
 6296SOL    HW119787   6.719   1.087   3.004
 6296SOL    HW219788   6.761   1.096   3.161
 6297SOL     OW19789   5.514   0.902   5.939
 6297SOL    HW119790   5.496   0.928   5.843
 6297SOL    HW219791   5.604   0.860   5.945
 6298SOL     OW19792   6.498   1.903   4.039
 6298SOL    HW119793   6.407   1.944   4.048
 6298SOL    HW219794   6.512   1.837   4.112
 6299SOL     OW19795   6.731   3.134   0.727
 6299SOL    HW119796   6.789   3.209   0.695
 6299SOL    HW219797   6.777   3.046   0.710
 6300SOL     OW19798   5.414   1.465   3.285
 6300SOL    HW119799   5.440   1.561   3.278
 6300SOL    HW219800   5.315   1.457   3.291
 6301SOL     OW19801   3.519   0.681   0.779
 6301SOL    HW119802   3.597   0.633   0.818
 6301SOL    HW219803   3.479   0.626   0.706
 6302SOL     OW19804   6.609   0.759   2.460
 6302SOL    HW119805   6.632   0.809   2.543
 6302SOL    HW219806   6.514   0.728   2.464
 6303SOL     OW19807   2.220   6.039   4.932
 6303SOL    HW119808   2.273   5.957   4.910
 6303SOL    HW219809   2.157   6.019   5.007
 6304SOL     OW19810   3.972   0.942   4.605
 6304SOL    HW119811   3.997   1.034   4.576
 6304SOL    HW219812   3.924   0.946   4.693
 6305SOL     OW19813   5.548   0.775   2.441
 6305SOL    HW119814   5.464   0.819   2.409
 6305SOL    HW219815   5.540   0.753   2.538
 6306SOL     OW19816   5.820   2.648   4.224
 6306SOL    HW119817   5.820   2.619   4.128
 6306SOL    HW219818   5.908   2.689   4.246
 6307SOL     OW19819   2.103   4.684   0.444
 6307SOL    HW119820   2.034   4.620   0.478
 6307SOL    HW219821   2.186   4.675   0.499
 6308SOL     OW19822   4.146   2.579   6.221
 6308SOL    HW119823   4.067   2.532   6.182
 6308SOL    HW219824   4.120   2.623   6.307
 6309SOL     OW19825   5.898   2.280   5.180
 6309SOL    HW119826   5.873   2.377   5.179
 6309SOL    HW219827   5.880   2.239   5.091
 6310SOL     OW19828   0.139   5.378   4.606
 6310SOL    HW119829   0.227   5.392   4.562
 6310SOL    HW219830   0.065   5.396   4.541
 6311SOL     OW19831   6.238   6.817   4.586
 6311SOL    HW119832   6.326   6.777   4.562
 6311SOL    HW219833   6.252   6.907   4.628
 6312SOL     OW19834   5.367   4.097   5.542
 6312SOL    HW119835   5.301   4.159   5.585
 6312SOL    HW219836   5.445   4.149   5.508
 6313SOL     OW19837   2.606   5.104   3.994
 6313SOL    HW119838   2.633   5.161   3.917
 6313SOL    HW219839   2.656   5.131   4.075
 6314SOL     OW19840   1.503   0.503   3.568
 6314SOL    HW119841   1.535   0.598   3.573
 6314SOL    HW219842   1.447   0.491   3.486
 6315SOL     OW19843   1.880   4.160   0.389
 6315SOL    HW119844   1.969   4.205   0.386
 6315SOL    HW219845   1.889   4.073   0.438
 6316SOL     OW19846   4.440   0.851   5.456
 6316SOL    HW119847   4.468   0.792   5.380
 6316SOL    HW219848   4.341   0.844   5.469
 6317SOL     OW19849   5.988   5.049   4.797
 6317SOL    HW119850   6.079   5.048   4.839
 6317SOL    HW219851   5.924   5.098   4.855
 6318SOL     OW19852   1.855   1.918   4.314
 6318SOL    HW119853   1.792   1.968   4.372
 6318SOL    HW219854   1.928   1.878   4.370
 6319SOL     OW19855   0.900   2.120   2.872
 6319SOL    HW119856   0.939   2.068   2.949
 6319SOL    HW219857   0.913   2.069   2.787
 6320SOL     OW19858   0.378   2.361   2.675
 6320SOL    HW119859   0.401   2.440   2.617
 6320SOL    HW219860   0.462   2.322   2.712
 6321SOL     OW19861   2.569   3.697   5.915
 6321SOL    HW119862   2.577   3.616   5.857
 6321SOL    HW219863   2.659   3.736   5.931
 6322SOL     OW19864   2.530   0.618   0.270
 6322SOL    HW119865   2.614   0.604   0.217
 6322SOL    HW219866   2.481   0.696   0.234
 6323SOL     OW19867   4.031   1.621   1.437
 6323SOL    HW119868   4.123   1.643   1.404
 6323SOL    HW219869   3.964   1.671   1.383
 6324SOL     OW19870   3.467   1.684   6.609
 6324SOL    HW119871   3.524   1.726   6.680
 6324SOL    HW219872   3.505   1.707   6.519
 6325SOL     OW19873   1.481   2.965   2.550
 6325SOL    HW119874   1.549   2.893   2.567
 6325SOL    HW219875   1.525   3.040   2.500
 6326SOL     OW19876   4.441   6.605   1.357
 6326SOL    HW119877   4.411   6.509   1.359
 6326SOL    HW219878   4.364   6.664   1.381
 6327SOL     OW19879   3.685   5.637   5.679
 6327SOL    HW119880   3.748   5.656   5.603
 6327SOL    HW219881   3.730   5.659   5.765
 6328SOL     OW19882   2.481   4.772   6.903
 6328SOL    HW119883   2.563   4.766   6.846
 6328SOL    HW219884   2.434   4.858   6.884
 6329SOL     OW19885   0.498   1.745   2.980
 6329SOL    HW119886   0.557   1.809   3.029
 6329SOL    HW219887   0.403   1.773   2.992
 6330SOL     OW19888   3.867   0.447   0.274
 6330SOL    HW119889   3.791   0.499   0.235
 6330SOL    HW219890   3.832   0.376   0.335
 6331SOL     OW19891   4.933   3.260   1.875
 6331SOL    HW119892   4.858   3.283   1.813
 6331SOL    HW219893   4.918   3.169   1.914
 6332SOL     OW19894   5.246   6.250   2.212
 6332SOL    HW119895   5.197   6.163   2.205
 6332SOL    HW219896   5.223   6.306   2.132
 6333SOL     OW19897   2.219   5.001   3.449
 6333SOL    HW119898   2.262   5.025   3.362
 6333SOL    HW219899   2.126   4.968   3.432
 6334SOL     OW19900   2.788   1.769   2.801
 6334SOL    HW119901   2.711   1.756   2.738
 6334SOL    HW219902   2.775   1.711   2.881
 6335SOL     OW19903   6.913   1.464   0.268
 6335SOL    HW119904   6.966   1.548   0.252
 6335SOL    HW219905   6.952   1.390   0.214
 6336SOL     OW19906   1.056   3.449   4.990
 6336SOL    HW119907   0.989   3.377   4.970
 6336SOL    HW219908   1.070   3.455   5.089
 6337SOL     OW19909   0.240   4.900   4.840
 6337SOL    HW119910   0.166   4.834   4.837
 6337SOL    HW219911   0.216   4.974   4.903
 6338SOL     OW19912   3.584   1.312   4.517
 6338SOL    HW119913   3.640   1.318   4.600
 6338SOL    HW219914   3.546   1.403   4.496
 6339SOL     OW19915   0.293   2.596   4.775
 6339SOL    HW119916   0.338   2.533   4.712
 6339SOL    HW219917   0.225   2.650   4.726
 6340SOL     OW19918   2.662   5.877   4.387
 6340SOL    HW119919   2.698   5.846   4.300
 6340SOL    HW219920   2.630   5.798   4.440
 6341SOL     OW19921   6.435   5.479   2.529
 6341SOL    HW119922   6.365   5.548   2.511
 6341SOL    HW219923   6.519   5.524   2.559
 6342SOL     OW19924   1.339   3.743   0.475
 6342SOL    HW119925   1.379   3.759   0.565
 6342SOL    HW219926   1.242   3.767   0.477
 6343SOL     OW19927   4.650   1.323   0.358
 6343SOL    HW119928   4.553   1.332   0.381
 6343SOL    HW219929   4.690   1.247   0.410
 6344SOL     OW19930   6.380   4.756   4.543
 6344SOL    HW119931   6.313   4.748   4.617
 6344SOL    HW219932   6.471   4.770   4.582
 6345SOL     OW19933   1.996   2.370   1.780
 6345SOL    HW119934   1.990   2.384   1.879
 6345SOL    HW219935   2.078   2.415   1.745
 6346SOL     OW19936   0.505   5.210   4.295
 6346SOL    HW119937   0.447   5.156   4.235
 6346SOL    HW219938   0.560   5.273   4.240
 6347SOL     OW19939   3.244   0.270   0.662
 6347SOL    HW119940   3.261   0.172   0.656
 6347SOL    HW219941   3.244   0.298   0.758
 6348SOL     OW19942   0.467   2.388   3.967
 6348SOL    HW119943   0.509   2.402   4.057
 6348SOL    HW219944   0.529   2.422   3.896
 6349SOL     OW19945   1.158   0.931   0.622
 6349SOL    HW119946   1.088   0.869   0.586
 6349SOL    HW219947   1.238   0.928   0.561
 6350SOL     OW19948   0.131   5.697   3.213
 6350SOL    HW119949   0.082   5.699   3.126
 6350SOL    HW219950   0.128   5.604   3.251
 6351SOL     OW19951   6.930   2.113   2.849
 6351SOL    HW119952   6.853   2.141   2.791
 6351SOL    HW219953   7.010   2.094   2.792
 6352SOL     OW19954   0.272   4.726   2.449
 6352SOL    HW119955   0.181   4.722   2.491
 6352SOL    HW219956   0.278   4.807   2.391
 6353SOL     OW19957   0.535   6.188   1.771
 6353SOL    HW119958   0.598   6.201   1.694
 6353SOL    HW219959   0.514   6.276   1.812
 6354SOL     OW19960   0.215   6.818   4.333
 6354SOL    HW119961   0.135   6.851   4.384
 6354SOL    HW219962   0.188   6.793   4.241
 6355SOL     OW19963   1.605   2.478   1.834
 6355SOL    HW119964   1.540   2.554   1.843
 6355SOL    HW219965   1.556   2.391   1.841
 6356SOL     OW19966   3.607   3.525   1.208
 6356SOL    HW119967   3.656   3.545   1.293
 6356SOL    HW219968   3.671   3.520   1.132
 6357SOL     OW19969   5.764   2.057   1.277
 6357SOL    HW119970   5.834   2.102   1.222
 6357SOL    HW219971   5.707   1.999   1.218
 6358SOL     OW19972   1.239   2.930   5.055
 6358SOL    HW119973   1.163   2.896   5.000
 6358SOL    HW219974   1.238   2.886   5.145
 6359SOL     OW19975   6.819   1.321   6.560
 6359SOL    HW119976   6.845   1.331   6.656
 6359SOL    HW219977   6.832   1.408   6.512
 6360SOL     OW19978   2.302   5.594   4.160
 6360SOL    HW119979   2.322   5.504   4.199
 6360SOL    HW219980   2.212   5.593   4.117
 6361SOL     OW19981   3.100   6.754   5.806
 6361SOL    HW119982   3.008   6.792   5.815
 6361SOL    HW219983   3.116   6.686   5.878
 6362SOL     OW19984   6.396   5.046   6.076
 6362SOL    HW119985   6.385   5.138   6.114
 6362SOL    HW219986   6.331   4.984   6.120
 6363SOL     OW19987   0.685   5.371   4.138
 6363SOL    HW119988   0.779   5.351   4.111
 6363SOL    HW219989   0.627   5.377   4.057
 6364SOL     OW19990   2.334   2.413   6.626
 6364SOL    HW119991   2.335   2.438   6.723
 6364SOL    HW219992   2.392   2.477   6.575
 6365SOL     OW19993   4.078   5.452   2.253
 6365SOL    HW119994   4.170   5.471   2.219
 6365SOL    HW219995   4.076   5.363   2.299
 6366SOL     OW19996   0.831   4.421   5.589
 6366SOL    HW119997   0.779   4.418   5.675
 6366SOL    HW219998   0.767   4.417   5.512
 6367SOL     OW19999   5.591   6.084   2.848
 6367SOL    HW120000   5.501   6.065   2.809
 6367SOL    HW220001   5.642   6.145   2.787
 6368SOL     OW20002   3.252   0.869   3.182
 6368SOL    HW120003   3.185   0.856   3.108
 6368SOL    HW220004   3.289   0.781   3.209
 6369SOL     OW20005   2.475   5.750   5.092
 6369SOL    HW120006   2.540   5.738   5.167
 6369SOL    HW220007   2.383   5.728   5.124
 6370SOL     OW20008   5.275   2.966   1.999
 6370SOL    HW120009   5.211   2.892   2.020
 6370SOL    HW220010   5.305   3.009   2.084
 6371SOL     OW20011   4.560   1.026   3.956
 6371SOL    HW120012   4.604   0.958   4.014
 6371SOL    HW220013   4.570   0.998   3.860
 6372SOL     OW20014   2.867   0.162   2.182
 6372SOL    HW120015   2.916   0.155   2.269
 6372SOL    HW220016   2.802   0.086   2.175
 6373SOL     OW20017   3.353   4.876   0.134
 6373SOL    HW120018   3.307   4.964   0.131
 6373SOL    HW220019   3.445   4.885   0.096
 6374SOL     OW20020   2.983   3.182   3.162
 6374SOL    HW120021   2.918   3.112   3.191
 6374SOL    HW220022   3.015   3.233   3.242
 6375SOL     OW20023   1.819   5.822   2.106
 6375SOL    HW120024   1.744   5.785   2.052
 6375SOL    HW220025   1.782   5.877   2.181
 6376SOL     OW20026   1.142   2.136   5.393
 6376SOL    HW120027   1.087   2.181   5.323
 6376SOL    HW220028   1.109   2.161   5.483
 6377SOL     OW20029   1.154   1.943   3.753
 6377SOL    HW120030   1.215   2.011   3.794
 6377SOL    HW220031   1.195   1.852   3.760
 6378SOL     OW20032   4.012   5.488   3.334
 6378SOL    HW120033   3.927   5.539   3.347
 6378SOL    HW220034   3.999   5.420   3.262
 6379SOL     OW20035   2.470   4.811   1.932
 6379SOL    HW120036   2.458   4.713   1.947
 6379SOL    HW220037   2.567   4.830   1.914
 6380SOL     OW20038   1.313   1.139   6.098
 6380SOL    HW120039   1.375   1.217   6.108
 6380SOL    HW220040   1.348   1.076   6.028
 6381SOL     OW20041   3.455   3.423   2.040
 6381SOL    HW120042   3.395   3.415   2.119
 6381SOL    HW220043   3.438   3.509   1.992
 6382SOL     OW20044   1.148   4.977   4.517
 6382SOL    HW120045   1.231   4.993   4.571
 6382SOL    HW220046   1.173   4.948   4.425
 6383SOL     OW20047   3.558   1.532   3.734
 6383SOL    HW120048   3.545   1.472   3.656
 6383SOL    HW220049   3.589   1.478   3.813
 6384SOL     OW20050   6.847   4.637   2.368
 6384SOL    HW120051   6.873   4.622   2.272
 6384SOL    HW220052   6.898   4.715   2.404
 6385SOL     OW20053   1.447   5.577   5.564
 6385SOL    HW120054   1.365   5.595   5.619
 6385SOL    HW220055   1.432   5.613   5.472
 6386SOL     OW20056   2.349   5.210   2.473
 6386SOL    HW120057   2.418   5.200   2.545
 6386SOL    HW220058   2.267   5.251   2.511
 6387SOL     OW20059   5.983   0.899   5.045
 6387SOL    HW120060   6.034   0.869   4.964
 6387SOL    HW220061   6.047   0.932   5.114
 6388SOL     OW20062   1.925   5.169   3.241
 6388SOL    HW120063   1.840   5.210   3.275
 6388SOL    HW220064   1.933   5.076   3.278
 6389SOL     OW20065   1.313   4.264   1.172
 6389SOL    HW120066   1.338   4.276   1.076
 6389SOL    HW220067   1.365   4.187   1.210
 6390SOL     OW20068   1.023   2.686   4.330
 6390SOL    HW120069   1.012   2.618   4.403
 6390SOL    HW220070   1.120   2.698   4.309
 6391SOL     OW20071   3.796   0.644   6.991
 6391SOL    HW120072   3.792   0.735   6.947
 6391SOL    HW220073   3.891   0.615   6.997
 6392SOL     OW20074   1.343   5.760   4.391
 6392SOL    HW120075   1.427   5.752   4.445
 6392SOL    HW220076   1.352   5.838   4.328
 6393SOL     OW20077   4.898   1.846   6.988
 6393SOL    HW120078   4.922   1.870   0.060
 6393SOL    HW220079   4.812   1.891   6.964
 6394SOL     OW20080   3.274   4.828   1.741
 6394SOL    HW120081   3.299   4.866   1.652
 6394SOL    HW220082   3.307   4.889   1.814
 6395SOL     OW20083   5.651   2.236   6.981
 6395SOL    HW120084   5.588   2.306   7.014
 6395SOL    HW220085   5.629   2.148   0.001
 6396SOL     OW20086   6.504   3.555   5.973
 6396SOL    HW120087   6.465   3.630   5.919
 6396SOL    HW220088   6.564   3.593   6.043
 6397SOL     OW20089   5.953   0.925   1.013
 6397SOL    HW120090   5.859   0.900   0.988
 6397SOL    HW220091   5.988   0.991   0.948
 6398SOL     OW20092   3.827   1.356   1.567
 6398SOL    HW120093   3.735   1.356   1.528
 6398SOL    HW220094   3.893   1.331   1.497
 6399SOL     OW20095   1.499   6.559   6.823
 6399SOL    HW120096   1.407   6.521   6.817
 6399SOL    HW220097   1.515   6.618   6.744
 6400SOL     OW20098   2.577   4.909   4.996
 6400SOL    HW120099   2.583   4.868   5.087
 6400SOL    HW220100   2.586   4.838   4.927
 6401SOL     OW20101   0.633   4.864   4.971
 6401SOL    HW120102   0.553   4.838   4.917
 6401SOL    HW220103   0.716   4.847   4.917
 6402SOL     OW20104   1.884   2.878   3.441
 6402SOL    HW120105   1.938   2.962   3.433
 6402SOL    HW220106   1.888   2.828   3.354
 6403SOL     OW20107   1.207   6.482   1.718
 6403SOL    HW120108   1.229   6.579   1.709
 6403SOL    HW220109   1.136   6.471   1.787
 6404SOL     OW20110   5.100   0.971   2.469
 6404SOL    HW120111   5.115   0.938   2.562
 6404SOL    HW220112   5.014   0.934   2.434
 6405SOL     OW20113   3.586   0.563   1.667
 6405SOL    HW120114   3.611   0.658   1.653
 6405SOL    HW220115   3.529   0.531   1.591
 6406SOL     OW20116   2.640   1.912   3.376
 6406SOL    HW120117   2.582   1.934   3.454
 6406SOL    HW220118   2.703   1.987   3.358
 6407SOL     OW20119   4.607   6.073   6.637
 6407SOL    HW120120   4.683   6.135   6.654
 6407SOL    HW220121   4.608   6.045   6.540
 6408SOL     OW20122   5.795   2.484   0.832
 6408SOL    HW120123   5.790   2.462   0.929
 6408SOL    HW220124   5.711   2.529   0.803
 6409SOL     OW20125   0.679   5.224   1.699
 6409SOL    HW120126   0.637   5.295   1.755
 6409SOL    HW220127   0.621   5.207   1.619
 6410SOL     OW20128   0.687   1.048   2.266
 6410SOL    HW120129   0.698   1.020   2.361
 6410SOL    HW220130   0.752   1.121   2.245
 6411SOL     OW20131   1.218   1.200   3.515
 6411SOL    HW120132   1.154   1.229   3.586
 6411SOL    HW220133   1.307   1.181   3.556
 6412SOL     OW20134   5.556   2.360   4.190
 6412SOL    HW120135   5.509   2.419   4.257
 6412SOL    HW220136   5.560   2.266   4.225
 6413SOL     OW20137   0.438   4.703   0.779
 6413SOL    HW120138   0.520   4.691   0.723
 6413SOL    HW220139   0.357   4.702   0.720
 6414SOL     OW20140   6.109   0.580   3.173
 6414SOL    HW120141   6.027   0.526   3.154
 6414SOL    HW220142   6.188   0.520   3.179
 6415SOL     OW20143   1.761   1.360   2.271
 6415SOL    HW120144   1.753   1.379   2.173
 6415SOL    HW220145   1.670   1.356   2.312
 6416SOL     OW20146   2.477   6.615   6.347
 6416SOL    HW120147   2.505   6.627   6.442
 6416SOL    HW220148   2.431   6.526   6.337
 6417SOL     OW20149   0.668   5.980   4.234
 6417SOL    HW120150   0.580   5.949   4.199
 6417SOL    HW220151   0.700   6.058   4.181
 6418SOL     OW20152   6.730   5.172   2.050
 6418SOL    HW120153   6.659   5.149   1.984
 6418SOL    HW220154   6.735   5.101   2.120
 6419SOL     OW20155   2.408   3.299   0.590
 6419SOL    HW120156   2.478   3.351   0.540
 6419SOL    HW220157   2.345   3.363   0.633
 6420SOL     OW20158   0.441   2.524   6.811
 6420SOL    HW120159   0.497   2.522   6.728
 6420SOL    HW220160   0.487   2.472   6.884
 6421SOL     OW20161   5.707   2.100   0.312
 6421SOL    HW120162   5.715   2.198   0.329
 6421SOL    HW220163   5.640   2.060   0.375
 6422SOL     OW20164   5.894   2.536   2.683
 6422SOL    HW120165   5.847   2.478   2.750
 6422SOL    HW220166   5.954   2.600   2.731
 6423SOL     OW20167   5.446   4.019   0.478
 6423SOL    HW120168   5.535   4.019   0.524
 6423SOL    HW220169   5.456   4.058   0.386
 6424SOL     OW20170   6.394   4.449   5.450
 6424SOL    HW120171   6.364   4.478   5.359
 6424SOL    HW220172   6.443   4.524   5.495
 6425SOL     OW20173   0.340   5.226   0.873
 6425SOL    HW120174   0.245   5.242   0.849
 6425SOL    HW220175   0.393   5.309   0.856
 6426SOL     OW20176   6.331   2.904   3.174
 6426SOL    HW120177   6.348   2.994   3.213
 6426SOL    HW220178   6.375   2.897   3.085
 6427SOL     OW20179   0.400   3.376   5.744
 6427SOL    HW120180   0.388   3.286   5.701
 6427SOL    HW220181   0.492   3.384   5.781
 6428SOL     OW20182   6.405   3.400   4.218
 6428SOL    HW120183   6.311   3.378   4.241
 6428SOL    HW220184   6.467   3.355   4.282
 6429SOL     OW20185   1.130   1.408   4.921
 6429SOL    HW120186   1.064   1.444   4.856
 6429SOL    HW220187   1.098   1.427   5.014
 6430SOL     OW20188   6.083   3.361   0.155
 6430SOL    HW120189   6.031   3.287   0.112
 6430SOL    HW220190   6.129   3.326   0.237
 6431SOL     OW20191   6.244   1.373   2.729
 6431SOL    HW120192   6.289   1.284   2.736
 6431SOL    HW220193   6.191   1.377   2.644
 6432SOL     OW20194   6.303   3.879   0.547
 6432SOL    HW120195   6.340   3.971   0.552
 6432SOL    HW220196   6.359   3.817   0.602
 6433SOL     OW20197   2.329   3.731   1.537
 6433SOL    HW120198   2.417   3.778   1.536
 6433SOL    HW220199   2.256   3.795   1.514
 6434SOL     OW20200   1.529   5.260   0.442
 6434SOL    HW120201   1.523   5.285   0.346
 6434SOL    HW220202   1.590   5.181   0.452
 6435SOL     OW20203   5.106   3.625   0.734
 6435SOL    HW120204   5.140   3.628   0.828
 6435SOL    HW220205   5.030   3.560   0.729
 6436SOL     OW20206   2.191   2.553   1.685
 6436SOL    HW120207   2.231   2.556   1.594
 6436SOL    HW220208   2.135   2.635   1.699
 6437SOL     OW20209   0.006   0.616   0.822
 6437SOL    HW120210   0.086   0.607   0.762
 6437SOL    HW220211   6.945   0.598   0.770
 6438SOL     OW20212   1.013   3.510   4.705
 6438SOL    HW120213   1.097   3.459   4.689
 6438SOL    HW220214   1.009   3.538   4.801
 6439SOL     OW20215   0.457   6.549   2.492
 6439SOL    HW120216   0.384   6.560   2.425
 6439SOL    HW220217   0.420   6.555   2.584
 6440SOL     OW20218   0.571   0.787   2.179
 6440SOL    HW120219   0.545   0.728   2.255
 6440SOL    HW220220   0.618   0.868   2.214
 6441SOL     OW20221   4.414   1.334   2.571
 6441SOL    HW120222   4.490   1.398   2.562
 6441SOL    HW220223   4.361   1.357   2.653
 6442SOL     OW20224   2.949   0.679   3.267
 6442SOL    HW120225   2.987   0.704   3.179
 6442SOL    HW220226   2.874   0.741   3.290
 6443SOL     OW20227   2.279   0.717   1.065
 6443SOL    HW120228   2.205   0.745   1.004
 6443SOL    HW220229   2.363   0.703   1.013
 6444SOL     OW20230   0.853   1.615   2.938
 6444SOL    HW120231   0.929   1.611   3.003
 6444SOL    HW220232   0.828   1.711   2.922
 6445SOL     OW20233   3.095   4.178   5.829
 6445SOL    HW120234   3.168   4.118   5.861
 6445SOL    HW220235   3.046   4.216   5.907
 6446SOL     OW20236   7.018   1.323   0.500
 6446SOL    HW120237   0.055   1.401   0.480
 6446SOL    HW220238   0.052   1.248   0.537
 6447SOL     OW20239   1.610   0.748   3.556
 6447SOL    HW120240   1.691   0.766   3.500
 6447SOL    HW220241   1.623   0.785   3.648
 6448SOL     OW20242   6.688   2.420   2.673
 6448SOL    HW120243   6.681   2.320   2.677
 6448SOL    HW220244   6.597   2.460   2.665
 6449SOL     OW20245   4.017   2.551   0.471
 6449SOL    HW120246   3.972   2.640   0.469
 6449SOL    HW220247   4.091   2.553   0.539
 6450SOL     OW20248   6.836   2.882   0.687
 6450SOL    HW120249   6.777   2.805   0.661
 6450SOL    HW220250   6.886   2.859   0.771
 6451SOL     OW20251   2.499   6.664   4.079
 6451SOL    HW120252   2.427   6.725   4.112
 6451SOL    HW220253   2.510   6.588   4.143
 6452SOL     OW20254   3.641   5.925   4.887
 6452SOL    HW120255   3.547   5.899   4.865
 6452SOL    HW220256   3.677   5.983   4.814
 6453SOL     OW20257   1.897   5.139   6.684
 6453SOL    HW120258   1.885   5.041   6.665
 6453SOL    HW220259   1.832   5.167   6.755
 6454SOL     OW20260   3.621   0.434   4.729
 6454SOL    HW120261   3.621   0.415   4.631
 6454SOL    HW220262   3.580   0.524   4.746
 6455SOL     OW20263   6.143   3.329   6.694
 6455SOL    HW120264   6.237   3.321   6.730
 6455SOL    HW220265   6.081   3.350   6.769
 6456SOL     OW20266   6.654   1.639   4.663
 6456SOL    HW120267   6.731   1.637   4.727
 6456SOL    HW220268   6.624   1.545   4.644
 6457SOL     OW20269   6.005   2.614   2.453
 6457SOL    HW120270   5.958   2.582   2.535
 6457SOL    HW220271   5.943   2.607   2.375
 6458SOL     OW20272   0.709   6.067   3.277
 6458SOL    HW120273   0.643   6.037   3.346
 6458SOL    HW220274   0.774   6.131   3.319
 6459SOL     OW20275   5.699   3.969   0.870
 6459SOL    HW120276   5.611   3.930   0.896
 6459SOL    HW220277   5.729   4.035   0.939
 6460SOL     OW20278   3.668   4.805   1.516
 6460SOL    HW120279   3.621   4.870   1.456
 6460SOL    HW220280   3.603   4.736   1.547
 6461SOL     OW20281   3.136   6.311   5.790
 6461SOL    HW120282   3.208   6.241   5.791
 6461SOL    HW220283   3.171   6.392   5.743
 6462SOL     OW20284   2.053   3.596   2.998
 6462SOL    HW120285   2.095   3.613   3.087
 6462SOL    HW220286   1.954   3.588   3.008
 6463SOL     OW20287   1.266   3.711   5.639
 6463SOL    HW120288   1.269   3.770   5.720
 6463SOL    HW220289   1.205   3.752   5.571
 6464SOL     OW20290   1.597   5.184   2.079
 6464SOL    HW120291   1.506   5.219   2.059
 6464SOL    HW220292   1.605   5.165   2.177
 6465SOL     OW20293   6.166   0.589   2.695
 6465SOL    HW120294   6.087   0.614   2.752
 6465SOL    HW220295   6.139   0.586   2.599
 6466SOL     OW20296   6.585   1.877   4.482
 6466SOL    HW120297   6.666   1.819   4.491
 6466SOL    HW220298   6.603   1.949   4.414
 6467SOL     OW20299   3.609   0.777   6.400
 6467SOL    HW120300   3.638   0.862   6.444
 6467SOL    HW220301   3.512   0.762   6.419
 6468SOL     OW20302   5.776   4.135   2.064
 6468SOL    HW120303   5.728   4.161   1.980
 6468SOL    HW220304   5.717   4.078   2.121
 6469SOL     OW20305   5.892   1.567   5.479
 6469SOL    HW120306   5.911   1.614   5.565
 6469SOL    HW220307   5.941   1.480   5.477
 6470SOL     OW20308   6.429   5.853   4.574
 6470SOL    HW120309   6.364   5.848   4.649
 6470SOL    HW220310   6.389   5.812   4.492
 6471SOL     OW20311   6.666   5.969   5.092
 6471SOL    HW120312   6.759   5.946   5.120
 6471SOL    HW220313   6.670   6.027   5.011
 6472SOL     OW20314   1.711   6.545   1.392
 6472SOL    HW120315   1.785   6.551   1.325
 6472SOL    HW220316   1.625   6.573   1.349
 6473SOL     OW20317   2.193   0.552   5.393
 6473SOL    HW120318   2.196   0.495   5.311
 6473SOL    HW220319   2.271   0.615   5.392
 6474SOL     OW20320   2.065   3.222   6.188
 6474SOL    HW120321   2.064   3.176   6.277
 6474SOL    HW220322   2.116   3.168   6.122
 6475SOL     OW20323   4.294   5.397   3.778
 6475SOL    HW120324   4.384   5.417   3.740
 6475SOL    HW220325   4.235   5.359   3.707
 6476SOL     OW20326   5.163   5.034   2.261
 6476SOL    HW120327   5.128   4.943   2.241
 6476SOL    HW220328   5.256   5.042   2.225
 6477SOL     OW20329   6.369   6.459   0.036
 6477SOL    HW120330   6.285   6.513   0.029
 6477SOL    HW220331   6.347   6.362   0.032
 6478SOL     OW20332   4.761   5.794   1.485
 6478SOL    HW120333   4.703   5.828   1.411
 6478SOL    HW220334   4.807   5.870   1.529
 6479SOL     OW20335   3.468   5.885   2.655
 6479SOL    HW120336   3.372   5.905   2.675
 6479SOL    HW220337   3.474   5.798   2.606
 6480SOL     OW20338   2.882   0.935   1.277
 6480SOL    HW120339   2.804   0.934   1.339
 6480SOL    HW220340   2.905   1.030   1.254
 6481SOL     OW20341   4.334   0.770   1.031
 6481SOL    HW120342   4.269   0.700   1.000
 6481SOL    HW220343   4.317   0.855   0.980
 6482SOL     OW20344   6.487   6.915   6.251
 6482SOL    HW120345   6.490   6.977   6.328
 6482SOL    HW220346   6.552   6.840   6.265
 6483SOL     OW20347   1.985   5.607   2.120
 6483SOL    HW120348   1.944   5.517   2.133
 6483SOL    HW220349   1.914   5.675   2.106
 6484SOL     OW20350   4.898   6.644   2.948
 6484SOL    HW120351   4.948   6.688   3.023
 6484SOL    HW220352   4.941   6.667   2.861
 6485SOL     OW20353   0.588   3.026   2.981
 6485SOL    HW120354   0.688   3.023   2.973
 6485SOL    HW220355   0.548   2.952   2.926
 6486SOL     OW20356   1.445   2.583   3.401
 6486SOL    HW120357   1.524   2.543   3.356
 6486SOL    HW220358   1.469   2.671   3.442
 6487SOL     OW20359   5.806   5.215   3.375
 6487SOL    HW120360   5.849   5.142   3.427
 6487SOL    HW220361   5.780   5.180   3.284
 6488SOL     OW20362   3.126   5.396   5.109
 6488SOL    HW120363   3.164   5.414   5.018
 6488SOL    HW220364   3.153   5.469   5.171
 6489SOL     OW20365   2.504   1.740   6.906
 6489SOL    HW120366   2.554   1.653   6.914
 6489SOL    HW220367   2.562   1.815   6.938
 6490SOL     OW20368   5.003   2.036   0.781
 6490SOL    HW120369   5.031   2.129   0.808
 6490SOL    HW220370   5.083   1.976   0.783
 6491SOL     OW20371   5.050   0.679   5.365
 6491SOL    HW120372   5.123   0.612   5.363
 6491SOL    HW220373   5.086   0.767   5.394
 6492SOL     OW20374   6.540   5.925   5.594
 6492SOL    HW120375   6.575   6.009   5.635
 6492SOL    HW220376   6.447   5.940   5.562
 6493SOL     OW20377   1.084   6.886   5.287
 6493SOL    HW120378   1.052   6.912   5.378
 6493SOL    HW220379   1.183   6.871   5.290
 6494SOL     OW20380   0.483   1.477   3.320
 6494SOL    HW120381   0.578   1.485   3.348
 6494SOL    HW220382   0.479   1.455   3.222
 6495SOL     OW20383   5.661   4.544   1.727
 6495SOL    HW120384   5.583   4.560   1.667
 6495SOL    HW220385   5.688   4.448   1.721
 6496SOL     OW20386   0.339   6.268   2.983
 6496SOL    HW120387   0.287   6.240   2.902
 6496SOL    HW220388   0.414   6.204   2.999
 6497SOL     OW20389   0.643   6.331   0.562
 6497SOL    HW120390   0.550   6.319   0.528
 6497SOL    HW220391   0.708   6.314   0.488
 6498SOL     OW20392   1.476   4.422   4.005
 6498SOL    HW120393   1.462   4.500   4.066
 6498SOL    HW220394   1.439   4.340   4.047
 6499SOL     OW20395   6.211   1.410   3.407
 6499SOL    HW120396   6.243   1.412   3.502
 6499SOL    HW220397   6.278   1.364   3.350
 6500SOL     OW20398   6.127   5.145   2.398
 6500SOL    HW120399   6.058   5.102   2.340
 6500SOL    HW220400   6.194   5.076   2.427
 6501SOL     OW20401   6.691   3.991   0.754
 6501SOL    HW120402   6.776   3.938   0.750
 6501SOL    HW220403   6.704   4.072   0.811
 6502SOL     OW20404   0.808   4.921   1.232
 6502SOL    HW120405   0.898   4.908   1.188
 6502SOL    HW220406   0.810   5.005   1.286
 6503SOL     OW20407   4.697   0.164   4.132
 6503SOL    HW120408   4.733   0.185   4.223
 6503SOL    HW220409   4.647   0.078   4.134
 6504SOL     OW20410   1.772   1.625   1.106
 6504SOL    HW120411   1.831   1.589   1.033
 6504SOL    HW220412   1.697   1.561   1.122
 6505SOL     OW20413   5.704   5.604   0.482
 6505SOL    HW120414   5.715   5.540   0.558
 6505SOL    HW220415   5.712   5.698   0.515
 6506SOL     OW20416   1.881   1.458   0.912
 6506SOL    HW120417   1.974   1.491   0.900
 6506SOL    HW220418   1.874   1.365   0.877
 6507SOL     OW20419   2.925   0.961   1.984
 6507SOL    HW120420   2.908   0.936   1.888
 6507SOL    HW220421   2.953   0.880   2.035
 6508SOL     OW20422   1.766   2.024   2.231
 6508SOL    HW120423   1.834   2.096   2.245
 6508SOL    HW220424   1.674   2.064   2.230
 6509SOL     OW20425   1.080   3.042   4.180
 6509SOL    HW120426   1.095   3.135   4.214
 6509SOL    HW220427   1.045   2.985   4.254
 6510SOL     OW20428   6.145   4.593   6.484
 6510SOL    HW120429   6.110   4.576   6.576
 6510SOL    HW220430   6.244   4.604   6.487
 6511SOL     OW20431   6.733   6.754   5.943
 6511SOL    HW120432   6.680   6.694   5.884
 6511SOL    HW220433   6.700   6.747   6.037
 6512SOL     OW20434   5.150   6.408   3.414
 6512SOL    HW120435   5.176   6.314   3.437
 6512SOL    HW220436   5.224   6.470   3.440
 6513SOL     OW20437   0.973   6.765   3.641
 6513SOL    HW120438   1.062   6.811   3.638
 6513SOL    HW220439   0.973   6.697   3.715
 6514SOL     OW20440   3.160   0.380   3.650
 6514SOL    HW120441   3.143   0.468   3.606
 6514SOL    HW220442   3.202   0.317   3.584
 6515SOL     OW20443   0.715   0.511   3.365
 6515SOL    HW120444   0.770   0.557   3.435
 6515SOL    HW220445   0.672   0.579   3.306
 6516SOL     OW20446   1.620   1.211   5.892
 6516SOL    HW120447   1.546   1.181   5.832
 6516SOL    HW220448   1.581   1.256   5.972
 6517SOL     OW20449   2.503   1.911   1.045
 6517SOL    HW120450   2.478   1.873   1.134
 6517SOL    HW220451   2.484   2.009   1.044
 6518SOL     OW20452   5.583   6.408   0.919
 6518SOL    HW120453   5.505   6.470   0.910
 6518SOL    HW220454   5.550   6.314   0.924
 6519SOL     OW20455   1.256   2.024   4.196
 6519SOL    HW120456   1.178   2.077   4.164
 6519SOL    HW220457   1.281   2.052   4.289
 6520SOL     OW20458   5.597   5.517   1.242
 6520SOL    HW120459   5.643   5.438   1.280
 6520SOL    HW220460   5.580   5.503   1.144
 6521SOL     OW20461   1.428   2.150   5.423
 6521SOL    HW120462   1.485   2.113   5.497
 6521SOL    HW220463   1.332   2.129   5.441
 6522SOL     OW20464   2.769   5.331   4.502
 6522SOL    HW120465   2.692   5.337   4.565
 6522SOL    HW220466   2.854   5.338   4.553
 6523SOL     OW20467   1.592   2.496   0.259
 6523SOL    HW120468   1.639   2.562   0.317
 6523SOL    HW220469   1.623   2.404   0.282
 6524SOL     OW20470   4.297   2.900   5.536
 6524SOL    HW120471   4.335   2.825   5.590
 6524SOL    HW220472   4.197   2.900   5.545
 6525SOL     OW20473   0.425   2.451   4.581
 6525SOL    HW120474   0.489   2.377   4.602
 6525SOL    HW220475   0.476   2.533   4.554
 6526SOL     OW20476   1.735   5.570   4.174
 6526SOL    HW120477   1.718   5.658   4.129
 6526SOL    HW220478   1.650   5.539   4.219
 6527SOL     OW20479   2.707   1.364   3.738
 6527SOL    HW120480   2.687   1.269   3.715
 6527SOL    HW220481   2.698   1.377   3.837
 6528SOL     OW20482   0.683   0.065   3.018
 6528SOL    HW120483   0.686   0.101   3.111
 6528SOL    HW220484   0.770   0.084   2.972
 6529SOL     OW20485   6.837   2.969   2.559
 6529SOL    HW120486   6.912   2.988   2.497
 6529SOL    HW220487   6.870   2.914   2.636
 6530SOL     OW20488   0.696   1.693   0.456
 6530SOL    HW120489   0.720   1.597   0.453
 6530SOL    HW220490   0.779   1.749   0.459
 6531SOL     OW20491   5.084   2.409   5.033
 6531SOL    HW120492   5.018   2.334   5.041
 6531SOL    HW220493   5.094   2.454   5.122
 6532SOL     OW20494   0.977   2.162   6.965
 6532SOL    HW120495   0.907   2.222   6.927
 6532SOL    HW220496   1.042   2.217   7.019
 6533SOL     OW20497   4.623   0.534   1.317
 6533SOL    HW120498   4.536   0.581   1.303
 6533SOL    HW220499   4.694   0.600   1.340
 6534SOL     OW20500   2.309   2.760   0.015
 6534SOL    HW120501   2.280   2.732   0.106
 6534SOL    HW220502   2.229   2.786   6.983
 6535SOL     OW20503   2.138   3.476   5.371
 6535SOL    HW120504   2.144   3.389   5.322
 6535SOL    HW220505   2.152   3.551   5.307
 6536SOL     OW20506   6.720   1.892   6.946
 6536SOL    HW120507   6.731   1.983   6.986
 6536SOL    HW220508   6.679   1.831   7.015
 6537SOL     OW20509   1.025   0.701   6.803
 6537SOL    HW120510   1.047   0.766   6.730
 6537SOL    HW220511   1.107   0.650   6.828
 6538SOL     OW20512   2.593   2.761   5.758
 6538SOL    HW120513   2.670   2.698   5.764
 6538SOL    HW220514   2.508   2.710   5.744
 6539SOL     OW20515   3.247   1.682   6.291
 6539SOL    HW120516   3.180   1.713   6.359
 6539SOL    HW220517   3.339   1.705   6.322
 6540SOL     OW20518   3.976   1.777   4.096
 6540SOL    HW120519   4.045   1.706   4.089
 6540SOL    HW220520   3.888   1.741   4.066
 6541SOL     OW20521   2.871   2.535   5.502
 6541SOL    HW120522   2.866   2.478   5.420
 6541SOL    HW220523   2.854   2.630   5.477
 6542SOL     OW20524   5.482   4.236   2.797
 6542SOL    HW120525   5.578   4.221   2.774
 6542SOL    HW220526   5.425   4.217   2.718
 6543SOL     OW20527   1.143   6.241   5.769
 6543SOL    HW120528   1.157   6.145   5.792
 6543SOL    HW220529   1.050   6.255   5.737
 6544SOL     OW20530   0.200   6.371   2.687
 6544SOL    HW120531   0.212   6.465   2.721
 6544SOL    HW220532   0.103   6.347   2.690
 6545SOL     OW20533   6.242   3.312   6.371
 6545SOL    HW120534   6.198   3.225   6.394
 6545SOL    HW220535   6.209   3.383   6.434
 6546SOL     OW20536   3.491   4.411   6.049
 6546SOL    HW120537   3.509   4.507   6.029
 6546SOL    HW220538   3.486   4.399   6.148
 6547SOL     OW20539   5.011   0.508   6.573
 6547SOL    HW120540   5.096   0.464   6.544
 6547SOL    HW220541   5.025   0.607   6.579
 6548SOL     OW20542   5.115   4.077   5.805
 6548SOL    HW120543   5.082   4.103   5.714
 6548SOL    HW220544   5.190   4.012   5.796
 6549SOL     OW20545   2.880   2.305   2.731
 6549SOL    HW120546   2.837   2.260   2.653
 6549SOL    HW220547   2.960   2.253   2.760
 6550SOL     OW20548   0.940   5.495   2.863
 6550SOL    HW120549   1.005   5.560   2.825
 6550SOL    HW220550   0.944   5.498   2.963
 6551SOL     OW20551   3.126   5.141   2.206
 6551SOL    HW120552   3.199   5.209   2.204
 6551SOL    HW220553   3.164   5.050   2.191
 6552SOL     OW20554   4.430   4.967   6.106
 6552SOL    HW120555   4.411   4.868   6.107
 6552SOL    HW220556   4.357   5.014   6.156
 6553SOL     OW20557   7.004   3.426   3.289
 6553SOL    HW120558   0.062   3.483   3.305
 6553SOL    HW220559   0.012   3.335   3.260
 6554SOL     OW20560   6.888   3.638   4.480
 6554SOL    HW120561   6.956   3.576   4.440
 6554SOL    HW220562   6.836   3.589   4.550
 6555SOL     OW20563   0.705   1.386   1.365
 6555SOL    HW120564   0.711   1.430   1.454
 6555SOL    HW220565   0.797   1.362   1.333
 6556SOL     OW20566   3.585   0.117   3.470
 6556SOL    HW120567   3.657   0.148   3.407
 6556SOL    HW220568   3.581   0.179   3.548
 6557SOL     OW20569   5.529   5.900   0.577
 6557SOL    HW120570   5.625   5.915   0.552
 6557SOL    HW220571   5.525   5.840   0.657
 6558SOL     OW20572   6.797   6.116   5.895
 6558SOL    HW120573   6.820   6.210   5.922
 6558SOL    HW220574   6.859   6.052   5.942
 6559SOL     OW20575   3.150   3.382   1.516
 6559SOL    HW120576   3.137   3.336   1.428
 6559SOL    HW220577   3.207   3.325   1.576
 6560SOL     OW20578   4.456   1.769   1.197
 6560SOL    HW120579   4.386   1.835   1.169
 6560SOL    HW220580   4.514   1.811   1.267
 6561SOL     OW20581   4.041   3.882   4.254
 6561SOL    HW120582   4.115   3.835   4.303
 6561SOL    HW220583   3.954   3.864   4.300
 6562SOL     OW20584   6.885   4.472   5.452
 6562SOL    HW120585   6.838   4.447   5.537
 6562SOL    HW220586   6.877   4.397   5.387
 6563SOL     OW20587   0.627   5.247   2.528
 6563SOL    HW120588   0.661   5.325   2.476
 6563SOL    HW220589   0.551   5.276   2.586
 6564SOL     OW20590   1.604   5.272   2.998
 6564SOL    HW120591   1.641   5.271   3.091
 6564SOL    HW220592   1.577   5.365   2.973
 6565SOL     OW20593   6.815   3.260   5.055
 6565SOL    HW120594   6.893   3.274   5.116
 6565SOL    HW220595   6.731   3.288   5.101
 6566SOL     OW20596   4.105   1.141   0.721
 6566SOL    HW120597   4.059   1.186   0.645
 6566SOL    HW220598   4.060   1.165   0.807
 6567SOL     OW20599   6.679   2.688   1.103
 6567SOL    HW120600   6.692   2.737   1.190
 6567SOL    HW220601   6.648   2.595   1.122
 6568SOL     OW20602   4.625   3.795   1.023
 6568SOL    HW120603   4.585   3.877   0.981
 6568SOL    HW220604   4.719   3.783   0.992
 6569SOL     OW20605   1.007   4.636   5.915
 6569SOL    HW120606   0.936   4.623   5.984
 6569SOL    HW220607   1.060   4.718   5.936
 6570SOL     OW20608   6.540   4.098   1.733
 6570SOL    HW120609   6.539   4.087   1.634
 6570SOL    HW220610   6.551   4.008   1.777
 6571SOL     OW20611   1.998   6.358   3.932
 6571SOL    HW120612   1.986   6.380   4.029
 6571SOL    HW220613   1.911   6.370   3.885
 6572SOL     OW20614   1.702   3.971   6.211
 6572SOL    HW120615   1.743   3.942   6.297
 6572SOL    HW220616   1.696   3.892   6.149
 6573SOL     OW20617   1.568   1.916   2.005
 6573SOL    HW120618   1.496   1.971   2.046
 6573SOL    HW220619   1.572   1.826   2.050
 6574SOL     OW20620   2.087   4.558   4.472
 6574SOL    HW120621   2.056   4.535   4.564
 6574SOL    HW220622   2.068   4.655   4.453
 6575SOL     OW20623   1.996   1.500   2.880
 6575SOL    HW120624   1.952   1.584   2.846
 6575SOL    HW220625   2.002   1.504   2.979
 6576SOL     OW20626   0.710   6.370   4.062
 6576SOL    HW120627   0.729   6.396   4.157
 6576SOL    HW220628   0.698   6.271   4.056
 6577SOL     OW20629   0.160   3.735   5.169
 6577SOL    HW120630   0.218   3.817   5.175
 6577SOL    HW220631   0.138   3.717   5.073
 6578SOL     OW20632   6.824   5.529   3.553
 6578SOL    HW120633   6.838   5.610   3.609
 6578SOL    HW220634   6.728   5.524   3.525
 6579SOL     OW20635   6.896   4.249   3.757
 6579SOL    HW120636   6.927   4.213   3.845
 6579SOL    HW220637   6.954   4.326   3.730
 6580SOL     OW20638   5.352   3.109   0.187
 6580SOL    HW120639   5.356   3.196   0.139
 6580SOL    HW220640   5.444   3.082   0.216
 6581SOL     OW20641   2.720   2.262   5.820
 6581SOL    HW120642   2.688   2.319   5.745
 6581SOL    HW220643   2.801   2.303   5.862
 6582SOL     OW20644   6.927   0.256   2.601
 6582SOL    HW120645   6.868   0.326   2.561
 6582SOL    HW220646   6.920   0.259   2.700
 6583SOL     OW20647   6.425   1.437   6.141
 6583SOL    HW120648   6.475   1.453   6.056
 6583SOL    HW220649   6.487   1.402   6.211
 6584SOL     OW20650   5.678   2.774   0.333
 6584SOL    HW120651   5.757   2.728   0.293
 6584SOL    HW220652   5.707   2.825   0.414
 6585SOL     OW20653   2.578   1.120   1.748
 6585SOL    HW120654   2.525   1.197   1.783
 6585SOL    HW220655   2.570   1.043   1.812
 6586SOL     OW20656   5.959   1.858   7.022
 6586SOL    HW120657   5.905   1.914   6.959
 6586SOL    HW220658   5.915   1.857   0.090
 6587SOL     OW20659   2.169   6.114   1.974
 6587SOL    HW120660   2.137   6.046   2.040
 6587SOL    HW220661   2.111   6.112   1.893
 6588SOL     OW20662   2.804   2.264   0.300
 6588SOL    HW120663   2.847   2.327   0.236
 6588SOL    HW220664   2.709   2.250   0.274
 6589SOL     OW20665   4.873   1.726   6.055
 6589SOL    HW120666   4.929   1.710   5.974
 6589SOL    HW220667   4.857   1.824   6.066
 6590SOL     OW20668   6.018   1.295   5.449
 6590SOL    HW120669   6.006   1.252   5.359
 6590SOL    HW220670   6.097   1.356   5.447
 6591SOL     OW20671   5.525   0.129   3.009
 6591SOL    HW120672   5.443   0.185   3.014
 6591SOL    HW220673   5.569   0.143   2.920
 6592SOL     OW20674   6.393   5.576   4.877
 6592SOL    HW120675   6.492   5.585   4.881
 6592SOL    HW220676   6.352   5.664   4.854
 6593SOL     OW20677   5.109   0.688   2.741
 6593SOL    HW120678   5.122   0.785   2.719
 6593SOL    HW220679   5.105   0.635   2.656
 6594SOL     OW20680   5.561   0.940   0.041
 6594SOL    HW120681   5.527   0.942   6.969
 6594SOL    HW220682   5.497   0.989   0.101
 6595SOL     OW20683   3.321   2.792   6.846
 6595SOL    HW120684   3.311   2.827   6.753
 6595SOL    HW220685   3.262   2.712   6.858
 6596SOL     OW20686   3.159   6.443   5.375
 6596SOL    HW120687   3.233   6.443   5.308
 6596SOL    HW220688   3.106   6.359   5.366
 6597SOL     OW20689   6.945   3.974   6.685
 6597SOL    HW120690   7.004   3.910   6.636
 6597SOL    HW220691   6.853   3.935   6.692
 6598SOL     OW20692   2.476   6.030   4.724
 6598SOL    HW120693   2.437   5.979   4.647
 6598SOL    HW220694   2.519   5.966   4.788
 6599SOL     OW20695   4.558   3.210   6.511
 6599SOL    HW120696   4.504   3.282   6.554
 6599SOL    HW220697   4.502   3.163   6.443
 6600SOL     OW20698   4.325   5.086   4.763
 6600SOL    HW120699   4.392   5.140   4.814
 6600SOL    HW220700   4.349   4.989   4.769
 6601SOL     OW20701   0.450   0.772   1.739
 6601SOL    HW120702   0.428   0.766   1.641
 6601SOL    HW220703   0.547   0.750   1.752
 6602SOL     OW20704   6.854   1.337   1.584
 6602SOL    HW120705   6.769   1.338   1.635
 6602SOL    HW220706   6.925   1.290   1.637
 6603SOL     OW20707   2.540   1.581   1.856
 6603SOL    HW120708   2.587   1.551   1.938
 6603SOL    HW220709   2.577   1.534   1.776
 6604SOL     OW20710   4.288   6.009   4.506
 6604SOL    HW120711   4.211   5.969   4.456
 6604SOL    HW220712   4.347   5.936   4.540
 6605SOL     OW20713   4.972   6.427   0.396
 6605SOL    HW120714   5.012   6.344   0.435
 6605SOL    HW220715   4.908   6.467   0.462
 6606SOL     OW20716   0.219   2.311   2.892
 6606SOL    HW120717   0.284   2.331   2.819
 6606SOL    HW220718   0.258   2.242   2.953
 6607SOL     OW20719   1.389   3.241   2.965
 6607SOL    HW120720   1.363   3.157   3.013
 6607SOL    HW220721   1.329   3.316   2.995
 6608SOL     OW20722   5.277   4.363   4.929
 6608SOL    HW120723   5.260   4.449   4.978
 6608SOL    HW220724   5.191   4.313   4.919
 6609SOL     OW20725   5.385   1.948   0.113
 6609SOL    HW120726   5.334   1.890   0.177
 6609SOL    HW220727   5.387   2.042   0.147
 6610SOL     OW20728   3.724   1.204   0.852
 6610SOL    HW120729   3.710   1.211   0.753
 6610SOL    HW220730   3.637   1.217   0.899
 6611SOL     OW20731   5.296   3.224   3.190
 6611SOL    HW120732   5.303   3.310   3.140
 6611SOL    HW220733   5.218   3.172   3.156
 6612SOL     OW20734   1.014   5.982   6.444
 6612SOL    HW120735   1.033   5.924   6.523
 6612SOL    HW220736   0.994   6.075   6.475
 6613SOL     OW20737   5.474   4.857   0.771
 6613SOL    HW120738   5.444   4.943   0.812
 6613SOL    HW220739   5.482   4.787   0.843
 6614SOL     OW20740   5.510   4.620   6.027
 6614SOL    HW120741   5.436   4.587   5.968
 6614SOL    HW220742   5.558   4.542   6.067
 6615SOL     OW20743   0.254   3.476   5.201
 6615SOL    HW120744   0.299   3.466   5.290
 6615SOL    HW220745   0.215   3.568   5.194
 6616SOL     OW20746   4.560   0.658   3.971
 6616SOL    HW120747   4.621   0.717   4.023
 6616SOL    HW220748   4.604   0.629   3.886
 6617SOL     OW20749   4.397   6.850   4.922
 6617SOL    HW120750   4.420   6.860   5.018
 6617SOL    HW220751   4.306   6.808   4.914
 6618SOL     OW20752   6.859   4.803   0.920
 6618SOL    HW120753   6.940   4.854   0.948
 6618SOL    HW220754   6.868   4.774   0.825
 6619SOL     OW20755   0.197   6.271   1.528
 6619SOL    HW120756   0.099   6.267   1.549
 6619SOL    HW220757   0.243   6.192   1.570
 6620SOL     OW20758   4.587   3.198   5.425
 6620SOL    HW120759   4.577   3.294   5.453
 6620SOL    HW220760   4.677   3.165   5.453
 6621SOL     OW20761   2.348   3.207   0.313
 6621SOL    HW120762   2.437   3.196   0.358
 6621SOL    HW220763   2.281   3.148   0.357
 6622SOL     OW20764   6.165   5.414   0.790
 6622SOL    HW120765   6.130   5.499   0.830
 6622SOL    HW220766   6.093   5.344   0.792
 6623SOL     OW20767   3.605   4.141   2.633
 6623SOL    HW120768   3.538   4.123   2.704
 6623SOL    HW220769   3.672   4.208   2.665
 6624SOL     OW20770   4.384   4.898   4.099
 6624SOL    HW120771   4.287   4.917   4.107
 6624SOL    HW220772   4.404   4.808   4.139
 6625SOL     OW20773   5.906   6.855   0.018
 6625SOL    HW120774   6.000   6.877   7.015
 6625SOL    HW220775   5.895   6.866   0.117
 6626SOL     OW20776   3.073   4.850   3.714
 6626SOL    HW120777   3.082   4.848   3.614
 6626SOL    HW220778   3.164   4.847   3.755
 6627SOL     OW20779   1.805   6.851   1.625
 6627SOL    HW120780   1.884   6.912   1.630
 6627SOL    HW220781   1.831   6.760   1.660
 6628SOL     OW20782   4.064   5.882   3.794
 6628SOL    HW120783   4.142   5.822   3.808
 6628SOL    HW220784   4.036   5.879   3.698
 6629SOL     OW20785   3.043   3.801   0.168
 6629SOL    HW120786   3.089   3.797   0.257
 6629SOL    HW220787   3.060   3.716   0.118
 6630SOL     OW20788   3.572   1.178   6.875
 6630SOL    HW120789   3.499   1.124   6.835
 6630SOL    HW220790   3.549   1.275   6.870
 6631SOL     OW20791   4.030   0.252   1.308
 6631SOL    HW120792   4.092   0.179   1.280
 6631SOL    HW220793   4.078   0.340   1.304
 6632SOL     OW20794   6.249   2.718   2.495
 6632SOL    HW120795   6.305   2.660   2.436
 6632SOL    HW220796   6.160   2.674   2.510
 6633SOL     OW20797   0.851   6.293   2.038
 6633SOL    HW120798   0.800   6.210   2.015
 6633SOL    HW220799   0.849   6.308   2.137
 6634SOL     OW20800   6.605   2.435   6.040
 6634SOL    HW120801   6.662   2.497   5.987
 6634SOL    HW220802   6.653   2.348   6.051
 6635SOL     OW20803   4.440   4.942   3.494
 6635SOL    HW120804   4.361   4.881   3.493
 6635SOL    HW220805   4.520   4.895   3.458
 6636SOL     OW20806   1.805   3.666   3.995
 6636SOL    HW120807   1.884   3.640   3.940
 6636SOL    HW220808   1.805   3.614   4.080
 6637SOL     OW20809   6.275   2.741   1.313
 6637SOL    HW120810   6.264   2.720   1.216
 6637SOL    HW220811   6.216   2.819   1.337
 6638SOL     OW20812   1.920   0.551   6.492
 6638SOL    HW120813   1.875   0.477   6.441
 6638SOL    HW220814   1.851   0.606   6.538
 6639SOL     OW20815   4.107   5.852   6.276
 6639SOL    HW120816   4.165   5.842   6.195
 6639SOL    HW220817   4.063   5.764   6.296
 6640SOL     OW20818   5.717   2.939   3.354
 6640SOL    HW120819   5.641   2.935   3.289
 6640SOL    HW220820   5.716   2.856   3.410
 6641SOL     OW20821   2.221   5.457   6.745
 6641SOL    HW120822   2.299   5.503   6.702
 6641SOL    HW220823   2.161   5.420   6.674
 6642SOL     OW20824   6.609   6.034   6.593
 6642SOL    HW120825   6.602   6.097   6.516
 6642SOL    HW220826   6.631   5.943   6.559
 6643SOL     OW20827   3.767   5.326   6.911
 6643SOL    HW120828   3.752   5.348   7.008
 6643SOL    HW220829   3.859   5.356   6.885
 6644SOL     OW20830   0.806   4.078   2.080
 6644SOL    HW120831   0.797   4.038   1.989
 6644SOL    HW220832   0.867   4.157   2.077
 6645SOL     OW20833   6.079   4.506   5.140
 6645SOL    HW120834   6.172   4.543   5.131
 6645SOL    HW220835   6.082   4.424   5.197
 6646SOL     OW20836   1.176   5.975   3.739
 6646SOL    HW120837   1.260   5.965   3.686
 6646SOL    HW220838   1.138   5.885   3.760
 6647SOL     OW20839   4.298   1.757   2.008
 6647SOL    HW120840   4.216   1.722   2.053
 6647SOL    HW220841   4.376   1.744   2.069
 6648SOL     OW20842   3.999   5.449   1.470
 6648SOL    HW120843   3.938   5.510   1.520
 6648SOL    HW220844   4.089   5.491   1.461
 6649SOL     OW20845   4.450   1.477   6.180
 6649SOL    HW120846   4.506   1.525   6.113
 6649SOL    HW220847   4.420   1.541   6.251
 6650SOL     OW20848   3.130   0.790   3.945
 6650SOL    HW120849   3.101   0.743   4.028
 6650SOL    HW220850   3.085   0.879   3.939
 6651SOL     OW20851   0.529   1.819   0.772
 6651SOL    HW120852   0.534   1.726   0.738
 6651SOL    HW220853   0.591   1.878   0.719
 6652SOL     OW20854   0.863   5.162   3.251
 6652SOL    HW120855   0.811   5.122   3.327
 6652SOL    HW220856   0.961   5.158   3.273
 6653SOL     OW20857   3.426   3.591   3.634
 6653SOL    HW120858   3.405   3.587   3.536
 6653SOL    HW220859   3.462   3.681   3.656
 6654SOL     OW20860   1.596   3.476   1.139
 6654SOL    HW120861   1.682   3.485   1.189
 6654SOL    HW220862   1.533   3.549   1.168
 6655SOL     OW20863   1.591   0.650   0.237
 6655SOL    HW120864   1.635   0.664   0.325
 6655SOL    HW220865   1.532   0.728   0.217
 6656SOL     OW20866   0.206   2.510   1.874
 6656SOL    HW120867   0.250   2.555   1.796
 6656SOL    HW220868   0.159   2.579   1.929
 6657SOL     OW20869   3.146   4.927   5.512
 6657SOL    HW120870   3.225   4.876   5.479
 6657SOL    HW220871   3.063   4.873   5.498
 6658SOL     OW20872   6.227   6.753   6.412
 6658SOL    HW120873   6.294   6.740   6.485
 6658SOL    HW220874   6.265   6.722   6.325
 6659SOL     OW20875   1.384   2.796   6.636
 6659SOL    HW120876   1.368   2.704   6.674
 6659SOL    HW220877   1.304   2.824   6.583
 6660SOL     OW20878   1.047   6.533   2.932
 6660SOL    HW120879   1.014   6.511   2.840
 6660SOL    HW220880   1.138   6.573   2.926
 6661SOL     OW20881   6.885   6.560   3.911
 6661SOL    HW120882   6.832   6.479   3.886
 6661SOL    HW220883   6.892   6.622   3.833
 6662SOL     OW20884   1.301   3.836   5.883
 6662SOL    HW120885   1.270   3.926   5.916
 6662SOL    HW220886   1.323   3.778   5.962
 6663SOL     OW20887   0.489   4.868   2.337
 6663SOL    HW120888   0.427   4.921   2.280
 6663SOL    HW220889   0.576   4.916   2.346
 6664SOL     OW20890   0.337   2.038   2.370
 6664SOL    HW120891   0.267   2.023   2.300
 6664SOL    HW220892   0.295   2.078   2.451
 6665SOL     OW20893   2.366   0.436   2.277
 6665SOL    HW120894   2.409   0.352   2.309
 6665SOL    HW220895   2.376   0.507   2.347
 6666SOL     OW20896   5.044   1.500   0.383
 6666SOL    HW120897   5.124   1.460   0.426
 6666SOL    HW220898   5.061   1.512   0.285
 6667SOL     OW20899   5.844   4.834   4.718
 6667SOL    HW120900   5.788   4.792   4.789
 6667SOL    HW220901   5.900   4.907   4.759
 6668SOL     OW20902   6.878   6.611   1.090
 6668SOL    HW120903   6.929   6.604   1.005
 6668SOL    HW220904   6.804   6.679   1.079
 6669SOL     OW20905   0.963   4.867   2.831
 6669SOL    HW120906   0.933   4.921   2.909
 6669SOL    HW220907   0.913   4.781   2.828
 6670SOL     OW20908   4.203   4.457   0.008
 6670SOL    HW120909   4.251   4.476   6.944
 6670SOL    HW220910   4.157   4.540   0.039
 6671SOL     OW20911   0.595   2.721   5.539
 6671SOL    HW120912   0.497   2.736   5.531
 6671SOL    HW220913   0.627   2.761   5.625
 6672SOL     OW20914   0.107   0.428   5.323
 6672SOL    HW120915   0.181   0.413   5.257
 6672SOL    HW220916   0.128   0.508   5.380
 6673SOL     OW20917   4.780   5.878   1.106
 6673SOL    HW120918   4.838   5.809   1.150
 6673SOL    HW220919   4.707   5.906   1.168
 6674SOL     OW20920   0.881   6.846   5.772
 6674SOL    HW120921   0.788   6.828   5.739
 6674SOL    HW220922   0.895   6.800   5.859
 6675SOL     OW20923   0.047   6.446   0.346
 6675SOL    HW120924   0.004   6.356   0.345
 6675SOL    HW220925   0.076   6.469   0.439
 6676SOL     OW20926   0.313   1.773   1.165
 6676SOL    HW120927   0.317   1.856   1.220
 6676SOL    HW220928   0.405   1.740   1.147
 6677SOL     OW20929   0.317   4.755   0.522
 6677SOL    HW120930   0.225   4.715   0.521
 6677SOL    HW220931   0.381   4.693   0.476
 6678SOL     OW20932   0.959   3.083   4.467
 6678SOL    HW120933   0.921   3.133   4.390
 6678SOL    HW220934   1.046   3.123   4.494
 6679SOL     OW20935   1.733   1.072   4.973
 6679SOL    HW120936   1.723   1.162   4.930
 6679SOL    HW220937   1.644   1.038   5.002
 6680SOL     OW20938   2.678   0.647   6.483
 6680SOL    HW120939   2.595   0.673   6.534
 6680SOL    HW220940   2.655   0.634   6.387
 6681SOL     OW20941   5.125   5.768   6.617
 6681SOL    HW120942   5.149   5.742   6.710
 6681SOL    HW220943   5.202   5.815   6.574
 6682SOL     OW20944   6.713   5.178   1.710
 6682SOL    HW120945   6.763   5.121   1.775
 6682SOL    HW220946   6.656   5.119   1.652
 6683SOL     OW20947   5.041   1.894   4.535
 6683SOL    HW120948   4.959   1.951   4.540
 6683SOL    HW220949   5.014   1.798   4.527
 6684SOL     OW20950   1.579   1.648   2.470
 6684SOL    HW120951   1.546   1.717   2.534
 6684SOL    HW220952   1.670   1.675   2.437
 6685SOL     OW20953   5.528   2.901   6.886
 6685SOL    HW120954   5.590   2.822   6.887
 6685SOL    HW220955   5.439   2.875   6.923
 6686SOL     OW20956   6.033   3.837   3.922
 6686SOL    HW120957   6.015   3.934   3.941
 6686SOL    HW220958   6.130   3.825   3.898
 6687SOL     OW20959   0.337   0.831   0.202
 6687SOL    HW120960   0.333   0.773   0.121
 6687SOL    HW220961   0.261   0.810   0.263
 6688SOL     OW20962   0.541   4.880   2.656
 6688SOL    HW120963   0.604   4.917   2.588
 6688SOL    HW220964   0.590   4.863   2.742
 6689SOL     OW20965   4.787   4.620   6.942
 6689SOL    HW120966   4.743   4.707   6.918
 6689SOL    HW220967   4.885   4.635   6.955
 6690SOL     OW20968   0.809   1.721   0.807
 6690SOL    HW120969   0.815   1.806   0.754
 6690SOL    HW220970   0.883   1.659   0.779
 6691SOL     OW20971   1.544   5.043   0.849
 6691SOL    HW120972   1.596   4.961   0.827
 6691SOL    HW220973   1.446   5.023   0.845
 6692SOL     OW20974   4.373   3.913   6.333
 6692SOL    HW120975   4.343   3.993   6.384
 6692SOL    HW220976   4.300   3.883   6.271
 6693SOL     OW20977   4.122   3.748   5.674
 6693SOL    HW120978   4.133   3.676   5.742
 6693SOL    HW220979   4.036   3.735   5.625
 6694SOL     OW20980   2.699   6.047   6.962
 6694SOL    HW120981   2.624   6.098   6.921
 6694SOL    HW220982   2.668   6.006   0.027
 6695SOL     OW20983   1.483   1.642   6.907
 6695SOL    HW120984   1.446   1.733   6.890
 6695SOL    HW220985   1.569   1.631   6.857
 6696SOL     OW20986   1.887   3.149   1.191
 6696SOL    HW120987   1.810   3.195   1.148
 6696SOL    HW220988   1.856   3.063   1.233
 6697SOL     OW20989   5.212   3.376   4.379
 6697SOL    HW120990   5.260   3.297   4.343
 6697SOL    HW220991   5.232   3.457   4.323
 6698SOL     OW20992   2.798   4.079   6.645
 6698SOL    HW120993   2.707   4.092   6.685
 6698SOL    HW220994   2.819   4.156   6.585
 6699SOL     OW20995   1.396   3.416   6.673
 6699SOL    HW120996   1.304   3.427   6.711
 6699SOL    HW220997   1.401   3.328   6.624
 6700SOL     OW20998   0.417   6.482   6.523
 6700SOL    HW120999   0.319   6.464   6.525
 6700SOL    HW221000   0.467   6.396   6.511
 6701SOL     OW21001   0.646   2.313   1.052
 6701SOL    HW121002   0.560   2.265   1.035
 6701SOL    HW221003   0.628   2.397   1.103
 6702SOL     OW21004   1.733   3.436   0.532
 6702SOL    HW121005   1.634   3.425   0.546
 6702SOL    HW221006   1.780   3.428   0.619
 6703SOL     OW21007   0.089   2.309   6.566
 6703SOL    HW121008   0.080   2.230   6.627
 6703SOL    HW221009   0.162   2.369   6.600
 6704SOL     OW21010   4.838   3.025   3.147
 6704SOL    HW121011   4.862   2.936   3.185
 6704SOL    HW221012   4.758   3.062   3.194
 6705SOL     OW21013   5.951   1.251   1.018
 6705SOL    HW121014   5.860   1.248   1.060
 6705SOL    HW221015   6.019   1.223   1.085
 6706SOL     OW21016   1.165   6.085   6.795
 6706SOL    HW121017   1.107   6.012   6.758
 6706SOL    HW221018   1.242   6.045   6.845
 6707SOL     OW21019   1.015   5.097   2.693
 6707SOL    HW121020   0.980   5.008   2.722
 6707SOL    HW221021   0.947   5.167   2.712
 6708SOL     OW21022   1.853   6.092   1.124
 6708SOL    HW121023   1.762   6.119   1.091
 6708SOL    HW221024   1.889   6.165   1.182
 6709SOL     OW21025   5.779   1.807   3.461
 6709SOL    HW121026   5.721   1.778   3.537
 6709SOL    HW221027   5.758   1.752   3.380
 6710SOL     OW21028   1.756   2.098   0.624
 6710SOL    HW121029   1.823   2.074   0.555
 6710SOL    HW221030   1.668   2.055   0.602
 6711SOL     OW21031   5.502   3.615   6.402
 6711SOL    HW121032   5.586   3.561   6.391
 6711SOL    HW221033   5.447   3.574   6.475
 6712SOL     OW21034   3.769   6.548   0.981
 6712SOL    HW121035   3.726   6.606   1.050
 6712SOL    HW221036   3.698   6.502   0.928
 6713SOL     OW21037   1.386   1.857   3.425
 6713SOL    HW121038   1.429   1.917   3.357
 6713SOL    HW221039   1.301   1.900   3.457
 6714SOL     OW21040   6.736   0.303   5.111
 6714SOL    HW121041   6.741   0.338   5.205
 6714SOL    HW221042   6.696   0.373   5.052
 6715SOL     OW21043   6.152   2.434   0.564
 6715SOL    HW121044   6.176   2.385   0.647
 6715SOL    HW221045   6.104   2.519   0.588
 6716SOL     OW21046   3.408   6.171   0.949
 6716SOL    HW121047   3.470   6.097   0.923
 6716SOL    HW221048   3.410   6.182   1.049
 6717SOL     OW21049   4.051   1.177   6.997
 6717SOL    HW121050   4.046   1.246   6.925
 6717SOL    HW221051   3.981   1.107   6.980
 6718SOL     OW21052   3.838   0.139   6.837
 6718SOL    HW121053   3.791   0.167   6.753
 6718SOL    HW221054   3.902   0.064   6.816
 6719SOL     OW21055   0.632   1.972   5.556
 6719SOL    HW121056   0.561   2.038   5.533
 6719SOL    HW221057   0.722   2.013   5.543
 6720SOL     OW21058   1.585   4.888   1.159
 6720SOL    HW121059   1.639   4.961   1.117
 6720SOL    HW221060   1.536   4.924   1.238
 6721SOL     OW21061   7.006   6.034   2.954
 6721SOL    HW121062   0.018   6.115   3.001
 6721SOL    HW221063   6.910   6.019   2.980
 6722SOL     OW21064   4.610   5.009   6.684
 6722SOL    HW121065   4.683   4.949   6.651
 6722SOL    HW221066   4.531   4.954   6.710
 6723SOL     OW21067   3.980   1.071   2.653
 6723SOL    HW121068   4.004   1.032   2.742
 6723SOL    HW221069   3.981   1.170   2.658
 6724SOL     OW21070   3.562   4.396   5.322
 6724SOL    HW121071   3.471   4.371   5.354
 6724SOL    HW221072   3.627   4.389   5.398
 6725SOL     OW21073   0.132   5.400   1.181
 6725SOL    HW121074   0.036   5.416   1.155
 6725SOL    HW221075   0.152   5.302   1.174
 6726SOL     OW21076   2.268   2.889   1.741
 6726SOL    HW121077   2.316   2.876   1.654
 6726SOL    HW221078   2.298   2.974   1.784
 6727SOL     OW21079   3.326   4.191   0.645
 6727SOL    HW121080   3.260   4.242   0.590
 6727SOL    HW221081   3.344   4.102   0.602
 6728SOL     OW21082   4.574   1.752   4.472
 6728SOL    HW121083   4.580   1.696   4.555
 6728SOL    HW221084   4.491   1.728   4.421
 6729SOL     OW21085   4.700   6.163   3.414
 6729SOL    HW121086   4.758   6.240   3.387
 6729SOL    HW221087   4.757   6.087   3.443
 6730SOL     OW21088   1.331   0.088   2.266
 6730SOL    HW121089   1.261   0.154   2.292
 6730SOL    HW221090   1.414   0.136   2.238
 6731SOL     OW21091   2.016   4.096   1.764
 6731SOL    HW121092   2.106   4.074   1.800
 6731SOL    HW221093   2.019   4.094   1.664
 6732SOL     OW21094   2.997   5.589   0.566
 6732SOL    HW121095   2.955   5.510   0.610
 6732SOL    HW221096   3.089   5.603   0.602
 6733SOL     OW21097   6.238   5.799   4.747
 6733SOL    HW121098   6.184   5.733   4.696
 6733SOL    HW221099   6.192   5.821   4.833
 6734SOL     OW21100   2.367   3.365   6.175
 6734SOL    HW121101   2.305   3.387   6.251
 6734SOL    HW221102   2.384   3.447   6.122
 6735SOL     OW21103   0.775   6.649   6.491
 6735SOL    HW121104   0.677   6.637   6.483
 6735SOL    HW221105   0.821   6.607   6.413
 6736SOL     OW21106   2.403   4.599   2.221
 6736SOL    HW121107   2.396   4.508   2.180
 6736SOL    HW221108   2.488   4.642   2.190
 6737SOL     OW21109   1.639   0.055   0.885
 6737SOL    HW121110   1.605   0.045   0.978
 6737SOL    HW221111   1.715   7.013   0.870
 6738SOL     OW21112   4.766   1.675   1.415
 6738SOL    HW121113   4.763   1.660   1.316
 6738SOL    HW221114   4.817   1.601   1.459
 6739SOL     OW21115   4.272   6.479   5.625
 6739SOL    HW121116   4.218   6.558   5.596
 6739SOL    HW221117   4.368   6.492   5.597
 6740SOL     OW21118   5.821   2.523   5.614
 6740SOL    HW121119   5.773   2.610   5.617
 6740SOL    HW221120   5.920   2.539   5.622
 6741SOL     OW21121   0.112   0.405   6.007
 6741SOL    HW121122   0.124   0.500   6.037
 6741SOL    HW221123   0.014   0.383   6.007
 6742SOL     OW21124   6.258   5.777   5.148
 6742SOL    HW121125   6.199   5.790   5.068
 6742SOL    HW221126   6.331   5.712   5.125
 6743SOL     OW21127   5.705   2.357   1.637
 6743SOL    HW121128   5.709   2.276   1.696
 6743SOL    HW221129   5.734   2.437   1.690
 6744SOL     OW21130   4.567   6.866   4.188
 6744SOL    HW121131   4.658   6.860   4.146
 6744SOL    HW221132   4.575   6.902   4.280
 6745SOL     OW21133   0.710   3.337   3.173
 6745SOL    HW121134   0.626   3.292   3.205
 6745SOL    HW221135   0.761   3.372   3.251
 6746SOL     OW21136   6.016   1.131   0.561
 6746SOL    HW121137   5.993   1.188   0.640
 6746SOL    HW221138   5.943   1.064   0.547
 6747SOL     OW21139   4.571   5.455   0.055
 6747SOL    HW121140   4.520   5.429   6.995
 6747SOL    HW221141   4.633   5.530   0.033
 6748SOL     OW21142   0.210   6.520   2.386
 6748SOL    HW121143   0.244   6.426   2.385
 6748SOL    HW221144   0.110   6.519   2.383
 6749SOL     OW21145   3.026   5.669   1.350
 6749SOL    HW121146   3.119   5.679   1.314
 6749SOL    HW221147   2.964   5.729   1.298
 6750SOL     OW21148   2.296   3.021   5.349
 6750SOL    HW121149   2.311   3.075   5.432
 6750SOL    HW221150   2.377   3.028   5.290
 6751SOL     OW21151   4.041   2.277   5.909
 6751SOL    HW121152   3.992   2.345   5.964
 6751SOL    HW221153   4.054   2.194   5.963
 6752SOL     OW21154   7.009   1.934   6.952
 6752SOL    HW121155   6.950   1.995   7.004
 6752SOL    HW221156   6.972   1.841   6.956
 6753SOL     OW21157   6.464   1.236   6.916
 6753SOL    HW121158   6.398   1.310   6.918
 6753SOL    HW221159   6.423   1.156   6.872
 6754SOL     OW21160   4.711   0.446   6.562
 6754SOL    HW121161   4.715   0.346   6.558
 6754SOL    HW221162   4.796   0.485   6.525
 6755SOL     OW21163   5.361   1.881   3.697
 6755SOL    HW121164   5.318   1.831   3.621
 6755SOL    HW221165   5.416   1.956   3.661
 6756SOL     OW21166   4.704   4.502   3.530
 6756SOL    HW121167   4.720   4.408   3.498
 6756SOL    HW221168   4.666   4.499   3.623
 6757SOL     OW21169   5.906   4.674   1.083
 6757SOL    HW121170   5.926   4.739   1.010
 6757SOL    HW221171   5.962   4.695   1.163
 6758SOL     OW21172   6.403   1.819   2.910
 6758SOL    HW121173   6.453   1.787   2.829
 6758SOL    HW221174   6.358   1.741   2.953
 6759SOL     OW21175   1.144   5.102   3.223
 6759SOL    HW121176   1.243   5.097   3.221
 6759SOL    HW221177   1.107   5.016   3.259
 6760SOL     OW21178   6.901   3.679   4.961
 6760SOL    HW121179   6.826   3.738   4.933
 6760SOL    HW221180   6.917   3.689   5.059
 6761SOL     OW21181   6.091   2.604   6.109
 6761SOL    HW121182   6.021   2.561   6.166
 6761SOL    HW221183   6.174   2.616   6.162
 6762SOL     OW21184   0.408   3.774   3.813
 6762SOL    HW121185   0.463   3.849   3.850
 6762SOL    HW221186   0.452   3.739   3.730
 6763SOL     OW21187   6.409   6.779   5.273
 6763SOL    HW121188   6.365   6.694   5.303
 6763SOL    HW221189   6.363   6.857   5.314
 6764SOL     OW21190   1.990   3.641   6.953
 6764SOL    HW121191   1.896   3.610   6.973
 6764SOL    HW221192   2.030   3.581   6.884
 6765SOL     OW21193   4.542   4.901   2.461
 6765SOL    HW121194   4.574   4.807   2.472
 6765SOL    HW221195   4.600   4.962   2.515
 6766SOL     OW21196   2.352   2.080   6.069
 6766SOL    HW121197   2.315   2.042   5.985
 6766SOL    HW221198   2.452   2.068   6.070
 6767SOL     OW21199   0.362   2.701   5.841
 6767SOL    HW121200   0.399   2.608   5.836
 6767SOL    HW221201   0.263   2.697   5.855
 6768SOL     OW21202   6.753   0.853   6.012
 6768SOL    HW121203   6.763   0.946   6.046
 6768SOL    HW221204   6.721   0.855   5.917
 6769SOL     OW21205   0.892   2.435   5.954
 6769SOL    HW121206   0.978   2.386   5.966
 6769SOL    HW221207   0.840   2.394   5.878
 6770SOL     OW21208   0.118   1.569   3.627
 6770SOL    HW121209   0.027   1.532   3.606
 6770SOL    HW221210   0.153   1.620   3.549
 6771SOL     OW21211   6.428   2.008   2.620
 6771SOL    HW121212   6.481   2.067   2.680
 6771SOL    HW221213   6.446   2.033   2.525
 6772SOL     OW21214   1.018   0.647   2.231
 6772SOL    HW121215   1.032   0.746   2.225
 6772SOL    HW221216   0.923   0.625   2.208
 6773SOL     OW21217   1.687   1.136   2.810
 6773SOL    HW121218   1.765   1.191   2.781
 6773SOL    HW221219   1.720   1.053   2.856
 6774SOL     OW21220   3.937   1.115   5.214
 6774SOL    HW121221   3.980   1.189   5.266
 6774SOL    HW221222   4.006   1.068   5.160
 6775SOL     OW21223   1.749   2.214   4.626
 6775SOL    HW121224   1.708   2.252   4.543
 6775SOL    HW221225   1.789   2.288   4.680
 6776SOL     OW21226   3.512   3.859   3.652
 6776SOL    HW121227   3.579   3.906   3.594
 6776SOL    HW221228   3.534   3.874   3.748
 6777SOL     OW21229   0.240   0.170   6.016
 6777SOL    HW121230   0.195   0.259   6.010
 6777SOL    HW221231   0.173   0.098   6.000
 6778SOL     OW21232   6.710   5.863   2.301
 6778SOL    HW121233   6.615   5.851   2.331
 6778SOL    HW221234   6.711   5.897   2.207
 6779SOL     OW21235   4.949   4.459   6.436
 6779SOL    HW121236   5.047   4.447   6.416
 6779SOL    HW221237   4.895   4.418   6.362
 6780SOL     OW21238   4.705   1.089   2.404
 6780SOL    HW121239   4.740   1.159   2.467
 6780SOL    HW221240   4.606   1.080   2.415
 6781SOL     OW21241   5.514   3.585   3.036
 6781SOL    HW121242   5.559   3.497   3.051
 6781SOL    HW221243   5.569   3.657   3.078
 6782SOL     OW21244   0.171   1.738   2.573
 6782SOL    HW121245   0.199   1.649   2.610
 6782SOL    HW221246   0.166   1.732   2.473
 6783SOL     OW21247   0.394   6.587   6.789
 6783SOL    HW121248   0.303   6.574   6.829
 6783SOL    HW221249   0.391   6.564   6.692
 6784SOL     OW21250   0.898   4.875   0.058
 6784SOL    HW121251   0.882   4.777   0.048
 6784SOL    HW221252   0.861   4.922   7.000
 6785SOL     OW21253   5.417   4.587   1.896
 6785SOL    HW121254   5.448   4.660   1.956
 6785SOL    HW221255   5.430   4.615   1.801
 6786SOL     OW21256   6.559   1.840   5.303
 6786SOL    HW121257   6.468   1.831   5.344
 6786SOL    HW221258   6.565   1.780   5.223
 6787SOL     OW21259   4.100   2.145   1.167
 6787SOL    HW121260   4.007   2.173   1.144
 6787SOL    HW221261   4.099   2.091   1.252
 6788SOL     OW21262   1.514   4.052   0.930
 6788SOL    HW121263   1.428   4.021   0.970
 6788SOL    HW221264   1.526   4.011   0.840
 6789SOL     OW21265   6.366   3.563   2.002
 6789SOL    HW121266   6.438   3.577   1.935
 6789SOL    HW221267   6.281   3.539   1.955
 6790SOL     OW21268   0.346   5.391   0.472
 6790SOL    HW121269   0.271   5.332   0.442
 6790SOL    HW221270   0.310   5.464   0.529
 6791SOL     OW21271   2.048   6.431   3.302
 6791SOL    HW121272   2.021   6.353   3.358
 6791SOL    HW221273   2.141   6.418   3.269
 6792SOL     OW21274   3.512   5.939   6.746
 6792SOL    HW121275   3.495   5.958   6.649
 6792SOL    HW221276   3.598   5.889   6.755
 6793SOL     OW21277   2.312   4.116   6.911
 6793SOL    HW121278   2.321   4.126   7.010
 6793SOL    HW221279   2.215   4.121   6.887
 6794SOL     OW21280   4.865   2.184   4.188
 6794SOL    HW121281   4.798   2.229   4.129
 6794SOL    HW221282   4.819   2.117   4.246
 6795SOL     OW21283   0.410   1.054   2.186
 6795SOL    HW121284   0.395   1.008   2.273
 6795SOL    HW221285   0.506   1.043   2.159
 6796SOL     OW21286   6.838   3.040   2.003
 6796SOL    HW121287   6.863   2.956   2.052
 6796SOL    HW221288   6.920   3.093   1.983
 6797SOL     OW21289   1.390   3.641   0.838
 6797SOL    HW121290   1.487   3.647   0.863
 6797SOL    HW221291   1.368   3.546   0.816
 6798SOL     OW21292   4.910   1.726   1.777
 6798SOL    HW121293   4.985   1.739   1.842
 6798SOL    HW221294   4.931   1.649   1.717
 6799SOL     OW21295   5.293   6.954   2.954
 6799SOL    HW121296   5.381   6.996   2.978
 6799SOL    HW221297   5.281   6.957   2.855
 6800SOL     OW21298   6.439   2.685   2.062
 6800SOL    HW121299   6.394   2.652   1.979
 6800SOL    HW221300   6.476   2.777   2.045
 6801SOL     OW21301   2.163   5.091   5.144
 6801SOL    HW121302   2.081   5.060   5.096
 6801SOL    HW221303   2.148   5.182   5.182
 6802SOL     OW21304   2.670   4.469   1.658
 6802SOL    HW121305   2.678   4.370   1.646
 6802SOL    HW221306   2.724   4.497   1.738
 6803SOL     OW21307   6.342   5.088   6.387
 6803SOL    HW121308   6.351   5.180   6.427
 6803SOL    HW221309   6.366   5.020   6.455
 6804SOL     OW21310   3.394   4.954   1.951
 6804SOL    HW121311   3.473   4.893   1.953
 6804SOL    HW221312   3.331   4.928   2.023
 6805SOL     OW21313   0.576   3.952   3.899
 6805SOL    HW121314   0.643   3.980   3.831
 6805SOL    HW221315   0.622   3.907   3.975
 6806SOL     OW21316   6.227   3.812   1.641
 6806SOL    HW121317   6.137   3.834   1.680
 6806SOL    HW221318   6.229   3.836   1.544
 6807SOL     OW21319   3.850   2.920   2.362
 6807SOL    HW121320   3.933   2.867   2.342
 6807SOL    HW221321   3.771   2.874   2.322
 6808SOL     OW21322   3.618   6.278   3.534
 6808SOL    HW121323   3.557   6.239   3.465
 6808SOL    HW221324   3.652   6.366   3.502
 6809SOL     OW21325   5.705   2.924   0.577
 6809SOL    HW121326   5.719   2.900   0.673
 6809SOL    HW221327   5.657   3.012   0.572
 6810SOL     OW21328   3.208   7.018   4.410
 6810SOL    HW121329   3.127   0.027   4.359
 6810SOL    HW221330   3.290   0.017   4.357
 6811SOL     OW21331   6.542   1.391   1.420
 6811SOL    HW121332   6.578   1.403   1.513
 6811SOL    HW221333   6.488   1.471   1.395
 6812SOL     OW21334   3.302   4.340   5.448
 6812SOL    HW121335   3.306   4.318   5.546
 6812SOL    HW221336   3.216   4.386   5.428
 6813SOL     OW21337   0.062   3.919   2.114
 6813SOL    HW121338   7.017   3.892   2.044
 6813SOL    HW221339   0.075   4.018   2.112
 6814SOL     OW21340   4.094   2.347   1.678
 6814SOL    HW121341   3.994   2.345   1.672
 6814SOL    HW221342   4.124   2.441   1.692
 6815SOL     OW21343   1.480   5.893   0.217
 6815SOL    HW121344   1.465   5.930   0.308
 6815SOL    HW221345   1.477   5.793   0.221
 6816SOL     OW21346   5.991   6.602   3.855
 6816SOL    HW121347   5.935   6.520   3.845
 6816SOL    HW221348   5.936   6.683   3.832
 6817SOL     OW21349   6.086   0.684   1.608
 6817SOL    HW121350   6.047   0.641   1.527
 6817SOL    HW221351   6.100   0.782   1.590
 6818SOL     OW21352   6.664   0.056   5.709
 6818SOL    HW121353   6.665   0.053   5.609
 6818SOL    HW221354   6.692   6.989   5.746
 6819SOL     OW21355   5.752   3.987   0.219
 6819SOL    HW121356   5.780   3.938   0.137
 6819SOL    HW221357   5.684   4.056   0.195
 6820SOL     OW21358   2.161   4.456   1.306
 6820SOL    HW121359   2.069   4.440   1.340
 6820SOL    HW221360   2.156   4.503   1.218
 6821SOL     OW21361   2.827   2.594   5.777
 6821SOL    HW121362   2.854   2.570   5.684
 6821SOL    HW221363   2.858   2.523   5.840
 6822SOL     OW21364   6.750   4.259   4.762
 6822SOL    HW121365   6.665   4.306   4.787
 6822SOL    HW221366   6.825   4.293   4.818
 6823SOL     OW21367   6.819   3.108   5.506
 6823SOL    HW121368   6.746   3.104   5.438
 6823SOL    HW221369   6.891   3.169   5.472
 6824SOL     OW21370   0.513   0.281   3.904
 6824SOL    HW121371   0.566   0.344   3.846
 6824SOL    HW221372   0.460   0.332   3.970
 6825SOL     OW21373   4.950   4.812   1.670
 6825SOL    HW121374   4.894   4.792   1.590
 6825SOL    HW221375   5.028   4.869   1.644
 6826SOL     OW21376   5.549   0.953   3.726
 6826SOL    HW121377   5.580   0.869   3.772
 6826SOL    HW221378   5.522   1.020   3.795
 6827SOL     OW21379   5.276   5.107   5.228
 6827SOL    HW121380   5.184   5.105   5.189
 6827SOL    HW221381   5.285   5.187   5.287
 6828SOL     OW21382   2.637   2.457   2.787
 6828SOL    HW121383   2.728   2.440   2.750
 6828SOL    HW221384   2.587   2.518   2.725
 6829SOL     OW21385   5.583   6.786   4.069
 6829SOL    HW121386   5.552   6.761   3.977
 6829SOL    HW221387   5.605   6.703   4.120
 6830SOL     OW21388   3.580   6.346   2.330
 6830SOL    HW121389   3.576   6.270   2.396
 6830SOL    HW221390   3.531   6.320   2.247
 6831SOL     OW21391   2.442   1.030   6.867
 6831SOL    HW121392   2.535   0.994   6.875
 6831SOL    HW221393   2.380   0.956   6.842
 6832SOL     OW21394   3.171   3.708   0.388
 6832SOL    HW121395   3.194   3.611   0.385
 6832SOL    HW221396   3.256   3.761   0.395
 6833SOL     OW21397   4.631   4.870   0.265
 6833SOL    HW121398   4.602   4.832   0.353
 6833SOL    HW221399   4.730   4.884   0.267
 6834SOL     OW21400   6.375   5.486   5.389
 6834SOL    HW121401   6.289   5.436   5.382
 6834SOL    HW221402   6.427   5.451   5.467
 6835SOL     OW21403   3.957   0.107   2.696
 6835SOL    HW121404   3.976   0.165   2.776
 6835SOL    HW221405   3.935   0.165   2.618
 6836SOL     OW21406   0.539   4.630   6.970
 6836SOL    HW121407   0.517   4.693   0.023
 6836SOL    HW221408   0.533   4.536   7.003
 6837SOL     OW21409   6.666   2.621   1.524
 6837SOL    HW121410   6.706   2.678   1.596
 6837SOL    HW221411   6.621   2.678   1.456
 6838SOL     OW21412   1.855   4.479   0.093
 6838SOL    HW121413   1.793   4.476   0.014
 6838SOL    HW221414   1.943   4.516   0.064
 6839SOL     OW21415   5.958   2.136   5.589
 6839SOL    HW121416   5.927   2.131   5.494
 6839SOL    HW221417   5.891   2.091   5.648
 6840SOL     OW21418   3.455   6.996   4.542
 6840SOL    HW121419   3.532   6.987   4.479
 6840SOL    HW221420   3.371   7.015   4.491
 6841SOL     OW21421   4.558   6.087   0.624
 6841SOL    HW121422   4.643   6.131   0.654
 6841SOL    HW221423   4.574   5.988   0.614
 6842SOL     OW21424   0.885   3.501   3.630
 6842SOL    HW121425   0.868   3.588   3.675
 6842SOL    HW221426   0.830   3.430   3.674
 6843SOL     OW21427   4.824   3.022   1.713
 6843SOL    HW121428   4.770   3.030   1.797
 6843SOL    HW221429   4.919   3.047   1.732
 6844SOL     OW21430   3.570   6.756   4.283
 6844SOL    HW121431   3.474   6.740   4.304
 6844SOL    HW221432   3.613   6.670   4.258
 6845SOL     OW21433   3.488   3.921   6.965
 6845SOL    HW121434   3.400   3.934   6.918
 6845SOL    HW221435   3.473   3.869   0.027
 6846SOL     OW21436   3.888   3.006   4.151
 6846SOL    HW121437   3.801   2.972   4.186
 6846SOL    HW221438   3.897   2.981   4.055
 6847SOL     OW21439   5.108   3.446   2.294
 6847SOL    HW121440   5.153   3.412   2.212
 6847SOL    HW221441   5.030   3.503   2.268
 6848SOL     OW21442   0.718   5.905   4.970
 6848SOL    HW121443   0.743   5.870   5.060
 6848SOL    HW221444   0.650   5.978   4.981
 6849SOL     OW21445   3.113   0.117   4.803
 6849SOL    HW121446   3.139   0.149   4.894
 6849SOL    HW221447   3.124   0.192   4.737
 6850SOL     OW21448   6.773   3.885   1.706
 6850SOL    HW121449   6.700   3.891   1.773
 6850SOL    HW221450   6.780   3.791   1.672
 6851SOL     OW21451   1.747   5.681   0.252
 6851SOL    HW121452   1.725   5.612   0.321
 6851SOL    HW221453   1.729   5.772   0.289
 6852SOL     OW21454   5.899   4.807   2.054
 6852SOL    HW121455   5.961   4.735   2.086
 6852SOL    HW221456   5.858   4.779   1.967
 6853SOL     OW21457   6.273   4.163   4.780
 6853SOL    HW121458   6.328   4.218   4.842
 6853SOL    HW221459   6.331   4.128   4.706
 6854SOL     OW21460   5.814   1.029   6.812
 6854SOL    HW121461   5.864   0.975   6.880
 6854SOL    HW221462   5.848   1.123   6.813
 6855SOL     OW21463   3.163   6.766   1.736
 6855SOL    HW121464   3.075   6.770   1.784
 6855SOL    HW221465   3.167   6.840   1.669
 6856SOL     OW21466   0.230   5.765   5.565
 6856SOL    HW121467   0.268   5.790   5.476
 6856SOL    HW221468   0.299   5.718   5.619
 6857SOL     OW21469   5.182   0.193   6.849
 6857SOL    HW121470   5.258   0.207   6.785
 6857SOL    HW221471   5.208   0.124   6.916
 6858SOL     OW21472   3.844   2.893   6.633
 6858SOL    HW121473   3.805   2.921   6.721
 6858SOL    HW221474   3.861   2.974   6.577
 6859SOL     OW21475   4.442   0.731   0.770
 6859SOL    HW121476   4.364   0.785   0.738
 6859SOL    HW221477   4.497   0.786   0.833
 6860SOL     OW21478   4.850   3.423   0.186
 6860SOL    HW121479   4.885   3.479   0.112
 6860SOL    HW221480   4.895   3.448   0.272
 6861SOL     OW21481   6.204   3.677   0.181
 6861SOL    HW121482   6.179   3.728   0.263
 6861SOL    HW221483   6.122   3.653   0.130
 6862SOL     OW21484   2.432   4.584   4.776
 6862SOL    HW121485   2.346   4.583   4.828
 6862SOL    HW221486   2.420   4.637   4.693
 6863SOL     OW21487   1.014   3.606   3.915
 6863SOL    HW121488   0.923   3.604   3.875
 6863SOL    HW221489   1.055   3.696   3.900
 6864SOL     OW21490   3.626   5.225   6.204
 6864SOL    HW121491   3.632   5.139   6.255
 6864SOL    HW221492   3.554   5.219   6.135
 6865SOL     OW21493   1.116   2.907   4.616
 6865SOL    HW121494   1.036   2.959   4.582
 6865SOL    HW221495   1.121   2.917   4.715
 6866SOL     OW21496   0.910   3.968   2.528
 6866SOL    HW121497   0.853   4.045   2.557
 6866SOL    HW221498   0.888   3.944   2.434
 6867SOL     OW21499   2.360   5.590   3.420
 6867SOL    HW121500   2.451   5.633   3.419
 6867SOL    HW221501   2.290   5.660   3.436
 6868SOL     OW21502   1.993   5.832   4.825
 6868SOL    HW121503   2.007   5.930   4.820
 6868SOL    HW221504   2.078   5.787   4.851
 6869SOL     OW21505   0.409   2.924   5.246
 6869SOL    HW121506   0.437   2.966   5.332
 6869SOL    HW221507   0.309   2.920   5.241
 6870SOL     OW21508   5.215   3.512   3.120
 6870SOL    HW121509   5.170   3.583   3.174
 6870SOL    HW221510   5.313   3.531   3.115
 6871SOL     OW21511   4.536   5.701   1.660
 6871SOL    HW121512   4.479   5.622   1.681
 6871SOL    HW221513   4.592   5.681   1.579
 6872SOL     OW21514   3.562   4.224   0.853
 6872SOL    HW121515   3.571   4.323   0.849
 6872SOL    HW221516   3.486   4.195   0.794
 6873SOL     OW21517   5.430   4.656   4.661
 6873SOL    HW121518   5.427   4.728   4.731
 6873SOL    HW221519   5.340   4.613   4.654
 6874SOL     OW21520   1.052   1.942   6.128
 6874SOL    HW121521   1.145   1.931   6.163
 6874SOL    HW221522   0.991   1.964   6.205
 6875SOL     OW21523   4.004   0.532   4.702
 6875SOL    HW121524   4.083   0.471   4.697
 6875SOL    HW221525   3.967   0.546   4.611
 6876SOL     OW21526   3.384   6.300   4.666
 6876SOL    HW121527   3.361   6.203   4.678
 6876SOL    HW221528   3.358   6.350   4.749
 6877SOL     OW21529   2.154   3.500   6.778
 6877SOL    HW121530   2.191   3.419   6.732
 6877SOL    HW221531   2.229   3.551   6.820
 6878SOL     OW21532   1.384   1.494   4.844
 6878SOL    HW121533   1.374   1.544   4.758
 6878SOL    HW221534   1.294   1.470   4.880
 6879SOL     OW21535   6.525   0.827   5.435
 6879SOL    HW121536   6.427   0.812   5.440
 6879SOL    HW221537   6.548   0.869   5.347
 6880SOL     OW21538   1.465   4.305   4.772
 6880SOL    HW121539   1.490   4.227   4.829
 6880SOL    HW221540   1.465   4.278   4.676
 6881SOL     OW21541   5.124   5.642   1.510
 6881SOL    HW121542   5.219   5.618   1.490
 6881SOL    HW221543   5.112   5.741   1.500
 6882SOL     OW21544   2.381   5.793   5.677
 6882SOL    HW121545   2.376   5.869   5.742
 6882SOL    HW221546   2.431   5.717   5.718
 6883SOL     OW21547   3.354   5.981   1.999
 6883SOL    HW121548   3.440   6.013   1.960
 6883SOL    HW221549   3.305   6.058   2.039
 6884SOL     OW21550   2.021   4.737   2.467
 6884SOL    HW121551   2.113   4.698   2.479
 6884SOL    HW221552   2.000   4.797   2.544
 6885SOL     OW21553   4.255   4.804   4.947
 6885SOL    HW121554   4.162   4.828   4.975
 6885SOL    HW221555   4.259   4.707   4.922
 6886SOL     OW21556   5.405   0.863   1.556
 6886SOL    HW121557   5.378   0.776   1.514
 6886SOL    HW221558   5.452   0.919   1.488
 6887SOL     OW21559   6.008   1.150   4.899
 6887SOL    HW121560   6.084   1.199   4.855
 6887SOL    HW221561   5.969   1.084   4.835
 6888SOL     OW21562   6.157   6.948   4.020
 6888SOL    HW121563   6.227   7.017   3.999
 6888SOL    HW221564   6.141   6.946   4.118
 6889SOL     OW21565   2.242   3.853   6.507
 6889SOL    HW121566   2.173   3.831   6.438
 6889SOL    HW221567   2.196   3.887   6.589
 6890SOL     OW21568   1.352   0.327   1.486
 6890SOL    HW121569   1.372   0.371   1.398
 6890SOL    HW221570   1.300   0.243   1.469
 6891SOL     OW21571   4.180   5.509   6.044
 6891SOL    HW121572   4.239   5.569   6.099
 6891SOL    HW221573   4.194   5.414   6.072
 6892SOL     OW21574   3.535   1.758   4.215
 6892SOL    HW121575   3.491   1.837   4.173
 6892SOL    HW221576   3.466   1.705   4.266
 6893SOL     OW21577   5.014   0.080   1.319
 6893SOL    HW121578   5.025   0.058   1.222
 6893SOL    HW221579   4.960   0.009   1.363
 6894SOL     OW21580   5.777   5.066   6.058
 6894SOL    HW121581   5.696   5.010   6.043
 6894SOL    HW221582   5.807   5.058   6.152
 6895SOL     OW21583   4.248   5.344   5.570
 6895SOL    HW121584   4.261   5.365   5.667
 6895SOL    HW221585   4.329   5.297   5.535
 6896SOL     OW21586   4.980   1.862   2.628
 6896SOL    HW121587   4.980   1.850   2.727
 6896SOL    HW221588   5.073   1.847   2.593
 6897SOL     OW21589   3.956   0.615   1.202
 6897SOL    HW121590   3.879   0.609   1.266
 6897SOL    HW221591   3.922   0.649   1.114
 6898SOL     OW21592   4.052   1.617   2.384
 6898SOL    HW121593   4.130   1.573   2.340
 6898SOL    HW221594   3.974   1.554   2.384
 6899SOL     OW21595   5.336   5.676   5.890
 6899SOL    HW121596   5.301   5.757   5.937
 6899SOL    HW221597   5.426   5.696   5.852
 6900SOL     OW21598   4.453   0.023   6.171
 6900SOL    HW121599   4.413   0.107   6.134
 6900SOL    HW221600   4.422   6.967   6.118
 6901SOL     OW21601   2.416   0.852   0.202
 6901SOL    HW121602   2.340   0.857   0.136
 6901SOL    HW221603   2.497   0.893   0.162
 6902SOL     OW21604   6.903   5.861   2.608
 6902SOL    HW121605   6.907   5.854   2.707
 6902SOL    HW221606   6.949   5.782   2.567
 6903SOL     OW21607   5.038   4.451   0.305
 6903SOL    HW121608   4.987   4.524   0.258
 6903SOL    HW221609   5.080   4.391   0.237
 6904SOL     OW21610   0.615   0.463   2.873
 6904SOL    HW121611   0.588   0.367   2.865
 6904SOL    HW221612   0.536   0.517   2.904
 6905SOL     OW21613   3.485   5.251   1.114
 6905SOL    HW121614   3.479   5.258   1.014
 6905SOL    HW221615   3.417   5.186   1.147
 6906SOL     OW21616   6.245   5.919   3.062
 6906SOL    HW121617   6.268   5.965   3.148
 6906SOL    HW221618   6.171   5.854   3.077
 6907SOL     OW21619   3.420   0.479   1.473
 6907SOL    HW121620   3.493   0.421   1.437
 6907SOL    HW221621   3.353   0.497   1.401
 6908SOL     OW21622   5.408   6.509   6.760
 6908SOL    HW121623   5.442   6.586   6.706
 6908SOL    HW221624   5.309   6.505   6.754
 6909SOL     OW21625   2.139   2.111   0.205
 6909SOL    HW121626   2.094   2.153   0.126
 6909SOL    HW221627   2.225   2.069   0.175
 6910SOL     OW21628   5.328   1.513   0.900
 6910SOL    HW121629   5.237   1.478   0.880
 6910SOL    HW221630   5.347   1.506   0.998
 6911SOL     OW21631   4.423   0.179   4.837
 6911SOL    HW121632   4.405   0.277   4.827
 6911SOL    HW221633   4.436   0.158   4.934
 6912SOL     OW21634   4.088   4.966   2.057
 6912SOL    HW121635   4.032   4.901   2.007
 6912SOL    HW221636   4.184   4.936   2.055
 6913SOL     OW21637   4.815   5.822   5.159
 6913SOL    HW121638   4.840   5.896   5.096
 6913SOL    HW221639   4.858   5.838   5.248
 6914SOL     OW21640   6.441   4.770   6.897
 6914SOL    HW121641   6.486   4.860   6.902
 6914SOL    HW221642   6.504   4.704   6.856
 6915SOL     OW21643   0.308   6.508   0.879
 6915SOL    HW121644   0.315   6.596   0.834
 6915SOL    HW221645   0.283   6.521   0.975
 6916SOL     OW21646   5.782   0.876   5.677
 6916SOL    HW121647   5.700   0.869   5.620
 6916SOL    HW221648   5.785   0.966   5.721
 6917SOL     OW21649   4.345   6.858   5.477
 6917SOL    HW121650   4.263   6.816   5.516
 6917SOL    HW221651   4.423   6.796   5.490
 6918SOL     OW21652   2.084   2.604   3.382
 6918SOL    HW121653   2.062   2.620   3.478
 6918SOL    HW221654   2.183   2.611   3.370
 6919SOL     OW21655   1.380   5.883   3.567
 6919SOL    HW121656   1.359   5.945   3.491
 6919SOL    HW221657   1.345   5.792   3.546
 6920SOL     OW21658   5.415   5.929   3.931
 6920SOL    HW121659   5.321   5.895   3.939
 6920SOL    HW221660   5.469   5.865   3.877
 6921SOL     OW21661   1.378   5.317   3.646
 6921SOL    HW121662   1.360   5.222   3.672
 6921SOL    HW221663   1.358   5.377   3.724
 6922SOL     OW21664   1.995   6.515   1.015
 6922SOL    HW121665   1.961   6.448   0.949
 6922SOL    HW221666   1.918   6.556   1.064
 6923SOL     OW21667   4.822   5.572   3.631
 6923SOL    HW121668   4.762   5.524   3.567
 6923SOL    HW221669   4.900   5.514   3.655
 6924SOL     OW21670   6.198   5.833   1.892
 6924SOL    HW121671   6.297   5.842   1.880
 6924SOL    HW221672   6.154   5.921   1.874
 6925SOL     OW21673   4.958   5.227   2.335
 6925SOL    HW121674   5.021   5.152   2.313
 6925SOL    HW221675   4.868   5.207   2.297
 6926SOL     OW21676   2.843   3.754   5.702
 6926SOL    HW121677   2.802   3.833   5.657
 6926SOL    HW221678   2.827   3.759   5.801
 6927SOL     OW21679   3.892   3.820   0.601
 6927SOL    HW121680   3.919   3.914   0.581
 6927SOL    HW221681   3.841   3.817   0.686
 6928SOL     OW21682   6.861   0.568   6.701
 6928SOL    HW121683   6.872   0.633   6.776
 6928SOL    HW221684   6.825   0.616   6.621
 6929SOL     OW21685   3.167   5.255   1.930
 6929SOL    HW121686   3.110   5.179   1.963
 6929SOL    HW221687   3.203   5.233   1.840
 6930SOL     OW21688   0.429   0.460   3.140
 6930SOL    HW121689   0.344   0.499   3.104
 6930SOL    HW221690   0.417   0.362   3.154
 6931SOL     OW21691   2.612   0.129   0.368
 6931SOL    HW121692   2.571   0.121   0.459
 6931SOL    HW221693   2.576   0.211   0.323
 6932SOL     OW21694   2.711   2.187   0.553
 6932SOL    HW121695   2.768   2.212   0.475
 6932SOL    HW221696   2.642   2.119   0.524
 6933SOL     OW21697   2.401   6.227   4.882
 6933SOL    HW121698   2.320   6.181   4.917
 6933SOL    HW221699   2.454   6.164   4.826
 6934SOL     OW21700   5.382   5.068   6.374
 6934SOL    HW121701   5.449   5.141   6.388
 6934SOL    HW221702   5.319   5.095   6.301
 6935SOL     OW21703   4.158   5.696   3.202
 6935SOL    HW121704   4.115   5.634   3.268
 6935SOL    HW221705   4.143   5.660   3.109
 6936SOL     OW21706   0.314   4.470   0.799
 6936SOL    HW121707   0.363   4.557   0.804
 6936SOL    HW221708   0.228   4.477   0.849
 6937SOL     OW21709   4.420   6.129   5.732
 6937SOL    HW121710   4.371   6.137   5.646
 6937SOL    HW221711   4.359   6.152   5.808
 6938SOL     OW21712   6.092   2.989   4.934
 6938SOL    HW121713   6.023   2.926   4.970
 6938SOL    HW221714   6.151   2.941   4.870
 6939SOL     OW21715   6.775   5.104   1.377
 6939SOL    HW121716   6.859   5.072   1.333
 6939SOL    HW221717   6.737   5.032   1.434
 6940SOL     OW21718   4.453   0.589   4.218
 6940SOL    HW121719   4.495   0.548   4.299
 6940SOL    HW221720   4.511   0.663   4.184
 6941SOL     OW21721   3.480   2.860   4.769
 6941SOL    HW121722   3.393   2.884   4.728
 6941SOL    HW221723   3.506   2.768   4.741
 6942SOL     OW21724   5.812   1.701   6.808
 6942SOL    HW121725   5.759   1.638   6.864
 6942SOL    HW221726   5.789   1.795   6.832
 6943SOL     OW21727   6.367   5.291   6.584
 6943SOL    HW121728   6.460   5.256   6.600
 6943SOL    HW221729   6.371   5.390   6.571
 6944SOL     OW21730   1.280   6.602   0.318
 6944SOL    HW121731   1.317   6.512   0.294
 6944SOL    HW221732   1.329   6.638   0.398
 6945SOL     OW21733   4.275   1.728   6.096
 6945SOL    HW121734   4.344   1.672   6.050
 6945SOL    HW221735   4.319   1.810   6.133
 6946SOL     OW21736   6.493   4.127   2.893
 6946SOL    HW121737   6.592   4.114   2.888
 6946SOL    HW221738   6.471   4.225   2.888
 6947SOL     OW21739   3.822   6.727   0.744
 6947SOL    HW121740   3.806   6.675   0.828
 6947SOL    HW221741   3.907   6.697   0.701
 6948SOL     OW21742   3.248   2.223   5.510
 6948SOL    HW121743   3.224   2.311   5.550
 6948SOL    HW221744   3.210   2.217   5.418
 6949SOL     OW21745   5.193   0.713   2.175
 6949SOL    HW121746   5.118   0.662   2.133
 6949SOL    HW221747   5.177   0.811   2.162
 6950SOL     OW21748   3.397   1.439   2.934
 6950SOL    HW121749   3.478   1.492   2.907
 6950SOL    HW221750   3.383   1.446   3.033
 6951SOL     OW21751   4.817   4.720   5.510
 6951SOL    HW121752   4.743   4.691   5.571
 6951SOL    HW221753   4.839   4.646   5.447
 6952SOL     OW21754   0.171   3.727   6.213
 6952SOL    HW121755   0.105   3.748   6.141
 6952SOL    HW221756   0.134   3.655   6.272
 6953SOL     OW21757   5.022   2.218   4.547
 6953SOL    HW121758   4.983   2.309   4.559
 6953SOL    HW221759   4.956   2.150   4.578
 6954SOL     OW21760   0.237   4.430   2.299
 6954SOL    HW121761   0.307   4.359   2.296
 6954SOL    HW221762   0.234   4.469   2.391
 6955SOL     OW21763   6.825   0.652   3.461
 6955SOL    HW121764   6.890   0.709   3.512
 6955SOL    HW221765   6.837   0.556   3.488
 6956SOL     OW21766   2.803   4.219   0.981
 6956SOL    HW121767   2.857   4.195   1.062
 6956SOL    HW221768   2.787   4.138   0.925
 6957SOL     OW21769   0.712   4.515   0.354
 6957SOL    HW121770   0.745   4.494   0.261
 6957SOL    HW221771   0.789   4.510   0.418
 6958SOL     OW21772   2.552   4.074   6.079
 6958SOL    HW121773   2.549   3.999   6.146
 6958SOL    HW221774   2.629   4.133   6.099
 6959SOL     OW21775   3.568   1.108   4.801
 6959SOL    HW121776   3.661   1.146   4.805
 6959SOL    HW221777   3.502   1.179   4.824
 6960SOL     OW21778   0.767   5.865   0.097
 6960SOL    HW121779   0.775   5.912   0.184
 6960SOL    HW221780   0.757   5.932   0.023
 6961SOL     OW21781   6.591   1.434   3.532
 6961SOL    HW121782   6.541   1.390   3.458
 6961SOL    HW221783   6.689   1.419   3.520
 6962SOL     OW21784   3.670   3.977   1.122
 6962SOL    HW121785   3.715   4.065   1.107
 6962SOL    HW221786   3.677   3.953   1.219
 6963SOL     OW21787   6.387   6.100   1.877
 6963SOL    HW121788   6.443   6.018   1.873
 6963SOL    HW221789   6.396   6.143   1.966
 6964SOL     OW21790   3.272   5.857   6.097
 6964SOL    HW121791   3.210   5.934   6.083
 6964SOL    HW221792   3.357   5.890   6.138
 6965SOL     OW21793   6.170   1.711   5.752
 6965SOL    HW121794   6.153   1.795   5.803
 6965SOL    HW221795   6.086   1.657   5.748
 6966SOL     OW21796   4.875   2.014   3.860
 6966SOL    HW121797   4.890   2.062   3.947
 6966SOL    HW221798   4.939   1.937   3.853
 6967SOL     OW21799   2.905   2.523   6.505
 6967SOL    HW121800   2.970   2.595   6.480
 6967SOL    HW221801   2.817   2.542   6.461
 6968SOL     OW21802   4.219   0.008   4.041
 6968SOL    HW121803   4.221   6.949   4.100
 6968SOL    HW221804   4.222   7.003   3.945
 6969SOL     OW21805   3.101   3.567   1.073
 6969SOL    HW121806   3.146   3.508   1.141
 6969SOL    HW221807   3.127   3.538   0.981
 6970SOL     OW21808   5.264   4.545   0.444
 6970SOL    HW121809   5.185   4.504   0.399
 6970SOL    HW221810   5.293   4.625   0.392
 6971SOL     OW21811   6.481   1.691   2.442
 6971SOL    HW121812   6.511   1.602   2.408
 6971SOL    HW221813   6.459   1.683   2.540
 6972SOL     OW21814   5.418   4.794   4.294
 6972SOL    HW121815   5.399   4.886   4.328
 6972SOL    HW221816   5.511   4.767   4.319
 6973SOL     OW21817   1.188   4.726   4.231
 6973SOL    HW121818   1.135   4.811   4.226
 6973SOL    HW221819   1.140   4.660   4.287
 6974SOL     OW21820   3.667   4.154   5.197
 6974SOL    HW121821   3.591   4.106   5.240
 6974SOL    HW221822   3.658   4.252   5.214
 6975SOL     OW21823   2.862   6.966   6.112
 6975SOL    HW121824   2.795   6.924   6.050
 6975SOL    HW221825   2.824   6.971   6.204
 6976SOL     OW21826   1.088   6.064   0.499
 6976SOL    HW121827   1.054   6.147   0.544
 6976SOL    HW221828   1.126   6.002   0.568
 6977SOL     OW21829   4.810   2.789   2.055
 6977SOL    HW121830   4.824   2.888   2.062
 6977SOL    HW221831   4.744   2.760   2.124
 6978SOL     OW21832   4.260   2.219   3.566
 6978SOL    HW121833   4.312   2.199   3.650
 6978SOL    HW221834   4.213   2.136   3.536
 6979SOL     OW21835   0.361   3.647   4.089
 6979SOL    HW121836   0.268   3.681   4.103
 6979SOL    HW221837   0.426   3.716   4.120
 6980SOL     OW21838   4.401   1.164   4.556
 6980SOL    HW121839   4.342   1.105   4.610
 6980SOL    HW221840   4.392   1.141   4.459
 6981SOL     OW21841   3.091   3.475   6.794
 6981SOL    HW121842   3.132   3.388   6.821
 6981SOL    HW221843   3.002   3.458   6.753
 6982SOL     OW21844   0.323   6.906   5.091
 6982SOL    HW121845   0.276   6.953   5.017
 6982SOL    HW221846   0.305   6.807   5.085
 6983SOL     OW21847   5.980   1.188   3.027
 6983SOL    HW121848   5.989   1.287   3.012
 6983SOL    HW221849   6.069   1.144   3.013
 6984SOL     OW21850   1.865   1.336   6.196
 6984SOL    HW121851   1.933   1.289   6.253
 6984SOL    HW221852   1.865   1.295   6.105
 6985SOL     OW21853   4.947   6.583   3.853
 6985SOL    HW121854   4.858   6.627   3.854
 6985SOL    HW221855   4.951   6.516   3.778
 6986SOL     OW21856   1.768   6.496   5.368
 6986SOL    HW121857   1.785   6.412   5.419
 6986SOL    HW221858   1.673   6.497   5.337
 6987SOL     OW21859   6.952   3.042   6.332
 6987SOL    HW121860   6.934   2.971   6.263
 6987SOL    HW221861   7.012   3.004   6.403
 6988SOL     OW21862   5.324   1.846   6.313
 6988SOL    HW121863   5.229   1.858   6.341
 6988SOL    HW221864   5.337   1.753   6.278
 6989SOL     OW21865   2.137   3.125   4.145
 6989SOL    HW121866   2.132   3.158   4.239
 6989SOL    HW221867   2.071   3.175   4.089
 6990SOL     OW21868   4.006   3.437   1.039
 6990SOL    HW121869   4.087   3.410   0.987
 6990SOL    HW221870   4.032   3.461   1.132
 6991SOL     OW21871   4.092   4.712   5.218
 6991SOL    HW121872   4.011   4.770   5.227
 6991SOL    HW221873   4.067   4.616   5.235
 6992SOL     OW21874   6.495   6.360   4.476
 6992SOL    HW121875   6.551   6.289   4.518
 6992SOL    HW221876   6.450   6.414   4.548
 6993SOL     OW21877   0.650   6.957   2.783
 6993SOL    HW121878   0.670   6.970   2.880
 6993SOL    HW221879   0.553   6.938   2.771
 6994SOL     OW21880   1.177   2.552   0.075
 6994SOL    HW121881   1.258   2.494   0.073
 6994SOL    HW221882   1.096   2.495   0.087
 6995SOL     OW21883   0.988   5.232   4.410
 6995SOL    HW121884   1.054   5.172   4.455
 6995SOL    HW221885   1.022   5.258   4.320
 6996SOL     OW21886   1.803   0.109   6.201
 6996SOL    HW121887   1.715   0.100   6.154
 6996SOL    HW221888   1.822   0.206   6.217
 6997SOL     OW21889   4.670   5.298   4.573
 6997SOL    HW121890   4.727   5.321   4.494
 6997SOL    HW221891   4.651   5.200   4.572
 6998SOL     OW21892   2.883   2.021   2.475
 6998SOL    HW121893   2.850   2.116   2.480
 6998SOL    HW221894   2.928   1.997   2.562
 6999SOL     OW21895   5.486   2.435   0.024
 6999SOL    HW121896   5.398   2.395   0.051
 6999SOL    HW221897   5.504   2.516   0.080
 7000SOL     OW21898   6.699   0.199   1.544
 7000SOL    HW121899   6.737   0.291   1.547
 7000SOL    HW221900   6.622   0.192   1.607
 7001SOL     OW21901   2.999   1.758   6.476
 7001SOL    HW121902   2.985   1.800   6.566
 7001SOL    HW221903   2.990   1.659   6.483
 7002SOL     OW21904   2.100   5.076   2.555
 7002SOL    HW121905   2.094   5.098   2.458
 7002SOL    HW221906   2.146   4.988   2.567
 7003SOL     OW21907   2.080   6.341   5.945
 7003SOL    HW121908   1.983   6.330   5.967
 7003SOL    HW221909   2.092   6.337   5.846
 7004SOL     OW21910   1.699   3.995   6.872
 7004SOL    HW121911   1.720   3.898   6.856
 7004SOL    HW221912   1.779   4.041   6.910
 7005SOL     OW21913   6.921   6.869   5.447
 7005SOL    HW121914   6.836   6.921   5.445
 7005SOL    HW221915   6.907   6.780   5.403
 7006SOL     OW21916   4.603   4.796   3.876
 7006SOL    HW121917   4.674   4.805   3.945
 7006SOL    HW221918   4.538   4.872   3.886
 7007SOL     OW21919   4.721   5.199   2.186
 7007SOL    HW121920   4.758   5.177   2.096
 7007SOL    HW221921   4.656   5.275   2.178
 7008SOL     OW21922   1.042   5.469   3.953
 7008SOL    HW121923   1.030   5.478   4.052
 7008SOL    HW221924   1.086   5.382   3.933
 7009SOL     OW21925   6.963   4.064   1.839
 7009SOL    HW121926   0.030   4.056   1.795
 7009SOL    HW221927   6.899   4.001   1.795
 7010SOL     OW21928   5.562   4.863   6.392
 7010SOL    HW121929   5.524   4.935   6.450
 7010SOL    HW221930   5.557   4.892   6.296
 7011SOL     OW21931   1.009   0.913   5.212
 7011SOL    HW121932   0.933   0.957   5.165
 7011SOL    HW221933   1.019   0.951   5.304
 7012SOL     OW21934   1.392   1.099   1.578
 7012SOL    HW121935   1.310   1.145   1.612
 7012SOL    HW221936   1.420   1.028   1.642
 7013SOL     OW21937   6.799   1.872   2.005
 7013SOL    HW121938   6.833   1.962   1.977
 7013SOL    HW221939   6.782   1.816   1.924
 7014SOL     OW21940   2.309   5.413   0.781
 7014SOL    HW121941   2.289   5.511   0.785
 7014SOL    HW221942   2.407   5.400   0.765
 7015SOL     OW21943   4.724   1.943   2.592
 7015SOL    HW121944   4.820   1.919   2.602
 7015SOL    HW221945   4.715   2.042   2.581
 7016SOL     OW21946   4.341   4.308   1.519
 7016SOL    HW121947   4.364   4.399   1.554
 7016SOL    HW221948   4.327   4.246   1.596
 7017SOL     OW21949   4.884   1.557   5.096
 7017SOL    HW121950   4.901   1.585   5.190
 7017SOL    HW221951   4.798   1.506   5.092
 7018SOL     OW21952   0.471   3.175   3.170
 7018SOL    HW121953   0.414   3.249   3.133
 7018SOL    HW221954   0.471   3.099   3.106
 7019SOL     OW21955   1.423   6.171   1.491
 7019SOL    HW121956   1.349   6.105   1.481
 7019SOL    HW221957   1.502   6.125   1.532
 7020SOL     OW21958   0.534   5.734   6.817
 7020SOL    HW121959   0.461   5.789   6.859
 7020SOL    HW221960   0.504   5.639   6.809
 7021SOL     OW21961   3.412   6.991   5.928
 7021SOL    HW121962   3.372   6.978   5.837
 7021SOL    HW221963   3.339   6.989   5.997
 7022SOL     OW21964   4.331   5.429   5.832
 7022SOL    HW121965   4.275   5.466   5.906
 7022SOL    HW221966   4.427   5.445   5.853
 7023SOL     OW21967   4.989   4.383   2.602
 7023SOL    HW121968   5.039   4.463   2.634
 7023SOL    HW221969   4.995   4.377   2.502
 7024SOL     OW21970   6.056   6.565   1.281
 7024SOL    HW121971   6.041   6.657   1.318
 7024SOL    HW221972   6.106   6.572   1.194
 7025SOL     OW21973   2.684   0.226   0.743
 7025SOL    HW121974   2.677   0.158   0.816
 7025SOL    HW221975   2.777   0.225   0.706
 7026SOL     OW21976   4.083   1.811   0.946
 7026SOL    HW121977   3.990   1.833   0.914
 7026SOL    HW221978   4.095   1.712   0.945
 7027SOL     OW21979   5.423   6.001   4.254
 7027SOL    HW121980   5.445   6.033   4.162
 7027SOL    HW221981   5.452   6.070   4.321
 7028SOL     OW21982   2.851   0.561   4.797
 7028SOL    HW121983   2.907   0.642   4.777
 7028SOL    HW221984   2.881   0.485   4.739
 7029SOL     OW21985   3.991   1.242   4.589
 7029SOL    HW121986   4.035   1.249   4.500
 7029SOL    HW221987   4.050   1.282   4.659
 7030SOL     OW21988   1.722   3.193   3.999
 7030SOL    HW121989   1.795   3.215   3.935
 7030SOL    HW221990   1.639   3.168   3.948
 7031SOL     OW21991   1.431   1.056   4.515
 7031SOL    HW121992   1.430   1.040   4.613
 7031SOL    HW221993   1.481   1.140   4.495
 7032SOL     OW21994   6.182   2.312   3.725
 7032SOL    HW121995   6.173   2.289   3.628
 7032SOL    HW221996   6.213   2.232   3.776
 7033SOL     OW21997   0.493   0.198   5.602
 7033SOL    HW121998   0.411   0.141   5.600
 7033SOL    HW221999   0.574   0.142   5.589
 7034SOL     OW22000   0.497   4.968   3.443
 7034SOL    HW122001   0.398   4.955   3.437
 7034SOL    HW222002   0.540   4.882   3.470
 7035SOL     OW22003   6.877   4.973   1.848
 7035SOL    HW122004   6.880   4.942   1.753
 7035SOL    HW222005   6.827   4.906   1.903
 7036SOL     OW22006   5.902   4.741   0.457
 7036SOL    HW122007   5.899   4.840   0.444
 7036SOL    HW222008   5.985   4.705   0.415
 7037SOL     OW22009   1.566   0.442   6.428
 7037SOL    HW122010   1.606   0.506   6.493
 7037SOL    HW222011   1.573   0.349   6.465
 7038SOL     OW22012   2.116   3.214   4.393
 7038SOL    HW122013   2.143   3.212   4.490
 7038SOL    HW222014   2.089   3.306   4.367
 7039SOL     OW22015   3.254   2.067   0.063
 7039SOL    HW122016   3.321   2.007   0.019
 7039SOL    HW222017   3.190   2.101   7.016
 7040SOL     OW22018   4.977   2.929   6.730
 7040SOL    HW122019   5.066   2.974   6.728
 7040SOL    HW222020   4.917   2.976   6.794
 7041SOL     OW22021   2.375   1.777   3.457
 7041SOL    HW122022   2.350   1.828   3.538
 7041SOL    HW222023   2.333   1.818   3.376
 7042SOL     OW22024   1.220   0.715   6.543
 7042SOL    HW122025   1.278   0.715   6.462
 7042SOL    HW222026   1.244   0.638   6.602
 7043SOL     OW22027   1.355   2.549   2.448
 7043SOL    HW122028   1.393   2.638   2.422
 7043SOL    HW222029   1.263   2.540   2.408
 7044SOL     OW22030   6.608   6.197   1.556
 7044SOL    HW122031   6.672   6.221   1.483
 7044SOL    HW222032   6.659   6.159   1.633
 7045SOL     OW22033   0.081   4.821   0.019
 7045SOL    HW122034   0.021   4.901   0.013
 7045SOL    HW222035   0.095   4.798   0.115
 7046SOL     OW22036   3.263   1.655   3.581
 7046SOL    HW122037   3.231   1.735   3.632
 7046SOL    HW222038   3.344   1.618   3.625
 7047SOL     OW22039   1.617   0.196   2.881
 7047SOL    HW122040   1.631   0.098   2.873
 7047SOL    HW222041   1.627   0.239   2.791
 7048SOL     OW22042   7.004   5.914   0.302
 7048SOL    HW122043   0.056   5.915   0.369
 7048SOL    HW222044   6.952   5.829   0.312
 7049SOL     OW22045   2.324   1.243   6.579
 7049SOL    HW122046   2.294   1.194   6.661
 7049SOL    HW222047   2.254   1.309   6.551
 7050SOL     OW22048   4.159   3.752   5.206
 7050SOL    HW122049   4.174   3.849   5.224
 7050SOL    HW222050   4.084   3.718   5.263
 7051SOL     OW22051   6.437   6.766   2.987
 7051SOL    HW122052   6.347   6.805   3.008
 7051SOL    HW222053   6.462   6.791   2.894
 7052SOL     OW22054   0.121   0.006   5.435
 7052SOL    HW122055   0.101   0.083   5.374
 7052SOL    HW222056   0.043   6.966   5.437
 7053SOL     OW22057   6.966   3.813   5.679
 7053SOL    HW122058   6.912   3.866   5.614
 7053SOL    HW222059   6.912   3.795   5.761
 7054SOL     OW22060   6.321   1.926   2.111
 7054SOL    HW122061   6.252   1.992   2.083
 7054SOL    HW222062   6.285   1.869   2.186
 7055SOL     OW22063   4.224   1.172   4.095
 7055SOL    HW122064   4.303   1.227   4.124
 7055SOL    HW222065   4.246   1.075   4.102
 7056SOL     OW22066   4.108   5.539   4.146
 7056SOL    HW122067   4.116   5.631   4.109
 7056SOL    HW222068   4.197   5.493   4.141
 7057SOL     OW22069   6.207   5.862   2.716
 7057SOL    HW122070   6.188   5.777   2.766
 7057SOL    HW222071   6.122   5.912   2.702
 7058SOL     OW22072   0.175   4.422   4.283
 7058SOL    HW122073   0.162   4.497   4.219
 7058SOL    HW222074   0.272   4.396   4.285
 7059SOL     OW22075   1.923   1.277   2.711
 7059SOL    HW122076   1.961   1.317   2.794
 7059SOL    HW222077   1.885   1.349   2.653
 7060SOL     OW22078   2.807   6.494   0.872
 7060SOL    HW122079   2.828   6.500   0.969
 7060SOL    HW222080   2.782   6.400   0.848
 7061SOL     OW22081   0.167   0.573   3.037
 7061SOL    HW122082   0.133   0.614   3.122
 7061SOL    HW222083   0.094   0.574   2.968
 7062SOL     OW22084   6.421   1.441   5.179
 7062SOL    HW122085   6.376   1.354   5.161
 7062SOL    HW222086   6.446   1.446   5.276
 7063SOL     OW22087   1.991   6.650   2.660
 7063SOL    HW122088   1.985   6.569   2.601
 7063SOL    HW222089   1.996   6.732   2.603
 7064SOL     OW22090   3.878   2.665   0.120
 7064SOL    HW122091   3.937   2.699   0.047
 7064SOL    HW222092   3.810   2.602   0.082
 7065SOL     OW22093   3.458   3.698   2.314
 7065SOL    HW122094   3.378   3.696   2.253
 7065SOL    HW222095   3.430   3.670   2.406
 7066SOL     OW22096   2.426   5.235   1.340
 7066SOL    HW122097   2.404   5.241   1.243
 7066SOL    HW222098   2.475   5.317   1.368
 7067SOL     OW22099   0.558   4.237   4.509
 7067SOL    HW122100   0.547   4.333   4.481
 7067SOL    HW222101   0.611   4.233   4.593
 7068SOL     OW22102   0.269   0.499   2.673
 7068SOL    HW122103   0.180   0.471   2.710
 7068SOL    HW222104   0.316   0.556   2.740
 7069SOL     OW22105   1.606   4.983   5.160
 7069SOL    HW122106   1.520   5.032   5.142
 7069SOL    HW222107   1.603   4.945   5.253
 7070SOL     OW22108   5.562   5.567   3.318
 7070SOL    HW122109   5.614   5.520   3.390
 7070SOL    HW222110   5.614   5.647   3.287
 7071SOL     OW22111   2.014   6.615   5.271
 7071SOL    HW122112   1.986   6.694   5.217
 7071SOL    HW222113   1.933   6.567   5.304
 7072SOL     OW22114   0.520   0.337   6.850
 7072SOL    HW122115   0.555   0.377   6.765
 7072SOL    HW222116   0.552   0.390   6.928
 7073SOL     OW22117   1.816   2.215   6.480
 7073SOL    HW122118   1.884   2.272   6.433
 7073SOL    HW222119   1.742   2.273   6.513
 7074SOL     OW22120   3.366   1.198   0.054
 7074SOL    HW122121   3.455   1.241   0.065
 7074SOL    HW222122   3.333   1.213   6.983
 7075SOL     OW22123   0.760   5.797   2.766
 7075SOL    HW122124   0.696   5.860   2.722
 7075SOL    HW222125   0.832   5.771   2.701
 7076SOL     OW22126   3.782   1.619   5.771
 7076SOL    HW122127   3.854   1.552   5.791
 7076SOL    HW222128   3.695   1.586   5.805
 7077SOL     OW22129   1.674   5.112   6.450
 7077SOL    HW122130   1.758   5.165   6.459
 7077SOL    HW222131   1.625   5.110   6.537
 7078SOL     OW22132   6.823   0.955   2.031
 7078SOL    HW122133   6.802   0.909   2.118
 7078SOL    HW222134   6.922   0.963   2.022
 7079SOL     OW22135   5.495   5.814   4.824
 7079SOL    HW122136   5.572   5.751   4.834
 7079SOL    HW222137   5.409   5.765   4.836
 7080SOL     OW22138   6.047   0.333   4.154
 7080SOL    HW122139   5.958   0.302   4.119
 7080SOL    HW222140   6.039   0.353   4.252
 7081SOL     OW22141   4.737   0.794   4.812
 7081SOL    HW122142   4.824   0.783   4.861
 7081SOL    HW222143   4.681   0.712   4.825
 7082SOL     OW22144   5.671   1.276   0.454
 7082SOL    HW122145   5.754   1.257   0.402
 7082SOL    HW222146   5.629   1.360   0.421
 7083SOL     OW22147   3.733   0.315   5.728
 7083SOL    HW122148   3.635   0.322   5.744
 7083SOL    HW222149   3.779   0.288   5.813
 7084SOL     OW22150   5.984   6.203   0.403
 7084SOL    HW122151   6.027   6.166   0.485
 7084SOL    HW222152   5.887   6.183   0.404
 7085SOL     OW22153   3.906   1.448   1.181
 7085SOL    HW122154   3.948   1.394   1.254
 7085SOL    HW222155   3.972   1.461   1.107
 7086SOL     OW22156   1.323   1.005   6.339
 7086SOL    HW122157   1.348   1.058   6.259
 7086SOL    HW222158   1.227   1.022   6.362
 7087SOL     OW22159   2.344   2.747   4.990
 7087SOL    HW122160   2.348   2.845   5.011
 7087SOL    HW222161   2.367   2.733   4.894
 7088SOL     OW22162   0.090   2.138   5.143
 7088SOL    HW122163   0.066   2.211   5.207
 7088SOL    HW222164   0.153   2.074   5.187
 7089SOL     OW22165   3.279   1.806   1.708
 7089SOL    HW122166   3.185   1.823   1.677
 7089SOL    HW222167   3.342   1.822   1.632
 7090SOL     OW22168   2.356   2.195   5.353
 7090SOL    HW122169   2.258   2.188   5.334
 7090SOL    HW222170   2.370   2.233   5.445
 7091SOL     OW22171   6.454   6.609   0.771
 7091SOL    HW122172   6.537   6.554   0.766
 7091SOL    HW222173   6.444   6.644   0.864
 7092SOL     OW22174   2.946   1.799   0.498
 7092SOL    HW122175   3.006   1.842   0.566
 7092SOL    HW222176   2.891   1.728   0.542
 7093SOL     OW22177   4.151   3.164   6.219
 7093SOL    HW122178   4.247   3.168   6.247
 7093SOL    HW222179   4.102   3.241   6.258
 7094SOL     OW22180   6.242   0.957   5.668
 7094SOL    HW122181   6.196   0.878   5.627
 7094SOL    HW222182   6.306   0.996   5.602
 7095SOL     OW22183   0.693   3.891   0.874
 7095SOL    HW122184   0.600   3.856   0.885
 7095SOL    HW222185   0.735   3.905   0.964
 7096SOL     OW22186   4.379   6.982   2.577
 7096SOL    HW122187   4.380   0.026   2.652
 7096SOL    HW222188   4.468   6.983   2.530
 7097SOL     OW22189   1.662   1.714   1.772
 7097SOL    HW122190   1.723   1.635   1.759
 7097SOL    HW222191   1.714   1.790   1.810
 7098SOL     OW22192   1.193   0.539   6.194
 7098SOL    HW122193   1.176   0.580   6.104
 7098SOL    HW222194   1.234   0.608   6.254
 7099SOL     OW22195   6.899   1.305   5.264
 7099SOL    HW122196   6.884   1.401   5.287
 7099SOL    HW222197   6.900   1.251   5.348
 7100SOL     OW22198   5.661   1.655   1.215
 7100SOL    HW122199   5.573   1.664   1.167
 7100SOL    HW222200   5.660   1.712   1.297
 7101SOL     OW22201   1.345   0.441   3.969
 7101SOL    HW122202   1.268   0.488   4.012
 7101SOL    HW222203   1.375   0.366   4.028
 7102SOL     OW22204   4.790   3.164   0.572
 7102SOL    HW122205   4.724   3.090   0.560
 7102SOL    HW222206   4.864   3.154   0.505
 7103SOL     OW22207   2.617   6.931   5.933
 7103SOL    HW122208   2.540   6.894   5.987
 7103SOL    HW222209   2.588   7.014   5.886
 7104SOL     OW22210   0.818   2.751   1.865
 7104SOL    HW122211   0.722   2.750   1.835
 7104SOL    HW222212   0.823   2.783   1.959
 7105SOL     OW22213   2.157   3.435   5.648
 7105SOL    HW122214   2.206   3.520   5.670
 7105SOL    HW222215   2.148   3.427   5.548
 7106SOL     OW22216   2.941   2.783   5.422
 7106SOL    HW122217   3.031   2.744   5.401
 7106SOL    HW222218   2.947   2.883   5.418
 7107SOL     OW22219   1.526   1.683   0.707
 7107SOL    HW122220   1.444   1.633   0.736
 7107SOL    HW222221   1.538   1.672   0.608
 7108SOL     OW22222   4.522   6.537   1.655
 7108SOL    HW122223   4.451   6.564   1.591
 7108SOL    HW222224   4.481   6.496   1.737
 7109SOL     OW22225   4.343   5.963   6.467
 7109SOL    HW122226   4.251   5.981   6.434
 7109SOL    HW222227   4.341   5.890   6.536
 7110SOL     OW22228   3.428   4.943   4.525
 7110SOL    HW122229   3.503   4.918   4.464
 7110SOL    HW222230   3.378   5.021   4.487
 7111SOL     OW22231   1.213   2.524   3.525
 7111SOL    HW122232   1.300   2.525   3.475
 7111SOL    HW222233   1.144   2.574   3.473
 7112SOL     OW22234   1.669   6.368   3.236
 7112SOL    HW122235   1.597   6.420   3.189
 7112SOL    HW222236   1.704   6.421   3.313
 7113SOL     OW22237   3.604   3.520   5.445
 7113SOL    HW122238   3.625   3.429   5.480
 7113SOL    HW222239   3.630   3.525   5.348
 7114SOL     OW22240   3.632   6.555   0.406
 7114SOL    HW122241   3.606   6.537   0.501
 7114SOL    HW222242   3.639   6.469   0.357
 7115SOL     OW22243   3.831   2.177   1.496
 7115SOL    HW122244   3.835   2.262   1.547
 7115SOL    HW222245   3.922   2.136   1.491
 7116SOL     OW22246   5.916   4.272   2.892
 7116SOL    HW122247   5.996   4.288   2.950
 7116SOL    HW222248   5.834   4.268   2.950
 7117SOL     OW22249   6.169   6.885   2.817
 7117SOL    HW122250   6.129   6.843   2.736
 7117SOL    HW222251   6.218   6.968   2.792
 7118SOL     OW22252   6.610   3.124   2.985
 7118SOL    HW122253   6.615   3.140   3.083
 7118SOL    HW222254   6.693   3.157   2.940
 7119SOL     OW22255   1.237   1.998   3.132
 7119SOL    HW122256   1.245   2.049   3.217
 7119SOL    HW222257   1.227   2.062   3.055
 7120SOL     OW22258   4.533   5.874   2.770
 7120SOL    HW122259   4.620   5.871   2.720
 7120SOL    HW222260   4.462   5.912   2.712
 7121SOL     OW22261   2.202   6.304   0.951
 7121SOL    HW122262   2.285   6.359   0.960
 7121SOL    HW222263   2.125   6.363   0.926
 7122SOL     OW22264   6.595   6.398   0.398
 7122SOL    HW122265   6.605   6.434   0.305
 7122SOL    HW222266   6.679   6.350   0.424
 7123SOL     OW22267   2.731   5.507   1.010
 7123SOL    HW122268   2.826   5.485   0.991
 7123SOL    HW222269   2.686   5.539   0.927
 7124SOL     OW22270   0.304   5.978   6.463
 7124SOL    HW122271   0.389   5.925   6.455
 7124SOL    HW222272   0.320   6.058   6.520
 7125SOL     OW22273   0.378   6.187   3.539
 7125SOL    HW122274   0.328   6.199   3.453
 7125SOL    HW222275   0.460   6.132   3.523
 7126SOL     OW22276   1.699   3.869   1.435
 7126SOL    HW122277   1.665   3.950   1.483
 7126SOL    HW222278   1.657   3.864   1.344
 7127SOL     OW22279   2.443   0.458   4.632
 7127SOL    HW122280   2.344   0.442   4.639
 7127SOL    HW222281   2.462   0.556   4.637
 7128SOL     OW22282   3.008   3.889   2.165
 7128SOL    HW122283   3.015   3.960   2.095
 7128SOL    HW222284   2.912   3.863   2.178
 7129SOL     OW22285   2.608   1.813   1.449
 7129SOL    HW122286   2.531   1.850   1.398
 7129SOL    HW222287   2.575   1.760   1.527
 7130SOL     OW22288   2.394   0.186   3.026
 7130SOL    HW122289   2.322   0.117   3.023
 7130SOL    HW222290   2.354   0.275   3.046
 7131SOL     OW22291   3.044   1.473   3.519
 7131SOL    HW122292   3.005   1.431   3.601
 7131SOL    HW222293   3.117   1.537   3.546
 7132SOL     OW22294   3.066   4.090   1.997
 7132SOL    HW122295   3.152   4.107   1.948
 7132SOL    HW222296   2.996   4.153   1.963
 7133SOL     OW22297   6.135   4.283   2.259
 7133SOL    HW122298   6.123   4.199   2.206
 7133SOL    HW222299   6.069   4.284   2.335
 7134SOL     OW22300   5.381   4.862   2.506
 7134SOL    HW122301   5.406   4.882   2.412
 7134SOL    HW222302   5.374   4.763   2.519
 7135SOL     OW22303   0.161   2.078   6.253
 7135SOL    HW122304   0.100   2.148   6.217
 7135SOL    HW222305   0.250   2.083   6.207
 7136SOL     OW22306   1.876   2.161   6.805
 7136SOL    HW122307   1.925   2.176   6.719
 7136SOL    HW222308   1.778   2.171   6.789
 7137SOL     OW22309   4.781   2.037   4.899
 7137SOL    HW122310   4.871   2.050   4.941
 7137SOL    HW222311   4.710   2.072   4.960
 7138SOL     OW22312   2.320   2.474   6.914
 7138SOL    HW122313   2.348   2.378   6.909
 7138SOL    HW222314   2.363   2.517   6.994
 7139SOL     OW22315   2.663   1.384   0.402
 7139SOL    HW122316   2.610   1.342   0.329
 7139SOL    HW222317   2.667   1.483   0.388
 7140SOL     OW22318   6.806   4.295   4.478
 7140SOL    HW122319   6.800   4.313   4.380
 7140SOL    HW222320   6.714   4.290   4.517
 7141SOL     OW22321   0.843   6.661   1.872
 7141SOL    HW122322   0.909   6.594   1.903
 7141SOL    HW222323   0.846   6.668   1.772
 7142SOL     OW22324   3.529   6.687   3.575
 7142SOL    HW122325   3.464   6.668   3.648
 7142SOL    HW222326   3.607   6.624   3.583
 7143SOL     OW22327   2.208   2.254   3.817
 7143SOL    HW122328   2.130   2.313   3.836
 7143SOL    HW222329   2.293   2.305   3.832
 7144SOL     OW22330   1.191   3.211   3.748
 7144SOL    HW122331   1.133   3.169   3.679
 7144SOL    HW222332   1.277   3.241   3.707
 7145SOL     OW22333   4.065   5.808   5.873
 7145SOL    HW122334   3.981   5.761   5.896
 7145SOL    HW222335   4.075   5.812   5.773
 7146SOL     OW22336   3.428   5.184   2.057
 7146SOL    HW122337   3.354   5.231   2.008
 7146SOL    HW222338   3.423   5.086   2.039
 7147SOL     OW22339   0.148   0.973   3.740
 7147SOL    HW122340   0.150   1.064   3.781
 7147SOL    HW222341   0.179   0.905   3.807
 7148SOL     OW22342   0.137   1.709   0.565
 7148SOL    HW122343   0.153   1.634   0.501
 7148SOL    HW222344   0.208   1.710   0.635
 7149SOL     OW22345   0.384   0.563   4.699
 7149SOL    HW122346   0.326   0.591   4.776
 7149SOL    HW222347   0.480   0.561   4.729
 7150SOL     OW22348   6.072   3.562   6.221
 7150SOL    HW122349   6.117   3.477   6.246
 7150SOL    HW222350   5.973   3.549   6.221
 7151SOL     OW22351   2.461   6.857   0.632
 7151SOL    HW122352   2.513   6.784   0.675
 7151SOL    HW222353   2.436   6.926   0.701
 7152SOL     OW22354   1.066   2.572   4.625
 7152SOL    HW122355   1.077   2.502   4.696
 7152SOL    HW222356   1.153   2.619   4.610
 7153SOL     OW22357   4.171   1.983   2.885
 7153SOL    HW122358   4.072   1.998   2.894
 7153SOL    HW222359   4.187   1.890   2.852
 7154SOL     OW22360   3.887   6.692   4.934
 7154SOL    HW122361   3.832   6.693   5.017
 7154SOL    HW222362   3.856   6.764   4.872
 7155SOL     OW22363   2.609   1.702   3.224
 7155SOL    HW122364   2.613   1.767   3.300
 7155SOL    HW222365   2.617   1.609   3.260
 7156SOL     OW22366   1.941   5.667   5.785
 7156SOL    HW122367   1.949   5.619   5.872
 7156SOL    HW222368   1.848   5.658   5.751
 7157SOL     OW22369   5.671   4.070   0.621
 7157SOL    HW122370   5.618   4.155   0.627
 7157SOL    HW222371   5.679   4.028   0.711
 7158SOL     OW22372   4.284   6.902   3.465
 7158SOL    HW122373   4.227   6.833   3.421
 7158SOL    HW222374   4.374   6.864   3.483
 7159SOL     OW22375   0.903   5.550   0.105
 7159SOL    HW122376   0.949   5.462   0.089
 7159SOL    HW222377   0.822   5.556   0.046
 7160SOL     OW22378   6.452   0.545   1.769
 7160SOL    HW122379   6.414   0.561   1.860
 7160SOL    HW222380   6.380   0.514   1.707
 7161SOL     OW22381   3.937   3.636   4.672
 7161SOL    HW122382   3.854   3.685   4.646
 7161SOL    HW222383   3.933   3.614   4.770
 7162SOL     OW22384   3.770   5.093   4.340
 7162SOL    HW122385   3.777   5.112   4.438
 7162SOL    HW222386   3.731   5.173   4.293
 7163SOL     OW22387   1.391   6.486   3.505
 7163SOL    HW122388   1.335   6.440   3.436
 7163SOL    HW222389   1.441   6.561   3.461
 7164SOL     OW22390   2.360   2.108   4.629
 7164SOL    HW122391   2.408   2.195   4.616
 7164SOL    HW222392   2.391   2.065   4.714
 7165SOL     OW22393   4.768   5.833   2.037
 7165SOL    HW122394   4.726   5.904   1.981
 7165SOL    HW222395   4.820   5.770   1.979
 7166SOL     OW22396   3.940   5.955   1.906
 7166SOL    HW122397   4.026   5.905   1.897
 7166SOL    HW222398   3.947   6.044   1.860
 7167SOL     OW22399   5.289   3.570   6.554
 7167SOL    HW122400   5.191   3.583   6.543
 7167SOL    HW222401   5.307   3.514   6.635
 7168SOL     OW22402   0.689   1.620   3.867
 7168SOL    HW122403   0.666   1.544   3.807
 7168SOL    HW222404   0.649   1.604   3.958
 7169SOL     OW22405   1.950   2.764   6.757
 7169SOL    HW122406   1.995   2.676   6.764
 7169SOL    HW222407   1.851   2.751   6.754
 7170SOL     OW22408   5.509   4.141   3.708
 7170SOL    HW122409   5.503   4.171   3.803
 7170SOL    HW222410   5.421   4.158   3.663
 7171SOL     OW22411   3.904   3.643   5.357
 7171SOL    HW122412   3.865   3.552   5.345
 7171SOL    HW222413   3.909   3.665   5.455
 7172SOL     OW22414   0.352   6.390   1.334
 7172SOL    HW122415   0.448   6.375   1.357
 7172SOL    HW222416   0.296   6.321   1.380
 7173SOL     OW22417   6.311   6.462   4.671
 7173SOL    HW122418   6.332   6.467   4.768
 7173SOL    HW222419   6.215   6.488   4.656
 7174SOL     OW22420   1.099   6.101   6.118
 7174SOL    HW122421   1.152   6.046   6.182
 7174SOL    HW222422   1.089   6.052   6.032
 7175SOL     OW22423   6.160   3.760   6.050
 7175SOL    HW122424   6.186   3.695   5.978
 7175SOL    HW222425   6.108   3.712   6.121
 7176SOL     OW22426   0.452   2.782   1.989
 7176SOL    HW122427   0.519   2.833   2.043
 7176SOL    HW222428   0.485   2.689   1.975
 7177SOL     OW22429   0.823   5.163   1.932
 7177SOL    HW122430   0.800   5.148   1.836
 7177SOL    HW222431   0.825   5.076   1.981
 7178SOL     OW22432   6.341   1.020   6.773
 7178SOL    HW122433   6.268   0.954   6.792
 7178SOL    HW222434   6.416   0.975   6.726
 7179SOL     OW22435   1.327   4.136   5.953
 7179SOL    HW122436   1.319   4.233   5.977
 7179SOL    HW222437   1.379   4.127   5.868
 7180SOL     OW22438   6.913   6.836   2.749
 7180SOL    HW122439   6.961   6.821   2.663
 7180SOL    HW222440   6.845   6.764   2.763
 7181SOL     OW22441   5.814   5.914   2.813
 7181SOL    HW122442   5.830   5.927   2.715
 7181SOL    HW222443   5.737   5.971   2.842
 7182SOL     OW22444   4.165   3.530   5.829
 7182SOL    HW122445   4.095   3.510   5.898
 7182SOL    HW222446   4.185   3.447   5.778
 7183SOL     OW22447   1.845   3.602   3.384
 7183SOL    HW122448   1.916   3.558   3.438
 7183SOL    HW222449   1.769   3.628   3.444
 7184SOL     OW22450   2.633   5.727   3.807
 7184SOL    HW122451   2.622   5.649   3.869
 7184SOL    HW222452   2.707   5.785   3.838
 7185SOL     OW22453   4.425   2.677   6.783
 7185SOL    HW122454   4.507   2.639   6.824
 7185SOL    HW222455   4.449   2.725   6.698
 7186SOL     OW22456   0.921   6.449   4.765
 7186SOL    HW122457   1.013   6.409   4.771
 7186SOL    HW222458   0.862   6.407   4.834
 7187SOL     OW22459   1.467   5.806   1.044
 7187SOL    HW122460   1.473   5.900   1.079
 7187SOL    HW222461   1.515   5.744   1.107
 7188SOL     OW22462   5.335   6.850   2.200
 7188SOL    HW122463   5.297   6.799   2.278
 7188SOL    HW222464   5.279   6.833   2.119
 7189SOL     OW22465   6.232   0.888   5.206
 7189SOL    HW122466   6.234   0.866   5.303
 7189SOL    HW222467   6.273   0.814   5.154
 7190SOL     OW22468   4.090   5.111   2.947
 7190SOL    HW122469   4.029   5.032   2.937
 7190SOL    HW222470   4.160   5.107   2.875
 7191SOL     OW22471   0.647   2.905   2.150
 7191SOL    HW122472   0.622   2.913   2.246
 7191SOL    HW222473   0.747   2.900   2.142
 7192SOL     OW22474   3.433   4.264   6.521
 7192SOL    HW122475   3.467   4.174   6.549
 7192SOL    HW222476   3.333   4.266   6.532
 7193SOL     OW22477   5.381   1.802   4.801
 7193SOL    HW122478   5.421   1.886   4.836
 7193SOL    HW222479   5.453   1.740   4.770
 7194SOL     OW22480   3.089   1.395   1.580
 7194SOL    HW122481   3.064   1.488   1.604
 7194SOL    HW222482   3.027   1.361   1.510
 7195SOL     OW22483   0.282   6.580   2.040
 7195SOL    HW122484   0.240   6.550   2.125
 7195SOL    HW222485   0.224   6.649   1.997
 7196SOL     OW22486   3.670   3.227   1.389
 7196SOL    HW122487   3.712   3.249   1.301
 7196SOL    HW222488   3.582   3.181   1.374
 7197SOL     OW22489   1.303   1.131   4.279
 7197SOL    HW122490   1.335   1.082   4.198
 7197SOL    HW222491   1.342   1.090   4.361
 7198SOL     OW22492   6.971   6.670   6.143
 7198SOL    HW122493   6.989   6.744   6.208
 7198SOL    HW222494   0.035   6.629   6.114
 7199SOL     OW22495   6.002   6.041   2.568
 7199SOL    HW122496   5.936   5.966   2.564
 7199SOL    HW222497   6.015   6.078   2.476
 7200SOL     OW22498   1.779   1.797   2.374
 7200SOL    HW122499   1.766   1.886   2.330
 7200SOL    HW222500   1.831   1.809   2.458
 7201SOL     OW22501   2.303   4.754   4.023
 7201SOL    HW122502   2.301   4.805   3.937
 7201SOL    HW222503   2.396   4.755   4.060
 7202SOL     OW22504   2.884   0.208   5.981
 7202SOL    HW122505   2.861   0.115   6.008
 7202SOL    HW222506   2.976   0.210   5.942
 7203SOL     OW22507   5.963   0.336   7.022
 7203SOL    HW122508   6.004   0.245   0.007
 7203SOL    HW222509   5.980   0.387   0.084
 7204SOL     OW22510   6.556   2.302   3.511
 7204SOL    HW122511   6.475   2.255   3.477
 7204SOL    HW222512   6.635   2.241   3.506
 7205SOL     OW22513   1.540   4.518   1.739
 7205SOL    HW122514   1.620   4.532   1.797
 7205SOL    HW222515   1.563   4.540   1.644
 7206SOL     OW22516   6.032   1.535   1.867
 7206SOL    HW122517   5.963   1.482   1.917
 7206SOL    HW222518   5.988   1.592   1.798
 7207SOL     OW22519   4.138   6.800   1.746
 7207SOL    HW122520   4.127   6.728   1.815
 7207SOL    HW222521   4.060   6.799   1.683
 7208SOL     OW22522   2.704   0.544   5.297
 7208SOL    HW122523   2.686   0.472   5.364
 7208SOL    HW222524   2.787   0.594   5.324
 7209SOL     OW22525   2.884   3.659   4.451
 7209SOL    HW122526   2.792   3.638   4.481
 7209SOL    HW222527   2.885   3.674   4.352
 7210SOL     OW22528   4.334   6.750   4.079
 7210SOL    HW122529   4.383   6.772   4.163
 7210SOL    HW222530   4.398   6.713   4.011
 7211SOL     OW22531   0.925   4.929   2.111
 7211SOL    HW122532   0.904   4.839   2.074
 7211SOL    HW222533   0.925   4.925   2.211
 7212SOL     OW22534   4.962   6.377   2.812
 7212SOL    HW122535   5.046   6.402   2.764
 7212SOL    HW222536   4.918   6.459   2.848
 7213SOL     OW22537   5.172   6.451   5.052
 7213SOL    HW122538   5.102   6.419   4.989
 7213SOL    HW222539   5.166   6.398   5.137
 7214SOL     OW22540   1.051   4.672   5.461
 7214SOL    HW122541   1.065   4.627   5.549
 7214SOL    HW222542   1.132   4.726   5.438
 7215SOL     OW22543   1.163   2.878   1.937
 7215SOL    HW122544   1.176   2.964   1.887
 7215SOL    HW222545   1.233   2.812   1.907
 7216SOL     OW22546   3.113   2.048   2.316
 7216SOL    HW122547   3.036   2.074   2.374
 7216SOL    HW222548   3.108   2.096   2.229
 7217SOL     OW22549   0.618   3.583   1.999
 7217SOL    HW122550   0.580   3.670   1.967
 7217SOL    HW222551   0.609   3.578   2.098
 7218SOL     OW22552   6.651   2.578   4.581
 7218SOL    HW122553   6.551   2.569   4.585
 7218SOL    HW222554   6.689   2.578   4.673
 7219SOL     OW22555   3.273   1.093   1.107
 7219SOL    HW122556   3.313   1.016   1.156
 7219SOL    HW222557   3.190   1.124   1.153
 7220SOL     OW22558   6.670   1.870   2.802
 7220SOL    HW122559   6.691   1.777   2.771
 7220SOL    HW222560   6.694   1.879   2.898
 7221SOL     OW22561   6.398   3.957   5.528
 7221SOL    HW122562   6.379   4.044   5.572
 7221SOL    HW222563   6.323   3.934   5.465
 7222SOL     OW22564   6.691   0.065   3.508
 7222SOL    HW122565   6.614   0.018   3.552
 7222SOL    HW222566   6.661   0.102   3.421
 7223SOL     OW22567   4.771   0.540   4.636
 7223SOL    HW122568   4.717   0.534   4.720
 7223SOL    HW222569   4.865   0.566   4.658
 7224SOL     OW22570   5.810   1.544   3.244
 7224SOL    HW122571   5.793   1.453   3.282
 7224SOL    HW222572   5.723   1.582   3.211
 7225SOL     OW22573   2.681   0.350   1.479
 7225SOL    HW122574   2.752   0.337   1.549
 7225SOL    HW222575   2.616   0.420   1.510
 7226SOL     OW22576   6.071   6.350   4.835
 7226SOL    HW122577   6.156   6.390   4.870
 7226SOL    HW222578   6.054   6.383   4.742
 7227SOL     OW22579   7.007   2.261   6.168
 7227SOL    HW122580   6.959   2.295   6.248
 7227SOL    HW222581   6.948   2.198   6.117
 7228SOL     OW22582   2.310   1.027   3.140
 7228SOL    HW122583   2.376   0.989   3.204
 7228SOL    HW222584   2.302   0.966   3.061
 7229SOL     OW22585   0.277   0.048   3.500
 7229SOL    HW122586   0.295   0.115   3.572
 7229SOL    HW222587   0.312   6.981   3.527
 7230SOL     OW22588   6.467   5.393   1.073
 7230SOL    HW122589   6.418   5.440   1.146
 7230SOL    HW222590   6.524   5.322   1.112
 7231SOL     OW22591   5.786   0.937   0.521
 7231SOL    HW122592   5.766   0.936   0.423
 7231SOL    HW222593   5.749   1.022   0.560
 7232SOL     OW22594   3.772   3.814   0.941
 7232SOL    HW122595   3.712   3.857   1.009
 7232SOL    HW222596   3.867   3.837   0.962
 7233SOL     OW22597   1.186   1.853   5.365
 7233SOL    HW122598   1.224   1.835   5.274
 7233SOL    HW222599   1.187   1.952   5.382
 7234SOL     OW22600   4.893   2.146   3.606
 7234SOL    HW122601   4.878   2.078   3.678
 7234SOL    HW222602   4.820   2.215   3.611
 7235SOL     OW22603   5.937   2.639   4.519
 7235SOL    HW122604   5.930   2.737   4.499
 7235SOL    HW222605   5.871   2.615   4.591
 7236SOL     OW22606   1.400   1.773   3.089
 7236SOL    HW122607   1.365   1.862   3.118
 7236SOL    HW222608   1.500   1.776   3.089
 7237SOL     OW22609   5.344   5.324   4.812
 7237SOL    HW122610   5.423   5.354   4.758
 7237SOL    HW222611   5.377   5.273   4.891
 7238SOL     OW22612   1.560   0.266   1.952
 7238SOL    HW122613   1.473   0.227   1.920
 7238SOL    HW222614   1.624   0.271   1.876
 7239SOL     OW22615   4.233   1.513   1.757
 7239SOL    HW122616   4.137   1.513   1.726
 7239SOL    HW222617   4.274   1.601   1.736
 7240SOL     OW22618   2.984   3.522   2.350
 7240SOL    HW122619   2.915   3.513   2.422
 7240SOL    HW222620   2.945   3.496   2.262
 7241SOL     OW22621   4.583   6.884   4.472
 7241SOL    HW122622   4.533   6.970   4.488
 7241SOL    HW222623   4.539   6.810   4.523
 7242SOL     OW22624   6.608   6.059   0.801
 7242SOL    HW122625   6.579   6.015   0.886
 7242SOL    HW222626   6.675   6.131   0.823
 7243SOL     OW22627   0.471   5.458   0.831
 7243SOL    HW122628   0.429   5.530   0.886
 7243SOL    HW222629   0.441   5.468   0.736
 7244SOL     OW22630   5.421   2.343   0.954
 7244SOL    HW122631   5.387   2.373   0.865
 7244SOL    HW222632   5.486   2.268   0.942
 7245SOL     OW22633   6.018   1.935   4.296
 7245SOL    HW122634   6.013   1.859   4.230
 7245SOL    HW222635   5.946   2.001   4.275
 7246SOL     OW22636   0.912   5.874   5.774
 7246SOL    HW122637   0.900   5.869   5.675
 7246SOL    HW222638   0.884   5.787   5.815
 7247SOL     OW22639   3.845   5.854   4.139
 7247SOL    HW122640   3.804   5.917   4.205
 7247SOL    HW222641   3.853   5.763   4.181
 7248SOL     OW22642   2.885   1.084   4.500
 7248SOL    HW122643   2.935   1.030   4.432
 7248SOL    HW222644   2.928   1.075   4.589
 7249SOL     OW22645   4.482   3.421   5.606
 7249SOL    HW122646   4.442   3.472   5.530
 7249SOL    HW222647   4.410   3.384   5.664
 7250SOL     OW22648   2.597   3.249   6.843
 7250SOL    HW122649   2.592   3.307   6.924
 7250SOL    HW222650   2.506   3.240   6.803
 7251SOL     OW22651   5.996   1.210   5.169
 7251SOL    HW122652   5.953   1.300   5.155
 7251SOL    HW222653   6.017   1.169   5.080
 7252SOL     OW22654   4.574   3.477   5.320
 7252SOL    HW122655   4.615   3.565   5.293
 7252SOL    HW222656   4.475   3.484   5.314
 7253SOL     OW22657   5.305   4.724   0.245
 7253SOL    HW122658   5.385   4.782   0.233
 7253SOL    HW222659   5.225   4.765   0.201
 7254SOL     OW22660   5.305   6.732   4.797
 7254SOL    HW122661   5.377   6.745   4.729
 7254SOL    HW222662   5.346   6.717   4.887
 7255SOL     OW22663   3.684   2.945   3.057
 7255SOL    HW122664   3.767   2.999   3.040
 7255SOL    HW222665   3.659   2.895   2.974
 7256SOL     OW22666   3.172   5.756   3.834
 7256SOL    HW122667   3.135   5.790   3.920
 7256SOL    HW222668   3.147   5.819   3.760
 7257SOL     OW22669   6.342   4.978   2.469
 7257SOL    HW122670   6.421   5.038   2.480
 7257SOL    HW222671   6.374   4.884   2.457
 7258SOL     OW22672   2.639   0.359   5.506
 7258SOL    HW122673   2.558   0.405   5.543
 7258SOL    HW222674   2.617   0.263   5.490
 7259SOL     OW22675   3.308   4.117   6.232
 7259SOL    HW122676   3.402   4.152   6.237
 7259SOL    HW222677   3.298   4.040   6.295
 7260SOL     OW22678   4.601   2.270   3.012
 7260SOL    HW122679   4.573   2.198   3.074
 7260SOL    HW222680   4.596   2.358   3.058
 7261SOL     OW22681   2.474   5.016   1.021
 7261SOL    HW122682   2.490   4.975   0.932
 7261SOL    HW222683   2.403   4.964   1.069
 7262SOL     OW22684   6.529   0.672   4.731
 7262SOL    HW122685   6.486   0.754   4.768
 7262SOL    HW222686   6.459   0.605   4.708
 7263SOL     OW22687   5.425   5.143   1.385
 7263SOL    HW122688   5.459   5.164   1.294
 7263SOL    HW222689   5.376   5.223   1.421
 7264SOL     OW22690   0.407   6.364   4.237
 7264SOL    HW122691   0.489   6.422   4.243
 7264SOL    HW222692   0.326   6.419   4.256
 7265SOL     OW22693   4.512   3.558   6.790
 7265SOL    HW122694   4.601   3.590   6.757
 7265SOL    HW222695   4.527   3.489   6.862
 7266SOL     OW22696   4.523   1.443   1.973
 7266SOL    HW122697   4.529   1.374   2.045
 7266SOL    HW222698   4.430   1.446   1.937
 7267SOL     OW22699   5.259   2.125   3.951
 7267SOL    HW122700   5.296   2.032   3.945
 7267SOL    HW222701   5.334   2.191   3.948
 7268SOL     OW22702   4.111   6.720   0.316
 7268SOL    HW122703   4.046   6.651   0.349
 7268SOL    HW222704   4.088   6.809   0.356
 7269SOL     OW22705   1.378   0.373   2.190
 7269SOL    HW122706   1.445   0.333   2.127
 7269SOL    HW222707   1.306   0.418   2.137
 7270SOL     OW22708   3.327   2.146   1.892
 7270SOL    HW122709   3.309   2.221   1.829
 7270SOL    HW222710   3.423   2.146   1.919
 7271SOL     OW22711   5.791   5.599   3.698
 7271SOL    HW122712   5.731   5.674   3.671
 7271SOL    HW222713   5.878   5.635   3.730
 7272SOL     OW22714   6.169   1.790   1.451
 7272SOL    HW122715   6.106   1.763   1.378
 7272SOL    HW222716   6.119   1.797   1.537
 7273SOL     OW22717   5.797   5.554   4.992
 7273SOL    HW122718   5.804   5.602   4.905
 7273SOL    HW222719   5.780   5.457   4.976
 7274SOL     OW22720   5.567   4.842   3.596
 7274SOL    HW122721   5.488   4.782   3.585
 7274SOL    HW222722   5.643   4.791   3.637
 7275SOL     OW22723   6.191   6.698   2.086
 7275SOL    HW122724   6.200   6.607   2.127
 7275SOL    HW222725   6.210   6.768   2.154
 7276SOL     OW22726   3.871   1.722   3.267
 7276SOL    HW122727   3.774   1.700   3.271
 7276SOL    HW222728   3.922   1.642   3.233
 7277SOL     OW22729   6.066   2.123   4.052
 7277SOL    HW122730   6.105   2.046   4.103
 7277SOL    HW222731   6.019   2.089   3.970
 7278SOL     OW22732   4.055   1.647   3.569
 7278SOL    HW122733   3.960   1.673   3.582
 7278SOL    HW222734   4.061   1.575   3.499
 7279SOL     OW22735   3.321   3.636   1.931
 7279SOL    HW122736   3.358   3.729   1.929
 7279SOL    HW222737   3.225   3.638   1.906
 7280SOL     OW22738   6.544   1.447   5.459
 7280SOL    HW122739   6.623   1.500   5.428
 7280SOL    HW222740   6.575   1.364   5.505
 7281SOL     OW22741   3.314   6.398   3.043
 7281SOL    HW122742   3.380   6.438   2.980
 7281SOL    HW222743   3.356   6.319   3.089
 7282SOL     OW22744   0.164   3.720   1.043
 7282SOL    HW122745   0.213   3.640   1.077
 7282SOL    HW222746   0.075   3.726   1.089
 7283SOL     OW22747   3.205   5.968   2.763
 7283SOL    HW122748   3.150   6.037   2.717
 7283SOL    HW222749   3.147   5.890   2.789
 7284SOL     OW22750   0.607   0.031   3.409
 7284SOL    HW122751   0.616   0.092   3.488
 7284SOL    HW222752   0.682   6.986   3.410
 7285SOL     OW22753   5.092   2.765   2.040
 7285SOL    HW122754   4.993   2.770   2.048
 7285SOL    HW222755   5.117   2.679   1.996
 7286SOL     OW22756   6.645   0.881   4.317
 7286SOL    HW122757   6.639   0.929   4.405
 7286SOL    HW222758   6.576   0.917   4.254
 7287SOL     OW22759   3.109   1.879   4.102
 7287SOL    HW122760   3.147   1.909   4.190
 7287SOL    HW222761   3.043   1.806   4.118
 7288SOL     OW22762   3.128   1.806   2.032
 7288SOL    HW122763   3.132   1.905   2.044
 7288SOL    HW222764   3.033   1.779   2.015
 7289SOL     OW22765   6.935   1.952   1.411
 7289SOL    HW122766   6.846   1.997   1.406
 7289SOL    HW222767   7.008   2.021   1.411
 7290SOL     OW22768   3.431   1.887   4.548
 7290SOL    HW122769   3.483   1.888   4.463
 7290SOL    HW222770   3.487   1.850   4.622
 7291SOL     OW22771   0.762   1.063   0.351
 7291SOL    HW122772   0.829   1.001   0.310
 7291SOL    HW222773   0.795   1.093   0.441
 7292SOL     OW22774   4.145   1.256   2.250
 7292SOL    HW122775   4.156   1.164   2.215
 7292SOL    HW222776   4.066   1.259   2.311
 7293SOL     OW22777   6.438   0.958   4.152
 7293SOL    HW122778   6.340   0.938   4.148
 7293SOL    HW222779   6.452   1.056   4.136
 7294SOL     OW22780   3.652   0.291   2.661
 7294SOL    HW122781   3.587   0.219   2.688
 7294SOL    HW222782   3.697   0.327   2.743
 7295SOL     OW22783   5.246   3.698   1.776
 7295SOL    HW122784   5.187   3.744   1.710
 7295SOL    HW222785   5.236   3.599   1.767
 7296SOL     OW22786   3.257   6.640   2.340
 7296SOL    HW122787   3.176   6.640   2.400
 7296SOL    HW222788   3.337   6.669   2.392
 7297SOL     OW22789   4.036   0.067   0.280
 7297SOL    HW122790   3.992   0.150   0.316
 7297SOL    HW222791   4.079   0.088   0.192
 7298SOL     OW22792   4.279   4.674   1.586
 7298SOL    HW122793   4.198   4.646   1.637
 7298SOL    HW222794   4.341   4.724   1.647
 7299SOL     OW22795   0.179   3.174   6.939
 7299SOL    HW122796   0.160   3.088   6.986
 7299SOL    HW222797   0.100   3.235   6.947
 7300SOL     OW22798   1.012   3.995   1.345
 7300SOL    HW122799   0.963   4.075   1.310
 7300SOL    HW222800   1.010   3.996   1.445
 7301SOL     OW22801   4.396   1.698   0.467
 7301SOL    HW122802   4.393   1.780   0.524
 7301SOL    HW222803   4.345   1.715   0.382
 7302SOL     OW22804   5.920   2.149   6.208
 7302SOL    HW122805   6.010   2.158   6.166
 7302SOL    HW222806   5.875   2.067   6.172
 7303SOL     OW22807   3.285   2.075   1.533
 7303SOL    HW122808   3.334   2.133   1.469
 7303SOL    HW222809   3.310   2.100   1.627
 7304SOL     OW22810   2.201   0.052   0.500
 7304SOL    HW122811   2.290   0.096   0.510
 7304SOL    HW222812   2.201   6.987   0.548
 7305SOL     OW22813   6.703   6.582   6.576
 7305SOL    HW122814   6.768   6.655   6.596
 7305SOL    HW222815   6.704   6.562   6.478
 7306SOL     OW22816   1.905   3.913   0.520
 7306SOL    HW122817   1.854   3.911   0.606
 7306SOL    HW222818   1.870   3.843   0.458
 7307SOL     OW22819   3.534   6.366   1.726
 7307SOL    HW122820   3.609   6.432   1.739
 7307SOL    HW222821   3.542   6.325   1.635
 7308SOL     OW22822   3.698   1.600   2.870
 7308SOL    HW122823   3.743   1.511   2.865
 7308SOL    HW222824   3.747   1.666   2.813
 7309SOL     OW22825   2.551   4.764   4.175
 7309SOL    HW122826   2.533   4.826   4.251
 7309SOL    HW222827   2.642   4.783   4.137
 7310SOL     OW22828   3.392   3.061   0.093
 7310SOL    HW122829   3.472   3.119   0.105
 7310SOL    HW222830   3.410   2.971   0.132
 7311SOL     OW22831   1.281   6.669   5.904
 7311SOL    HW122832   1.347   6.634   5.970
 7311SOL    HW222833   1.276   6.608   5.825
 7312SOL     OW22834   6.339   2.278   4.544
 7312SOL    HW122835   6.288   2.192   4.547
 7312SOL    HW222836   6.278   2.352   4.516
 7313SOL     OW22837   3.807   0.859   2.582
 7313SOL    HW122838   3.844   0.768   2.564
 7313SOL    HW222839   3.881   0.920   2.612
 7314SOL     OW22840   2.610   5.831   4.848
 7314SOL    HW122841   2.600   5.757   4.782
 7314SOL    HW222842   2.570   5.803   4.935
 7315SOL     OW22843   2.606   5.493   2.649
 7315SOL    HW122844   2.581   5.417   2.590
 7315SOL    HW222845   2.658   5.560   2.597
 7316SOL     OW22846   3.900   1.134   1.796
 7316SOL    HW122847   3.896   1.198   1.719
 7316SOL    HW222848   3.812   1.088   1.807
 7317SOL     OW22849   6.423   1.632   1.405
 7317SOL    HW122850   6.345   1.679   1.446
 7317SOL    HW222851   6.498   1.697   1.393
 7318SOL     OW22852   5.377   6.177   1.420
 7318SOL    HW122853   5.399   6.105   1.354
 7318SOL    HW222854   5.457   6.192   1.479
 7319SOL     OW22855   4.267   5.785   6.054
 7319SOL    HW122856   4.197   5.820   5.992
 7319SOL    HW222857   4.340   5.743   6.001
 7320SOL     OW22858   1.094   2.739   0.409
 7320SOL    HW122859   1.031   2.666   0.385
 7320SOL    HW222860   1.052   2.828   0.390
 7321SOL     OW22861   2.247   2.560   5.582
 7321SOL    HW122862   2.296   2.646   5.571
 7321SOL    HW222863   2.157   2.577   5.621
 7322SOL     OW22864   2.219   1.850   4.569
 7322SOL    HW122865   2.206   1.779   4.500
 7322SOL    HW222866   2.248   1.935   4.525
 7323SOL     OW22867   2.434   1.993   1.308
 7323SOL    HW122868   2.337   1.971   1.299
 7323SOL    HW222869   2.448   2.046   1.392
 7324SOL     OW22870   4.836   3.710   4.538
 7324SOL    HW122871   4.812   3.663   4.453
 7324SOL    HW222872   4.907   3.658   4.586
 7325SOL     OW22873   3.637   1.014   6.559
 7325SOL    HW122874   3.640   1.090   6.624
 7325SOL    HW222875   3.702   1.030   6.485
 7326SOL     OW22876   3.612   6.285   0.595
 7326SOL    HW122877   3.661   6.200   0.578
 7326SOL    HW222878   3.551   6.303   0.517
 7327SOL     OW22879   1.591   4.071   3.428
 7327SOL    HW122880   1.607   4.060   3.330
 7327SOL    HW222881   1.538   3.993   3.463
 7328SOL     OW22882   4.686   4.930   6.212
 7328SOL    HW122883   4.592   4.932   6.177
 7328SOL    HW222884   4.751   4.935   6.136
 7329SOL     OW22885   2.791   3.709   6.775
 7329SOL    HW122886   2.871   3.671   6.822
 7329SOL    HW222887   2.820   3.749   6.688
 7330SOL     OW22888   2.515   3.682   0.953
 7330SOL    HW122889   2.499   3.703   0.857
 7330SOL    HW222890   2.427   3.676   1.001
 7331SOL     OW22891   4.999   1.250   2.564
 7331SOL    HW122892   5.043   1.309   2.496
 7331SOL    HW222893   5.054   1.167   2.577
 7332SOL     OW22894   2.648   6.875   5.071
 7332SOL    HW122895   2.695   6.931   5.003
 7332SOL    HW222896   2.707   6.862   5.150
 7333SOL     OW22897   6.261   1.214   1.628
 7333SOL    HW122898   6.351   1.175   1.608
 7333SOL    HW222899   6.262   1.252   1.721
 7334SOL     OW22900   0.977   4.737   4.476
 7334SOL    HW122901   0.884   4.757   4.446
 7334SOL    HW222902   1.027   4.823   4.488
 7335SOL     OW22903   0.139   3.167   2.679
 7335SOL    HW122904   0.128   3.196   2.774
 7335SOL    HW222905   0.066   3.205   2.623
 7336SOL     OW22906   2.168   0.475   0.827
 7336SOL    HW122907   2.090   0.412   0.837
 7336SOL    HW222908   2.191   0.514   0.916
 7337SOL     OW22909   3.469   1.837   2.708
 7337SOL    HW122910   3.559   1.817   2.668
 7337SOL    HW222911   3.477   1.836   2.808
 7338SOL     OW22912   5.530   3.587   0.340
 7338SOL    HW122913   5.593   3.607   0.415
 7338SOL    HW222914   5.563   3.631   0.257
 7339SOL     OW22915   6.616   0.089   3.806
 7339SOL    HW122916   6.644   0.139   3.888
 7339SOL    HW222917   6.693   0.083   3.742
 7340SOL     OW22918   2.939   6.570   0.474
 7340SOL    HW122919   2.967   6.474   0.481
 7340SOL    HW222920   2.973   6.621   0.553
 7341SOL     OW22921   6.030   5.792   3.602
 7341SOL    HW122922   5.943   5.830   3.570
 7341SOL    HW222923   6.105   5.850   3.573
 7342SOL     OW22924   0.597   5.318   0.579
 7342SOL    HW122925   0.537   5.326   0.499
 7342SOL    HW222926   0.644   5.405   0.594
 7343SOL     OW22927   0.170   2.725   2.521
 7343SOL    HW122928   0.119   2.642   2.498
 7343SOL    HW222929   0.202   2.768   2.437
 7344SOL     OW22930   2.026   1.167   6.335
 7344SOL    HW122931   2.092   1.094   6.316
 7344SOL    HW222932   1.951   1.131   6.390
 7345SOL     OW22933   1.425   6.830   6.559
 7345SOL    HW122934   1.478   6.876   6.489
 7345SOL    HW222935   1.453   6.863   6.649
 7346SOL     OW22936   3.225   5.368   3.771
 7346SOL    HW122937   3.227   5.427   3.852
 7346SOL    HW222938   3.300   5.302   3.776
 7347SOL     OW22939   5.767   3.335   3.359
 7347SOL    HW122940   5.824   3.253   3.365
 7347SOL    HW222941   5.803   3.405   3.420
 7348SOL     OW22942   5.852   0.638   6.468
 7348SOL    HW122943   5.853   0.638   6.368
 7348SOL    HW222944   5.940   0.605   6.502
 7349SOL     OW22945   3.760   2.049   1.270
 7349SOL    HW122946   3.773   2.100   1.185
 7349SOL    HW222947   3.794   2.103   1.347
 7350SOL     OW22948   1.890   1.300   3.211
 7350SOL    HW122949   1.804   1.291   3.161
 7350SOL    HW222950   1.966   1.281   3.150
 7351SOL     OW22951   4.991   4.680   0.168
 7351SOL    HW122952   4.994   4.647   0.074
 7351SOL    HW222953   5.004   4.780   0.169
 7352SOL     OW22954   6.914   1.294   3.086
 7352SOL    HW122955   6.826   1.341   3.088
 7352SOL    HW222956   6.974   1.330   3.156
 7353SOL     OW22957   5.200   1.923   5.149
 7353SOL    HW122958   5.223   1.897   5.243
 7353SOL    HW222959   5.208   1.843   5.090
 7354SOL     OW22960   5.520   4.120   5.206
 7354SOL    HW122961   5.519   4.220   5.219
 7354SOL    HW222962   5.427   4.086   5.200
 7355SOL     OW22963   6.480   5.814   0.451
 7355SOL    HW122964   6.502   5.788   0.357
 7355SOL    HW222965   6.471   5.731   0.506
 7356SOL     OW22966   6.597   1.754   5.911
 7356SOL    HW122967   6.568   1.850   5.914
 7356SOL    HW222968   6.623   1.725   6.004
 7357SOL     OW22969   0.417   1.663   0.498
 7357SOL    HW122970   0.513   1.634   0.498
 7357SOL    HW222971   0.370   1.620   0.575
 7358SOL     OW22972   3.447   0.926   3.475
 7358SOL    HW122973   3.445   0.988   3.396
 7358SOL    HW222974   3.354   0.912   3.508
 7359SOL     OW22975   2.910   3.593   4.131
 7359SOL    HW122976   2.944   3.679   4.169
 7359SOL    HW222977   2.870   3.610   4.042
 7360SOL     OW22978   1.070   4.298   6.486
 7360SOL    HW122979   0.991   4.254   6.443
 7360SOL    HW222980   1.153   4.278   6.433
 7361SOL     OW22981   4.686   6.941   1.584
 7361SOL    HW122982   4.595   6.958   1.621
 7361SOL    HW222983   4.679   6.889   1.499
 7362SOL     OW22984   1.243   5.633   6.729
 7362SOL    HW122985   1.311   5.606   6.661
 7362SOL    HW222986   1.287   5.646   6.818
 7363SOL     OW22987   4.370   2.004   6.137
 7363SOL    HW122988   4.417   2.056   6.208
 7363SOL    HW222989   4.413   2.021   6.048
 7364SOL     OW22990   4.949   6.945   0.636
 7364SOL    HW122991   4.927   6.923   0.731
 7364SOL    HW222992   4.922   0.017   0.617
 7365SOL     OW22993   4.211   6.686   1.453
 7365SOL    HW122994   4.185   6.631   1.533
 7365SOL    HW222995   4.150   6.765   1.446
 7366SOL     OW22996   1.865   0.479   0.272
 7366SOL    HW122997   1.825   0.566   0.242
 7366SOL    HW222998   1.839   0.461   0.367
 7367SOL     OW22999   4.365   2.961   6.817
 7367SOL    HW123000   4.443   2.939   6.759
 7367SOL    HW223001   4.285   2.909   6.785
 7368SOL     OW23002   2.971   3.270   4.595
 7368SOL    HW123003   3.007   3.345   4.539
 7368SOL    HW223004   2.896   3.225   4.547
 7369SOL     OW23005   6.461   0.698   6.779
 7369SOL    HW123006   6.510   0.769   6.728
 7369SOL    HW223007   6.421   0.633   6.715
 7370SOL     OW23008   0.525   6.049   0.902
 7370SOL    HW123009   0.603   6.052   0.839
 7370SOL    HW223010   0.493   6.142   0.920
 7371SOL     OW23011   1.700   4.889   4.143
 7371SOL    HW123012   1.719   4.912   4.047
 7371SOL    HW223013   1.753   4.950   4.202
 7372SOL     OW23014   2.860   0.365   5.045
 7372SOL    HW123015   2.847   0.278   5.093
 7372SOL    HW223016   2.957   0.381   5.031
 7373SOL     OW23017   3.430   0.875   1.238
 7373SOL    HW123018   3.524   0.858   1.209
 7373SOL    HW223019   3.368   0.822   1.181
 7374SOL     OW23020   2.037   3.538   0.287
 7374SOL    HW123021   2.130   3.518   0.254
 7374SOL    HW223022   1.979   3.562   0.209
 7375SOL     OW23023   2.735   5.966   3.392
 7375SOL    HW123024   2.764   5.873   3.370
 7375SOL    HW223025   2.647   5.984   3.348
 7376SOL     OW23026   3.229   3.911   6.871
 7376SOL    HW123027   3.161   3.977   6.840
 7376SOL    HW223028   3.182   3.831   6.910
 7377SOL     OW23029   6.457   5.863   1.786
 7377SOL    HW123030   6.479   5.864   1.689
 7377SOL    HW223031   6.520   5.802   1.834
 7378SOL     OW23032   0.902   2.091   5.648
 7378SOL    HW123033   0.881   2.045   5.734
 7378SOL    HW223034   0.983   2.147   5.659
 7379SOL     OW23035   4.425   0.135   0.382
 7379SOL    HW123036   4.362   0.058   0.369
 7379SOL    HW223037   4.428   0.160   0.479
 7380SOL     OW23038   6.556   2.933   6.394
 7380SOL    HW123039   6.584   2.852   6.343
 7380SOL    HW223040   6.605   3.013   6.360
 7381SOL     OW23041   5.349   2.204   0.238
 7381SOL    HW123042   5.284   2.249   0.177
 7381SOL    HW223043   5.301   2.170   0.319
 7382SOL     OW23044   1.186   5.226   4.204
 7382SOL    HW123045   1.282   5.233   4.233
 7382SOL    HW223046   1.179   5.251   4.108
 7383SOL     OW23047   1.545   4.299   2.634
 7383SOL    HW123048   1.562   4.395   2.657
 7383SOL    HW223049   1.448   4.288   2.611
 7384SOL     OW23050   6.237   2.051   1.391
 7384SOL    HW123051   6.225   1.952   1.403
 7384SOL    HW223052   6.242   2.095   1.480
 7385SOL     OW23053   5.671   0.398   1.800
 7385SOL    HW123054   5.689   0.483   1.751
 7385SOL    HW223055   5.682   0.414   1.898
 7386SOL     OW23056   6.558   1.491   5.887
 7386SOL    HW123057   6.585   1.585   5.863
 7386SOL    HW223058   6.472   1.468   5.840
 7387SOL     OW23059   4.653   6.274   2.949
 7387SOL    HW123060   4.619   6.207   3.015
 7387SOL    HW223061   4.686   6.227   2.867
 7388SOL     OW23062   4.852   3.971   4.637
 7388SOL    HW123063   4.841   3.968   4.736
 7388SOL    HW223064   4.845   3.878   4.600
 7389SOL     OW23065   1.450   3.064   5.260
 7389SOL    HW123066   1.382   2.990   5.257
 7389SOL    HW223067   1.517   3.045   5.331
 7390SOL     OW23068   4.471   6.800   0.005
 7390SOL    HW123069   4.494   6.751   0.089
 7390SOL    HW223070   4.411   6.877   0.026
 7391SOL     OW23071   0.459   5.188   6.976
 7391SOL    HW123072   0.523   5.163   0.026
 7391SOL    HW223073   0.491   5.272   6.932
 7392SOL     OW23074   1.931   4.625   2.235
 7392SOL    HW123075   1.949   4.648   2.330
 7392SOL    HW223076   1.840   4.584   2.228
 7393SOL     OW23077   1.207   3.917   0.241
 7393SOL    HW123078   1.150   3.866   0.306
 7393SOL    HW223079   1.155   3.993   0.204
 7394SOL     OW23080   2.346   3.138   6.693
 7394SOL    HW123081   2.399   3.124   6.610
 7394SOL    HW223082   2.270   3.073   6.696
 7395SOL     OW23083   2.691   0.912   6.895
 7395SOL    HW123084   2.762   0.934   6.829
 7395SOL    HW223085   2.674   0.813   6.895
 7396SOL     OW23086   0.029   6.788   2.500
 7396SOL    HW123087   0.036   6.689   2.483
 7396SOL    HW223088   0.073   6.837   2.425
 7397SOL     OW23089   6.274   4.136   4.263
 7397SOL    HW123090   6.207   4.208   4.282
 7397SOL    HW223091   6.260   4.059   4.325
 7398SOL     OW23092   4.588   6.244   2.566
 7398SOL    HW123093   4.587   6.176   2.492
 7398SOL    HW223094   4.666   6.227   2.626
 7399SOL     OW23095   5.164   5.806   3.935
 7399SOL    HW123096   5.164   5.836   4.031
 7399SOL    HW223097   5.165   5.706   3.932
 7400SOL     OW23098   2.560   4.148   6.797
 7400SOL    HW123099   2.612   4.103   6.870
 7400SOL    HW223100   2.462   4.140   6.816
 7401SOL     OW23101   5.899   2.963   4.092
 7401SOL    HW123102   5.823   2.901   4.113
 7401SOL    HW223103   5.979   2.938   4.148
 7402SOL     OW23104   1.888   6.291   4.558
 7402SOL    HW123105   1.924   6.234   4.631
 7402SOL    HW223106   1.913   6.251   4.470
 7403SOL     OW23107   2.458   3.217   1.712
 7403SOL    HW123108   2.414   3.283   1.773
 7403SOL    HW223109   2.404   3.206   1.629
 7404SOL     OW23110   1.153   2.728   2.916
 7404SOL    HW123111   1.149   2.733   3.016
 7404SOL    HW223112   1.231   2.781   2.883
 7405SOL     OW23113   3.559   4.675   5.978
 7405SOL    HW123114   3.650   4.635   5.975
 7405SOL    HW223115   3.565   4.769   6.010
 7406SOL     OW23116   0.377   6.140   2.715
 7406SOL    HW123117   0.339   6.229   2.689
 7406SOL    HW223118   0.307   6.070   2.707
 7407SOL     OW23119   3.421   1.375   5.608
 7407SOL    HW123120   3.504   1.325   5.585
 7407SOL    HW223121   3.443   1.449   5.672
 7408SOL     OW23122   1.498   3.419   5.425
 7408SOL    HW123123   1.558   3.425   5.345
 7408SOL    HW223124   1.465   3.325   5.435
 7409SOL     OW23125   2.519   6.840   4.428
 7409SOL    HW123126   2.533   6.763   4.490
 7409SOL    HW223127   2.439   6.823   4.371
 7410SOL     OW23128   4.995   5.846   5.906
 7410SOL    HW123129   4.919   5.863   5.968
 7410SOL    HW223130   5.074   5.901   5.934
 7411SOL     OW23131   5.763   3.719   5.588
 7411SOL    HW123132   5.853   3.752   5.614
 7411SOL    HW223133   5.763   3.692   5.492
 7412SOL     OW23134   1.375   1.152   0.352
 7412SOL    HW123135   1.399   1.056   0.364
 7412SOL    HW223136   1.282   1.168   0.386
 7413SOL     OW23137   6.882   3.542   3.765
 7413SOL    HW123138   6.851   3.541   3.860
 7413SOL    HW223139   6.840   3.466   3.715
 7414SOL     OW23140   0.397   5.382   1.551
 7414SOL    HW123141   0.398   5.435   1.467
 7414SOL    HW223142   0.427   5.288   1.533
 7415SOL     OW23143   3.206   1.588   2.742
 7415SOL    HW123144   3.270   1.555   2.812
 7415SOL    HW223145   3.252   1.590   2.653
 7416SOL     OW23146   6.484   0.098   2.990
 7416SOL    HW123147   6.568   0.056   2.957
 7416SOL    HW223148   6.455   0.169   2.926
 7417SOL     OW23149   0.241   5.132   1.167
 7417SOL    HW123150   0.338   5.158   1.172
 7417SOL    HW223151   0.225   5.080   1.084
 7418SOL     OW23152   1.474   3.825   0.183
 7418SOL    HW123153   1.377   3.851   0.190
 7418SOL    HW223154   1.481   3.726   0.171
 7419SOL     OW23155   6.266   2.301   5.532
 7419SOL    HW123156   6.320   2.217   5.537
 7419SOL    HW223157   6.269   2.337   5.439
 7420SOL     OW23158   6.830   5.677   2.055
 7420SOL    HW123159   6.819   5.584   2.021
 7420SOL    HW223160   6.834   5.677   2.155
 7421SOL     OW23161   3.837   1.810   1.405
 7421SOL    HW123162   3.811   1.879   1.336
 7421SOL    HW223163   3.784   1.825   1.488
 7422SOL     OW23164   0.700   1.992   1.151
 7422SOL    HW123165   0.711   2.066   1.085
 7422SOL    HW223166   0.787   1.945   1.164
 7423SOL     OW23167   2.750   4.009   0.764
 7423SOL    HW123168   2.656   4.040   0.780
 7423SOL    HW223169   2.754   3.909   0.774
 7424SOL     OW23170   5.010   0.691   3.480
 7424SOL    HW123171   5.027   0.629   3.556
 7424SOL    HW223172   5.056   0.779   3.498
 7425SOL     OW23173   3.401   0.131   4.248
 7425SOL    HW123174   3.406   0.085   4.160
 7425SOL    HW223175   3.379   0.228   4.234
 7426SOL     OW23176   0.255   0.610   6.600
 7426SOL    HW123177   0.340   0.649   6.634
 7426SOL    HW223178   0.179   0.674   6.616
 7427SOL     OW23179   5.403   4.897   4.780
 7427SOL    HW123180   5.324   4.913   4.721
 7427SOL    HW223181   5.483   4.944   4.742
 7428SOL     OW23182   4.759   1.081   5.099
 7428SOL    HW123183   4.762   0.990   5.140
 7428SOL    HW223184   4.835   1.093   5.036
 7429SOL     OW23185   6.532   6.343   3.974
 7429SOL    HW123186   6.538   6.261   4.030
 7429SOL    HW223187   6.607   6.344   3.908
 7430SOL     OW23188   0.215   3.980   4.312
 7430SOL    HW123189   0.120   3.948   4.320
 7430SOL    HW223190   0.221   4.074   4.344
 7431SOL     OW23191   0.219   4.115   2.565
 7431SOL    HW123192   0.281   4.192   2.576
 7431SOL    HW223193   0.271   4.034   2.538
 7432SOL     OW23194   2.031   6.356   5.596
 7432SOL    HW123195   1.983   6.314   5.519
 7432SOL    HW223196   2.071   6.284   5.654
 7433SOL     OW23197   0.149   7.018   1.054
 7433SOL    HW123198   0.157   0.055   0.974
 7433SOL    HW223199   0.236   7.015   1.103
 7434SOL     OW23200   4.770   6.457   0.817
 7434SOL    HW123201   4.739   6.515   0.742
 7434SOL    HW223202   4.691   6.415   0.861
 7435SOL     OW23203   1.388   4.965   0.564
 7435SOL    HW123204   1.335   4.939   0.483
 7435SOL    HW223205   1.484   4.978   0.537
 7436SOL     OW23206   4.859   3.729   6.803
 7436SOL    HW123207   4.828   3.719   6.709
 7436SOL    HW223208   4.787   3.772   6.857
 7437SOL     OW23209   0.215   6.426   5.219
 7437SOL    HW123210   0.239   6.358   5.289
 7437SOL    HW223211   0.122   6.408   5.186
 7438SOL     OW23212   5.868   3.717   0.803
 7438SOL    HW123213   5.962   3.730   0.773
 7438SOL    HW223214   5.830   3.805   0.833
 7439SOL     OW23215   1.282   6.666   2.899
 7439SOL    HW123216   1.270   6.720   2.815
 7439SOL    HW223217   1.347   6.712   2.959
 7440SOL     OW23218   0.694   1.221   4.090
 7440SOL    HW123219   0.601   1.253   4.111
 7440SOL    HW223220   0.761   1.282   4.134
 7441SOL     OW23221   6.735   0.220   4.231
 7441SOL    HW123222   6.682   0.249   4.152
 7441SOL    HW223223   6.738   0.121   4.235
 7442SOL     OW23224   1.636   0.918   6.678
 7442SOL    HW123225   1.725   0.879   6.700
 7442SOL    HW223226   1.648   0.995   6.615
 7443SOL     OW23227   6.897   2.116   1.920
 7443SOL    HW123228   6.975   2.173   1.945
 7443SOL    HW223229   6.820   2.174   1.893
 7444SOL     OW23230   0.782   2.683   5.200
 7444SOL    HW123231   0.841   2.637   5.135
 7444SOL    HW223232   0.836   2.747   5.256
 7445SOL     OW23233   6.024   2.894   1.731
 7445SOL    HW123234   6.084   2.814   1.725
 7445SOL    HW223235   6.067   2.964   1.788
 7446SOL     OW23236   5.014   4.101   2.901
 7446SOL    HW123237   5.013   4.062   2.993
 7446SOL    HW223238   5.021   4.201   2.908
 7447SOL     OW23239   0.714   3.913   6.607
 7447SOL    HW123240   0.669   3.853   6.540
 7447SOL    HW223241   0.659   3.995   6.620
 7448SOL     OW23242   0.391   1.206   5.975
 7448SOL    HW123243   0.423   1.292   6.016
 7448SOL    HW223244   0.393   1.214   5.876
 7449SOL     OW23245   3.881   0.529   1.976
 7449SOL    HW123246   3.862   0.577   2.062
 7449SOL    HW223247   3.979   0.512   1.969
 7450SOL     OW23248   3.656   1.862   1.605
 7450SOL    HW123249   3.687   1.953   1.631
 7450SOL    HW223250   3.564   1.868   1.566
 7451SOL     OW23251   1.147   0.476   2.384
 7451SOL    HW123252   1.182   0.538   2.455
 7451SOL    HW223253   1.084   0.526   2.325
 7452SOL     OW23254   1.734   6.125   3.364
 7452SOL    HW123255   1.726   6.216   3.323
 7452SOL    HW223256   1.740   6.134   3.464
 7453SOL     OW23257   6.635   4.776   4.776
 7453SOL    HW123258   6.642   4.738   4.868
 7453SOL    HW223259   6.683   4.717   4.711
 7454SOL     OW23260   1.534   2.920   0.226
 7454SOL    HW123261   1.568   3.007   0.190
 7454SOL    HW223262   1.434   2.920   0.222
 7455SOL     OW23263   4.567   6.887   0.553
 7455SOL    HW123264   4.522   6.962   0.602
 7455SOL    HW223265   4.593   6.918   0.462
 7456SOL     OW23266   1.063   3.730   6.082
 7456SOL    HW123267   1.063   3.658   6.013
 7456SOL    HW223268   1.070   3.688   6.173
 7457SOL     OW23269   0.256   6.084   6.175
 7457SOL    HW123270   0.259   6.007   6.111
 7457SOL    HW223271   0.278   6.052   6.267
 7458SOL     OW23272   2.920   0.508   1.284
 7458SOL    HW123273   2.974   0.423   1.287
 7458SOL    HW223274   2.955   0.571   1.353
 7459SOL     OW23275   3.449   5.962   4.014
 7459SOL    HW123276   3.406   6.012   3.938
 7459SOL    HW223277   3.485   6.027   4.081
 7460SOL     OW23278   0.531   5.455   6.802
 7460SOL    HW123279   0.629   5.473   6.814
 7460SOL    HW223280   0.505   5.478   6.708
 7461SOL     OW23281   4.296   0.613   3.667
 7461SOL    HW123282   4.345   0.529   3.644
 7461SOL    HW223283   4.198   0.599   3.656
 7462SOL     OW23284   2.553   1.741   3.895
 7462SOL    HW123285   2.501   1.818   3.932
 7462SOL    HW223286   2.589   1.686   3.970
 7463SOL     OW23287   3.963   3.931   2.415
 7463SOL    HW123288   4.025   3.855   2.436
 7463SOL    HW223289   3.954   3.990   2.495
 7464SOL     OW23290   4.718   5.702   7.009
 7464SOL    HW123291   4.667   5.759   0.051
 7464SOL    HW223292   4.720   5.746   6.919
 7465SOL     OW23293   3.808   1.336   2.756
 7465SOL    HW123294   3.899   1.358   2.721
 7465SOL    HW223295   3.747   1.316   2.679
 7466SOL     OW23296   6.194   0.284   0.387
 7466SOL    HW123297   6.143   0.357   0.432
 7466SOL    HW223298   6.288   0.283   0.422
 7467SOL     OW23299   4.460   2.352   0.930
 7467SOL    HW123300   4.465   2.258   0.964
 7467SOL    HW223301   4.520   2.411   0.984
 7468SOL     OW23302   5.431   4.045   4.346
 7468SOL    HW123303   5.501   3.977   4.323
 7468SOL    HW223304   5.473   4.122   4.393
 7469SOL     OW23305   5.151   1.389   1.994
 7469SOL    HW123306   5.065   1.337   2.001
 7469SOL    HW223307   5.130   1.487   1.988
 7470SOL     OW23308   0.299   3.219   3.371
 7470SOL    HW123309   0.237   3.141   3.379
 7470SOL    HW223310   0.371   3.197   3.305
 7471SOL     OW23311   6.336   4.628   5.188
 7471SOL    HW123312   6.405   4.625   5.115
 7471SOL    HW223313   6.355   4.705   5.249
 7472SOL     OW23314   3.968   5.293   3.114
 7472SOL    HW123315   4.033   5.255   3.048
 7472SOL    HW223316   3.902   5.351   3.067
 7473SOL     OW23317   1.377   2.562   6.158
 7473SOL    HW123318   1.471   2.584   6.182
 7473SOL    HW223319   1.318   2.640   6.177
 7474SOL     OW23320   2.862   1.447   2.588
 7474SOL    HW123321   2.883   1.519   2.522
 7474SOL    HW223322   2.921   1.457   2.668
 7475SOL     OW23323   4.938   0.562   6.079
 7475SOL    HW123324   4.897   0.593   5.994
 7475SOL    HW223325   4.892   0.478   6.109
 7476SOL     OW23326   2.230   0.005   4.833
 7476SOL    HW123327   2.167   6.951   4.821
 7476SOL    HW223328   2.298   7.005   4.903
 7477SOL     OW23329   5.020   4.389   4.308
 7477SOL    HW123330   4.983   4.304   4.348
 7477SOL    HW223331   5.119   4.379   4.294
 7478SOL     OW23332   0.667   4.686   1.871
 7478SOL    HW123333   0.604   4.636   1.812
 7478SOL    HW223334   0.672   4.781   1.841
 7479SOL     OW23335   3.449   0.374   5.007
 7479SOL    HW123336   3.522   0.318   4.967
 7479SOL    HW223337   3.377   0.389   4.939
 7480SOL     OW23338   6.064   5.395   0.183
 7480SOL    HW123339   6.109   5.442   0.108
 7480SOL    HW223340   6.109   5.308   0.201
 7481SOL     OW23341   6.148   6.141   0.211
 7481SOL    HW123342   6.086   6.161   0.287
 7481SOL    HW223343   6.241   6.165   0.236
 7482SOL     OW23344   4.964   6.936   4.798
 7482SOL    HW123345   5.046   6.991   4.786
 7482SOL    HW223346   4.942   6.890   4.712
 7483SOL     OW23347   3.535   0.326   6.647
 7483SOL    HW123348   3.582   0.269   6.580
 7483SOL    HW223349   3.602   0.363   6.712
 7484SOL     OW23350   3.248   6.879   1.210
 7484SOL    HW123351   3.283   6.793   1.172
 7484SOL    HW223352   3.292   6.897   1.298
 7485SOL     OW23353   0.851   6.140   5.410
 7485SOL    HW123354   0.787   6.215   5.398
 7485SOL    HW223355   0.936   6.175   5.450
 7486SOL     OW23356   1.448   2.003   5.170
 7486SOL    HW123357   1.431   2.074   5.238
 7486SOL    HW223358   1.545   2.003   5.145
 7487SOL     OW23359   3.373   4.909   3.069
 7487SOL    HW123360   3.312   4.962   3.128
 7487SOL    HW223361   3.334   4.903   2.977
 7488SOL     OW23362   4.335   1.178   5.056
 7488SOL    HW123363   4.240   1.151   5.044
 7488SOL    HW223364   4.394   1.112   5.010
 7489SOL     OW23365   0.189   3.627   3.267
 7489SOL    HW123366   0.165   3.701   3.330
 7489SOL    HW223367   0.254   3.662   3.199
 7490SOL     OW23368   5.800   6.879   2.824
 7490SOL    HW123369   5.851   6.915   2.746
 7490SOL    HW223370   5.863   6.844   2.892
 7491SOL     OW23371   0.329   0.355   0.774
 7491SOL    HW123372   0.366   0.411   0.848
 7491SOL    HW223373   0.269   0.285   0.812
 7492SOL     OW23374   2.547   1.909   3.044
 7492SOL    HW123375   2.555   1.835   3.110
 7492SOL    HW223376   2.637   1.952   3.032
 7493SOL     OW23377   5.296   4.670   6.250
 7493SOL    HW123378   5.383   4.700   6.210
 7493SOL    HW223379   5.313   4.630   6.341
 7494SOL     OW23380   5.006   1.946   1.523
 7494SOL    HW123381   5.079   1.986   1.579
 7494SOL    HW223382   4.971   1.864   1.568
 7495SOL     OW23383   1.139   1.698   3.093
 7495SOL    HW123384   1.086   1.709   3.177
 7495SOL    HW223385   1.227   1.745   3.103
 7496SOL     OW23386   0.396   5.616   5.723
 7496SOL    HW123387   0.440   5.580   5.806
 7496SOL    HW223388   0.376   5.541   5.661
 7497SOL     OW23389   1.671   5.001   2.969
 7497SOL    HW123390   1.572   4.992   2.978
 7497SOL    HW223391   1.697   5.098   2.976
 7498SOL     OW23392   5.551   2.067   4.592
 7498SOL    HW123393   5.637   2.091   4.546
 7498SOL    HW223394   5.503   1.998   4.538
 7499SOL     OW23395   3.709   5.285   3.500
 7499SOL    HW123396   3.655   5.343   3.439
 7499SOL    HW223397   3.743   5.341   3.576
 7500SOL     OW23398   4.783   3.866   1.778
 7500SOL    HW123399   4.703   3.865   1.718
 7500SOL    HW223400   4.774   3.940   1.845
 7501SOL     OW23401   0.629   4.582   3.837
 7501SOL    HW123402   0.643   4.500   3.894
 7501SOL    HW223403   0.537   4.581   3.799
 7502SOL     OW23404   1.779   1.981   3.824
 7502SOL    HW123405   1.736   2.066   3.793
 7502SOL    HW223406   1.803   1.989   3.921
 7503SOL     OW23407   2.629   2.205   6.799
 7503SOL    HW123408   2.638   2.171   6.706
 7503SOL    HW223409   2.622   2.305   6.798
 7504SOL     OW23410   4.315   5.714   4.339
 7504SOL    HW123411   4.392   5.774   4.362
 7504SOL    HW223412   4.273   5.746   4.254
 7505SOL     OW23413   2.033   1.224   4.073
 7505SOL    HW123414   2.011   1.295   4.140
 7505SOL    HW223415   2.108   1.254   4.015
 7506SOL     OW23416   3.840   0.770   3.073
 7506SOL    HW123417   3.889   0.743   3.157
 7506SOL    HW223418   3.761   0.710   3.061
 7507SOL     OW23419   1.883   0.052   5.723
 7507SOL    HW123420   1.932   7.022   5.793
 7507SOL    HW223421   1.908   0.018   5.632
 7508SOL     OW23422   5.562   5.548   2.933
 7508SOL    HW123423   5.518   5.481   2.994
 7508SOL    HW223424   5.656   5.518   2.913
 7509SOL     OW23425   3.992   4.202   6.143
 7509SOL    HW123426   3.993   4.201   6.243
 7509SOL    HW223427   3.966   4.293   6.111
 7510SOL     OW23428   3.430   3.502   4.521
 7510SOL    HW123429   3.459   3.598   4.514
 7510SOL    HW223430   3.439   3.458   4.432
 7511SOL     OW23431   1.195   1.498   2.620
 7511SOL    HW123432   1.258   1.451   2.558
 7511SOL    HW223433   1.245   1.529   2.701
 7512SOL     OW23434   1.940   3.393   2.221
 7512SOL    HW123435   1.987   3.460   2.278
 7512SOL    HW223436   1.942   3.422   2.125
 7513SOL     OW23437   1.521   3.181   6.564
 7513SOL    HW123438   1.597   3.120   6.588
 7513SOL    HW223439   1.526   3.203   6.467
 7514SOL     OW23440   3.251   5.176   3.416
 7514SOL    HW123441   3.313   5.174   3.495
 7514SOL    HW223442   3.295   5.225   3.341
 7515SOL     OW23443   0.118   4.616   3.146
 7515SOL    HW123444   0.121   4.611   3.246
 7515SOL    HW223445   0.190   4.679   3.115
 7516SOL     OW23446   2.021   3.031   1.459
 7516SOL    HW123447   2.092   2.963   1.476
 7516SOL    HW223448   1.954   2.994   1.394
 7517SOL     OW23449   1.110   5.148   2.039
 7517SOL    HW123450   1.052   5.069   2.056
 7517SOL    HW223451   1.092   5.219   2.107
 7518SOL     OW23452   4.837   4.001   2.656
 7518SOL    HW123453   4.910   4.035   2.714
 7518SOL    HW223454   4.784   3.932   2.705
 7519SOL     OW23455   2.067   0.094   4.609
 7519SOL    HW123456   2.073   0.015   4.548
 7519SOL    HW223457   2.134   0.084   4.683
 7520SOL     OW23458   2.277   6.939   4.053
 7520SOL    HW123459   2.290   0.007   4.094
 7520SOL    HW223460   2.317   6.937   3.962
 7521SOL     OW23461   4.299   3.149   5.446
 7521SOL    HW123462   4.390   3.166   5.407
 7521SOL    HW223463   4.297   3.057   5.487
 7522SOL     OW23464   2.049   6.846   2.465
 7522SOL    HW123465   1.992   6.921   2.433
 7522SOL    HW223466   2.136   6.882   2.499
 7523SOL     OW23467   6.792   6.367   6.743
 7523SOL    HW123468   6.861   6.309   6.700
 7523SOL    HW223469   6.772   6.444   6.683
 7524SOL     OW23470   6.465   1.065   4.852
 7524SOL    HW123471   6.531   1.080   4.777
 7524SOL    HW223472   6.492   1.120   4.931
 7525SOL     OW23473   0.511   0.711   0.824
 7525SOL    HW123474   0.505   0.639   0.894
 7525SOL    HW223475   0.606   0.742   0.817
 7526SOL     OW23476   3.630   3.286   5.767
 7526SOL    HW123477   3.661   3.200   5.807
 7526SOL    HW223478   3.569   3.333   5.833
 7527SOL     OW23479   3.453   6.294   2.097
 7527SOL    HW123480   3.466   6.386   2.060
 7527SOL    HW223481   3.474   6.227   2.027
 7528SOL     OW23482   5.942   3.273   6.455
 7528SOL    HW123483   5.865   3.323   6.496
 7528SOL    HW223484   5.982   3.212   6.524
 7529SOL     OW23485   1.773   0.095   4.682
 7529SOL    HW123486   1.862   0.053   4.663
 7529SOL    HW223487   1.744   0.149   4.602
 7530SOL     OW23488   6.918   2.784   2.793
 7530SOL    HW123489   6.826   2.763   2.825
 7530SOL    HW223490   6.975   2.702   2.802
 7531SOL     OW23491   2.468   1.738   4.300
 7531SOL    HW123492   2.384   1.793   4.297
 7531SOL    HW223493   2.508   1.743   4.392
 7532SOL     OW23494   4.784   4.594   2.177
 7532SOL    HW123495   4.785   4.683   2.131
 7532SOL    HW223496   4.725   4.598   2.257
 7533SOL     OW23497   3.279   0.779   4.897
 7533SOL    HW123498   3.202   0.731   4.854
 7533SOL    HW223499   3.282   0.874   4.865
 7534SOL     OW23500   4.543   6.797   3.515
 7534SOL    HW123501   4.603   6.855   3.570
 7534SOL    HW223502   4.592   6.762   3.436
 7535SOL     OW23503   3.121   4.837   0.312
 7535SOL    HW123504   3.100   4.926   0.273
 7535SOL    HW223505   3.196   4.795   0.260
 7536SOL     OW23506   4.566   5.701   6.057
 7536SOL    HW123507   4.586   5.729   5.964
 7536SOL    HW223508   4.531   5.607   6.057
 7537SOL     OW23509   1.904   4.734   5.268
 7537SOL    HW123510   1.913   4.702   5.362
 7537SOL    HW223511   1.844   4.673   5.217
 7538SOL     OW23512   3.483   3.846   5.062
 7538SOL    HW123513   3.414   3.903   5.108
 7538SOL    HW223514   3.565   3.841   5.118
 7539SOL     OW23515   0.882   1.980   4.941
 7539SOL    HW123516   0.849   2.041   5.014
 7539SOL    HW223517   0.952   2.028   4.888
 7540SOL     OW23518   2.471   0.933   0.468
 7540SOL    HW123519   2.406   0.988   0.522
 7540SOL    HW223520   2.436   0.923   0.374
 7541SOL     OW23521   6.782   2.507   5.332
 7541SOL    HW123522   6.730   2.560   5.400
 7541SOL    HW223523   6.723   2.486   5.255
 7542SOL     OW23524   1.579   0.350   5.549
 7542SOL    HW123525   1.539   0.305   5.468
 7542SOL    HW223526   1.673   0.376   5.529
 7543SOL     OW23527   2.504   2.506   1.233
 7543SOL    HW123528   2.569   2.430   1.234
 7543SOL    HW223529   2.540   2.582   1.287
 7544SOL     OW23530   1.486   1.840   2.638
 7544SOL    HW123531   1.389   1.815   2.634
 7544SOL    HW223532   1.496   1.937   2.616
 7545SOL     OW23533   3.889   0.619   3.296
 7545SOL    HW123534   3.984   0.636   3.321
 7545SOL    HW223535   3.859   0.532   3.336
 7546SOL     OW23536   5.458   0.311   5.410
 7546SOL    HW123537   5.418   0.226   5.443
 7546SOL    HW223538   5.558   0.308   5.422
 7547SOL     OW23539   2.840   0.335   0.214
 7547SOL    HW123540   2.815   0.299   0.305
 7547SOL    HW223541   2.766   0.317   0.150
 7548SOL     OW23542   1.986   3.444   1.100
 7548SOL    HW123543   2.050   3.369   1.117
 7548SOL    HW223544   1.938   3.465   1.185
 7549SOL     OW23545   5.713   0.523   2.496
 7549SOL    HW123546   5.753   0.613   2.518
 7549SOL    HW223547   5.685   0.522   2.400
 7550SOL     OW23548   0.957   5.672   1.008
 7550SOL    HW123549   0.957   5.587   0.956
 7550SOL    HW223550   0.863   5.706   1.017
 7551SOL     OW23551   5.189   3.529   6.038
 7551SOL    HW123552   5.286   3.507   6.032
 7551SOL    HW223553   5.176   3.604   6.103
 7552SOL     OW23554   3.865   6.033   3.928
 7552SOL    HW123555   3.947   6.003   3.879
 7552SOL    HW223556   3.859   5.985   4.015
 7553SOL     OW23557   4.180   3.970   5.817
 7553SOL    HW123558   4.162   3.887   5.763
 7553SOL    HW223559   4.107   3.981   5.885
 7554SOL     OW23560   0.256   1.392   1.122
 7554SOL    HW123561   0.339   1.430   1.163
 7554SOL    HW223562   0.183   1.390   1.190
 7555SOL     OW23563   1.732   6.120   5.943
 7555SOL    HW123564   1.693   6.056   6.010
 7555SOL    HW223565   1.744   6.209   5.986
 7556SOL     OW23566   6.634   4.197   3.181
 7556SOL    HW123567   6.536   4.180   3.197
 7556SOL    HW223568   6.670   4.126   3.120
 7557SOL     OW23569   4.123   4.080   0.572
 7557SOL    HW123570   4.220   4.058   0.557
 7557SOL    HW223571   4.072   4.063   0.489
 7558SOL     OW23572   1.591   2.843   3.446
 7558SOL    HW123573   1.688   2.866   3.456
 7558SOL    HW223574   1.568   2.840   3.349
 7559SOL     OW23575   0.437   4.298   7.000
 7559SOL    HW123576   0.509   4.301   6.930
 7559SOL    HW223577   0.357   4.349   6.967
 7560SOL     OW23578   4.499   0.617   5.298
 7560SOL    HW123579   4.419   0.574   5.339
 7560SOL    HW223580   4.557   0.546   5.257
 7561SOL     OW23581   0.502   4.030   0.448
 7561SOL    HW123582   0.525   4.040   0.352
 7561SOL    HW223583   0.516   4.117   0.495
 7562SOL     OW23584   4.427   6.206   4.669
 7562SOL    HW123585   4.421   6.192   4.767
 7562SOL    HW223586   4.383   6.130   4.621
 7563SOL     OW23587   2.491   1.046   3.960
 7563SOL    HW123588   2.395   1.032   3.936
 7563SOL    HW223589   2.521   1.136   3.928
 7564SOL     OW23590   5.850   5.773   3.954
 7564SOL    HW123591   5.933   5.719   3.973
 7564SOL    HW223592   5.769   5.717   3.973
 7565SOL     OW23593   4.752   5.367   6.808
 7565SOL    HW123594   4.706   5.380   6.721
 7565SOL    HW223595   4.829   5.430   6.816
 7566SOL     OW23596   1.665   5.901   4.207
 7566SOL    HW123597   1.652   5.860   4.298
 7566SOL    HW223598   1.699   5.994   4.218
 7567SOL     OW23599   2.200   3.044   0.456
 7567SOL    HW123600   2.119   3.026   0.512
 7567SOL    HW223601   2.262   2.966   0.460
 7568SOL     OW23602   3.711   4.867   2.735
 7568SOL    HW123603   3.802   4.844   2.702
 7568SOL    HW223604   3.714   4.881   2.834
 7569SOL     OW23605   3.518   0.023   2.383
 7569SOL    HW123606   3.614   7.015   2.380
 7569SOL    HW223607   3.482   0.026   2.289
 7570SOL     OW23608   5.616   5.014   4.656
 7570SOL    HW123609   5.698   4.959   4.642
 7570SOL    HW223610   5.638   5.111   4.644
 7571SOL     OW23611   6.360   4.192   0.357
 7571SOL    HW123612   6.428   4.177   0.428
 7571SOL    HW223613   6.268   4.180   0.395
 7572SOL     OW23614   6.763   1.685   3.044
 7572SOL    HW123615   6.829   1.757   3.062
 7572SOL    HW223616   6.705   1.672   3.125
 7573SOL     OW23617   3.795   5.209   4.580
 7573SOL    HW123618   3.841   5.281   4.632
 7573SOL    HW223619   3.758   5.141   4.643
 7574SOL     OW23620   4.599   5.999   1.905
 7574SOL    HW123621   4.532   5.990   1.979
 7574SOL    HW223622   4.593   6.092   1.867
 7575SOL     OW23623   4.861   3.020   5.058
 7575SOL    HW123624   4.881   3.019   4.960
 7575SOL    HW223625   4.874   3.112   5.094
 7576SOL     OW23626   0.144   3.622   1.658
 7576SOL    HW123627   0.082   3.568   1.715
 7576SOL    HW223628   0.095   3.654   1.577
 7577SOL     OW23629   4.378   1.434   4.625
 7577SOL    HW123630   4.372   1.342   4.586
 7577SOL    HW223631   4.337   1.500   4.563
 7578SOL     OW23632   2.549   5.672   4.635
 7578SOL    HW123633   2.599   5.630   4.560
 7578SOL    HW223634   2.467   5.619   4.655
 7579SOL     OW23635   4.284   2.396   4.435
 7579SOL    HW123636   4.251   2.488   4.413
 7579SOL    HW223637   4.366   2.402   4.490
 7580SOL     OW23638   2.013   3.360   1.948
 7580SOL    HW123639   2.092   3.419   1.967
 7580SOL    HW223640   1.970   3.388   1.862
 7581SOL     OW23641   5.117   0.871   0.620
 7581SOL    HW123642   5.119   0.775   0.591
 7581SOL    HW223643   5.197   0.918   0.583
 7582SOL     OW23644   3.641   2.582   1.362
 7582SOL    HW123645   3.604   2.649   1.426
 7582SOL    HW223646   3.636   2.619   1.269
 7583SOL     OW23647   6.771   4.461   3.079
 7583SOL    HW123648   6.735   4.523   3.009
 7583SOL    HW223649   6.733   4.369   3.063
 7584SOL     OW23650   2.388   1.983   1.966
 7584SOL    HW123651   2.402   2.081   1.954
 7584SOL    HW223652   2.467   1.944   2.015
 7585SOL     OW23653   2.101   4.557   7.018
 7585SOL    HW123654   2.089   4.648   6.980
 7585SOL    HW223655   2.160   4.503   6.957
 7586SOL     OW23656   1.495   2.259   3.429
 7586SOL    HW123657   1.552   2.236   3.508
 7586SOL    HW223658   1.497   2.358   3.413
 7587SOL     OW23659   2.365   1.213   5.753
 7587SOL    HW123660   2.426   1.150   5.704
 7587SOL    HW223661   2.302   1.255   5.688
 7588SOL     OW23662   0.781   4.454   1.710
 7588SOL    HW123663   0.809   4.447   1.806
 7588SOL    HW223664   0.808   4.543   1.673
 7589SOL     OW23665   4.808   5.890   6.086
 7589SOL    HW123666   4.825   5.917   6.181
 7589SOL    HW223667   4.735   5.822   6.083
 7590SOL     OW23668   1.737   0.996   5.700
 7590SOL    HW123669   1.747   1.067   5.769
 7590SOL    HW223670   1.682   0.921   5.737
 7591SOL     OW23671   6.431   5.921   6.787
 7591SOL    HW123672   6.473   5.952   6.701
 7591SOL    HW223673   6.443   5.991   6.857
 7592SOL     OW23674   4.180   5.248   6.113
 7592SOL    HW123675   4.175   5.224   6.210
 7592SOL    HW223676   4.152   5.169   6.058
 7593SOL     OW23677   6.109   4.202   0.461
 7593SOL    HW123678   6.020   4.197   0.416
 7593SOL    HW223679   6.097   4.201   0.560
 7594SOL     OW23680   1.045   6.897   3.988
 7594SOL    HW123681   1.073   6.804   4.010
 7594SOL    HW223682   1.112   6.962   4.024
 7595SOL     OW23683   6.413   2.874   6.610
 7595SOL    HW123684   6.478   2.891   6.535
 7595SOL    HW223685   6.434   2.935   6.686
 7596SOL     OW23686   4.870   5.484   2.078
 7596SOL    HW123687   4.835   5.394   2.104
 7596SOL    HW223688   4.815   5.555   2.121
 7597SOL     OW23689   2.316   5.637   1.557
 7597SOL    HW123690   2.334   5.550   1.604
 7597SOL    HW223691   2.331   5.713   1.620
 7598SOL     OW23692   6.369   1.074   2.729
 7598SOL    HW123693   6.321   0.989   2.750
 7598SOL    HW223694   6.464   1.054   2.706
 7599SOL     OW23695   5.970   3.036   2.120
 7599SOL    HW123696   6.033   2.983   2.177
 7599SOL    HW223697   5.876   3.006   2.137
 7600SOL     OW23698   1.986   2.530   2.998
 7600SOL    HW123699   2.077   2.570   3.011
 7600SOL    HW223700   1.992   2.454   2.933
 7601SOL     OW23701   2.032   0.650   5.582
 7601SOL    HW123702   2.085   0.612   5.506
 7601SOL    HW223703   2.029   0.585   5.657
 7602SOL     OW23704   2.143   3.240   5.238
 7602SOL    HW123705   2.157   3.182   5.157
 7602SOL    HW223706   2.206   3.212   5.310
 7603SOL     OW23707   6.588   1.246   2.213
 7603SOL    HW123708   6.636   1.179   2.157
 7603SOL    HW223709   6.654   1.297   2.269
 7604SOL     OW23710   5.207   5.288   6.489
 7604SOL    HW123711   5.203   5.355   6.415
 7604SOL    HW223712   5.241   5.201   6.453
 7605SOL     OW23713   5.794   3.595   6.212
 7605SOL    HW123714   5.714   3.635   6.167
 7605SOL    HW223715   5.769   3.561   6.302
 7606SOL     OW23716   5.592   1.674   3.683
 7606SOL    HW123717   5.525   1.604   3.662
 7606SOL    HW223718   5.545   1.759   3.706
 7607SOL     OW23719   5.347   6.936   5.876
 7607SOL    HW123720   5.377   0.005   5.849
 7607SOL    HW223721   5.253   6.941   5.909
 7608SOL     OW23722   3.261   3.577   4.821
 7608SOL    HW123723   3.232   3.617   4.908
 7608SOL    HW223724   3.268   3.650   4.753
 7609SOL     OW23725   1.013   2.679   3.446
 7609SOL    HW123726   1.004   2.714   3.539
 7609SOL    HW223727   0.957   2.734   3.384
 7610SOL     OW23728   5.671   0.292   2.271
 7610SOL    HW123729   5.661   0.228   2.195
 7610SOL    HW223730   5.648   0.384   2.239
 7611SOL     OW23731   2.053   1.788   1.516
 7611SOL    HW123732   2.092   1.702   1.548
 7611SOL    HW223733   1.967   1.770   1.469
 7612SOL     OW23734   4.450   1.977   2.894
 7612SOL    HW123735   4.351   1.973   2.906
 7612SOL    HW223736   4.471   2.019   2.806
 7613SOL     OW23737   6.049   0.566   2.450
 7613SOL    HW123738   6.036   0.523   2.360
 7613SOL    HW223739   5.975   0.632   2.465
 7614SOL     OW23740   4.204   0.867   0.676
 7614SOL    HW123741   4.173   0.887   0.583
 7614SOL    HW223742   4.168   0.937   0.739
 7615SOL     OW23743   3.786   4.643   5.752
 7615SOL    HW123744   3.842   4.623   5.671
 7615SOL    HW223745   3.717   4.710   5.727
 7616SOL     OW23746   0.349   5.235   3.104
 7616SOL    HW123747   0.447   5.247   3.120
 7616SOL    HW223748   0.330   5.247   3.007
 7617SOL     OW23749   3.405   5.712   3.722
 7617SOL    HW123750   3.324   5.732   3.777
 7617SOL    HW223751   3.464   5.648   3.771
 7618SOL     OW23752   2.565   1.986   0.431
 7618SOL    HW123753   2.552   2.071   0.380
 7618SOL    HW223754   2.646   1.938   0.396
 7619SOL     OW23755   5.996   3.242   6.181
 7619SOL    HW123756   5.917   3.189   6.148
 7619SOL    HW223757   5.979   3.270   6.275
 7620SOL     OW23758   3.346   5.857   1.465
 7620SOL    HW123759   3.337   5.776   1.407
 7620SOL    HW223760   3.440   5.891   1.461
 7621SOL     OW23761   2.266   2.421   0.614
 7621SOL    HW123762   2.169   2.445   0.610
 7621SOL    HW223763   2.281   2.359   0.692
 7622SOL     OW23764   4.513   2.271   1.440
 7622SOL    HW123765   4.415   2.286   1.440
 7622SOL    HW223766   4.539   2.223   1.356
 7623SOL     OW23767   6.354   6.296   5.144
 7623SOL    HW123768   6.266   6.308   5.190
 7623SOL    HW223769   6.389   6.204   5.163
 7624SOL     OW23770   0.070   0.403   4.848
 7624SOL    HW123771   0.053   0.410   4.750
 7624SOL    HW223772   0.024   0.322   4.884
 7625SOL     OW23773   3.277   5.456   0.989
 7625SOL    HW123774   3.268   5.362   1.021
 7625SOL    HW223775   3.345   5.460   0.916
 7626SOL     OW23776   2.708   4.135   5.417
 7626SOL    HW123777   2.721   4.215   5.359
 7626SOL    HW223778   2.796   4.106   5.454
 7627SOL     OW23779   0.027   1.055   0.370
 7627SOL    HW123780   0.047   1.152   0.384
 7627SOL    HW223781   6.985   1.045   0.294
 7628SOL     OW23782   4.643   1.732   1.646
 7628SOL    HW123783   4.714   1.723   1.715
 7628SOL    HW223784   4.684   1.728   1.555
 7629SOL     OW23785   6.199   6.016   3.557
 7629SOL    HW123786   6.273   6.007   3.490
 7629SOL    HW223787   6.207   6.104   3.604
 7630SOL     OW23788   6.641   1.508   1.999
 7630SOL    HW123789   6.599   1.596   2.019
 7630SOL    HW223790   6.585   1.434   2.037
 7631SOL     OW23791   1.494   0.965   3.399
 7631SOL    HW123792   1.531   0.889   3.453
 7631SOL    HW223793   1.398   0.947   3.377
 7632SOL     OW23794   4.264   0.714   4.880
 7632SOL    HW123795   4.213   0.798   4.902
 7632SOL    HW223796   4.241   0.643   4.947
 7633SOL     OW23797   6.166   3.880   6.761
 7633SOL    HW123798   6.242   3.893   6.825
 7633SOL    HW223799   6.199   3.831   6.681
 7634SOL     OW23800   1.390   2.446   2.675
 7634SOL    HW123801   1.488   2.445   2.693
 7634SOL    HW223802   1.371   2.502   2.594
 7635SOL     OW23803   2.571   4.685   6.138
 7635SOL    HW123804   2.491   4.673   6.197
 7635SOL    HW223805   2.541   4.719   6.048
 7636SOL     OW23806   1.329   0.425   3.343
 7636SOL    HW123807   1.363   0.484   3.270
 7636SOL    HW223808   1.245   0.463   3.381
 7637SOL     OW23809   2.799   6.459   4.069
 7637SOL    HW123810   2.850   6.392   4.122
 7637SOL    HW223811   2.788   6.543   4.122
 7638SOL     OW23812   4.372   4.500   1.837
 7638SOL    HW123813   4.460   4.532   1.871
 7638SOL    HW223814   4.377   4.403   1.816
 7639SOL     OW23815   0.441   1.662   4.540
 7639SOL    HW123816   0.440   1.703   4.449
 7639SOL    HW223817   0.422   1.733   4.608
 7640SOL     OW23818   2.639   2.939   6.045
 7640SOL    HW123819   2.628   2.951   5.946
 7640SOL    HW223820   2.705   3.005   6.079
 7641SOL     OW23821   5.971   3.105   3.064
 7641SOL    HW123822   5.982   3.006   3.058
 7641SOL    HW223823   5.904   3.135   2.996
 7642SOL     OW23824   1.691   1.933   2.849
 7642SOL    HW123825   1.647   1.982   2.925
 7642SOL    HW223826   1.621   1.887   2.794
 7643SOL     OW23827   5.533   3.937   3.447
 7643SOL    HW123828   5.477   3.916   3.526
 7643SOL    HW223829   5.599   4.009   3.470
 7644SOL     OW23830   6.541   3.175   3.866
 7644SOL    HW123831   6.486   3.107   3.914
 7644SOL    HW223832   6.598   3.224   3.931
 7645SOL     OW23833   3.481   2.679   0.388
 7645SOL    HW123834   3.387   2.675   0.421
 7645SOL    HW223835   3.542   2.641   0.457
 7646SOL     OW23836   0.671   0.129   1.994
 7646SOL    HW123837   0.633   0.221   1.991
 7646SOL    HW223838   0.601   0.064   2.024
 7647SOL     OW23839   1.786   5.034   6.943
 7647SOL    HW123840   1.862   4.969   6.939
 7647SOL    HW223841   1.820   5.123   6.975
 7648SOL     OW23842   3.114   1.084   3.699
 7648SOL    HW123843   3.203   1.120   3.726
 7648SOL    HW223844   3.125   1.020   3.623
 7649SOL     OW23845   2.923   1.647   0.791
 7649SOL    HW123846   2.885   1.555   0.785
 7649SOL    HW223847   2.858   1.713   0.753
 7650SOL     OW23848   6.375   5.022   0.135
 7650SOL    HW123849   6.465   5.065   0.127
 7650SOL    HW223850   6.385   4.927   0.164
 7651SOL     OW23851   5.477   2.015   6.188
 7651SOL    HW123852   5.409   2.072   6.141
 7651SOL    HW223853   5.431   1.942   6.238
 7652SOL     OW23854   1.226   3.428   3.091
 7652SOL    HW123855   1.168   3.507   3.069
 7652SOL    HW223856   1.170   3.345   3.090
 7653SOL     OW23857   4.669   2.556   2.397
 7653SOL    HW123858   4.612   2.519   2.323
 7653SOL    HW223859   4.699   2.648   2.372
 7654SOL     OW23860   5.402   3.796   4.690
 7654SOL    HW123861   5.350   3.858   4.631
 7654SOL    HW223862   5.487   3.840   4.717
 7655SOL     OW23863   4.957   5.328   5.611
 7655SOL    HW123864   4.906   5.402   5.654
 7655SOL    HW223865   4.895   5.253   5.588
 7656SOL     OW23866   0.757   0.486   5.132
 7656SOL    HW123867   0.770   0.485   5.232
 7656SOL    HW223868   0.756   0.392   5.098
 7657SOL     OW23869   4.154   1.905   3.578
 7657SOL    HW123870   4.139   1.887   3.480
 7657SOL    HW223871   4.094   1.846   3.632
 7658SOL     OW23872   4.261   0.575   5.921
 7658SOL    HW123873   4.293   0.617   6.006
 7658SOL    HW223874   4.338   0.531   5.875
 7659SOL     OW23875   5.126   6.150   6.277
 7659SOL    HW123876   5.151   6.204   6.357
 7659SOL    HW223877   5.194   6.079   6.261
 7660SOL     OW23878   5.543   5.439   3.709
 7660SOL    HW123879   5.515   5.385   3.629
 7660SOL    HW223880   5.632   5.480   3.691
 7661SOL     OW23881   6.282   3.643   4.359
 7661SOL    HW123882   6.202   3.610   4.308
 7661SOL    HW223883   6.315   3.727   4.317
 7662SOL     OW23884   6.567   5.488   3.520
 7662SOL    HW123885   6.564   5.403   3.468
 7662SOL    HW223886   6.514   5.559   3.472
 7663SOL     OW23887   0.330   6.190   0.690
 7663SOL    HW123888   0.391   6.238   0.752
 7663SOL    HW223889   0.262   6.139   0.743
 7664SOL     OW23890   3.663   5.696   5.083
 7664SOL    HW123891   3.665   5.744   4.996
 7664SOL    HW223892   3.677   5.598   5.067
 7665SOL     OW23893   2.312   5.743   3.839
 7665SOL    HW123894   2.254   5.824   3.846
 7665SOL    HW223895   2.391   5.763   3.782
 7666SOL     OW23896   1.900   0.530   2.340
 7666SOL    HW123897   1.928   0.525   2.436
 7666SOL    HW223898   1.975   0.498   2.282
 7667SOL     OW23899   5.807   6.675   5.220
 7667SOL    HW123900   5.874   6.602   5.201
 7667SOL    HW223901   5.796   6.731   5.138
 7668SOL     OW23902   2.867   3.853   1.712
 7668SOL    HW123903   2.905   3.934   1.669
 7668SOL    HW223904   2.796   3.814   1.654
 7669SOL     OW23905   4.604   6.526   5.038
 7669SOL    HW123906   4.673   6.508   4.968
 7669SOL    HW223907   4.527   6.575   4.997
 7670SOL     OW23908   1.566   5.707   0.617
 7670SOL    HW123909   1.622   5.634   0.577
 7670SOL    HW223910   1.490   5.667   0.667
 7671SOL     OW23911   5.242   1.888   4.343
 7671SOL    HW123912   5.229   1.977   4.300
 7671SOL    HW223913   5.158   1.863   4.393
 7672SOL     OW23914   6.517   0.431   2.116
 7672SOL    HW123915   6.483   0.516   2.075
 7672SOL    HW223916   6.617   0.434   2.118
 7673SOL     OW23917   0.829   3.566   0.348
 7673SOL    HW123918   0.893   3.580   0.423
 7673SOL    HW223919   0.874   3.589   0.261
 7674SOL     OW23920   5.854   0.824   5.255
 7674SOL    HW123921   5.893   0.858   5.169
 7674SOL    HW223922   5.790   0.892   5.292
 7675SOL     OW23923   4.647   0.419   3.326
 7675SOL    HW123924   4.633   0.399   3.229
 7675SOL    HW223925   4.665   0.334   3.375
 7676SOL     OW23926   1.408   0.273   1.074
 7676SOL    HW123927   1.483   0.219   1.111
 7676SOL    HW223928   1.324   0.218   1.073
 7677SOL     OW23929   1.585   3.085   2.842
 7677SOL    HW123930   1.619   3.090   2.748
 7677SOL    HW223931   1.548   3.174   2.868
 7678SOL     OW23932   5.308   6.538   6.044
 7678SOL    HW123933   5.340   6.445   6.027
 7678SOL    HW223934   5.208   6.538   6.056
 7679SOL     OW23935   1.460   5.161   4.197
 7679SOL    HW123936   1.541   5.110   4.168
 7679SOL    HW223937   1.489   5.247   4.239
 7680SOL     OW23938   4.999   0.506   0.133
 7680SOL    HW123939   5.057   0.519   0.053
 7680SOL    HW223940   5.007   0.585   0.194
 7681SOL     OW23941   3.461   2.220   6.692
 7681SOL    HW123942   3.433   2.316   6.684
 7681SOL    HW223943   3.395   2.162   6.645
 7682SOL     OW23944   2.968   0.231   0.653
 7682SOL    HW123945   2.953   0.150   0.596
 7682SOL    HW223946   3.058   0.271   0.631
 7683SOL     OW23947   6.838   3.063   3.433
 7683SOL    HW123948   6.788   3.066   3.520
 7683SOL    HW223949   6.928   3.024   3.447
 7684SOL     OW23950   4.038   2.025   5.513
 7684SOL    HW123951   4.092   2.086   5.456
 7684SOL    HW223952   3.946   2.017   5.477
 7685SOL     OW23953   3.975   3.801   1.195
 7685SOL    HW123954   3.895   3.792   1.255
 7685SOL    HW223955   4.044   3.858   1.240
 7686SOL     OW23956   2.887   1.014   2.981
 7686SOL    HW123957   2.808   1.030   2.922
 7686SOL    HW223958   2.931   1.101   3.003
 7687SOL     OW23959   4.541   3.841   5.677
 7687SOL    HW123960   4.494   3.928   5.689
 7687SOL    HW223961   4.544   3.818   5.580
 7688SOL     OW23962   6.685   0.776   3.227
 7688SOL    HW123963   6.720   0.746   3.315
 7688SOL    HW223964   6.686   0.876   3.222
 7689SOL     OW23965   3.662   6.316   4.681
 7689SOL    HW123966   3.704   6.404   4.658
 7689SOL    HW223967   3.570   6.312   4.642
 7690SOL     OW23968   0.800   5.276   2.759
 7690SOL    HW123969   0.848   5.359   2.789
 7690SOL    HW223970   0.730   5.301   2.692
 7691SOL     OW23971   6.223   4.026   5.986
 7691SOL    HW123972   6.189   3.933   5.994
 7691SOL    HW223973   6.147   4.089   5.975
 7692SOL     OW23974   1.806   6.643   1.153
 7692SOL    HW123975   1.842   6.696   1.229
 7692SOL    HW223976   1.708   6.663   1.142
 7693SOL     OW23977   5.251   1.701   0.570
 7693SOL    HW123978   5.241   1.602   0.580
 7693SOL    HW223979   5.316   1.735   0.637
 7694SOL     OW23980   5.483   5.244   3.504
 7694SOL    HW123981   5.580   5.228   3.482
 7694SOL    HW223982   5.455   5.184   3.578
 7695SOL     OW23983   4.955   0.270   6.718
 7695SOL    HW123984   5.025   0.237   6.781
 7695SOL    HW223985   4.997   0.328   6.648
 7696SOL     OW23986   1.116   4.047   5.599
 7696SOL    HW123987   1.190   4.108   5.571
 7696SOL    HW223988   1.037   4.101   5.627
 7697SOL     OW23989   4.915   1.275   1.981
 7697SOL    HW123990   4.895   1.207   2.051
 7697SOL    HW223991   4.861   1.255   1.899
 7698SOL     OW23992   6.774   2.602   5.903
 7698SOL    HW123993   6.842   2.674   5.887
 7698SOL    HW223994   6.718   2.591   5.821
 7699SOL     OW23995   3.083   3.923   0.589
 7699SOL    HW123996   2.993   3.957   0.559
 7699SOL    HW223997   3.092   3.939   0.688
 7700SOL     OW23998   5.667   6.817   4.387
 7700SOL    HW123999   5.738   6.887   4.388
 7700SOL    HW224000   5.626   6.812   4.296
 7701SOL     OW24001   6.488   2.384   5.315
 7701SOL    HW124002   6.493   2.473   5.271
 7701SOL    HW224003   6.559   2.324   5.278
 7702SOL     OW24004   1.752   6.489   6.865
 7702SOL    HW124005   1.653   6.506   6.863
 7702SOL    HW224006   1.786   6.479   6.771
 7703SOL     OW24007   0.419   2.422   5.838
 7703SOL    HW124008   0.501   2.370   5.815
 7703SOL    HW224009   0.419   2.445   5.935
 7704SOL     OW24010   2.413   4.052   1.429
 7704SOL    HW124011   2.358   4.134   1.446
 7704SOL    HW224012   2.485   4.073   1.363
 7705SOL     OW24013   4.140   3.538   5.026
 7705SOL    HW124014   4.139   3.603   5.102
 7705SOL    HW224015   4.233   3.528   4.992
 7706SOL     OW24016   6.572   0.624   5.590
 7706SOL    HW124017   6.669   0.622   5.613
 7706SOL    HW224018   6.551   0.707   5.537
 7707SOL     OW24019   0.005   5.935   6.901
 7707SOL    HW124020   6.929   5.924   6.918
 7707SOL    HW224021   0.056   5.922   6.986
 7708SOL     OW24022   5.086   1.337   5.163
 7708SOL    HW124023   5.002   1.335   5.218
 7708SOL    HW224024   5.066   1.375   5.073
 7709SOL     OW24025   3.805   2.396   1.645
 7709SOL    HW124026   3.761   2.394   1.735
 7709SOL    HW224027   3.834   2.489   1.625
 7710SOL     OW24028   2.907   1.919   0.074
 7710SOL    HW124029   2.962   1.993   0.034
 7710SOL    HW224030   2.924   1.834   0.025
 7711SOL     OW24031   4.415   5.793   4.656
 7711SOL    HW124032   4.444   5.703   4.624
 7711SOL    HW224033   4.444   5.805   4.751
 7712SOL     OW24034   5.442   4.322   6.413
 7712SOL    HW124035   5.420   4.257   6.341
 7712SOL    HW224036   5.514   4.285   6.471
 7713SOL     OW24037   0.432   5.534   6.544
 7713SOL    HW124038   0.413   5.631   6.529
 7713SOL    HW224039   0.346   5.483   6.540
 7714SOL     OW24040   5.116   3.925   4.907
 7714SOL    HW124041   5.135   3.894   4.814
 7714SOL    HW224042   5.019   3.914   4.927
 7715SOL     OW24043   3.847   2.044   2.033
 7715SOL    HW124044   3.786   2.107   1.985
 7715SOL    HW224045   3.806   1.953   2.037
 7716SOL     OW24046   4.144   2.189   4.336
 7716SOL    HW124047   4.193   2.275   4.348
 7716SOL    HW224048   4.101   2.163   4.422
 7717SOL     OW24049   3.073   0.142   6.464
 7717SOL    HW124050   3.124   0.178   6.542
 7717SOL    HW224051   2.991   0.198   6.449
 7718SOL     OW24052   2.523   6.435   3.396
 7718SOL    HW124053   2.564   6.377   3.467
 7718SOL    HW224054   2.563   6.526   3.401
 7719SOL     OW24055   5.888   2.851   5.020
 7719SOL    HW124056   5.814   2.863   5.087
 7719SOL    HW224057   5.853   2.803   4.940
 7720SOL     OW24058   5.632   6.185   1.539
 7720SOL    HW124059   5.660   6.234   1.456
 7720SOL    HW224060   5.697   6.203   1.613
 7721SOL     OW24061   0.832   4.440   2.956
 7721SOL    HW124062   0.805   4.364   3.015
 7721SOL    HW224063   0.932   4.444   2.952
 7722SOL     OW24064   0.842   5.978   4.454
 7722SOL    HW124065   0.808   6.064   4.493
 7722SOL    HW224066   0.790   5.957   4.371
 7723SOL     OW24067   0.082   1.981   0.383
 7723SOL    HW124068   0.082   1.923   0.464
 7723SOL    HW224069   7.011   2.014   0.366
 7724SOL     OW24070   2.452   6.302   6.709
 7724SOL    HW124071   2.466   6.228   6.644
 7724SOL    HW224072   2.464   6.268   6.802
 7725SOL     OW24073   4.903   3.620   4.283
 7725SOL    HW124074   4.932   3.634   4.189
 7725SOL    HW224075   4.919   3.524   4.309
 7726SOL     OW24076   5.468   4.878   3.049
 7726SOL    HW124077   5.483   4.923   2.961
 7726SOL    HW224078   5.553   4.880   3.103
 7727SOL     OW24079   5.804   3.366   2.329
 7727SOL    HW124080   5.753   3.446   2.296
 7727SOL    HW224081   5.747   3.315   2.394
 7728SOL     OW24082   2.181   2.904   3.130
 7728SOL    HW124083   2.225   2.818   3.156
 7728SOL    HW224084   2.177   2.911   3.030
 7729SOL     OW24085   5.063   1.962   6.350
 7729SOL    HW124086   5.061   1.975   6.251
 7729SOL    HW224087   5.118   2.034   6.392
 7730SOL     OW24088   4.743   6.980   2.310
 7730SOL    HW124089   4.800   6.902   2.335
 7730SOL    HW224090   4.794   0.020   2.251
 7731SOL     OW24091   6.998   1.552   3.960
 7731SOL    HW124092   6.959   1.631   4.008
 7731SOL    HW224093   6.997   1.569   3.862
 7732SOL     OW24094   4.258   4.789   0.604
 7732SOL    HW124095   4.307   4.721   0.549
 7732SOL    HW224096   4.265   4.879   0.560
 7733SOL     OW24097   2.989   5.979   0.488
 7733SOL    HW124098   2.952   5.971   0.395
 7733SOL    HW224099   3.085   5.951   0.487
 7734SOL     OW24100   1.686   3.145   2.387
 7734SOL    HW124101   1.642   3.125   2.299
 7734SOL    HW224102   1.762   3.082   2.402
 7735SOL     OW24103   5.109   4.442   1.000
 7735SOL    HW124104   5.083   4.496   1.080
 7735SOL    HW224105   5.194   4.479   0.961
 7736SOL     OW24106   5.931   4.251   6.477
 7736SOL    HW124107   5.928   4.205   6.566
 7736SOL    HW224108   5.866   4.327   6.477
 7737SOL     OW24109   4.752   2.522   0.214
 7737SOL    HW124110   4.754   2.550   0.310
 7737SOL    HW224111   4.757   2.602   0.155
 7738SOL     OW24112   1.921   4.870   6.592
 7738SOL    HW124113   2.012   4.861   6.631
 7738SOL    HW224114   1.911   4.808   6.515
 7739SOL     OW24115   5.174   3.710   2.422
 7739SOL    HW124116   5.193   3.750   2.333
 7739SOL    HW224117   5.099   3.644   2.415
 7740SOL     OW24118   6.925   6.170   3.560
 7740SOL    HW124119   7.005   6.115   3.581
 7740SOL    HW224120   6.949   6.267   3.564
 7741SOL     OW24121   3.070   5.466   4.191
 7741SOL    HW124122   3.104   5.402   4.259
 7741SOL    HW224123   3.132   5.466   4.112
 7742SOL     OW24124   0.110   0.404   4.570
 7742SOL    HW124125   0.049   0.380   4.495
 7742SOL    HW224126   0.203   0.373   4.549
 7743SOL     OW24127   4.950   3.023   2.156
 7743SOL    HW124128   4.941   3.087   2.232
 7743SOL    HW224129   4.896   3.054   2.078
 7744SOL     OW24130   0.337   6.522   4.844
 7744SOL    HW124131   0.356   6.433   4.803
 7744SOL    HW224132   0.370   6.594   4.784
 7745SOL     OW24133   5.215   3.351   5.638
 7745SOL    HW124134   5.231   3.256   5.662
 7745SOL    HW224135   5.130   3.359   5.586
 7746SOL     OW24136   2.112   0.823   6.540
 7746SOL    HW124137   2.086   0.920   6.540
 7746SOL    HW224138   2.119   0.790   6.446
 7747SOL     OW24139   4.626   4.713   0.531
 7747SOL    HW124140   4.640   4.755   0.621
 7747SOL    HW224141   4.715   4.703   0.485
 7748SOL     OW24142   2.000   3.843   6.732
 7748SOL    HW124143   2.098   3.826   6.729
 7748SOL    HW224144   1.951   3.756   6.741
 7749SOL     OW24145   6.150   3.021   6.158
 7749SOL    HW124146   6.116   3.115   6.163
 7749SOL    HW224147   6.111   2.976   6.078
 7750SOL     OW24148   4.494   5.219   2.449
 7750SOL    HW124149   4.545   5.133   2.445
 7750SOL    HW224150   4.499   5.256   2.542
 7751SOL     OW24151   0.505   2.608   0.949
 7751SOL    HW124152   0.516   2.646   1.041
 7751SOL    HW224153   0.420   2.556   0.945
 7752SOL     OW24154   3.916   1.390   3.009
 7752SOL    HW124155   3.904   1.306   3.063
 7752SOL    HW224156   3.863   1.383   2.924
 7753SOL     OW24157   3.860   0.723   5.207
 7753SOL    HW124158   3.762   0.742   5.200
 7753SOL    HW224159   3.882   0.640   5.156
 7754SOL     OW24160   4.843   5.552   1.583
 7754SOL    HW124161   4.788   5.617   1.531
 7754SOL    HW224162   4.939   5.581   1.580
 7755SOL     OW24163   0.116   4.937   5.550
 7755SOL    HW124164   0.067   4.862   5.506
 7755SOL    HW224165   0.058   4.980   5.619
 7756SOL     OW24166   2.215   4.132   2.173
 7756SOL    HW124167   2.118   4.110   2.178
 7756SOL    HW224168   2.236   4.203   2.241
 7757SOL     OW24169   0.323   4.389   0.271
 7757SOL    HW124170   0.322   4.341   0.359
 7757SOL    HW224171   0.381   4.339   0.207
 7758SOL     OW24172   0.545   1.283   5.667
 7758SOL    HW124173   0.511   1.236   5.586
 7758SOL    HW224174   0.614   1.226   5.712
 7759SOL     OW24175   3.862   1.174   2.116
 7759SOL    HW124176   3.876   1.215   2.207
 7759SOL    HW224177   3.906   1.232   2.047
 7760SOL     OW24178   4.610   2.822   0.282
 7760SOL    HW124179   4.513   2.806   0.262
 7760SOL    HW224180   4.650   2.880   0.211
 7761SOL     OW24181   5.489   5.385   3.138
 7761SOL    HW124182   5.425   5.323   3.183
 7761SOL    HW224183   5.522   5.452   3.204
 7762SOL     OW24184   4.767   1.958   1.353
 7762SOL    HW124185   4.700   1.889   1.380
 7762SOL    HW224186   4.834   1.970   1.427
 7763SOL     OW24187   1.624   0.433   3.084
 7763SOL    HW124188   1.671   0.361   3.135
 7763SOL    HW224189   1.610   0.512   3.144
 7764SOL     OW24190   3.745   5.030   5.495
 7764SOL    HW124191   3.775   5.118   5.458
 7764SOL    HW224192   3.669   5.045   5.559
 7765SOL     OW24193   5.786   4.013   4.591
 7765SOL    HW124194   5.807   3.968   4.505
 7765SOL    HW224195   5.869   4.052   4.630
 7766SOL     OW24196   6.508   2.168   6.745
 7766SOL    HW124197   6.557   2.097   6.693
 7766SOL    HW224198   6.470   2.235   6.682
 7767SOL     OW24199   4.378   0.183   4.197
 7767SOL    HW124200   4.438   0.116   4.239
 7767SOL    HW224201   4.312   0.137   4.138
 7768SOL     OW24202   3.120   5.778   4.112
 7768SOL    HW124203   3.088   5.719   4.186
 7768SOL    HW224204   3.204   5.824   4.139
 7769SOL     OW24205   3.593   2.729   6.796
 7769SOL    HW124206   3.496   2.729   6.820
 7769SOL    HW224207   3.636   2.812   6.830
 7770SOL     OW24208   0.756   3.690   3.821
 7770SOL    HW124209   0.719   3.742   3.897
 7770SOL    HW224210   0.681   3.647   3.770
 7771SOL     OW24211   1.097   4.067   5.045
 7771SOL    HW124212   1.160   3.989   5.043
 7771SOL    HW224213   1.097   4.107   5.137
 7772SOL     OW24214   5.522   5.611   1.713
 7772SOL    HW124215   5.494   5.666   1.791
 7772SOL    HW224216   5.466   5.634   1.633
 7773SOL     OW24217   2.621   6.844   6.950
 7773SOL    HW124218   2.566   6.888   7.022
 7773SOL    HW224219   2.567   6.836   6.867
 7774SOL     OW24220   5.062   1.322   3.005
 7774SOL    HW124221   5.137   1.309   3.070
 7774SOL    HW224222   5.011   1.404   3.030
 7775SOL     OW24223   3.434   1.606   0.623
 7775SOL    HW124224   3.446   1.556   0.709
 7775SOL    HW224225   3.337   1.615   0.603
 7776SOL     OW24226   3.369   1.183   3.681
 7776SOL    HW124227   3.428   1.218   3.754
 7776SOL    HW224228   3.394   1.226   3.594
 7777SOL     OW24229   5.264   5.185   2.995
 7777SOL    HW124230   5.176   5.144   2.972
 7777SOL    HW224231   5.278   5.182   3.094
 7778SOL     OW24232   1.611   3.782   2.358
 7778SOL    HW124233   1.649   3.782   2.450
 7778SOL    HW224234   1.681   3.812   2.293
 7779SOL     OW24235   3.527   0.597   2.685
 7779SOL    HW124236   3.489   0.584   2.776
 7779SOL    HW224237   3.455   0.592   2.616
 7780SOL     OW24238   6.078   5.623   3.971
 7780SOL    HW124239   6.167   5.640   3.929
 7780SOL    HW224240   6.081   5.536   4.020
 7781SOL     OW24241   2.495   2.569   0.710
 7781SOL    HW124242   2.408   2.562   0.661
 7781SOL    HW224243   2.570   2.546   0.648
 7782SOL     OW24244   5.787   3.990   4.012
 7782SOL    HW124245   5.786   3.971   3.914
 7782SOL    HW224246   5.832   3.915   4.060
 7783SOL     OW24247   0.904   6.083   3.721
 7783SOL    HW124248   0.915   6.176   3.687
 7783SOL    HW224249   0.989   6.053   3.765
 7784SOL     OW24250   1.476   2.613   2.970
 7784SOL    HW124251   1.468   2.683   2.899
 7784SOL    HW224252   1.502   2.656   3.057
 7785SOL     OW24253   6.643   6.358   2.660
 7785SOL    HW124254   6.662   6.353   2.562
 7785SOL    HW224255   6.595   6.443   2.681
 7786SOL     OW24256   4.874   1.256   6.547
 7786SOL    HW124257   4.821   1.244   6.463
 7786SOL    HW224258   4.909   1.349   6.551
 7787SOL     OW24259   1.020   2.619   1.066
 7787SOL    HW124260   1.074   2.700   1.047
 7787SOL    HW224261   1.035   2.551   0.995
 7788SOL     OW24262   0.743   3.931   2.294
 7788SOL    HW124263   0.676   3.869   2.254
 7788SOL    HW224264   0.783   3.988   2.222
 7789SOL     OW24265   3.172   0.264   5.953
 7789SOL    HW124266   3.260   0.279   5.907
 7789SOL    HW224267   3.182   0.283   6.050
 7790SOL     OW24268   4.073   5.152   4.348
 7790SOL    HW124269   4.153   5.201   4.382
 7790SOL    HW224270   4.045   5.083   4.414
 7791SOL     OW24271   2.602   6.371   1.731
 7791SOL    HW124272   2.691   6.333   1.758
 7791SOL    HW224273   2.605   6.471   1.739
 7792SOL     OW24274   1.362   0.684   2.292
 7792SOL    HW124275   1.398   0.693   2.199
 7792SOL    HW224276   1.302   0.604   2.296
 7793SOL     OW24277   4.778   1.971   0.458
 7793SOL    HW124278   4.745   1.896   0.400
 7793SOL    HW224279   4.864   1.944   0.501
 7794SOL     OW24280   1.526   1.035   2.584
 7794SOL    HW124281   1.440   1.082   2.606
 7794SOL    HW224282   1.593   1.051   2.656
 7795SOL     OW24283   4.067   3.514   1.286
 7795SOL    HW124284   4.142   3.512   1.353
 7795SOL    HW224285   3.987   3.558   1.328
 7796SOL     OW24286   4.392   1.131   0.671
 7796SOL    HW124287   4.294   1.113   0.667
 7796SOL    HW224288   4.423   1.170   0.584
 7797SOL     OW24289   1.499   6.358   2.907
 7797SOL    HW124290   1.414   6.323   2.867
 7797SOL    HW224291   1.569   6.366   2.837
 7798SOL     OW24292   1.400   3.094   1.166
 7798SOL    HW124293   1.356   3.042   1.239
 7798SOL    HW224294   1.497   3.070   1.162
 7799SOL     OW24295   2.171   6.587   3.801
 7799SOL    HW124296   2.104   6.583   3.875
 7799SOL    HW224297   2.246   6.523   3.819
 7800SOL     OW24298   1.212   0.890   2.375
 7800SOL    HW124299   1.243   0.806   2.329
 7800SOL    HW224300   1.196   0.870   2.472
 7801SOL     OW24301   1.731   2.468   0.871
 7801SOL    HW124302   1.692   2.559   0.854
 7801SOL    HW224303   1.723   2.447   0.969
 7802SOL     OW24304   5.935   5.276   4.182
 7802SOL    HW124305   5.856   5.233   4.226
 7802SOL    HW224306   5.983   5.207   4.127
 7803SOL     OW24307   3.165   1.949   6.076
 7803SOL    HW124308   3.158   1.945   6.176
 7803SOL    HW224309   3.077   1.977   6.038
 7804SOL     OW24310   2.866   1.301   5.254
 7804SOL    HW124311   2.901   1.368   5.189
 7804SOL    HW224312   2.766   1.302   5.253
 7805SOL     OW24313   5.676   2.666   6.927
 7805SOL    HW124314   5.700   2.577   6.887
 7805SOL    HW224315   5.605   2.654   6.996
 7806SOL     OW24316   6.101   2.103   5.252
 7806SOL    HW124317   6.115   2.018   5.200
 7806SOL    HW224318   6.007   2.135   5.239
 7807SOL     OW24319   1.998   5.170   5.716
 7807SOL    HW124320   2.019   5.263   5.683
 7807SOL    HW224321   1.997   5.170   5.816
 7808SOL     OW24322   0.485   3.189   4.565
 7808SOL    HW124323   0.529   3.100   4.564
 7808SOL    HW224324   0.396   3.183   4.521
 7809SOL     OW24325   4.230   6.771   2.713
 7809SOL    HW124326   4.274   6.845   2.664
 7809SOL    HW224327   4.227   6.689   2.656
 7810SOL     OW24328   2.051   6.646   5.881
 7810SOL    HW124329   1.991   6.623   5.804
 7810SOL    HW224330   2.048   6.573   5.949
 7811SOL     OW24331   1.444   5.878   3.261
 7811SOL    HW124332   1.537   5.886   3.298
 7811SOL    HW224333   1.394   5.962   3.279
 7812SOL     OW24334   3.066   0.864   5.829
 7812SOL    HW124335   3.063   0.842   5.732
 7812SOL    HW224336   3.003   0.940   5.848
 7813SOL     OW24337   5.504   1.409   0.654
 7813SOL    HW124338   5.546   1.400   0.744
 7813SOL    HW224339   5.568   1.455   0.592
 7814SOL     OW24340   6.637   2.807   1.806
 7814SOL    HW124341   6.680   2.717   1.797
 7814SOL    HW224342   6.629   2.831   1.903
 7815SOL     OW24343   4.699   5.452   3.392
 7815SOL    HW124344   4.689   5.503   3.307
 7815SOL    HW224345   4.704   5.354   3.372
 7816SOL     OW24346   1.051   1.336   5.377
 7816SOL    HW124347   1.108   1.408   5.337
 7816SOL    HW224348   1.022   1.364   5.468
 7817SOL     OW24349   4.006   1.236   6.282
 7817SOL    HW124350   4.005   1.185   6.197
 7817SOL    HW224351   4.100   1.250   6.312
 7818SOL     OW24352   5.678   1.398   2.877
 7818SOL    HW124353   5.701   1.334   2.950
 7818SOL    HW224354   5.633   1.349   2.802
 7819SOL     OW24355   2.397   2.620   4.429
 7819SOL    HW124356   2.364   2.714   4.416
 7819SOL    HW224357   2.328   2.556   4.397
 7820SOL     OW24358   1.532   1.310   6.123
 7820SOL    HW124359   1.599   1.316   6.197
 7820SOL    HW224360   1.500   1.402   6.101
 7821SOL     OW24361   3.853   5.649   6.952
 7821SOL    HW124362   3.930   5.618   6.896
 7821SOL    HW224363   3.816   5.572   7.003
 7822SOL     OW24364   0.791   1.690   4.606
 7822SOL    HW124365   0.714   1.722   4.551
 7822SOL    HW224366   0.867   1.665   4.546
 7823SOL     OW24367   2.859   2.929   5.819
 7823SOL    HW124368   2.858   3.020   5.778
 7823SOL    HW224369   2.772   2.883   5.801
 7824SOL     OW24370   5.581   4.280   2.493
 7824SOL    HW124371   5.676   4.307   2.480
 7824SOL    HW224372   5.576   4.185   2.523
 7825SOL     OW24373   3.413   2.923   2.961
 7825SOL    HW124374   3.480   2.876   2.904
 7825SOL    HW224375   3.456   2.949   3.048
 7826SOL     OW24376   6.403   6.932   1.145
 7826SOL    HW124377   6.460   6.870   1.199
 7826SOL    HW224378   6.395   6.898   1.052
 7827SOL     OW24379   4.855   3.779   0.479
 7827SOL    HW124380   4.783   3.776   0.410
 7827SOL    HW224381   4.916   3.857   0.461
 7828SOL     OW24382   1.112   6.636   0.647
 7828SOL    HW124383   1.033   6.594   0.692
 7828SOL    HW224384   1.171   6.565   0.609
 7829SOL     OW24385   3.591   3.868   2.549
 7829SOL    HW124386   3.621   3.952   2.593
 7829SOL    HW224387   3.611   3.873   2.451
 7830SOL     OW24388   6.766   4.210   0.453
 7830SOL    HW124389   6.839   4.177   0.514
 7830SOL    HW224390   6.727   4.133   0.403
 7831SOL     OW24391   2.537   2.217   0.275
 7831SOL    HW124392   2.510   2.153   0.202
 7831SOL    HW224393   2.458   2.273   0.300
 7832SOL     OW24394   3.711   2.638   6.054
 7832SOL    HW124395   3.774   2.700   6.008
 7832SOL    HW224396   3.696   2.557   5.997
 7833SOL     OW24397   6.589   6.795   1.818
 7833SOL    HW124398   6.606   6.767   1.723
 7833SOL    HW224399   6.528   6.874   1.819
 7834SOL     OW24400   5.563   1.304   1.332
 7834SOL    HW124401   5.557   1.377   1.400
 7834SOL    HW224402   5.576   1.217   1.378
 7835SOL     OW24403   2.370   2.014   4.342
 7835SOL    HW124404   2.413   2.047   4.425
 7835SOL    HW224405   2.413   2.057   4.262
 7836SOL     OW24406   2.270   0.823   6.785
 7836SOL    HW124407   2.255   0.726   6.806
 7836SOL    HW224408   2.236   0.843   6.693
 7837SOL     OW24409   6.059   6.071   2.281
 7837SOL    HW124410   6.087   6.118   2.198
 7837SOL    HW224411   5.960   6.073   2.289
 7838SOL     OW24412   3.557   5.514   3.863
 7838SOL    HW124413   3.632   5.491   3.801
 7838SOL    HW224414   3.589   5.578   3.933
 7839SOL     OW24415   6.684   5.141   3.646
 7839SOL    HW124416   6.668   5.056   3.596
 7839SOL    HW224417   6.781   5.164   3.642
 7840SOL     OW24418   4.439   3.122   6.291
 7840SOL    HW124419   4.466   3.026   6.298
 7840SOL    HW224420   4.487   3.165   6.214
 7841SOL     OW24421   1.126   2.252   5.679
 7841SOL    HW124422   1.083   2.339   5.654
 7841SOL    HW224423   1.224   2.256   5.657
 7842SOL     OW24424   2.359   0.874   2.886
 7842SOL    HW124425   2.353   0.816   2.805
 7842SOL    HW224426   2.333   0.968   2.862
 7843SOL     OW24427   0.095   2.276   1.955
 7843SOL    HW124428   0.123   2.367   1.924
 7843SOL    HW224429   0.175   2.217   1.961
 7844SOL     OW24430   3.895   2.193   3.538
 7844SOL    HW124431   3.880   2.287   3.569
 7844SOL    HW224432   3.920   2.136   3.616
 7845SOL     OW24433   0.283   0.610   4.463
 7845SOL    HW124434   0.331   0.592   4.549
 7845SOL    HW224435   0.247   0.525   4.427
 7846SOL     OW24436   4.779   0.644   2.250
 7846SOL    HW124437   4.696   0.608   2.207
 7846SOL    HW224438   4.857   0.588   2.223
 7847SOL     OW24439   0.227   6.981   6.831
 7847SOL    HW124440   0.155   0.027   6.823
 7847SOL    HW224441   0.310   0.002   6.866
 7848SOL     OW24442   3.928   3.757   1.591
 7848SOL    HW124443   3.997   3.825   1.612
 7848SOL    HW224444   3.908   3.702   1.672
 7849SOL     OW24445   5.077   4.167   5.029
 7849SOL    HW124446   5.063   4.161   5.128
 7849SOL    HW224447   5.101   4.076   4.994
 7850SOL     OW24448   1.042   2.799   4.915
 7850SOL    HW124449   0.953   2.836   4.890
 7850SOL    HW224450   1.031   2.710   4.959
 7851SOL     OW24451   3.559   6.630   0.675
 7851SOL    HW124452   3.644   6.683   0.679
 7851SOL    HW224453   3.529   6.609   0.768
 7852SOL     OW24454   2.968   6.952   0.540
 7852SOL    HW124455   3.013   6.886   0.601
 7852SOL    HW224456   2.895   6.905   0.489
 7853SOL     OW24457   1.906   2.018   0.407
 7853SOL    HW124458   1.988   2.008   0.350
 7853SOL    HW224459   1.828   2.042   0.350
 7854SOL     OW24460   4.125   3.418   4.378
 7854SOL    HW124461   4.126   3.332   4.328
 7854SOL    HW224462   4.210   3.429   4.429
 7855SOL     OW24463   2.851   0.274   4.766
 7855SOL    HW124464   2.821   0.336   4.839
 7855SOL    HW224465   2.884   0.189   4.806
 7856SOL     OW24466   3.167   2.989   6.985
 7856SOL    HW124467   3.229   2.935   6.928
 7856SOL    HW224468   3.217   3.027   0.040
 7857SOL     OW24469   0.584   3.208   5.118
 7857SOL    HW124470   0.668   3.211   5.063
 7857SOL    HW224471   0.586   3.128   5.177
 7858SOL     OW24472   5.099   3.088   3.052
 7858SOL    HW124473   5.007   3.124   3.064
 7858SOL    HW224474   5.099   3.020   2.979
 7859SOL     OW24475   0.310   6.708   0.663
 7859SOL    HW124476   0.377   6.778   0.639
 7859SOL    HW224477   0.232   6.714   0.600
 7860SOL     OW24478   4.941   6.486   1.355
 7860SOL    HW124479   5.019   6.521   1.408
 7860SOL    HW224480   4.915   6.553   1.285
 7861SOL     OW24481   5.948   3.588   0.085
 7861SOL    HW124482   5.949   3.506   0.141
 7861SOL    HW224483   5.858   3.632   0.092
 7862SOL     OW24484   2.945   4.704   1.714
 7862SOL    HW124485   2.932   4.611   1.751
 7862SOL    HW224486   3.042   4.720   1.698
 7863SOL     OW24487   4.321   6.084   2.418
 7863SOL    HW124488   4.393   6.020   2.390
 7863SOL    HW224489   4.301   6.070   2.515
 7864SOL     OW24490   1.256   5.483   5.179
 7864SOL    HW124491   1.190   5.415   5.211
 7864SOL    HW224492   1.309   5.516   5.256
 7865SOL     OW24493   4.338   0.741   3.087
 7865SOL    HW124494   4.252   0.788   3.068
 7865SOL    HW224495   4.408   0.808   3.112
 7866SOL     OW24496   2.794   1.737   5.853
 7866SOL    HW124497   2.869   1.802   5.855
 7866SOL    HW224498   2.831   1.644   5.845
 7867SOL     OW24499   6.161   3.398   1.241
 7867SOL    HW124500   6.179   3.397   1.143
 7867SOL    HW224501   6.075   3.349   1.259
 7868SOL     OW24502   4.356   6.830   0.859
 7868SOL    HW124503   4.293   6.799   0.930
 7868SOL    HW224504   4.357   6.930   0.856
 7869SOL     OW24505   6.223   1.592   4.133
 7869SOL    HW124506   6.161   1.514   4.125
 7869SOL    HW224507   6.292   1.587   4.061
 7870SOL     OW24508   6.971   0.396   3.256
 7870SOL    HW124509   6.986   0.493   3.235
 7870SOL    HW224510   6.907   0.388   3.332
 7871SOL     OW24511   5.316   3.140   4.290
 7871SOL    HW124512   5.414   3.130   4.306
 7871SOL    HW224513   5.299   3.156   4.193
 7872SOL     OW24514   6.773   4.339   4.195
 7872SOL    HW124515   6.676   4.321   4.183
 7872SOL    HW224516   6.790   4.437   4.190
 7873SOL     OW24517   6.995   5.457   4.414
 7873SOL    HW124518   0.029   5.496   4.340
 7873SOL    HW224519   6.898   5.471   4.394
 7874SOL     OW24520   6.083   0.131   0.181
 7874SOL    HW124521   6.144   0.195   0.228
 7874SOL    HW224522   5.998   0.122   0.233
 7875SOL     OW24523   4.981   3.502   0.438
 7875SOL    HW124524   5.064   3.450   0.419
 7875SOL    HW224525   5.004   3.595   0.466
 7876SOL     OW24526   0.630   1.714   5.014
 7876SOL    HW124527   0.728   1.722   4.992
 7876SOL    HW224528   0.592   1.633   4.970
 7877SOL     OW24529   5.941   3.674   2.460
 7877SOL    HW124530   5.996   3.750   2.495
 7877SOL    HW224531   5.990   3.627   2.387
 7878SOL     OW24532   3.699   3.843   1.364
 7878SOL    HW124533   3.736   3.813   1.453
 7878SOL    HW224534   3.599   3.840   1.367
 7879SOL     OW24535   0.130   1.082   5.014
 7879SOL    HW124536   0.178   1.025   4.948
 7879SOL    HW224537   0.193   1.150   5.051
 7880SOL     OW24538   1.797   6.099   6.543
 7880SOL    HW124539   1.775   6.050   6.459
 7880SOL    HW224540   1.811   6.033   6.618
 7881SOL     OW24541   1.187   5.335   4.716
 7881SOL    HW124542   1.156   5.429   4.730
 7881SOL    HW224543   1.120   5.271   4.754
 7882SOL     OW24544   1.689   4.877   1.534
 7882SOL    HW124545   1.597   4.914   1.548
 7882SOL    HW224546   1.727   4.849   1.622
 7883SOL     OW24547   3.374   2.101   2.364
 7883SOL    HW124548   3.280   2.077   2.341
 7883SOL    HW224549   3.430   2.097   2.281
 7884SOL     OW24550   1.235   2.598   5.132
 7884SOL    HW124551   1.243   2.677   5.193
 7884SOL    HW224552   1.293   2.612   5.052
 7885SOL     OW24553   6.269   5.704   2.494
 7885SOL    HW124554   6.181   5.696   2.448
 7885SOL    HW224555   6.257   5.754   2.580
 7886SOL     OW24556   3.972   4.799   2.660
 7886SOL    HW124557   3.932   4.783   2.570
 7886SOL    HW224558   4.064   4.836   2.650
 7887SOL     OW24559   0.684   3.247   0.656
 7887SOL    HW124560   0.590   3.253   0.623
 7887SOL    HW224561   0.685   3.228   0.754
 7888SOL     OW24562   6.570   1.662   5.097
 7888SOL    HW124563   6.526   1.578   5.128
 7888SOL    HW224564   6.652   1.639   5.044
 7889SOL     OW24565   5.203   5.249   0.237
 7889SOL    HW124566   5.123   5.276   0.182
 7889SOL    HW224567   5.176   5.242   0.333
 7890SOL     OW24568   2.203   2.872   2.491
 7890SOL    HW124569   2.114   2.904   2.521
 7890SOL    HW224570   2.248   2.824   2.567
 7891SOL     OW24571   6.428   1.500   4.360
 7891SOL    HW124572   6.396   1.563   4.432
 7891SOL    HW224573   6.350   1.449   4.324
 7892SOL     OW24574   1.307   2.136   4.447
 7892SOL    HW124575   1.374   2.202   4.414
 7892SOL    HW224576   1.215   2.173   4.434
 7893SOL     OW24577   5.931   6.025   1.294
 7893SOL    HW124578   5.987   6.108   1.290
 7893SOL    HW224579   5.950   5.977   1.379
 7894SOL     OW24580   3.357   0.718   6.458
 7894SOL    HW124581   3.281   0.775   6.486
 7894SOL    HW224582   3.339   0.623   6.484
 7895SOL     OW24583   5.740   6.568   3.296
 7895SOL    HW124584   5.789   6.486   3.327
 7895SOL    HW224585   5.641   6.551   3.301
 7896SOL     OW24586   2.357   1.939   0.626
 7896SOL    HW124587   2.436   1.962   0.570
 7896SOL    HW224588   2.295   1.880   0.575
 7897SOL     OW24589   4.529   1.264   1.279
 7897SOL    HW124590   4.471   1.183   1.291
 7897SOL    HW224591   4.477   1.334   1.230
 7898SOL     OW24592   4.782   6.190   2.726
 7898SOL    HW124593   4.827   6.101   2.716
 7898SOL    HW224594   4.851   6.261   2.741
 7899SOL     OW24595   5.982   4.479   2.706
 7899SOL    HW124596   5.924   4.414   2.757
 7899SOL    HW224597   5.953   4.572   2.726
 7900SOL     OW24598   0.426   3.362   0.567
 7900SOL    HW124599   0.332   3.379   0.538
 7900SOL    HW224600   0.488   3.414   0.509
 7901SOL     OW24601   0.549   2.483   0.080
 7901SOL    HW124602   0.495   2.399   0.078
 7901SOL    HW224603   0.638   2.466   0.038
 7902SOL     OW24604   1.446   0.487   0.915
 7902SOL    HW124605   1.458   0.468   0.818
 7902SOL    HW224606   1.431   0.400   0.964
 7903SOL     OW24607   3.065   1.634   5.242
 7903SOL    HW124608   3.063   1.548   5.293
 7903SOL    HW224609   3.157   1.649   5.206
 7904SOL     OW24610   5.363   2.983   2.644
 7904SOL    HW124611   5.372   2.894   2.687
 7904SOL    HW224612   5.272   2.992   2.604
 7905SOL     OW24613   6.249   1.650   2.049
 7905SOL    HW124614   6.324   1.689   1.996
 7905SOL    HW224615   6.184   1.606   1.986
 7906SOL     OW24616   0.470   5.783   6.427
 7906SOL    HW124617   0.458   5.762   6.330
 7906SOL    HW224618   0.568   5.797   6.446
 7907SOL     OW24619   5.704   6.310   3.593
 7907SOL    HW124620   5.782   6.322   3.655
 7907SOL    HW224621   5.716   6.367   3.512
 7908SOL     OW24622   1.963   0.389   6.046
 7908SOL    HW124623   1.890   0.346   5.994
 7908SOL    HW224624   2.049   0.341   6.029
 7909SOL     OW24625   6.810   3.415   1.498
 7909SOL    HW124626   6.906   3.390   1.494
 7909SOL    HW224627   6.753   3.333   1.492
 7910SOL     OW24628   1.711   4.518   5.259
 7910SOL    HW124629   1.791   4.485   5.310
 7910SOL    HW224630   1.631   4.464   5.284
 7911SOL     OW24631   6.114   4.317   5.872
 7911SOL    HW124632   6.051   4.241   5.890
 7911SOL    HW224633   6.149   4.352   5.959
 7912SOL     OW24634   5.660   5.941   0.972
 7912SOL    HW124635   5.674   5.902   1.062
 7912SOL    HW224636   5.610   6.027   0.980
 7913SOL     OW24637   1.374   4.917   6.262
 7913SOL    HW124638   1.422   4.981   6.202
 7913SOL    HW224639   1.440   4.867   6.317
 7914SOL     OW24640   0.829   0.237   5.092
 7914SOL    HW124641   0.919   0.240   5.136
 7914SOL    HW224642   0.839   0.199   5.000
 7915SOL     OW24643   2.838   5.081   2.127
 7915SOL    HW124644   2.925   5.116   2.161
 7915SOL    HW224645   2.765   5.106   2.191
 7916SOL     OW24646   1.104   0.393   3.821
 7916SOL    HW124647   1.188   0.436   3.853
 7916SOL    HW224648   1.116   0.293   3.818
 7917SOL     OW24649   4.886   2.074   2.912
 7917SOL    HW124650   4.982   2.088   2.889
 7917SOL    HW224651   4.829   2.095   2.832
 7918SOL     OW24652   1.620   2.755   2.610
 7918SOL    HW124653   1.654   2.785   2.699
 7918SOL    HW224654   1.657   2.665   2.588
 7919SOL     OW24655   0.888   6.675   5.193
 7919SOL    HW124656   0.957   6.618   5.147
 7919SOL    HW224657   0.934   6.750   5.242
 7920SOL     OW24658   5.227   6.848   0.785
 7920SOL    HW124659   5.142   6.896   0.808
 7920SOL    HW224660   5.283   6.906   0.726
 7921SOL     OW24661   5.300   3.277   0.579
 7921SOL    HW124662   5.316   3.363   0.627
 7921SOL    HW224663   5.221   3.230   0.619
 7922SOL     OW24664   2.020   0.047   2.828
 7922SOL    HW124665   2.089   6.998   2.835
 7922SOL    HW224666   2.064   0.135   2.810
 7923SOL     OW24667   4.770   0.594   0.846
 7923SOL    HW124668   4.753   0.670   0.909
 7923SOL    HW224669   4.820   0.521   0.894
 7924SOL     OW24670   5.793   5.908   0.540
 7924SOL    HW124671   5.777   5.979   0.472
 7924SOL    HW224672   5.841   5.948   0.618
 7925SOL     OW24673   1.358   4.395   6.016
 7925SOL    HW124674   1.332   4.452   6.094
 7925SOL    HW224675   1.452   4.417   5.989
 7926SOL     OW24676   4.884   5.866   5.437
 7926SOL    HW124677   4.787   5.884   5.457
 7926SOL    HW224678   4.933   5.851   5.523
 7927SOL     OW24679   4.337   0.457   3.381
 7927SOL    HW124680   4.322   0.366   3.419
 7927SOL    HW224681   4.421   0.496   3.417
 7928SOL     OW24682   5.642   2.084   3.995
 7928SOL    HW124683   5.733   2.120   3.973
 7928SOL    HW224684   5.573   2.154   3.973
 7929SOL     OW24685   4.721   3.903   5.869
 7929SOL    HW124686   4.671   3.879   5.785
 7929SOL    HW224687   4.656   3.935   5.938
 7930SOL     OW24688   4.336   5.652   0.226
 7930SOL    HW124689   4.263   5.679   0.289
 7930SOL    HW224690   4.400   5.590   0.272
 7931SOL     OW24691   4.930   1.232   0.446
 7931SOL    HW124692   4.954   1.329   0.437
 7931SOL    HW224693   4.910   1.194   0.356
 7932SOL     OW24694   1.132   3.582   1.146
 7932SOL    HW124695   1.202   3.512   1.161
 7932SOL    HW224696   1.042   3.544   1.167
 7933SOL     OW24697   1.345   1.802   0.196
 7933SOL    HW124698   1.332   1.809   0.097
 7933SOL    HW224699   1.419   1.864   0.224
 7934SOL     OW24700   6.840   5.297   0.865
 7934SOL    HW124701   6.810   5.362   0.796
 7934SOL    HW224702   6.784   5.215   0.860
 7935SOL     OW24703   6.456   2.894   2.932
 7935SOL    HW124704   6.514   2.976   2.928
 7935SOL    HW224705   6.452   2.852   2.841
 7936SOL     OW24706   2.452   6.203   3.153
 7936SOL    HW124707   2.483   6.144   3.227
 7936SOL    HW224708   2.529   6.255   3.117
 7937SOL     OW24709   4.159   1.141   1.040
 7937SOL    HW124710   4.213   1.138   0.955
 7937SOL    HW224711   4.187   1.220   1.094
 7938SOL     OW24712   2.130   0.054   3.150
 7938SOL    HW124713   2.111   0.103   3.235
 7938SOL    HW224714   2.078   6.990   3.149
 7939SOL     OW24715   1.667   0.341   2.647
 7939SOL    HW124716   1.629   0.409   2.710
 7939SOL    HW224717   1.602   0.326   2.572
 7940SOL     OW24718   6.101   1.789   5.086
 7940SOL    HW124719   6.079   1.769   5.182
 7940SOL    HW224720   6.198   1.811   5.077
 7941SOL     OW24721   3.395   0.021   0.691
 7941SOL    HW124722   3.376   6.954   0.649
 7941SOL    HW224723   3.381   0.015   0.790
 7942SOL     OW24724   1.421   3.987   1.246
 7942SOL    HW124725   1.336   3.968   1.196
 7942SOL    HW224726   1.399   4.004   1.342
 7943SOL     OW24727   1.652   5.677   6.659
 7943SOL    HW124728   1.587   5.665   6.584
 7943SOL    HW224729   1.604   5.704   6.742
 7944SOL     OW24730   1.196   2.026   1.148
 7944SOL    HW124731   1.244   2.001   1.232
 7944SOL    HW224732   1.154   2.116   1.159
 7945SOL     OW24733   6.139   3.557   2.877
 7945SOL    HW124734   6.204   3.577   2.804
 7945SOL    HW224735   6.185   3.504   2.949
 7946SOL     OW24736   4.196   1.380   5.943
 7946SOL    HW124737   4.229   1.316   6.013
 7946SOL    HW224738   4.272   1.435   5.910
 7947SOL     OW24739   0.145   3.237   6.336
 7947SOL    HW124740   0.110   3.309   6.396
 7947SOL    HW224741   0.072   3.172   6.316
 7948SOL     OW24742   1.154   5.905   0.742
 7948SOL    HW124743   1.092   5.964   0.794
 7948SOL    HW224744   1.249   5.928   0.765
 7949SOL     OW24745   2.908   5.628   5.590
 7949SOL    HW124746   2.931   5.592   5.681
 7949SOL    HW224747   2.829   5.578   5.554
 7950SOL     OW24748   6.634   3.865   5.379
 7950SOL    HW124749   6.636   3.767   5.363
 7950SOL    HW224750   6.543   3.893   5.410
 7951SOL     OW24751   3.982   6.834   2.686
 7951SOL    HW124752   3.972   6.933   2.682
 7951SOL    HW224753   4.077   6.811   2.708
 7952SOL     OW24754   0.154   3.180   5.429
 7952SOL    HW124755   0.132   3.170   5.526
 7952SOL    HW224756   0.085   3.236   5.384
 7953SOL     OW24757   1.829   0.336   0.513
 7953SOL    HW124758   1.856   0.243   0.489
 7953SOL    HW224759   1.739   0.356   0.473
 7954SOL     OW24760   3.583   3.299   0.143
 7954SOL    HW124761   3.604   3.390   0.180
 7954SOL    HW224762   3.658   3.237   0.162
 7955SOL     OW24763   0.115   0.968   6.905
 7955SOL    HW124764   0.098   0.923   6.817
 7955SOL    HW224765   0.213   0.981   6.918
 7956SOL     OW24766   0.368   0.389   0.491
 7956SOL    HW124767   0.385   0.488   0.488
 7956SOL    HW224768   0.363   0.359   0.586
 7957SOL     OW24769   5.322   1.282   5.979
 7957SOL    HW124770   5.352   1.237   5.895
 7957SOL    HW224771   5.305   1.214   6.050
 7958SOL     OW24772   4.917   2.166   6.802
 7958SOL    HW124773   4.986   2.106   6.762
 7958SOL    HW224774   4.903   2.246   6.742
 7959SOL     OW24775   4.713   2.988   0.078
 7959SOL    HW124776   4.720   2.962   7.004
 7959SOL    HW224777   4.783   3.056   0.099
 7960SOL     OW24778   0.970   1.811   5.135
 7960SOL    HW124779   0.935   1.872   5.064
 7960SOL    HW224780   1.060   1.841   5.165
 7961SOL     OW24781   5.927   0.721   0.169
 7961SOL    HW124782   5.975   0.789   0.112
 7961SOL    HW224783   5.972   0.632   0.159
 7962SOL     OW24784   5.783   6.603   4.601
 7962SOL    HW124785   5.731   6.620   4.685
 7962SOL    HW224786   5.742   6.653   4.525
 7963SOL     OW24787   5.958   6.007   3.120
 7963SOL    HW124788   6.011   5.923   3.113
 7963SOL    HW224789   5.928   6.035   3.029
 7964SOL     OW24790   6.803   3.619   1.699
 7964SOL    HW124791   6.822   3.526   1.667
 7964SOL    HW224792   6.814   3.622   1.798
 7965SOL     OW24793   4.594   1.800   6.414
 7965SOL    HW124794   4.653   1.726   6.447
 7965SOL    HW224795   4.507   1.762   6.382
 7966SOL     OW24796   5.889   3.168   4.974
 7966SOL    HW124797   5.931   3.077   4.977
 7966SOL    HW224798   5.961   3.237   4.981
 7967SOL     OW24799   1.929   4.335   1.366
 7967SOL    HW124800   1.902   4.318   1.271
 7967SOL    HW224801   1.849   4.356   1.421
 7968SOL     OW24802   2.193   2.927   3.747
 7968SOL    HW124803   2.225   2.912   3.840
 7968SOL    HW224804   2.155   3.019   3.740
 7969SOL     OW24805   3.187   4.637   6.660
 7969SOL    HW124806   3.242   4.636   6.743
 7969SOL    HW224807   3.241   4.602   6.584
 7970SOL     OW24808   6.150   3.093   3.819
 7970SOL    HW124809   6.124   3.054   3.731
 7970SOL    HW224810   6.227   3.042   3.857
 7971SOL     OW24811   3.521   0.703   6.885
 7971SOL    HW124812   3.542   0.723   6.981
 7971SOL    HW224813   3.494   0.607   6.876
 7972SOL     OW24814   4.002   3.320   4.703
 7972SOL    HW124815   4.011   3.401   4.760
 7972SOL    HW224816   3.964   3.346   4.614
 7973SOL     OW24817   0.445   4.839   2.038
 7973SOL    HW124818   0.538   4.831   2.004
 7973SOL    HW224819   0.400   4.750   2.035
 7974SOL     OW24820   0.773   3.424   4.934
 7974SOL    HW124821   0.683   3.466   4.948
 7974SOL    HW224822   0.762   3.326   4.917
 7975SOL     OW24823   4.219   6.802   6.832
 7975SOL    HW124824   4.230   6.884   6.888
 7975SOL    HW224825   4.275   6.728   6.870
 7976SOL     OW24826   0.930   0.427   0.510
 7976SOL    HW124827   0.988   0.386   0.439
 7976SOL    HW224828   0.841   0.382   0.509
 7977SOL     OW24829   4.853   5.455   2.407
 7977SOL    HW124830   4.891   5.365   2.384
 7977SOL    HW224831   4.807   5.493   2.327
 7978SOL     OW24832   0.129   4.095   1.468
 7978SOL    HW124833   0.192   4.049   1.405
 7978SOL    HW224834   0.040   4.051   1.465
 7979SOL     OW24835   2.808   2.130   5.368
 7979SOL    HW124836   2.794   2.225   5.338
 7979SOL    HW224837   2.720   2.089   5.390
 7980SOL     OW24838   3.553   5.443   2.095
 7980SOL    HW124839   3.639   5.453   2.145
 7980SOL    HW224840   3.522   5.348   2.099
 7981SOL     OW24841   1.481   3.399   4.693
 7981SOL    HW124842   1.385   3.419   4.709
 7981SOL    HW224843   1.537   3.477   4.722
 7982SOL     OW24844   6.667   0.628   0.227
 7982SOL    HW124845   6.644   0.718   0.263
 7982SOL    HW224846   6.629   0.618   0.135
 7983SOL     OW24847   3.412   1.143   1.775
 7983SOL    HW124848   3.419   1.116   1.679
 7983SOL    HW224849   3.339   1.211   1.785
 7984SOL     OW24850   6.309   2.684   3.352
 7984SOL    HW124851   6.330   2.751   3.279
 7984SOL    HW224852   6.230   2.716   3.404
 7985SOL     OW24853   3.065   3.719   5.471
 7985SOL    HW124854   3.096   3.743   5.563
 7985SOL    HW224855   3.111   3.636   5.441
 7986SOL     OW24856   3.380   0.763   3.815
 7986SOL    HW124857   3.454   0.818   3.855
 7986SOL    HW224858   3.292   0.793   3.853
 7987SOL     OW24859   1.330   2.976   6.332
 7987SOL    HW124860   1.299   2.964   6.427
 7987SOL    HW224861   1.288   3.058   6.294
 7988SOL     OW24862   6.380   0.820   1.379
 7988SOL    HW124863   6.416   0.728   1.361
 7988SOL    HW224864   6.379   0.873   1.295
 7989SOL     OW24865   0.447   4.599   1.706
 7989SOL    HW124866   0.392   4.675   1.671
 7989SOL    HW224867   0.439   4.521   1.644
 7990SOL     OW24868   3.878   5.234   4.965
 7990SOL    HW124869   3.920   5.255   5.054
 7990SOL    HW224870   3.947   5.194   4.905
 7991SOL     OW24871   5.027   0.591   4.694
 7991SOL    HW124872   5.047   0.647   4.775
 7991SOL    HW224873   5.100   0.523   4.682
 7992SOL     OW24874   2.134   0.906   6.989
 7992SOL    HW124875   2.192   0.885   6.910
 7992SOL    HW224876   2.078   0.827   7.012
 7993SOL     OW24877   6.373   6.494   0.535
 7993SOL    HW124878   6.398   6.561   0.605
 7993SOL    HW224879   6.456   6.461   0.489
 7994SOL     OW24880   0.462   1.103   4.747
 7994SOL    HW124881   0.394   1.032   4.729
 7994SOL    HW224882   0.520   1.115   4.667
 7995SOL     OW24883   0.777   5.977   1.760
 7995SOL    HW124884   0.839   5.945   1.831
 7995SOL    HW224885   0.683   5.974   1.794
 7996SOL     OW24886   2.277   6.737   3.566
 7996SOL    HW124887   2.289   6.811   3.632
 7996SOL    HW224888   2.262   6.651   3.615
 7997SOL     OW24889   2.628   1.475   5.777
 7997SOL    HW124890   2.684   1.444   5.854
 7997SOL    HW224891   2.535   1.492   5.808
 7998SOL     OW24892   1.808   0.963   1.165
 7998SOL    HW124893   1.892   1.005   1.199
 7998SOL    HW224894   1.782   1.006   1.078
 7999SOL     OW24895   0.367   0.662   2.860
 7999SOL    HW124896   0.374   0.759   2.838
 7999SOL    HW224897   0.307   0.651   2.940
 8000SOL     OW24898   4.071   5.723   0.752
 8000SOL    HW124899   4.122   5.798   0.710
 8000SOL    HW224900   4.115   5.636   0.729
 8001SOL     OW24901   5.412   4.296   1.864
 8001SOL    HW124902   5.509   4.270   1.860
 8001SOL    HW224903   5.404   4.395   1.866
 8002SOL     OW24904   1.091   0.522   4.685
 8002SOL    HW124905   1.188   0.501   4.695
 8002SOL    HW224906   1.075   0.619   4.705
 8003SOL     OW24907   2.677   5.626   3.273
 8003SOL    HW124908   2.674   5.623   3.373
 8003SOL    HW224909   2.738   5.555   3.238
 8004SOL     OW24910   1.880   3.429   4.167
 8004SOL    HW124911   1.935   3.379   4.100
 8004SOL    HW224912   1.939   3.464   4.240
 8005SOL     OW24913   2.978   0.111   4.314
 8005SOL    HW124914   2.953   0.106   4.217
 8005SOL    HW224915   2.907   0.068   4.369
 8006SOL     OW24916   4.493   5.462   6.125
 8006SOL    HW124917   4.462   5.399   6.197
 8006SOL    HW224918   4.524   5.410   6.046
 8007SOL     OW24919   6.941   0.633   1.393
 8007SOL    HW124920   6.861   0.693   1.399
 8007SOL    HW224921   6.981   0.639   1.301
 8008SOL     OW24922   5.151   4.765   0.764
 8008SOL    HW124923   5.184   4.834   0.699
 8008SOL    HW224924   5.168   4.674   0.727
 8009SOL     OW24925   0.024   1.207   1.744
 8009SOL    HW124926   0.007   1.113   1.714
 8009SOL    HW224927   0.122   1.219   1.761
 8010SOL     OW24928   3.208   0.267   6.221
 8010SOL    HW124929   3.150   0.286   6.300
 8010SOL    HW224930   3.292   0.320   6.227
 8011SOL     OW24931   3.761   2.127   2.733
 8011SOL    HW124932   3.678   2.161   2.688
 8011SOL    HW224933   3.834   2.117   2.665
 8012SOL     OW24934   6.376   0.664   5.132
 8012SOL    HW124935   6.335   0.573   5.122
 8012SOL    HW224936   6.459   0.657   5.186
 8013SOL     OW24937   3.625   0.348   3.192
 8013SOL    HW124938   3.678   0.420   3.148
 8013SOL    HW224939   3.600   0.376   3.285
 8014SOL     OW24940   2.352   2.833   3.531
 8014SOL    HW124941   2.336   2.889   3.613
 8014SOL    HW224942   2.374   2.740   3.559
 8015SOL     OW24943   3.302   6.459   4.475
 8015SOL    HW124944   3.349   6.405   4.545
 8015SOL    HW224945   3.305   6.410   4.388
 8016SOL     OW24946   3.295   2.799   5.578
 8016SOL    HW124947   3.390   2.807   5.547
 8016SOL    HW224948   3.252   2.720   5.535
 8017SOL     OW24949   5.679   6.408   1.390
 8017SOL    HW124950   5.690   6.474   1.317
 8017SOL    HW224951   5.590   6.421   1.434
 8018SOL     OW24952   2.894   3.375   0.661
 8018SOL    HW124953   2.846   3.456   0.696
 8018SOL    HW224954   2.969   3.404   0.602
 8019SOL     OW24955   2.628   3.579   0.691
 8019SOL    HW124956   2.695   3.653   0.687
 8019SOL    HW224957   2.640   3.527   0.775
 8020SOL     OW24958   0.188   0.261   0.042
 8020SOL    HW124959   0.272   0.270   0.095
 8020SOL    HW224960   0.207   0.283   6.968
 8021SOL     OW24961   0.870   3.277   0.457
 8021SOL    HW124962   0.849   3.353   0.396
 8021SOL    HW224963   0.801   3.272   0.530
 8022SOL     OW24964   4.239   0.325   2.231
 8022SOL    HW124965   4.278   0.405   2.185
 8022SOL    HW224966   4.201   0.263   2.163
 8023SOL     OW24967   3.993   5.106   2.347
 8023SOL    HW124968   3.965   5.011   2.339
 8023SOL    HW224969   4.093   5.113   2.341
 8024SOL     OW24970   2.489   0.760   6.159
 8024SOL    HW124971   2.559   0.690   6.177
 8024SOL    HW224972   2.522   0.821   6.087
 8025SOL     OW24973   0.906   6.628   1.339
 8025SOL    HW124974   0.966   6.681   1.279
 8025SOL    HW224975   0.961   6.565   1.394
 8026SOL     OW24976   0.525   0.115   6.018
 8026SOL    HW124977   0.428   0.131   5.997
 8026SOL    HW224978   0.542   0.136   6.114
 8027SOL     OW24979   4.759   0.217   6.381
 8027SOL    HW124980   4.785   0.124   6.353
 8027SOL    HW224981   4.662   0.217   6.406
 8028SOL     OW24982   3.935   6.054   6.464
 8028SOL    HW124983   3.897   6.139   6.428
 8028SOL    HW224984   3.987   6.007   6.393
 8029SOL     OW24985   0.751   0.021   1.762
 8029SOL    HW124986   0.697   6.959   1.765
 8029SOL    HW224987   0.751   0.064   1.852
 8030SOL     OW24988   0.524   4.138   1.332
 8030SOL    HW124989   0.486   4.051   1.299
 8030SOL    HW224990   0.591   4.121   1.403
 8031SOL     OW24991   6.788   0.578   3.029
 8031SOL    HW124992   6.811   0.623   3.116
 8031SOL    HW224993   6.745   0.490   3.048
 8032SOL     OW24994   0.226   2.864   1.024
 8032SOL    HW124995   0.306   2.918   1.050
 8032SOL    HW224996   0.197   2.890   0.932
 8033SOL     OW24997   3.492   4.534   1.379
 8033SOL    HW124998   3.471   4.580   1.465
 8033SOL    HW224999   3.580   4.566   1.345
 8034SOL     OW25000   0.818   0.886   5.560
 8034SOL    HW125001   0.802   0.807   5.618
 8034SOL    HW225002   0.907   0.926   5.582
 8035SOL     OW25003   5.844   0.352   4.514
 8035SOL    HW125004   5.878   0.438   4.477
 8035SOL    HW225005   5.921   0.293   4.538
 8036SOL     OW25006   4.862   4.149   3.818
 8036SOL    HW125007   4.844   4.080   3.747
 8036SOL    HW225008   4.924   4.110   3.887
 8037SOL     OW25009   2.714   1.626   6.501
 8037SOL    HW125010   2.700   1.548   6.562
 8037SOL    HW225011   2.773   1.597   6.425
 8038SOL     OW25012   6.682   5.699   1.797
 8038SOL    HW125013   6.750   5.705   1.871
 8038SOL    HW225014   6.679   5.606   1.763
 8039SOL     OW25015   2.027   2.675   4.985
 8039SOL    HW125016   2.115   2.665   4.938
 8039SOL    HW225017   2.004   2.589   5.030
 8040SOL     OW25018   1.019   6.404   5.966
 8040SOL    HW125019   1.066   6.364   6.045
 8040SOL    HW225020   1.058   6.366   5.882
 8041SOL     OW25021   2.969   1.467   2.831
 8041SOL    HW125022   3.050   1.517   2.799
 8041SOL    HW225023   2.946   1.497   2.923
 8042SOL     OW25024   3.993   3.964   6.000
 8042SOL    HW125025   3.998   4.032   6.072
 8042SOL    HW225026   3.916   3.902   6.016
 8043SOL     OW25027   4.937   4.926   6.793
 8043SOL    HW125028   4.891   4.894   6.710
 8043SOL    HW225029   4.983   5.013   6.774
 8044SOL     OW25030   1.155   3.015   1.658
 8044SOL    HW125031   1.174   2.943   1.590
 8044SOL    HW225032   1.192   3.102   1.625
 8045SOL     OW25033   6.102   3.423   4.986
 8045SOL    HW125034   6.012   3.462   4.968
 8045SOL    HW225035   6.138   3.459   5.072
 8046SOL     OW25036   0.226   4.053   0.755
 8046SOL    HW125037   0.297   3.990   0.785
 8046SOL    HW225038   0.187   4.101   0.834
 8047SOL     OW25039   3.247   6.432   6.869
 8047SOL    HW125040   3.203   6.497   6.930
 8047SOL    HW225041   3.201   6.433   6.780
 8048SOL     OW25042   4.106   1.658   6.713
 8048SOL    HW125043   4.054   1.707   6.642
 8048SOL    HW225044   4.165   1.723   6.761
 8049SOL     OW25045   1.955   1.463   1.276
 8049SOL    HW125046   1.877   1.510   1.234
 8049SOL    HW225047   1.999   1.404   1.208
 8050SOL     OW25048   0.011   5.545   5.987
 8050SOL    HW125049   7.002   5.639   5.975
 8050SOL    HW225050   0.099   5.545   6.034
 8051SOL     OW25051   4.424   6.445   2.477
 8051SOL    HW125052   4.510   6.394   2.488
 8051SOL    HW225053   4.375   6.410   2.398
 8052SOL     OW25054   3.078   1.253   3.101
 8052SOL    HW125055   3.062   1.351   3.099
 8052SOL    HW225056   3.021   1.212   3.172
 8053SOL     OW25057   0.926   2.484   6.216
 8053SOL    HW125058   0.907   2.479   6.118
 8053SOL    HW225059   0.941   2.392   6.252
 8054SOL     OW25060   5.116   3.683   5.416
 8054SOL    HW125061   5.126   3.779   5.442
 8054SOL    HW225062   5.196   3.655   5.364
 8055SOL     OW25063   6.559   0.178   6.986
 8055SOL    HW125064   6.634   0.195   0.027
 8055SOL    HW225065   6.589   0.196   6.893
 8056SOL     OW25066   2.603   2.252   3.607
 8056SOL    HW125067   2.582   2.155   3.609
 8056SOL    HW225068   2.524   2.302   3.571
 8057SOL     OW25069   3.110   2.126   2.038
 8057SOL    HW125070   3.201   2.121   1.998
 8057SOL    HW225071   3.065   2.210   2.007
 8058SOL     OW25072   3.936   6.224   1.814
 8058SOL    HW125073   3.992   6.306   1.812
 8058SOL    HW225074   3.863   6.235   1.881
 8059SOL     OW25075   3.977   2.816   5.594
 8059SOL    HW125076   3.999   2.848   5.501
 8059SOL    HW225077   3.879   2.797   5.600
 8060SOL     OW25078   0.227   1.293   5.560
 8060SOL    HW125079   0.183   1.207   5.587
 8060SOL    HW225080   0.292   1.276   5.486
 8061SOL     OW25081   6.978   0.919   1.639
 8061SOL    HW125082   6.987   0.872   1.551
 8061SOL    HW225083   0.046   0.944   1.672
 8062SOL     OW25084   4.139   5.042   5.957
 8062SOL    HW125085   4.074   5.086   5.894
 8062SOL    HW225086   4.113   4.946   5.970
 8063SOL     OW25087   2.432   4.829   3.171
 8063SOL    HW125088   2.400   4.761   3.238
 8063SOL    HW225089   2.415   4.921   3.206
 8064SOL     OW25090   6.911   2.964   1.165
 8064SOL    HW125091   6.968   2.980   1.245
 8064SOL    HW225092   6.951   2.892   1.109
 8065SOL     OW25093   4.705   0.137   6.662
 8065SOL    HW125094   4.761   0.213   6.693
 8065SOL    HW225095   4.756   0.083   6.595
 8066SOL     OW25096   0.011   0.558   5.745
 8066SOL    HW125097   0.056   0.469   5.752
 8066SOL    HW225098   0.076   0.631   5.765
 8067SOL     OW25099   4.906   0.884   4.317
 8067SOL    HW125100   4.908   0.983   4.304
 8067SOL    HW225101   4.988   0.843   4.277
 8068SOL     OW25102   6.500   4.641   1.375
 8068SOL    HW125103   6.530   4.649   1.280
 8068SOL    HW225104   6.580   4.625   1.434
 8069SOL     OW25105   1.670   2.477   2.316
 8069SOL    HW125106   1.609   2.425   2.258
 8069SOL    HW225107   1.697   2.421   2.395
 8070SOL     OW25108   5.033   3.899   1.665
 8070SOL    HW125109   5.033   3.910   1.566
 8070SOL    HW225110   4.945   3.860   1.695
 8071SOL     OW25111   2.847   0.464   6.050
 8071SOL    HW125112   2.912   0.514   5.993
 8071SOL    HW225113   2.854   0.366   6.032
 8072SOL     OW25114   2.471   2.226   5.614
 8072SOL    HW125115   2.519   2.314   5.615
 8072SOL    HW225116   2.447   2.200   5.707
 8073SOL     OW25117   5.622   0.241   6.421
 8073SOL    HW125118   5.646   0.282   6.509
 8073SOL    HW225119   5.608   0.143   6.433
 8074SOL     OW25120   6.409   0.874   0.789
 8074SOL    HW125121   6.399   0.930   0.871
 8074SOL    HW225122   6.506   0.869   0.763
 8075SOL     OW25123   0.572   0.651   1.287
 8075SOL    HW125124   0.589   0.558   1.320
 8075SOL    HW225125   0.659   0.702   1.286
 8076SOL     OW25126   6.435   6.058   0.582
 8076SOL    HW125127   6.503   6.061   0.655
 8076SOL    HW225128   6.428   5.965   0.545
 8077SOL     OW25129   5.870   4.177   0.971
 8077SOL    HW125130   5.941   4.118   1.010
 8077SOL    HW225131   5.855   4.255   1.031
 8078SOL     OW25132   6.346   1.358   2.132
 8078SOL    HW125133   6.313   1.433   2.189
 8078SOL    HW225134   6.434   1.325   2.167
 8079SOL     OW25135   0.427   1.024   6.922
 8079SOL    HW125136   0.523   0.994   6.917
 8079SOL    HW225137   0.416   1.087   6.999
 8080SOL     OW25138   0.939   3.932   3.968
 8080SOL    HW125139   1.031   3.908   3.937
 8080SOL    HW225140   0.880   3.944   3.888
 8081SOL     OW25141   5.989   0.806   5.520
 8081SOL    HW125142   5.958   0.789   5.426
 8081SOL    HW225143   5.911   0.833   5.577
 8082SOL     OW25144   4.546   2.508   4.740
 8082SOL    HW125145   4.474   2.441   4.723
 8082SOL    HW225146   4.524   2.562   4.821
 8083SOL     OW25147   6.466   3.003   4.248
 8083SOL    HW125148   6.434   3.076   4.308
 8083SOL    HW225149   6.565   3.009   4.236
 8084SOL     OW25150   5.101   1.752   6.532
 8084SOL    HW125151   5.075   1.822   6.466
 8084SOL    HW225152   5.196   1.724   6.516
 8085SOL     OW25153   1.678   6.167   3.985
 8085SOL    HW125154   1.667   6.264   3.963
 8085SOL    HW225155   1.590   6.120   3.974
 8086SOL     OW25156   0.355   2.582   2.234
 8086SOL    HW125157   0.414   2.506   2.207
 8086SOL    HW225158   0.269   2.577   2.184
 8087SOL     OW25159   6.599   0.891   6.662
 8087SOL    HW125160   6.646   0.838   6.592
 8087SOL    HW225161   6.659   0.964   6.695
 8088SOL     OW25162   0.422   6.526   5.385
 8088SOL    HW125163   0.439   6.616   5.425
 8088SOL    HW225164   0.334   6.527   5.338
 8089SOL     OW25165   6.281   1.453   6.946
 8089SOL    HW125166   6.194   1.469   6.899
 8089SOL    HW225167   6.267   1.466   0.022
 8090SOL     OW25168   4.404   2.351   5.077
 8090SOL    HW125169   4.445   2.439   5.054
 8090SOL    HW225170   4.306   2.362   5.091
 8091SOL     OW25171   0.561   3.791   4.863
 8091SOL    HW125172   0.653   3.813   4.829
 8091SOL    HW225173   0.500   3.777   4.786
 8092SOL     OW25174   4.663   0.201   5.859
 8092SOL    HW125175   4.568   0.219   5.836
 8092SOL    HW225176   4.688   0.256   5.939
 8093SOL     OW25177   2.956   6.725   3.523
 8093SOL    HW125178   2.954   6.730   3.623
 8093SOL    HW225179   3.040   6.766   3.489
 8094SOL     OW25180   1.865   4.010   4.460
 8094SOL    HW125181   1.896   4.091   4.511
 8094SOL    HW225182   1.815   4.040   4.379
 8095SOL     OW25183   1.206   5.668   4.979
 8095SOL    HW125184   1.264   5.748   4.988
 8095SOL    HW225185   1.231   5.600   5.048
 8096SOL     OW25186   0.746   4.799   0.953
 8096SOL    HW125187   0.727   4.839   0.863
 8096SOL    HW225188   0.699   4.851   1.024
 8097SOL     OW25189   4.813   6.369   0.183
 8097SOL    HW125190   4.860   6.394   0.098
 8097SOL    HW225191   4.875   6.382   0.260
 8098SOL     OW25192   2.913   6.211   4.786
 8098SOL    HW125193   2.851   6.178   4.715
 8098SOL    HW225194   3.002   6.232   4.744
 8099SOL     OW25195   2.283   4.195   2.608
 8099SOL    HW125196   2.267   4.160   2.701
 8099SOL    HW225197   2.373   4.238   2.604
 8100SOL     OW25198   0.156   0.072   0.514
 8100SOL    HW125199   0.106   0.150   0.476
 8100SOL    HW225200   0.107   7.010   0.492
 8101SOL     OW25201   2.082   5.379   0.359
 8101SOL    HW125202   2.080   5.443   0.435
 8101SOL    HW225203   2.076   5.430   0.273
 8102SOL     OW25204   0.879   4.540   4.217
 8102SOL    HW125205   0.958   4.498   4.172
 8102SOL    HW225206   0.879   4.515   4.314
 8103SOL     OW25207   4.439   0.802   1.610
 8103SOL    HW125208   4.460   0.899   1.616
 8103SOL    HW225209   4.342   0.790   1.591
 8104SOL     OW25210   0.775   5.721   6.682
 8104SOL    HW125211   0.693   5.756   6.727
 8104SOL    HW225212   0.791   5.626   6.709
 8105SOL     OW25213   6.853   6.965   3.122
 8105SOL    HW125214   6.789   6.984   3.047
 8105SOL    HW225215   6.856   6.867   3.140
 8106SOL     OW25216   2.752   6.705   6.294
 8106SOL    HW125217   2.707   6.794   6.286
 8106SOL    HW225218   2.683   6.635   6.314
 8107SOL     OW25219   1.150   6.670   0.090
 8107SOL    HW125220   1.158   6.770   0.101
 8107SOL    HW225221   1.195   6.625   0.167
 8108SOL     OW25222   1.700   1.340   0.471
 8108SOL    HW125223   1.774   1.404   0.494
 8108SOL    HW225224   1.727   1.248   0.498
 8109SOL     OW25225   0.261   3.786   2.258
 8109SOL    HW125226   0.186   3.832   2.210
 8109SOL    HW225227   0.243   3.688   2.260
 8110SOL     OW25228   4.435   4.304   0.388
 8110SOL    HW125229   4.470   4.221   0.430
 8110SOL    HW225230   4.370   4.279   0.315
 8111SOL     OW25231   5.919   1.785   2.410
 8111SOL    HW125232   5.862   1.865   2.428
 8111SOL    HW225233   6.015   1.813   2.404
 8112SOL     OW25234   2.025   4.964   6.347
 8112SOL    HW125235   1.961   4.940   6.420
 8112SOL    HW225236   1.994   4.923   6.261
 8113SOL     OW25237   4.976   4.905   6.350
 8113SOL    HW125238   4.964   4.999   6.318
 8113SOL    HW225239   5.057   4.900   6.409
 8114SOL     OW25240   2.174   3.350   2.999
 8114SOL    HW125241   2.126   3.284   2.942
 8114SOL    HW225242   2.163   3.442   2.960
 8115SOL     OW25243   2.376   1.744   6.214
 8115SOL    HW125244   2.460   1.755   6.162
 8115SOL    HW225245   2.325   1.830   6.216
 8116SOL     OW25246   4.125   3.261   2.164
 8116SOL    HW125247   4.192   3.236   2.094
 8116SOL    HW225248   4.120   3.361   2.171
 8117SOL     OW25249   1.517   0.060   4.123
 8117SOL    HW125250   1.476   0.008   4.048
 8117SOL    HW225251   1.602   0.016   4.151
 8118SOL     OW25252   6.520   2.559   6.826
 8118SOL    HW125253   6.563   2.586   6.739
 8118SOL    HW225254   6.486   2.466   6.819
 8119SOL     OW25255   5.020   5.573   6.215
 8119SOL    HW125256   5.012   5.535   6.123
 8119SOL    HW225257   5.114   5.561   6.247
 8120SOL     OW25258   2.243   6.432   2.625
 8120SOL    HW125259   2.306   6.363   2.589
 8120SOL    HW225260   2.164   6.386   2.666
 8121SOL     OW25261   2.259   2.759   2.739
 8121SOL    HW125262   2.245   2.661   2.723
 8121SOL    HW225263   2.334   2.772   2.802
 8122SOL     OW25264   0.718   4.684   1.342
 8122SOL    HW125265   0.735   4.776   1.307
 8122SOL    HW225266   0.775   4.668   1.423
 8123SOL     OW25267   6.855   1.670   6.828
 8123SOL    HW125268   6.895   1.688   6.739
 8123SOL    HW225269   6.801   1.749   6.858
 8124SOL     OW25270   6.591   6.214   5.372
 8124SOL    HW125271   6.607   6.308   5.402
 8124SOL    HW225272   6.497   6.187   5.395
 8125SOL     OW25273   1.282   6.048   1.950
 8125SOL    HW125274   1.266   6.076   1.855
 8125SOL    HW225275   1.323   5.957   1.951
 8126SOL     OW25276   3.417   5.641   4.666
 8126SOL    HW125277   3.504   5.652   4.619
 8126SOL    HW225278   3.343   5.637   4.598
 8127SOL     OW25279   3.786   1.637   6.203
 8127SOL    HW125280   3.814   1.728   6.234
 8127SOL    HW225281   3.830   1.617   6.115
 8128SOL     OW25282   3.207   3.359   1.235
 8128SOL    HW125283   3.302   3.361   1.268
 8128SOL    HW225284   3.198   3.287   1.166
 8129SOL     OW25285   0.313   2.660   3.826
 8129SOL    HW125286   0.251   2.583   3.811
 8129SOL    HW225287   0.406   2.626   3.838
 8130SOL     OW25288   0.001   6.281   0.030
 8130SOL    HW125289   0.032   6.275   6.957
 8130SOL    HW225290   6.965   6.361   0.042
 8131SOL     OW25291   1.684   2.412   1.121
 8131SOL    HW125292   1.716   2.439   1.212
 8131SOL    HW225293   1.654   2.317   1.123
 8132SOL     OW25294   6.347   1.651   4.557
 8132SOL    HW125295   6.425   1.666   4.617
 8132SOL    HW225296   6.262   1.668   4.608
 8133SOL     OW25297   3.619   5.134   1.491
 8133SOL    HW125298   3.686   5.092   1.553
 8133SOL    HW225299   3.609   5.230   1.514
 8134SOL     OW25300   5.763   2.328   5.957
 8134SOL    HW125301   5.716   2.307   5.871
 8134SOL    HW225302   5.775   2.244   6.010
 8135SOL     OW25303   2.424   6.056   1.996
 8135SOL    HW125304   2.326   6.071   1.985
 8135SOL    HW225305   2.460   6.122   2.062
 8136SOL     OW25306   4.658   4.555   2.415
 8136SOL    HW125307   4.563   4.567   2.386
 8136SOL    HW225308   4.673   4.458   2.436
 8137SOL     OW25309   4.601   1.225   6.171
 8137SOL    HW125310   4.544   1.305   6.191
 8137SOL    HW225311   4.639   1.233   6.079
 8138SOL     OW25312   5.654   1.017   2.274
 8138SOL    HW125313   5.580   0.956   2.302
 8138SOL    HW225314   5.620   1.082   2.206
 8139SOL     OW25315   0.442   1.330   4.240
 8139SOL    HW125316   0.381   1.352   4.164
 8139SOL    HW225317   0.397   1.264   4.300
 8140SOL     OW25318   5.076   2.595   3.402
 8140SOL    HW125319   5.102   2.509   3.357
 8140SOL    HW225320   5.158   2.648   3.423
 8141SOL     OW25321   6.240   3.649   3.794
 8141SOL    HW125322   6.163   3.603   3.750
 8141SOL    HW225323   6.314   3.584   3.809
 8142SOL     OW25324   6.873   6.685   0.376
 8142SOL    HW125325   6.815   6.680   0.295
 8142SOL    HW225326   6.867   6.600   0.427
 8143SOL     OW25327   6.336   2.903   5.366
 8143SOL    HW125328   6.311   2.806   5.365
 8143SOL    HW225329   6.342   2.937   5.272
 8144SOL     OW25330   4.874   6.054   6.842
 8144SOL    HW125331   4.862   6.143   6.799
 8144SOL    HW225332   4.850   6.059   6.939
 8145SOL     OW25333   4.459   6.327   3.388
 8145SOL    HW125334   4.423   6.381   3.312
 8145SOL    HW225335   4.523   6.259   3.353
 8146SOL     OW25336   3.700   1.761   3.964
 8146SOL    HW125337   3.731   1.672   3.931
 8146SOL    HW225338   3.643   1.748   4.045
 8147SOL     OW25339   5.132   1.266   3.406
 8147SOL    HW125340   5.078   1.188   3.374
 8147SOL    HW225341   5.101   1.349   3.359
 8148SOL     OW25342   0.095   4.329   3.377
 8148SOL    HW125343   0.009   4.278   3.375
 8148SOL    HW225344   0.130   4.340   3.284
 8149SOL     OW25345   3.785   5.449   3.714
 8149SOL    HW125346   3.842   5.531   3.707
 8149SOL    HW225347   3.813   5.396   3.794
 8150SOL     OW25348   1.249   6.713   1.005
 8150SOL    HW125349   1.278   6.633   0.953
 8150SOL    HW225350   1.296   6.794   0.970
 8151SOL     OW25351   0.544   1.449   4.711
 8151SOL    HW125352   0.523   1.375   4.648
 8151SOL    HW225353   0.571   1.530   4.660
 8152SOL     OW25354   0.810   0.672   3.577
 8152SOL    HW125355   0.860   0.754   3.548
 8152SOL    HW225356   0.850   0.636   3.661
 8153SOL     OW25357   2.183   6.702   0.110
 8153SOL    HW125358   2.137   6.624   0.069
 8153SOL    HW225359   2.161   6.706   0.207
 8154SOL     OW25360   2.139   6.581   3.020
 8154SOL    HW125361   2.236   6.558   3.030
 8154SOL    HW225362   2.086   6.532   3.089
 8155SOL     OW25363   2.919   3.832   4.711
 8155SOL    HW125364   3.005   3.882   4.726
 8155SOL    HW225365   2.907   3.817   4.613
 8156SOL     OW25366   0.540   6.761   5.492
 8156SOL    HW125367   0.530   6.784   5.395
 8156SOL    HW225368   0.527   6.843   5.547
 8157SOL     OW25369   5.540   2.325   6.654
 8157SOL    HW125370   5.622   2.343   6.708
 8157SOL    HW225371   5.555   2.246   6.595
 8158SOL     OW25372   1.335   5.449   2.763
 8158SOL    HW125373   1.283   5.383   2.709
 8158SOL    HW225374   1.275   5.526   2.787
 8159SOL     OW25375   0.489   5.732   0.673
 8159SOL    HW125376   0.549   5.724   0.752
 8159SOL    HW225377   0.400   5.767   0.702
 8160SOL     OW25378   4.363   1.747   1.718
 8160SOL    HW125379   4.350   1.738   1.817
 8160SOL    HW225380   4.461   1.752   1.698
 8161SOL     OW25381   4.024   3.187   1.264
 8161SOL    HW125382   3.973   3.222   1.185
 8161SOL    HW225383   4.044   3.263   1.326
 8162SOL     OW25384   6.074   0.931   2.310
 8162SOL    HW125385   5.994   0.907   2.255
 8162SOL    HW225386   6.058   0.907   2.405
 8163SOL     OW25387   2.193   2.832   5.705
 8163SOL    HW125388   2.127   2.896   5.664
 8163SOL    HW225389   2.283   2.847   5.664
 8164SOL     OW25390   4.934   3.621   1.801
 8164SOL    HW125391   4.882   3.705   1.788
 8164SOL    HW225392   4.885   3.544   1.760
 8165SOL     OW25393   1.832   4.503   1.823
 8165SOL    HW125394   1.887   4.498   1.739
 8165SOL    HW225395   1.889   4.479   1.901
 8166SOL     OW25396   3.439   0.115   1.208
 8166SOL    HW125397   3.436   0.037   1.145
 8166SOL    HW225398   3.430   0.082   1.302
 8167SOL     OW25399   5.542   2.570   4.651
 8167SOL    HW125400   5.483   2.537   4.725
 8167SOL    HW225401   5.493   2.562   4.564
 8168SOL     OW25402   2.404   2.043   2.693
 8168SOL    HW125403   2.410   2.108   2.617
 8168SOL    HW225404   2.463   2.073   2.767
 8169SOL     OW25405   5.241   3.906   5.164
 8169SOL    HW125406   5.263   3.811   5.189
 8169SOL    HW225407   5.207   3.908   5.070
 8170SOL     OW25408   1.819   5.285   3.873
 8170SOL    HW125409   1.870   5.288   3.959
 8170SOL    HW225410   1.808   5.378   3.838
 8171SOL     OW25411   1.818   1.220   6.965
 8171SOL    HW125412   1.818   1.218   6.865
 8171SOL    HW225413   1.752   1.153   7.000
 8172SOL     OW25414   0.530   6.033   1.476
 8172SOL    HW125415   0.559   5.951   1.427
 8172SOL    HW225416   0.452   6.010   1.534
 8173SOL     OW25417   6.484   3.313   0.245
 8173SOL    HW125418   6.545   3.234   0.242
 8173SOL    HW225419   6.471   3.342   0.340
 8174SOL     OW25420   5.259   6.383   2.473
 8174SOL    HW125421   5.353   6.404   2.447
 8174SOL    HW225422   5.230   6.298   2.429
 8175SOL     OW25423   1.900   2.980   4.013
 8175SOL    HW125424   1.813   3.003   4.056
 8175SOL    HW225425   1.919   3.046   3.940
 8176SOL     OW25426   3.726   5.955   3.325
 8176SOL    HW125427   3.753   6.050   3.341
 8176SOL    HW225428   3.640   5.936   3.372
 8177SOL     OW25429   1.826   6.358   6.030
 8177SOL    HW125430   1.780   6.439   5.997
 8177SOL    HW225431   1.797   6.338   6.124
 8178SOL     OW25432   2.490   6.498   5.999
 8178SOL    HW125433   2.413   6.436   6.017
 8178SOL    HW225434   2.464   6.591   6.023
 8179SOL     OW25435   4.152   0.479   0.575
 8179SOL    HW125436   4.170   0.382   0.585
 8179SOL    HW225437   4.062   0.501   0.613
 8180SOL     OW25438   4.794   4.820   5.144
 8180SOL    HW125439   4.838   4.792   5.229
 8180SOL    HW225440   4.737   4.900   5.161
 8181SOL     OW25441   2.531   2.480   2.307
 8181SOL    HW125442   2.613   2.461   2.254
 8181SOL    HW225443   2.451   2.479   2.247
 8182SOL     OW25444   5.152   2.920   5.534
 8182SOL    HW125445   5.183   2.996   5.591
 8182SOL    HW225446   5.093   2.954   5.461
 8183SOL     OW25447   2.083   3.529   3.462
 8183SOL    HW125448   2.087   3.450   3.401
 8183SOL    HW225449   2.103   3.612   3.411
 8184SOL     OW25450   6.138   5.675   4.263
 8184SOL    HW125451   6.087   5.744   4.314
 8184SOL    HW225452   6.112   5.679   4.166
 8185SOL     OW25453   1.030   2.280   3.285
 8185SOL    HW125454   0.965   2.290   3.210
 8185SOL    HW225455   1.072   2.369   3.305
 8186SOL     OW25456   4.499   4.105   6.699
 8186SOL    HW125457   4.545   4.045   6.764
 8186SOL    HW225458   4.411   4.133   6.735
 8187SOL     OW25459   2.280   1.728   5.793
 8187SOL    HW125460   2.336   1.659   5.839
 8187SOL    HW225461   2.184   1.713   5.815
 8188SOL     OW25462   4.882   3.129   2.509
 8188SOL    HW125463   4.905   3.179   2.425
 8188SOL    HW225464   4.787   3.145   2.533
 8189SOL     OW25465   6.632   5.281   2.752
 8189SOL    HW125466   6.576   5.286   2.669
 8189SOL    HW225467   6.691   5.362   2.758
 8190SOL     OW25468   6.078   3.396   2.395
 8190SOL    HW125469   5.978   3.390   2.393
 8190SOL    HW225470   6.116   3.345   2.318
 8191SOL     OW25471   5.851   4.953   1.556
 8191SOL    HW125472   5.815   5.044   1.536
 8191SOL    HW225473   5.947   4.960   1.582
 8192SOL     OW25474   1.149   2.440   0.924
 8192SOL    HW125475   1.158   2.438   0.824
 8192SOL    HW225476   1.238   2.456   0.965
 8193SOL     OW25477   4.108   6.728   5.555
 8193SOL    HW125478   4.052   6.777   5.621
 8193SOL    HW225479   4.074   6.744   5.462
 8194SOL     OW25480   1.986   0.791   2.563
 8194SOL    HW125481   1.914   0.732   2.601
 8194SOL    HW225482   1.963   0.887   2.580
 8195SOL     OW25483   5.572   1.265   1.736
 8195SOL    HW125484   5.569   1.333   1.664
 8195SOL    HW225485   5.664   1.264   1.777
 8196SOL     OW25486   1.596   1.233   0.880
 8196SOL    HW125487   1.565   1.272   0.967
 8196SOL    HW225488   1.592   1.303   0.809
 8197SOL     OW25489   0.641   6.992   0.755
 8197SOL    HW125490   0.637   6.909   0.811
 8197SOL    HW225491   0.577   6.983   0.678
 8198SOL     OW25492   3.375   0.947   2.841
 8198SOL    HW125493   3.474   0.934   2.832
 8198SOL    HW225494   3.356   1.043   2.861
 8199SOL     OW25495   5.701   4.824   1.174
 8199SOL    HW125496   5.686   4.802   1.271
 8199SOL    HW225497   5.775   4.767   1.138
 8200SOL     OW25498   4.260   3.681   1.753
 8200SOL    HW125499   4.355   3.707   1.764
 8200SOL    HW225500   4.213   3.748   1.696
 8201SOL     OW25501   0.751   1.451   5.284
 8201SOL    HW125502   0.716   1.408   5.201
 8201SOL    HW225503   0.842   1.416   5.304
 8202SOL     OW25504   1.815   3.695   4.545
 8202SOL    HW125505   1.857   3.783   4.525
 8202SOL    HW225506   1.753   3.670   4.471
 8203SOL     OW25507   6.410   4.691   6.607
 8203SOL    HW125508   6.474   4.642   6.666
 8203SOL    HW225509   6.459   4.725   6.527
 8204SOL     OW25510   3.871   0.239   0.465
 8204SOL    HW125511   3.879   0.288   0.552
 8204SOL    HW225512   3.793   0.176   0.469
 8205SOL     OW25513   4.267   6.542   3.189
 8205SOL    HW125514   4.298   6.452   3.159
 8205SOL    HW225515   4.262   6.603   3.110
 8206SOL     OW25516   3.692   1.747   4.938
 8206SOL    HW125517   3.609   1.703   4.902
 8206SOL    HW225518   3.758   1.758   4.864
 8207SOL     OW25519   3.129   5.965   6.795
 8207SOL    HW125520   3.194   5.931   6.864
 8207SOL    HW225521   3.131   6.065   6.794
 8208SOL     OW25522   2.009   5.638   0.574
 8208SOL    HW125523   2.070   5.672   0.502
 8208SOL    HW225524   1.953   5.714   0.609
 8209SOL     OW25525   0.892   5.457   5.424
 8209SOL    HW125526   0.853   5.548   5.411
 8209SOL    HW225527   0.835   5.405   5.487
 8210SOL     OW25528   2.101   0.786   0.848
 8210SOL    HW125529   2.175   0.819   0.789
 8210SOL    HW225530   2.046   0.718   0.798
 8211SOL     OW25531   3.726   4.115   3.807
 8211SOL    HW125532   3.813   4.070   3.786
 8211SOL    HW225533   3.744   4.206   3.846
 8212SOL     OW25534   4.442   4.682   6.524
 8212SOL    HW125535   4.346   4.661   6.505
 8212SOL    HW225536   4.451   4.710   6.620
 8213SOL     OW25537   4.776   4.384   1.852
 8213SOL    HW125538   4.710   4.327   1.902
 8213SOL    HW225539   4.833   4.326   1.794
 8214SOL     OW25540   3.982   5.623   3.622
 8214SOL    HW125541   3.923   5.630   3.542
 8214SOL    HW225542   3.954   5.692   3.690
 8215SOL     OW25543   2.880   6.271   6.254
 8215SOL    HW125544   2.822   6.296   6.176
 8215SOL    HW225545   2.874   6.172   6.270
 8216SOL     OW25546   5.218   4.996   0.651
 8216SOL    HW125547   5.234   5.009   0.749
 8216SOL    HW225548   5.135   5.045   0.624
 8217SOL     OW25549   3.252   6.592   3.238
 8217SOL    HW125550   3.165   6.558   3.275
 8217SOL    HW225551   3.283   6.530   3.165
 8218SOL     OW25552   1.647   6.678   4.162
 8218SOL    HW125553   1.702   6.755   4.193
 8218SOL    HW225554   1.593   6.706   4.082
 8219SOL     OW25555   3.951   3.174   3.273
 8219SOL    HW125556   4.000   3.260   3.284
 8219SOL    HW225557   3.961   3.142   3.178
 8220SOL     OW25558   4.432   4.070   5.768
 8220SOL    HW125559   4.342   4.030   5.784
 8220SOL    HW225560   4.461   4.122   5.848
 8221SOL     OW25561   6.890   3.838   3.784
 8221SOL    HW125562   6.845   3.748   3.782
 8221SOL    HW225563   6.987   3.827   3.802
 8222SOL     OW25564   5.208   2.564   5.772
 8222SOL    HW125565   5.287   2.558   5.833
 8222SOL    HW225566   5.130   2.519   5.814
 8223SOL     OW25567   1.477   5.921   5.473
 8223SOL    HW125568   1.460   5.950   5.567
 8223SOL    HW225569   1.575   5.925   5.454
 8224SOL     OW25570   5.782   0.961   6.169
 8224SOL    HW125571   5.750   0.897   6.100
 8224SOL    HW225572   5.710   0.978   6.236
 8225SOL     OW25573   6.125   2.756   0.159
 8225SOL    HW125574   6.168   2.823   0.221
 8225SOL    HW225575   6.192   2.727   0.091
 8226SOL     OW25576   4.300   1.273   6.757
 8226SOL    HW125577   4.295   1.316   6.847
 8226SOL    HW225578   4.208   1.262   6.720
 8227SOL     OW25579   5.250   3.831   2.190
 8227SOL    HW125580   5.202   3.863   2.108
 8227SOL    HW225581   5.276   3.910   2.246
 8228SOL     OW25582   2.978   1.341   4.540
 8228SOL    HW125583   2.939   1.252   4.517
 8228SOL    HW225584   3.015   1.384   4.458
 8229SOL     OW25585   4.080   4.773   0.841
 8229SOL    HW125586   4.145   4.796   0.768
 8229SOL    HW225587   3.989   4.759   0.802
 8230SOL     OW25588   6.227   0.873   6.412
 8230SOL    HW125589   6.155   0.914   6.356
 8230SOL    HW225590   6.189   0.843   6.499
 8231SOL     OW25591   3.544   1.691   2.262
 8231SOL    HW125592   3.514   1.758   2.195
 8231SOL    HW225593   3.490   1.607   2.252
 8232SOL     OW25594   4.144   6.650   3.421
 8232SOL    HW125595   4.183   6.591   3.350
 8232SOL    HW225596   4.081   6.596   3.478
 8233SOL     OW25597   2.830   1.036   6.173
 8233SOL    HW125598   2.811   1.128   6.208
 8233SOL    HW225599   2.929   1.026   6.159
 8234SOL     OW25600   1.090   2.995   0.268
 8234SOL    HW125601   1.032   2.989   0.187
 8234SOL    HW225602   1.175   2.944   0.253
 8235SOL     OW25603   0.339   6.792   0.999
 8235SOL    HW125604   0.309   6.712   1.051
 8235SOL    HW225605   0.259   6.839   0.961
 8236SOL     OW25606   0.904   0.406   1.172
 8236SOL    HW125607   0.994   0.443   1.149
 8236SOL    HW225608   0.909   0.307   1.180
 8237SOL     OW25609   4.058   5.120   5.483
 8237SOL    HW125610   4.129   5.190   5.497
 8237SOL    HW225611   4.062   5.087   5.389
 8238SOL     OW25612   6.507   5.352   7.019
 8238SOL    HW125613   6.419   5.310   6.999
 8238SOL    HW225614   6.503   5.397   0.086
 8239SOL     OW25615   4.641   2.002   4.269
 8239SOL    HW125616   4.571   1.996   4.197
 8239SOL    HW225617   4.686   1.913   4.279
 8240SOL     OW25618   3.541   3.646   4.873
 8240SOL    HW125619   3.576   3.720   4.816
 8240SOL    HW225620   3.494   3.685   4.952
 8241SOL     OW25621   0.917   3.188   5.805
 8241SOL    HW125622   0.937   3.090   5.809
 8241SOL    HW225623   0.987   3.233   5.749
 8242SOL     OW25624   0.140   2.841   3.714
 8242SOL    HW125625   0.051   2.798   3.698
 8242SOL    HW225626   0.207   2.771   3.737
 8243SOL     OW25627   1.027   6.083   3.272
 8243SOL    HW125628   1.037   6.138   3.189
 8243SOL    HW225629   0.970   6.132   3.338
 8244SOL     OW25630   5.323   0.847   4.036
 8244SOL    HW125631   5.357   0.766   4.085
 8244SOL    HW225632   5.314   0.826   3.939
 8245SOL     OW25633   5.334   4.109   2.173
 8245SOL    HW125634   5.414   4.083   2.227
 8245SOL    HW225635   5.363   4.164   2.094
 8246SOL     OW25636   2.092   4.248   6.633
 8246SOL    HW125637   2.119   4.335   6.673
 8246SOL    HW225638   2.071   4.183   6.706
 8247SOL     OW25639   2.069   4.566   3.498
 8247SOL    HW125640   2.055   4.571   3.400
 8247SOL    HW225641   2.079   4.471   3.526
 8248SOL     OW25642   6.931   6.353   2.648
 8248SOL    HW125643   6.932   6.265   2.599
 8248SOL    HW225644   6.839   6.373   2.680
 8249SOL     OW25645   3.111   0.809   6.261
 8249SOL    HW125646   3.098   0.830   6.358
 8249SOL    HW225647   3.024   0.822   6.213
 8250SOL     OW25648   1.329   1.647   0.421
 8250SOL    HW125649   1.423   1.614   0.425
 8250SOL    HW225650   1.311   1.685   0.330
 8251SOL     OW25651   1.251   2.240   6.370
 8251SOL    HW125652   1.153   2.260   6.362
 8251SOL    HW225653   1.290   2.232   6.278
 8252SOL     OW25654   0.668   2.122   6.463
 8252SOL    HW125655   0.585   2.073   6.436
 8252SOL    HW225656   0.672   2.211   6.417
 8253SOL     OW25657   6.412   4.755   5.821
 8253SOL    HW125658   6.422   4.693   5.744
 8253SOL    HW225659   6.377   4.704   5.900
 8254SOL     OW25660   5.251   4.633   6.744
 8254SOL    HW125661   5.250   4.733   6.746
 8254SOL    HW225662   5.269   4.602   6.650
 8255SOL     OW25663   1.472   6.808   5.621
 8255SOL    HW125664   1.522   6.895   5.613
 8255SOL    HW225665   1.399   6.818   5.689
 8256SOL     OW25666   1.620   5.965   2.873
 8256SOL    HW125667   1.625   6.031   2.949
 8256SOL    HW225668   1.543   5.903   2.889
 8257SOL     OW25669   4.733   4.204   3.406
 8257SOL    HW125670   4.641   4.168   3.422
 8257SOL    HW225671   4.754   4.200   3.308
 8258SOL     OW25672   0.717   3.622   4.644
 8258SOL    HW125673   0.785   3.575   4.589
 8258SOL    HW225674   0.761   3.665   4.722
 8259SOL     OW25675   5.461   2.875   4.158
 8259SOL    HW125676   5.365   2.860   4.134
 8259SOL    HW225677   5.493   2.959   4.115
 8260SOL     OW25678   4.537   2.150   6.304
 8260SOL    HW125679   4.551   2.181   6.398
 8260SOL    HW225680   4.621   2.106   6.271
 8261SOL     OW25681   5.842   2.409   2.940
 8261SOL    HW125682   5.778   2.476   2.978
 8261SOL    HW225683   5.934   2.449   2.936
 8262SOL     OW25684   5.057   3.900   1.955
 8262SOL    HW125685   5.115   3.971   1.915
 8262SOL    HW225686   5.074   3.813   1.907
 8263SOL     OW25687   6.048   1.540   6.789
 8263SOL    HW125688   5.960   1.585   6.775
 8263SOL    HW225689   6.086   1.512   6.702
 8264SOL     OW25690   2.874   1.066   1.706
 8264SOL    HW125691   2.881   1.157   1.747
 8264SOL    HW225692   2.785   1.026   1.730
 8265SOL     OW25693   4.267   5.397   0.438
 8265SOL    HW125694   4.193   5.403   0.370
 8265SOL    HW225695   4.317   5.311   0.425
 8266SOL     OW25696   4.566   2.273   3.424
 8266SOL    HW125697   4.472   2.305   3.410
 8266SOL    HW225698   4.568   2.173   3.424
 8267SOL     OW25699   1.912   3.210   3.379
 8267SOL    HW125700   1.998   3.238   3.338
 8267SOL    HW225701   1.836   3.254   3.330
 8268SOL     OW25702   2.637   5.319   1.633
 8268SOL    HW125703   2.653   5.220   1.635
 8268SOL    HW225704   2.540   5.338   1.649
 8269SOL     OW25705   6.755   1.190   4.159
 8269SOL    HW125706   6.691   1.225   4.228
 8269SOL    HW225707   6.829   1.141   4.204
 8270SOL     OW25708   4.164   4.340   0.580
 8270SOL    HW125709   4.073   4.371   0.554
 8270SOL    HW225710   4.158   4.247   0.617
 8271SOL     OW25711   3.230   6.980   5.717
 8271SOL    HW125712   3.177   0.038   5.690
 8271SOL    HW225713   3.168   6.911   5.754
 8272SOL     OW25714   0.794   0.519   2.164
 8272SOL    HW125715   0.839   0.431   2.147
 8272SOL    HW225716   0.721   0.532   2.097
 8273SOL     OW25717   5.067   6.859   5.933
 8273SOL    HW125718   5.017   6.910   5.864
 8273SOL    HW225719   5.030   6.767   5.940
 8274SOL     OW25720   5.526   6.653   3.835
 8274SOL    HW125721   5.457   6.608   3.891
 8274SOL    HW225722   5.482   6.719   3.775
 8275SOL     OW25723   4.714   0.712   4.398
 8275SOL    HW125724   4.790   0.770   4.369
 8275SOL    HW225725   4.748   0.639   4.456
 8276SOL     OW25726   5.896   2.849   1.066
 8276SOL    HW125727   5.969   2.916   1.059
 8276SOL    HW225728   5.924   2.775   1.128
 8277SOL     OW25729   1.356   0.135   1.816
 8277SOL    HW125730   1.431   0.088   1.769
 8277SOL    HW225731   1.293   0.068   1.854
 8278SOL     OW25732   1.459   0.570   1.220
 8278SOL    HW125733   1.549   0.587   1.260
 8278SOL    HW225734   1.470   0.534   1.127
 8279SOL     OW25735   5.841   5.095   5.777
 8279SOL    HW125736   5.832   5.097   5.876
 8279SOL    HW225737   5.902   5.021   5.750
 8280SOL     OW25738   6.449   4.301   0.006
 8280SOL    HW125739   6.398   4.222   0.039
 8280SOL    HW225740   6.525   4.271   6.971
 8281SOL     OW25741   2.942   4.583   6.591
 8281SOL    HW125742   3.037   4.602   6.615
 8281SOL    HW225743   2.938   4.544   6.499
 8282SOL     OW25744   4.169   2.621   0.680
 8282SOL    HW125745   4.138   2.694   0.742
 8282SOL    HW225746   4.259   2.588   0.709
 8283SOL     OW25747   0.666   0.893   3.365
 8283SOL    HW125748   0.759   0.884   3.403
 8283SOL    HW225749   0.642   0.809   3.316
 8284SOL     OW25750   4.970   2.225   1.688
 8284SOL    HW125751   4.926   2.298   1.739
 8284SOL    HW225752   4.900   2.170   1.641
 8285SOL     OW25753   0.724   4.842   0.443
 8285SOL    HW125754   0.759   4.876   0.356
 8285SOL    HW225755   0.634   4.882   0.460
 8286SOL     OW25756   6.252   1.686   6.435
 8286SOL    HW125757   6.278   1.692   6.339
 8286SOL    HW225758   6.191   1.762   6.458
 8287SOL     OW25759   0.588   0.674   3.187
 8287SOL    HW125760   0.558   0.740   3.118
 8287SOL    HW225761   0.553   0.583   3.163
 8288SOL     OW25762   2.736   6.667   2.093
 8288SOL    HW125763   2.713   6.653   2.189
 8288SOL    HW225764   2.770   6.760   2.080
 8289SOL     OW25765   6.410   6.990   0.293
 8289SOL    HW125766   6.445   0.038   0.355
 8289SOL    HW225767   6.315   6.968   0.318
 8290SOL     OW25768   4.861   2.663   1.823
 8290SOL    HW125769   4.846   2.709   1.910
 8290SOL    HW225770   4.779   2.673   1.766
 8291SOL     OW25771   5.436   5.810   5.576
 8291SOL    HW125772   5.367   5.882   5.586
 8291SOL    HW225773   5.487   5.800   5.662
 8292SOL     OW25774   6.901   3.666   5.224
 8292SOL    HW125775   6.964   3.664   5.302
 8292SOL    HW225776   6.809   3.644   5.256
 8293SOL     OW25777   2.394   5.349   4.258
 8293SOL    HW125778   2.444   5.340   4.345
 8293SOL    HW225779   2.393   5.261   4.211
 8294SOL     OW25780   6.739   3.302   6.129
 8294SOL    HW125781   6.778   3.368   6.193
 8294SOL    HW225782   6.812   3.254   6.082
 8295SOL     OW25783   4.201   5.114   1.664
 8295SOL    HW125784   4.206   5.164   1.577
 8295SOL    HW225785   4.135   5.159   1.724
 8296SOL     OW25786   3.389   0.639   2.060
 8296SOL    HW125787   3.397   0.696   2.142
 8296SOL    HW225788   3.479   0.599   2.039
 8297SOL     OW25789   5.666   4.164   1.821
 8297SOL    HW125790   5.601   4.089   1.807
 8297SOL    HW225791   5.681   4.211   1.734
 8298SOL     OW25792   6.851   6.915   0.759
 8298SOL    HW125793   6.773   6.945   0.814
 8298SOL    HW225794   6.936   6.936   0.809
 8299SOL     OW25795   0.905   2.556   6.711
 8299SOL    HW125796   0.924   2.613   6.791
 8299SOL    HW225797   0.990   2.536   6.664
 8300SOL     OW25798   5.194   5.937   3.668
 8300SOL    HW125799   5.181   5.861   3.605
 8300SOL    HW225800   5.190   5.905   3.762
 8301SOL     OW25801   6.476   5.415   0.284
 8301SOL    HW125802   6.402   5.360   0.323
 8301SOL    HW225803   6.553   5.418   0.347
 8302SOL     OW25804   3.689   6.634   5.895
 8302SOL    HW125805   3.597   6.658   5.867
 8302SOL    HW225806   3.685   6.561   5.964
 8303SOL     OW25807   1.205   4.787   3.651
 8303SOL    HW125808   1.263   4.742   3.719
 8303SOL    HW225809   1.256   4.797   3.566
 8304SOL     OW25810   5.469   2.955   3.507
 8304SOL    HW125811   5.553   2.907   3.533
 8304SOL    HW225812   5.492   3.042   3.464
 8305SOL     OW25813   4.425   6.531   5.251
 8305SOL    HW125814   4.491   6.548   5.179
 8305SOL    HW225815   4.340   6.581   5.231
 8306SOL     OW25816   4.733   0.832   4.082
 8306SOL    HW125817   4.814   0.842   4.024
 8306SOL    HW225818   4.757   0.857   4.176
 8307SOL     OW25819   6.834   5.017   4.379
 8307SOL    HW125820   6.787   4.962   4.309
 8307SOL    HW225821   6.929   5.031   4.351
 8308SOL     OW25822   1.804   5.242   0.234
 8308SOL    HW125823   1.857   5.287   0.163
 8308SOL    HW225824   1.866   5.192   0.295
 8309SOL     OW25825   6.343   4.801   2.729
 8309SOL    HW125826   6.363   4.767   2.638
 8309SOL    HW225827   6.303   4.893   2.722
 8310SOL     OW25828   1.540   6.123   3.087
 8310SOL    HW125829   1.580   6.159   3.170
 8310SOL    HW225830   1.493   6.196   3.037
 8311SOL     OW25831   4.775   6.362   1.556
 8311SOL    HW125832   4.717   6.431   1.597
 8311SOL    HW225833   4.850   6.406   1.506
 8312SOL     OW25834   6.235   1.548   0.262
 8312SOL    HW125835   6.249   1.449   0.270
 8312SOL    HW225836   6.141   1.566   0.235
 8313SOL     OW25837   4.983   2.607   6.233
 8313SOL    HW125838   4.995   2.651   6.322
 8313SOL    HW225839   4.990   2.508   6.243
 8314SOL     OW25840   4.643   5.515   4.079
 8314SOL    HW125841   4.620   5.519   3.982
 8314SOL    HW225842   4.727   5.566   4.095
 8315SOL     OW25843   3.237   2.396   0.061
 8315SOL    HW125844   3.260   2.311   0.012
 8315SOL    HW225845   3.318   2.430   0.108
 8316SOL     OW25846   1.457   1.544   4.336
 8316SOL    HW125847   1.534   1.603   4.363
 8316SOL    HW225848   1.385   1.550   4.405
 8317SOL     OW25849   1.517   1.887   6.149
 8317SOL    HW125850   1.431   1.882   6.200
 8317SOL    HW225851   1.543   1.983   6.137
 8318SOL     OW25852   4.511   6.563   5.553
 8318SOL    HW125853   4.494   6.550   5.455
 8318SOL    HW225854   4.607   6.543   5.574
 8319SOL     OW25855   2.622   5.830   6.582
 8319SOL    HW125856   2.672   5.806   6.499
 8319SOL    HW225857   2.686   5.854   6.654
 8320SOL     OW25858   4.106   4.858   5.548
 8320SOL    HW125859   4.031   4.808   5.506
 8320SOL    HW225860   4.083   4.955   5.555
 8321SOL     OW25861   0.245   0.715   0.702
 8321SOL    HW125862   0.319   0.697   0.768
 8321SOL    HW225863   0.267   0.796   0.649
 8322SOL     OW25864   1.988   0.799   1.449
 8322SOL    HW125865   2.073   0.755   1.478
 8322SOL    HW225866   1.998   0.898   1.457
 8323SOL     OW25867   5.890   5.333   6.578
 8323SOL    HW125868   5.919   5.424   6.605
 8323SOL    HW225869   5.968   5.270   6.584
 8324SOL     OW25870   5.666   6.148   6.121
 8324SOL    HW125871   5.712   6.126   6.206
 8324SOL    HW225872   5.671   6.247   6.105
 8325SOL     OW25873   1.643   6.568   4.807
 8325SOL    HW125874   1.741   6.573   4.787
 8325SOL    HW225875   1.592   6.554   4.722
 8326SOL     OW25876   2.269   1.952   6.707
 8326SOL    HW125877   2.191   1.967   6.646
 8326SOL    HW225878   2.310   1.863   6.687
 8327SOL     OW25879   0.504   6.075   5.041
 8327SOL    HW125880   0.530   6.073   5.138
 8327SOL    HW225881   0.482   6.169   5.015
 8328SOL     OW25882   1.276   0.465   0.530
 8328SOL    HW125883   1.318   0.467   0.439
 8328SOL    HW225884   1.177   0.475   0.521
 8329SOL     OW25885   1.550   2.610   5.115
 8329SOL    HW125886   1.568   2.512   5.104
 8329SOL    HW225887   1.558   2.655   5.026
 8330SOL     OW25888   3.180   0.035   0.388
 8330SOL    HW125889   3.106   0.012   0.451
 8330SOL    HW225890   3.240   6.978   0.376
 8331SOL     OW25891   2.266   1.975   6.302
 8331SOL    HW125892   2.264   2.025   6.215
 8331SOL    HW225893   2.271   2.039   6.377
 8332SOL     OW25894   5.483   3.891   0.968
 8332SOL    HW125895   5.387   3.911   0.950
 8332SOL    HW225896   5.493   3.853   1.060
 8333SOL     OW25897   2.972   4.504   6.273
 8333SOL    HW125898   2.905   4.565   6.317
 8333SOL    HW225899   3.000   4.543   6.185
 8334SOL     OW25900   3.177   2.598   5.344
 8334SOL    HW125901   3.182   2.540   5.263
 8334SOL    HW225902   3.167   2.541   5.425
 8335SOL     OW25903   5.488   3.467   6.071
 8335SOL    HW125904   5.532   3.396   6.126
 8335SOL    HW225905   5.552   3.543   6.056
 8336SOL     OW25906   1.104   4.777   3.959
 8336SOL    HW125907   1.166   4.771   3.881
 8336SOL    HW225908   1.151   4.745   4.042
 8337SOL     OW25909   6.448   0.479   4.342
 8337SOL    HW125910   6.519   0.481   4.413
 8337SOL    HW225911   6.477   0.533   4.264
 8338SOL     OW25912   2.185   5.941   1.289
 8338SOL    HW125913   2.178   6.039   1.269
 8338SOL    HW225914   2.256   5.900   1.233
 8339SOL     OW25915   6.489   0.821   2.163
 8339SOL    HW125916   6.481   0.888   2.237
 8339SOL    HW225917   6.584   0.792   2.154
 8340SOL     OW25918   5.855   2.650   6.485
 8340SOL    HW125919   5.926   2.628   6.552
 8340SOL    HW225920   5.792   2.717   6.525
 8341SOL     OW25921   3.318   0.378   0.907
 8341SOL    HW125922   3.310   0.478   0.915
 8341SOL    HW225923   3.363   0.342   0.989
 8342SOL     OW25924   4.584   1.066   1.087
 8342SOL    HW125925   4.550   1.131   1.154
 8342SOL    HW225926   4.672   1.097   1.051
 8343SOL     OW25927   4.792   5.920   2.607
 8343SOL    HW125928   4.821   5.874   2.523
 8343SOL    HW225929   4.864   5.913   2.676
 8344SOL     OW25930   2.303   4.509   6.158
 8344SOL    HW125931   2.359   4.437   6.116
 8344SOL    HW225932   2.206   4.489   6.144
 8345SOL     OW25933   6.436   0.144   4.354
 8345SOL    HW125934   6.455   0.131   4.256
 8345SOL    HW225935   6.435   0.055   4.399
 8346SOL     OW25936   6.223   4.017   3.634
 8346SOL    HW125937   6.280   4.082   3.584
 8346SOL    HW225938   6.161   3.971   3.571
 8347SOL     OW25939   1.310   1.741   6.528
 8347SOL    HW125940   1.217   1.708   6.508
 8347SOL    HW225941   1.373   1.664   6.525
 8348SOL     OW25942   3.260   5.811   1.081
 8348SOL    HW125943   3.308   5.758   1.011
 8348SOL    HW225944   3.256   5.759   1.166
 8349SOL     OW25945   4.598   5.574   1.396
 8349SOL    HW125946   4.603   5.638   1.319
 8349SOL    HW225947   4.635   5.486   1.368
 8350SOL     OW25948   2.043   0.642   6.871
 8350SOL    HW125949   2.079   0.605   6.786
 8350SOL    HW225950   1.951   0.606   6.887
 8351SOL     OW25951   6.684   2.693   2.998
 8351SOL    HW125952   6.601   2.722   2.950
 8351SOL    HW225953   6.701   2.755   3.075
 8352SOL     OW25954   2.943   6.645   6.623
 8352SOL    HW125955   2.879   6.584   6.577
 8352SOL    HW225956   3.031   6.599   6.635
 8353SOL     OW25957   0.599   5.534   2.747
 8353SOL    HW125958   0.535   5.495   2.814
 8353SOL    HW225959   0.671   5.584   2.795
 8354SOL     OW25960   4.478   2.226   3.793
 8354SOL    HW125961   4.557   2.273   3.754
 8354SOL    HW225962   4.501   2.130   3.809
 8355SOL     OW25963   3.085   5.179   6.226
 8355SOL    HW125964   3.121   5.200   6.135
 8355SOL    HW225965   3.128   5.095   6.259
 8356SOL     OW25966   2.849   3.655   1.385
 8356SOL    HW125967   2.808   3.587   1.324
 8356SOL    HW225968   2.788   3.672   1.462
 8357SOL     OW25969   2.961   6.899   4.727
 8357SOL    HW125970   3.018   6.818   4.711
 8357SOL    HW225971   3.017   6.981   4.718
 8358SOL     OW25972   0.050   0.019   4.606
 8358SOL    HW125973   6.993   0.028   4.666
 8358SOL    HW225974   0.133   0.017   4.662
 8359SOL     OW25975   4.933   1.952   5.254
 8359SOL    HW125976   5.019   1.909   5.226
 8359SOL    HW225977   4.952   2.041   5.295
 8360SOL     OW25978   3.194   0.286   1.867
 8360SOL    HW125979   3.238   0.199   1.844
 8360SOL    HW225980   3.236   0.360   1.815
 8361SOL     OW25981   4.720   1.193   0.005
 8361SOL    HW125982   4.622   1.172   0.014
 8361SOL    HW225983   4.731   1.287   6.998
 8362SOL     OW25984   0.855   4.253   1.333
 8362SOL    HW125985   0.787   4.313   1.291
 8362SOL    HW225986   0.917   4.307   1.390
 8363SOL     OW25987   2.037   2.268   1.156
 8363SOL    HW125988   2.020   2.262   1.254
 8363SOL    HW225989   1.992   2.191   1.110
 8364SOL     OW25990   0.404   1.447   3.611
 8364SOL    HW125991   0.436   1.465   3.519
 8364SOL    HW225992   0.312   1.484   3.623
 8365SOL     OW25993   2.180   2.967   1.212
 8365SOL    HW125994   2.182   2.915   1.126
 8365SOL    HW225995   2.125   2.918   1.280
 8366SOL     OW25996   5.328   5.698   1.905
 8366SOL    HW125997   5.270   5.632   1.954
 8366SOL    HW225998   5.274   5.778   1.880
 8367SOL     OW25999   1.968   4.222   3.269
 8367SOL    HW126000   1.961   4.234   3.368
 8367SOL    HW226001   2.059   4.190   3.246
 8368SOL     OW26002   0.356   3.567   6.415
 8368SOL    HW126003   0.396   3.510   6.343
 8368SOL    HW226004   0.398   3.658   6.413
 8369SOL     OW26005   1.216   0.109   0.222
 8369SOL    HW126006   1.315   0.113   0.230
 8369SOL    HW226007   1.180   0.038   0.282
 8370SOL     OW26008   3.198   3.207   0.452
 8370SOL    HW126009   3.211   3.128   0.391
 8370SOL    HW226010   3.199   3.175   0.547
 8371SOL     OW26011   2.935   3.984   5.456
 8371SOL    HW126012   2.973   4.062   5.505
 8371SOL    HW226013   3.004   3.912   5.449
 8372SOL     OW26014   1.491   6.891   2.359
 8372SOL    HW126015   1.426   6.961   2.328
 8372SOL    HW226016   1.583   6.930   2.362
 8373SOL     OW26017   5.288   1.190   3.709
 8373SOL    HW126018   5.359   1.154   3.769
 8373SOL    HW226019   5.235   1.115   3.671
 8374SOL     OW26020   0.660   1.736   3.381
 8374SOL    HW126021   0.662   1.820   3.435
 8374SOL    HW226022   0.575   1.732   3.329
 8375SOL     OW26023   1.527   2.696   5.414
 8375SOL    HW126024   1.529   2.607   5.459
 8375SOL    HW226025   1.593   2.698   5.339
 8376SOL     OW26026   0.980   1.927   4.414
 8376SOL    HW126027   0.984   1.898   4.318
 8376SOL    HW226028   0.895   1.895   4.455
 8377SOL     OW26029   3.143   5.307   1.350
 8377SOL    HW126030   3.140   5.287   1.448
 8377SOL    HW226031   3.205   5.243   1.305
 8378SOL     OW26032   4.317   5.278   4.461
 8378SOL    HW126033   4.302   5.336   4.381
 8378SOL    HW226034   4.395   5.313   4.513
 8379SOL     OW26035   5.833   2.637   2.243
 8379SOL    HW126036   5.798   2.724   2.208
 8379SOL    HW226037   5.910   2.607   2.187
 8380SOL     OW26038   1.416   5.574   2.524
 8380SOL    HW126039   1.398   5.527   2.610
 8380SOL    HW226040   1.480   5.649   2.540
 8381SOL     OW26041   1.295   2.205   2.904
 8381SOL    HW126042   1.251   2.294   2.915
 8381SOL    HW226043   1.317   2.191   2.807
 8382SOL     OW26044   0.856   6.724   1.612
 8382SOL    HW126045   0.852   6.823   1.597
 8382SOL    HW226046   0.892   6.680   1.530
 8383SOL     OW26047   2.407   7.022   5.071
 8383SOL    HW126048   2.449   6.966   5.142
 8383SOL    HW226049   2.473   0.067   5.038
 8384SOL     OW26050   0.261   3.264   3.658
 8384SOL    HW126051   0.285   3.271   3.561
 8384SOL    HW226052   0.268   3.355   3.700
 8385SOL     OW26053   4.483   2.456   2.214
 8385SOL    HW126054   4.395   2.413   2.232
 8385SOL    HW226055   4.480   2.501   2.124
 8386SOL     OW26056   0.171   5.329   1.709
 8386SOL    HW126057   0.254   5.342   1.655
 8386SOL    HW226058   0.195   5.310   1.804
 8387SOL     OW26059   0.376   2.123   3.518
 8387SOL    HW126060   0.434   2.175   3.581
 8387SOL    HW226061   0.425   2.110   3.432
 8388SOL     OW26062   3.791   5.599   1.566
 8388SOL    HW126063   3.763   5.506   1.590
 8388SOL    HW226064   3.754   5.663   1.635
 8389SOL     OW26065   1.575   2.677   4.856
 8389SOL    HW126066   1.632   2.609   4.811
 8389SOL    HW226067   1.596   2.768   4.819
 8390SOL     OW26068   2.649   0.254   6.537
 8390SOL    HW126069   2.706   0.265   6.455
 8390SOL    HW226070   2.695   0.297   6.615
 8391SOL     OW26071   4.486   6.408   0.974
 8391SOL    HW126072   4.496   6.505   0.950
 8391SOL    HW226073   4.398   6.374   0.942
 8392SOL     OW26074   3.961   5.419   0.376
 8392SOL    HW126075   3.962   5.319   0.376
 8392SOL    HW226076   3.921   5.452   0.462
 8393SOL     OW26077   1.231   5.770   2.071
 8393SOL    HW126078   1.318   5.804   2.108
 8393SOL    HW226079   1.249   5.693   2.009
 8394SOL     OW26080   1.570   1.326   3.384
 8394SOL    HW126081   1.494   1.389   3.402
 8394SOL    HW226082   1.581   1.315   3.285
 8395SOL     OW26083   1.927   6.088   6.204
 8395SOL    HW126084   1.833   6.056   6.217
 8395SOL    HW226085   1.951   6.080   6.107
 8396SOL     OW26086   4.299   2.618   1.075
 8396SOL    HW126087   4.293   2.698   1.015
 8396SOL    HW226088   4.385   2.570   1.058
 8397SOL     OW26089   1.259   4.344   3.430
 8397SOL    HW126090   1.337   4.335   3.491
 8397SOL    HW226091   1.174   4.338   3.482
 8398SOL     OW26092   5.351   1.625   6.523
 8398SOL    HW126093   5.361   1.538   6.474
 8398SOL    HW226094   5.437   1.649   6.567
 8399SOL     OW26095   5.586   6.337   5.634
 8399SOL    HW126096   5.533   6.421   5.622
 8399SOL    HW226097   5.596   6.291   5.546
 8400SOL     OW26098   6.407   6.516   3.809
 8400SOL    HW126099   6.449   6.442   3.862
 8400SOL    HW226100   6.352   6.573   3.869
 8401SOL     OW26101   2.949   3.821   4.998
 8401SOL    HW126102   2.890   3.880   5.053
 8401SOL    HW226103   2.912   3.814   4.906
 8402SOL     OW26104   4.816   0.830   5.229
 8402SOL    HW126105   4.749   0.845   5.302
 8402SOL    HW226106   4.902   0.797   5.268
 8403SOL     OW26107   0.814   2.701   5.920
 8403SOL    HW126108   0.843   2.606   5.924
 8403SOL    HW226109   0.838   2.747   6.006
 8404SOL     OW26110   4.603   5.422   5.882
 8404SOL    HW126111   4.672   5.458   5.818
 8404SOL    HW226112   4.590   5.325   5.864
 8405SOL     OW26113   1.559   2.410   5.443
 8405SOL    HW126114   1.511   2.361   5.515
 8405SOL    HW226115   1.531   2.374   5.354
 8406SOL     OW26116   5.913   3.206   1.606
 8406SOL    HW126117   5.901   3.164   1.697
 8406SOL    HW226118   5.851   3.284   1.598
 8407SOL     OW26119   4.955   3.563   2.528
 8407SOL    HW126120   4.897   3.573   2.447
 8407SOL    HW226121   4.916   3.616   2.603
 8408SOL     OW26122   4.936   4.154   4.077
 8408SOL    HW126123   4.881   4.096   4.137
 8408SOL    HW226124   4.921   4.250   4.102
 8409SOL     OW26125   1.501   1.678   3.919
 8409SOL    HW126126   1.515   1.709   3.825
 8409SOL    HW226127   1.550   1.739   3.982
 8410SOL     OW26128   1.883   5.171   2.719
 8410SOL    HW126129   1.931   5.192   2.805
 8410SOL    HW226130   1.949   5.135   2.653
 8411SOL     OW26131   1.612   3.269   3.284
 8411SOL    HW126132   1.590   3.355   3.239
 8411SOL    HW226133   1.527   3.224   3.314
 8412SOL     OW26134   6.114   2.824   2.239
 8412SOL    HW126135   6.075   2.805   2.330
 8412SOL    HW226136   6.213   2.821   2.245
 8413SOL     OW26137   2.225   5.207   0.942
 8413SOL    HW126138   2.264   5.271   0.875
 8413SOL    HW226139   2.238   5.113   0.909
 8414SOL     OW26140   5.657   0.525   3.981
 8414SOL    HW126141   5.715   0.604   3.959
 8414SOL    HW226142   5.715   0.446   4.002
 8415SOL     OW26143   0.010   4.623   1.120
 8415SOL    HW126144   0.023   4.722   1.107
 8415SOL    HW226145   0.071   4.591   1.192
 8416SOL     OW26146   4.491   4.404   2.731
 8416SOL    HW126147   4.563   4.348   2.692
 8416SOL    HW226148   4.437   4.445   2.658
 8417SOL     OW26149   1.251   5.236   0.437
 8417SOL    HW126150   1.231   5.140   0.454
 8417SOL    HW226151   1.350   5.250   0.436
 8418SOL     OW26152   5.734   5.561   2.598
 8418SOL    HW126153   5.726   5.505   2.681
 8418SOL    HW226154   5.648   5.557   2.548
 8419SOL     OW26155   3.986   0.876   3.821
 8419SOL    HW126156   3.989   0.975   3.836
 8419SOL    HW226157   3.919   0.834   3.883
 8420SOL     OW26158   4.495   1.892   5.481
 8420SOL    HW126159   4.550   1.960   5.433
 8420SOL    HW226160   4.425   1.856   5.419
 8421SOL     OW26161   0.566   1.508   0.831
 8421SOL    HW126162   0.635   1.567   0.874
 8421SOL    HW226163   0.609   1.424   0.800
 8422SOL     OW26164   2.780   0.280   1.748
 8422SOL    HW126165   2.828   0.302   1.833
 8422SOL    HW226166   2.682   0.278   1.764
 8423SOL     OW26167   2.136   4.374   0.984
 8423SOL    HW126168   2.103   4.366   0.890
 8423SOL    HW226169   2.201   4.300   1.003
 8424SOL     OW26170   2.945   2.363   1.471
 8424SOL    HW126171   2.979   2.339   1.562
 8424SOL    HW226172   2.925   2.461   1.468
 8425SOL     OW26173   0.328   4.819   5.952
 8425SOL    HW126174   0.366   4.758   6.022
 8425SOL    HW226175   0.340   4.778   5.862
 8426SOL     OW26176   3.391   3.401   2.505
 8426SOL    HW126177   3.322   3.376   2.437
 8426SOL    HW226178   3.365   3.488   2.548
 8427SOL     OW26179   1.880   2.422   6.984
 8427SOL    HW126180   1.945   2.348   6.964
 8427SOL    HW226181   1.910   2.470   0.044
 8428SOL     OW26182   6.475   4.140   0.600
 8428SOL    HW126183   6.444   4.143   0.695
 8428SOL    HW226184   6.553   4.077   0.593
 8429SOL     OW26185   1.494   6.775   3.087
 8429SOL    HW126186   1.459   6.861   3.050
 8429SOL    HW226187   1.594   6.776   3.087
 8430SOL     OW26188   4.243   5.494   2.682
 8430SOL    HW126189   4.333   5.453   2.701
 8430SOL    HW226190   4.172   5.424   2.694
 8431SOL     OW26191   2.846   3.447   2.558
 8431SOL    HW126192   2.850   3.520   2.625
 8431SOL    HW226193   2.804   3.366   2.599
 8432SOL     OW26194   4.543   6.355   7.019
 8432SOL    HW126195   4.460   6.303   6.997
 8432SOL    HW226196   4.552   6.363   0.096
 8433SOL     OW26197   0.135   1.236   3.799
 8433SOL    HW126198   0.040   1.257   3.819
 8433SOL    HW226199   0.151   1.246   3.701
 8434SOL     OW26200   5.779   6.820   6.426
 8434SOL    HW126201   5.866   6.863   6.401
 8434SOL    HW226202   5.748   6.856   6.514
 8435SOL     OW26203   4.783   2.781   0.812
 8435SOL    HW126204   4.803   2.768   0.909
 8435SOL    HW226205   4.864   2.820   0.766
 8436SOL     OW26206   3.013   4.316   1.680
 8436SOL    HW126207   2.955   4.362   1.748
 8436SOL    HW226208   3.105   4.356   1.683
 8437SOL     OW26209   6.968   2.464   1.098
 8437SOL    HW126210   6.925   2.432   1.183
 8437SOL    HW226211   6.955   2.395   1.027
 8438SOL     OW26212   2.217   5.505   1.067
 8438SOL    HW126213   2.243   5.503   1.163
 8438SOL    HW226214   2.124   5.470   1.056
 8439SOL     OW26215   5.544   0.607   1.671
 8439SOL    HW126216   5.505   0.699   1.668
 8439SOL    HW226217   5.470   0.540   1.680
 8440SOL     OW26218   1.387   3.066   4.128
 8440SOL    HW126219   1.308   3.047   4.187
 8440SOL    HW226220   1.464   3.096   4.184
 8441SOL     OW26221   4.267   5.947   1.310
 8441SOL    HW126222   4.213   5.910   1.235
 8441SOL    HW226223   4.215   5.941   1.396
 8442SOL     OW26224   2.405   2.199   1.039
 8442SOL    HW126225   2.485   2.258   1.039
 8442SOL    HW226226   2.344   2.226   1.113
 8443SOL     OW26227   0.064   1.724   1.354
 8443SOL    HW126228   0.014   1.807   1.377
 8443SOL    HW226229   0.081   1.721   1.255
 8444SOL     OW26230   4.865   1.786   3.358
 8444SOL    HW126231   4.816   1.756   3.276
 8444SOL    HW226232   4.888   1.883   3.350
 8445SOL     OW26233   5.143   5.540   2.013
 8445SOL    HW126234   5.214   5.491   2.063
 8445SOL    HW226235   5.056   5.490   2.022
 8446SOL     OW26236   6.506   3.754   2.941
 8446SOL    HW126237   6.436   3.785   2.877
 8446SOL    HW226238   6.463   3.722   3.025
 8447SOL     OW26239   4.745   4.516   1.320
 8447SOL    HW126240   4.814   4.449   1.292
 8447SOL    HW226241   4.700   4.485   1.403
 8448SOL     OW26242   2.054   4.078   5.781
 8448SOL    HW126243   2.115   4.017   5.833
 8448SOL    HW226244   1.962   4.040   5.781
 8449SOL     OW26245   1.163   0.446   5.002
 8449SOL    HW126246   1.076   0.439   4.952
 8449SOL    HW226247   1.154   0.518   5.071
 8450SOL     OW26248   1.882   5.420   0.910
 8450SOL    HW126249   1.951   5.378   0.852
 8450SOL    HW226250   1.791   5.393   0.879
 8451SOL     OW26251   3.048   3.621   0.634
 8451SOL    HW126252   3.122   3.573   0.681
 8451SOL    HW226253   3.087   3.689   0.572
 8452SOL     OW26254   0.247   5.765   1.746
 8452SOL    HW126255   0.182   5.720   1.684
 8452SOL    HW226256   0.221   5.747   1.841
 8453SOL     OW26257   6.835   4.835   5.083
 8453SOL    HW126258   6.914   4.885   5.049
 8453SOL    HW226259   6.816   4.757   5.023
 8454SOL     OW26260   2.187   0.196   5.001
 8454SOL    HW126261   2.275   0.161   5.033
 8454SOL    HW226262   2.174   0.170   4.905
 8455SOL     OW26263   6.483   3.200   0.660
 8455SOL    HW126264   6.577   3.167   0.658
 8455SOL    HW226265   6.460   3.231   0.752
 8456SOL     OW26266   5.438   5.047   3.693
 8456SOL    HW126267   5.496   4.981   3.645
 8456SOL    HW226268   5.400   5.004   3.775
 8457SOL     OW26269   6.728   6.395   5.654
 8457SOL    HW126270   6.797   6.415   5.723
 8457SOL    HW226271   6.737   6.461   5.579
 8458SOL     OW26272   1.437   1.749   1.056
 8458SOL    HW126273   1.461   1.774   1.150
 8458SOL    HW226274   1.431   1.831   0.999
 8459SOL     OW26275   2.582   5.283   3.472
 8459SOL    HW126276   2.619   5.370   3.504
 8459SOL    HW226277   2.581   5.282   3.372
 8460SOL     OW26278   3.362   1.548   1.596
 8460SOL    HW126279   3.435   1.514   1.655
 8460SOL    HW226280   3.317   1.626   1.641
 8461SOL     OW26281   5.309   3.976   3.301
 8461SOL    HW126282   5.299   4.023   3.213
 8461SOL    HW226283   5.403   3.986   3.334
 8462SOL     OW26284   1.770   3.853   0.755
 8462SOL    HW126285   1.671   3.865   0.749
 8462SOL    HW226286   1.790   3.757   0.772
 8463SOL     OW26287   0.371   7.017   1.235
 8463SOL    HW126288   0.309   6.999   1.311
 8463SOL    HW226289   0.415   6.932   1.206
 8464SOL     OW26290   6.907   2.810   6.612
 8464SOL    HW126291   6.997   2.851   6.600
 8464SOL    HW226292   6.847   2.874   6.659
 8465SOL     OW26293   5.205   4.482   0.711
 8465SOL    HW126294   5.267   4.512   0.783
 8465SOL    HW226295   5.253   4.486   0.623
 8466SOL     OW26296   0.476   1.514   5.443
 8466SOL    HW126297   0.486   1.611   5.465
 8466SOL    HW226298   0.564   1.477   5.414
 8467SOL     OW26299   3.244   1.327   0.601
 8467SOL    HW126300   3.260   1.414   0.647
 8467SOL    HW226301   3.172   1.277   0.649
 8468SOL     OW26302   5.852   4.194   0.381
 8468SOL    HW126303   5.825   4.160   0.471
 8468SOL    HW226304   5.823   4.129   0.310
 8469SOL     OW26305   3.443   2.993   5.233
 8469SOL    HW126306   3.480   3.005   5.141
 8469SOL    HW226307   3.351   3.034   5.237
 8470SOL     OW26308   1.712   5.439   1.374
 8470SOL    HW126309   1.799   5.414   1.331
 8470SOL    HW226310   1.722   5.529   1.417
 8471SOL     OW26311   4.163   1.432   3.417
 8471SOL    HW126312   4.105   1.353   3.433
 8471SOL    HW226313   4.222   1.447   3.496
 8472SOL     OW26314   5.543   2.066   6.481
 8472SOL    HW126315   5.539   2.048   6.383
 8472SOL    HW226316   5.473   2.011   6.528
 8473SOL     OW26317   5.070   5.076   5.865
 8473SOL    HW126318   5.128   5.157   5.856
 8473SOL    HW226319   5.096   5.009   5.795
 8474SOL     OW26320   3.271   3.777   5.701
 8474SOL    HW126321   3.212   3.753   5.778
 8474SOL    HW226322   3.350   3.828   5.735
 8475SOL     OW26323   0.466   2.517   2.487
 8475SOL    HW126324   0.425   2.484   2.402
 8475SOL    HW226325   0.418   2.599   2.517
 8476SOL     OW26326   6.458   1.047   2.357
 8476SOL    HW126327   6.499   1.118   2.299
 8476SOL    HW226328   6.371   1.081   2.394
 8477SOL     OW26329   5.573   0.311   0.877
 8477SOL    HW126330   5.547   0.217   0.856
 8477SOL    HW226331   5.568   0.366   0.793
 8478SOL     OW26332   1.188   6.699   6.211
 8478SOL    HW126333   1.186   6.756   6.129
 8478SOL    HW226334   1.225   6.751   6.288
 8479SOL     OW26335   0.818   2.738   0.163
 8479SOL    HW126336   0.789   2.706   0.253
 8479SOL    HW226337   0.739   2.773   0.113
 8480SOL     OW26338   2.970   4.381   1.317
 8480SOL    HW126339   2.976   4.462   1.258
 8480SOL    HW226340   2.876   4.372   1.350
 8481SOL     OW26341   4.860   3.241   2.823
 8481SOL    HW126342   4.928   3.291   2.876
 8481SOL    HW226343   4.851   3.148   2.859
 8482SOL     OW26344   4.754   0.344   6.102
 8482SOL    HW126345   4.695   0.424   6.086
 8482SOL    HW226346   4.743   0.314   6.197
 8483SOL     OW26347   4.239   5.143   3.431
 8483SOL    HW126348   4.306   5.068   3.435
 8483SOL    HW226349   4.148   5.107   3.451
 8484SOL     OW26350   6.610   6.505   5.097
 8484SOL    HW126351   6.670   6.428   5.121
 8484SOL    HW226352   6.647   6.551   5.016
 8485SOL     OW26353   4.170   0.606   5.665
 8485SOL    HW126354   4.191   0.625   5.761
 8485SOL    HW226355   4.093   0.542   5.660
 8486SOL     OW26356   5.129   2.135   4.198
 8486SOL    HW126357   5.037   2.173   4.189
 8486SOL    HW226358   5.180   2.151   4.113
 8487SOL     OW26359   6.606   2.013   6.571
 8487SOL    HW126360   6.572   1.919   6.570
 8487SOL    HW226361   6.684   2.021   6.509
 8488SOL     OW26362   3.825   4.849   2.437
 8488SOL    HW126363   3.779   4.839   2.349
 8488SOL    HW226364   3.756   4.855   2.510
 8489SOL     OW26365   6.528   1.769   2.022
 8489SOL    HW126366   6.599   1.837   2.006
 8489SOL    HW226367   6.443   1.815   2.050
 8490SOL     OW26368   3.325   6.790   0.618
 8490SOL    HW126369   3.313   6.792   0.518
 8490SOL    HW226370   3.400   6.729   0.641
 8491SOL     OW26371   3.392   5.629   2.232
 8491SOL    HW126372   3.461   5.573   2.186
 8491SOL    HW226373   3.301   5.591   2.213
 8492SOL     OW26374   5.866   6.323   3.827
 8492SOL    HW126375   5.776   6.327   3.872
 8492SOL    HW226376   5.897   6.228   3.823
 8493SOL     OW26377   5.273   0.558   5.472
 8493SOL    HW126378   5.232   0.566   5.563
 8493SOL    HW226379   5.304   0.464   5.459
 8494SOL     OW26380   0.122   3.353   2.009
 8494SOL    HW126381   0.220   3.369   1.997
 8494SOL    HW226382   0.100   3.352   2.107
 8495SOL     OW26383   5.743   5.969   5.517
 8495SOL    HW126384   5.747   5.870   5.533
 8495SOL    HW226385   5.728   6.016   5.604
 8496SOL     OW26386   4.452   1.780   2.594
 8496SOL    HW126387   4.475   1.698   2.541
 8496SOL    HW226388   4.537   1.821   2.629
 8497SOL     OW26389   6.175   0.858   2.806
 8497SOL    HW126390   6.210   0.767   2.784
 8497SOL    HW226391   6.206   0.884   2.897
 8498SOL     OW26392   4.452   6.420   4.104
 8498SOL    HW126393   4.378   6.434   4.170
 8498SOL    HW226394   4.438   6.332   4.057
 8499SOL     OW26395   6.175   6.983   5.180
 8499SOL    HW126396   6.142   0.054   5.168
 8499SOL    HW226397   6.215   6.974   5.271
 8500SOL     OW26398   1.275   0.512   6.708
 8500SOL    HW126399   1.229   0.423   6.713
 8500SOL    HW226400   1.368   0.504   6.745
 8501SOL     OW26401   3.442   1.224   5.095
 8501SOL    HW126402   3.404   1.217   5.003
 8501SOL    HW226403   3.530   1.177   5.099
 8502SOL     OW26404   6.567   3.036   0.146
 8502SOL    HW126405   6.563   2.945   0.185
 8502SOL    HW226406   6.662   3.069   0.148
 8503SOL     OW26407   4.728   2.370   5.894
 8503SOL    HW126408   4.645   2.316   5.882
 8503SOL    HW226409   4.773   2.343   5.980
 8504SOL     OW26410   1.184   7.013   3.394
 8504SOL    HW126411   1.133   0.071   3.363
 8504SOL    HW226412   1.139   6.930   3.360
 8505SOL     OW26413   5.680   1.981   2.488
 8505SOL    HW126414   5.591   1.954   2.451
 8505SOL    HW226415   5.694   2.079   2.475
 8506SOL     OW26416   1.890   0.867   5.527
 8506SOL    HW126417   1.833   0.913   5.595
 8506SOL    HW226418   1.913   0.775   5.559
 8507SOL     OW26419   4.364   4.619   5.846
 8507SOL    HW126420   4.452   4.572   5.853
 8507SOL    HW226421   4.378   4.711   5.809
 8508SOL     OW26422   3.817   0.606   6.323
 8508SOL    HW126423   3.873   0.639   6.399
 8508SOL    HW226424   3.722   0.631   6.337
 8509SOL     OW26425   4.758   2.196   2.269
 8509SOL    HW126426   4.730   2.230   2.179
 8509SOL    HW226427   4.677   2.165   2.319
 8510SOL     OW26428   1.109   2.153   4.813
 8510SOL    HW126429   1.207   2.161   4.794
 8510SOL    HW226430   1.060   2.144   4.726
 8511SOL     OW26431   5.470   2.273   3.902
 8511SOL    HW126432   5.454   2.348   3.965
 8511SOL    HW226433   5.436   2.298   3.811
 8512SOL     OW26434   1.858   6.570   5.712
 8512SOL    HW126435   1.771   6.583   5.664
 8512SOL    HW226436   1.919   6.515   5.656
 8513SOL     OW26437   4.371   5.171   0.012
 8513SOL    HW126438   4.299   5.147   6.968
 8513SOL    HW226439   4.460   5.162   6.990
 8514SOL     OW26440   3.382   5.888   4.844
 8514SOL    HW126441   3.290   5.921   4.822
 8514SOL    HW226442   3.413   5.826   4.772
 8515SOL     OW26443   5.405   2.909   1.768
 8515SOL    HW126444   5.449   2.985   1.719
 8515SOL    HW226445   5.371   2.942   1.856
 8516SOL     OW26446   6.970   1.582   1.580
 8516SOL    HW126447   6.914   1.501   1.559
 8516SOL    HW226448   6.995   1.628   1.495
 8517SOL     OW26449   1.562   3.728   5.037
 8517SOL    HW126450   1.635   3.762   5.096
 8517SOL    HW226451   1.535   3.637   5.067
 8518SOL     OW26452   3.157   6.023   0.941
 8518SOL    HW126453   3.247   6.065   0.927
 8518SOL    HW226454   3.169   5.931   0.979
 8519SOL     OW26455   2.733   5.465   3.588
 8519SOL    HW126456   2.793   5.453   3.509
 8519SOL    HW226457   2.763   5.544   3.641
 8520SOL     OW26458   3.733   6.435   6.758
 8520SOL    HW126459   3.732   6.335   6.755
 8520SOL    HW226460   3.655   6.468   6.812
 8521SOL     OW26461   1.651   1.259   2.496
 8521SOL    HW126462   1.726   1.253   2.431
 8521SOL    HW226463   1.613   1.168   2.512
 8522SOL     OW26464   1.927   6.538   4.766
 8522SOL    HW126465   1.928   6.451   4.716
 8522SOL    HW226466   1.978   6.528   4.851
 8523SOL     OW26467   1.923   6.334   0.096
 8523SOL    HW126468   2.010   6.316   0.050
 8523SOL    HW226469   1.900   6.431   0.087
 8524SOL     OW26470   1.679   1.755   0.290
 8524SOL    HW126471   1.675   1.679   0.225
 8524SOL    HW226472   1.705   1.839   0.242
 8525SOL     OW26473   5.289   4.194   4.136
 8525SOL    HW126474   5.272   4.280   4.184
 8525SOL    HW226475   5.312   4.123   4.202
 8526SOL     OW26476   0.806   3.530   1.764
 8526SOL    HW126477   0.804   3.628   1.743
 8526SOL    HW226478   0.729   3.508   1.824
 8527SOL     OW26479   4.728   0.183   4.425
 8527SOL    HW126480   4.814   0.167   4.474
 8527SOL    HW226481   4.731   0.273   4.382
 8528SOL     OW26482   5.380   0.683   0.295
 8528SOL    HW126483   5.349   0.747   0.225
 8528SOL    HW226484   5.323   0.601   0.293
 8529SOL     OW26485   6.984   6.749   5.039
 8529SOL    HW126486   0.051   6.704   5.054
 8529SOL    HW226487   6.998   6.836   4.993
 8530SOL     OW26488   1.983   4.540   6.223
 8530SOL    HW126489   1.995   4.450   6.264
 8530SOL    HW226490   2.003   4.536   6.125
 8531SOL     OW26491   4.066   5.267   1.841
 8531SOL    HW126492   4.017   5.238   1.923
 8531SOL    HW226493   4.045   5.363   1.822
 8532SOL     OW26494   1.588   4.053   0.094
 8532SOL    HW126495   1.613   4.021   0.003
 8532SOL    HW226496   1.541   3.980   0.144
 8533SOL     OW26497   3.445   6.693   5.819
 8533SOL    HW126498   3.381   6.617   5.826
 8533SOL    HW226499   3.430   6.742   5.733
 8534SOL     OW26500   2.079   2.189   0.632
 8534SOL    HW126501   2.170   2.176   0.672
 8534SOL    HW226502   2.010   2.185   0.704
 8535SOL     OW26503   0.627   3.290   5.877
 8535SOL    HW126504   0.673   3.364   5.926
 8535SOL    HW226505   0.694   3.222   5.849
 8536SOL     OW26506   6.309   0.185   6.182
 8536SOL    HW126507   6.383   0.173   6.116
 8536SOL    HW226508   6.227   0.219   6.136
 8537SOL     OW26509   4.364   6.294   3.100
 8537SOL    HW126510   4.339   6.313   3.005
 8537SOL    HW226511   4.407   6.204   3.107
 8538SOL     OW26512   4.573   0.362   5.193
 8538SOL    HW126513   4.582   0.276   5.142
 8538SOL    HW226514   4.480   0.396   5.187
 8539SOL     OW26515   0.599   3.070   3.402
 8539SOL    HW126516   0.607   3.163   3.439
 8539SOL    HW226517   0.555   3.073   3.313
 8540SOL     OW26518   4.853   6.431   6.342
 8540SOL    HW126519   4.897   6.388   6.420
 8540SOL    HW226520   4.821   6.360   6.279
 8541SOL     OW26521   2.761   5.959   5.918
 8541SOL    HW126522   2.718   5.929   5.833
 8541SOL    HW226523   2.792   5.878   5.969
 8542SOL     OW26524   1.767   4.703   6.014
 8542SOL    HW126525   1.796   4.785   6.064
 8542SOL    HW226526   1.736   4.634   6.080
 8543SOL     OW26527   3.506   1.951   5.386
 8543SOL    HW126528   3.527   1.882   5.317
 8543SOL    HW226529   3.407   1.954   5.402
 8544SOL     OW26530   5.720   3.684   5.201
 8544SOL    HW126531   5.764   3.635   5.126
 8544SOL    HW226532   5.646   3.627   5.238
 8545SOL     OW26533   2.647   0.529   6.220
 8545SOL    HW126534   2.726   0.506   6.162
 8545SOL    HW226535   2.605   0.445   6.254
 8546SOL     OW26536   3.140   0.933   3.474
 8546SOL    HW126537   3.168   1.016   3.426
 8546SOL    HW226538   3.060   0.894   3.429
 8547SOL     OW26539   5.702   6.131   5.756
 8547SOL    HW126540   5.778   6.137   5.821
 8547SOL    HW226541   5.676   6.223   5.726
 8548SOL     OW26542   1.280   4.371   4.292
 8548SOL    HW126543   1.236   4.297   4.344
 8548SOL    HW226544   1.326   4.433   4.356
 8549SOL     OW26545   2.729   0.471   3.788
 8549SOL    HW126546   2.805   0.521   3.747
 8549SOL    HW226547   2.755   0.439   3.879
 8550SOL     OW26548   0.244   3.968   5.011
 8550SOL    HW126549   0.312   4.027   4.967
 8550SOL    HW226550   0.221   3.892   4.951
 8551SOL     OW26551   3.841   1.498   4.434
 8551SOL    HW126552   3.775   1.424   4.418
 8551SOL    HW226553   3.927   1.460   4.466
 8552SOL     OW26554   4.058   1.751   2.132
 8552SOL    HW126555   4.039   1.737   2.229
 8552SOL    HW226556   3.972   1.760   2.082
 8553SOL     OW26557   5.245   3.706   0.421
 8553SOL    HW126558   5.269   3.610   0.412
 8553SOL    HW226559   5.292   3.745   0.501
 8554SOL     OW26560   1.077   1.436   6.610
 8554SOL    HW126561   1.147   1.445   6.681
 8554SOL    HW226562   1.053   1.527   6.575
 8555SOL     OW26563   2.948   1.830   3.520
 8555SOL    HW126564   2.893   1.854   3.440
 8555SOL    HW226565   3.004   1.909   3.546
 8556SOL     OW26566   0.220   4.788   5.246
 8556SOL    HW126567   0.161   4.775   5.325
 8556SOL    HW226568   0.172   4.845   5.178
 8557SOL     OW26569   6.264   0.985   0.526
 8557SOL    HW126570   6.180   1.038   0.536
 8557SOL    HW226571   6.280   0.932   0.610
 8558SOL     OW26572   2.692   6.639   3.427
 8558SOL    HW126573   2.760   6.690   3.481
 8558SOL    HW226574   2.694   6.673   3.332
 8559SOL     OW26575   1.090   3.293   3.370
 8559SOL    HW126576   1.059   3.231   3.442
 8559SOL    HW226577   1.018   3.359   3.350
 8560SOL     OW26578   3.461   4.074   1.513
 8560SOL    HW126579   3.443   3.998   1.451
 8560SOL    HW226580   3.455   4.042   1.608
 8561SOL     OW26581   4.179   0.693   2.065
 8561SOL    HW126582   4.092   0.716   2.109
 8561SOL    HW226583   4.230   0.630   2.122
 8562SOL     OW26584   5.241   2.558   6.474
 8562SOL    HW126585   5.161   2.618   6.476
 8562SOL    HW226586   5.317   2.603   6.521
 8563SOL     OW26587   1.125   4.526   2.984
 8563SOL    HW126588   1.140   4.578   2.900
 8563SOL    HW226589   1.143   4.586   3.063
 8564SOL     OW26590   3.925   6.611   6.851
 8564SOL    HW126591   3.862   6.541   6.816
 8564SOL    HW226592   3.985   6.571   6.920
 8565SOL     OW26593   0.936   5.332   1.552
 8565SOL    HW126594   1.027   5.345   1.590
 8565SOL    HW226595   0.874   5.298   1.623
 8566SOL     OW26596   3.292   1.120   3.327
 8566SOL    HW126597   3.271   1.052   3.256
 8566SOL    HW226598   3.305   1.210   3.285
 8567SOL     OW26599   1.953   2.972   0.969
 8567SOL    HW126600   1.943   2.874   0.988
 8567SOL    HW226601   1.983   3.019   1.052
 8568SOL     OW26602   5.765   6.532   5.759
 8568SOL    HW126603   5.722   6.449   5.723
 8568SOL    HW226604   5.736   6.611   5.704
 8569SOL     OW26605   4.946   1.524   6.512
 8569SOL    HW126606   4.992   1.607   6.542
 8569SOL    HW226607   4.954   1.516   6.413
 8570SOL     OW26608   1.511   1.765   3.645
 8570SOL    HW126609   1.455   1.810   3.575
 8570SOL    HW226610   1.608   1.778   3.624
 8571SOL     OW26611   1.196   0.941   3.407
 8571SOL    HW126612   1.216   0.869   3.473
 8571SOL    HW226613   1.205   1.030   3.451
 8572SOL     OW26614   2.755   3.472   5.638
 8572SOL    HW126615   2.734   3.450   5.543
 8572SOL    HW226616   2.788   3.566   5.644
 8573SOL     OW26617   1.737   5.897   6.333
 8573SOL    HW126618   1.764   5.801   6.322
 8573SOL    HW226619   1.639   5.901   6.354
 8574SOL     OW26620   5.628   1.711   5.508
 8574SOL    HW126621   5.547   1.668   5.468
 8574SOL    HW226622   5.705   1.648   5.502
 8575SOL     OW26623   2.706   6.104   4.564
 8575SOL    HW126624   2.631   6.094   4.629
 8575SOL    HW226625   2.709   6.024   4.504
 8576SOL     OW26626   1.725   3.498   5.218
 8576SOL    HW126627   1.796   3.435   5.186
 8576SOL    HW226628   1.647   3.494   5.155
 8577SOL     OW26629   1.438   0.891   0.468
 8577SOL    HW126630   1.520   0.947   0.480
 8577SOL    HW226631   1.454   0.800   0.506
 8578SOL     OW26632   1.089   0.271   5.965
 8578SOL    HW126633   1.084   0.317   5.877
 8578SOL    HW226634   1.012   0.207   5.974
 8579SOL     OW26635   3.687   6.800   2.075
 8579SOL    HW126636   3.706   6.805   2.173
 8579SOL    HW226637   3.659   6.890   2.041
 8580SOL     OW26638   2.284   0.666   1.806
 8580SOL    HW126639   2.239   0.589   1.761
 8580SOL    HW226640   2.313   0.639   1.898
 8581SOL     OW26641   4.051   3.644   2.698
 8581SOL    HW126642   4.097   3.673   2.614
 8581SOL    HW226643   4.088   3.556   2.728
 8582SOL     OW26644   4.310   5.627   5.573
 8582SOL    HW126645   4.243   5.697   5.597
 8582SOL    HW226646   4.263   5.538   5.564
 8583SOL     OW26647   3.520   6.917   3.122
 8583SOL    HW126648   3.547   7.010   3.096
 8583SOL    HW226649   3.534   6.904   3.220
 8584SOL     OW26650   6.179   2.385   5.244
 8584SOL    HW126651   6.114   2.437   5.189
 8584SOL    HW226652   6.159   2.287   5.236
 8585SOL     OW26653   4.897   2.215   2.504
 8585SOL    HW126654   4.845   2.280   2.559
 8585SOL    HW226655   4.869   2.222   2.408
 8586SOL     OW26656   6.755   6.282   5.145
 8586SOL    HW126657   6.733   6.220   5.070
 8586SOL    HW226658   6.717   6.246   5.230
 8587SOL     OW26659   6.673   0.858   0.757
 8587SOL    HW126660   6.747   0.831   0.694
 8587SOL    HW226661   6.686   0.952   0.786
 8588SOL     OW26662   1.452   1.176   5.689
 8588SOL    HW126663   1.382   1.246   5.674
 8588SOL    HW226664   1.429   1.094   5.636
 8589SOL     OW26665   5.724   2.846   6.641
 8589SOL    HW126666   5.776   2.788   6.705
 8589SOL    HW226667   5.749   2.942   6.656
 8590SOL     OW26668   1.382   1.122   3.051
 8590SOL    HW126669   1.292   1.106   3.091
 8590SOL    HW226670   1.374   1.189   2.978
 8591SOL     OW26671   1.392   4.038   5.352
 8591SOL    HW126672   1.419   4.016   5.446
 8591SOL    HW226673   1.473   4.036   5.293
 8592SOL     OW26674   0.539   2.089   5.225
 8592SOL    HW126675   0.499   2.004   5.191
 8592SOL    HW226676   0.606   2.068   5.296
 8593SOL     OW26677   6.507   1.414   0.581
 8593SOL    HW126678   6.571   1.374   0.516
 8593SOL    HW226679   6.487   1.348   0.653
 8594SOL     OW26680   6.015   4.188   6.246
 8594SOL    HW126681   6.068   4.107   6.267
 8594SOL    HW226682   5.974   4.224   6.330
 8595SOL     OW26683   5.350   6.074   2.691
 8595SOL    HW126684   5.300   5.994   2.726
 8595SOL    HW226685   5.342   6.077   2.591
 8596SOL     OW26686   0.167   1.884   5.797
 8596SOL    HW126687   0.106   1.810   5.768
 8596SOL    HW226688   0.144   1.911   5.890
 8597SOL     OW26689   6.034   2.321   5.789
 8597SOL    HW126690   6.001   2.257   5.719
 8597SOL    HW226691   5.958   2.348   5.848
 8598SOL     OW26692   0.047   0.832   6.171
 8598SOL    HW126693   7.009   0.794   6.101
 8598SOL    HW226694   0.094   0.912   6.133
 8599SOL     OW26695   5.786   3.805   4.876
 8599SOL    HW126696   5.706   3.859   4.848
 8599SOL    HW226697   5.842   3.859   4.939
 8600SOL     OW26698   4.083   2.959   1.430
 8600SOL    HW126699   4.010   2.997   1.486
 8600SOL    HW226700   4.096   3.017   1.349
 8601SOL     OW26701   4.702   5.630   2.221
 8601SOL    HW126702   4.703   5.717   2.173
 8601SOL    HW226703   4.630   5.631   2.290
 8602SOL     OW26704   2.056   6.451   4.956
 8602SOL    HW126705   1.983   6.427   5.021
 8602SOL    HW226706   2.145   6.431   4.997
 8603SOL     OW26707   0.811   1.278   6.666
 8603SOL    HW126708   0.905   1.311   6.662
 8603SOL    HW226709   0.809   1.189   6.712
 8604SOL     OW26710   1.472   5.271   6.324
 8604SOL    HW126711   1.538   5.197   6.331
 8604SOL    HW226712   1.415   5.274   6.406
 8605SOL     OW26713   6.430   4.433   3.879
 8605SOL    HW126714   6.489   4.374   3.824
 8605SOL    HW226715   6.350   4.382   3.910
 8606SOL     OW26716   1.115   0.309   6.360
 8606SOL    HW126717   1.194   0.261   6.399
 8606SOL    HW226718   1.147   0.382   6.300
 8607SOL     OW26719   2.853   3.120   1.464
 8607SOL    HW126720   2.813   3.210   1.447
 8607SOL    HW226721   2.800   3.074   1.535
 8608SOL     OW26722   2.324   5.801   1.779
 8608SOL    HW126723   2.231   5.838   1.775
 8608SOL    HW226724   2.351   5.790   1.874
 8609SOL     OW26725   5.309   2.250   4.483
 8609SOL    HW126726   5.233   2.185   4.484
 8609SOL    HW226727   5.384   2.214   4.539
 8610SOL     OW26728   0.144   5.332   2.343
 8610SOL    HW126729   0.122   5.284   2.428
 8610SOL    HW226730   0.060   5.363   2.299
 8611SOL     OW26731   1.891   1.423   5.108
 8611SOL    HW126732   1.873   1.363   5.186
 8611SOL    HW226733   1.949   1.499   5.138
 8612SOL     OW26734   3.301   3.093   5.566
 8612SOL    HW126735   3.266   3.101   5.473
 8612SOL    HW226736   3.293   2.998   5.597
 8613SOL     OW26737   3.066   3.240   3.424
 8613SOL    HW126738   3.107   3.156   3.460
 8613SOL    HW226739   3.043   3.301   3.499
 8614SOL     OW26740   0.534   2.590   4.186
 8614SOL    HW126741   0.597   2.667   4.178
 8614SOL    HW226742   0.510   2.576   4.282
 8615SOL     OW26743   3.961   0.894   5.395
 8615SOL    HW126744   3.950   0.985   5.355
 8615SOL    HW226745   3.941   0.825   5.325
 8616SOL     OW26746   6.038   4.074   5.575
 8616SOL    HW126747   5.996   4.034   5.656
 8616SOL    HW226748   6.121   4.124   5.601
 8617SOL     OW26749   1.060   6.702   3.344
 8617SOL    HW126750   1.159   6.712   3.346
 8617SOL    HW226751   1.026   6.686   3.437
 8618SOL     OW26752   6.231   4.666   0.599
 8618SOL    HW126753   6.224   4.578   0.551
 8618SOL    HW226754   6.196   4.739   0.541
 8619SOL     OW26755   5.209   5.457   6.687
 8619SOL    HW126756   5.237   5.382   6.627
 8619SOL    HW226757   5.216   5.543   6.637
 8620SOL     OW26758   1.468   6.732   3.931
 8620SOL    HW126759   1.469   6.826   3.899
 8620SOL    HW226760   1.393   6.682   3.887
 8621SOL     OW26761   6.344   3.584   1.388
 8621SOL    HW126762   6.276   3.526   1.342
 8621SOL    HW226763   6.330   3.580   1.487
 8622SOL     OW26764   1.056   5.825   1.544
 8622SOL    HW126765   1.154   5.841   1.554
 8622SOL    HW226766   1.021   5.782   1.628
 8623SOL     OW26767   1.920   1.943   3.153
 8623SOL    HW126768   1.839   1.912   3.204
 8623SOL    HW226769   1.995   1.879   3.169
 8624SOL     OW26770   3.532   3.785   5.405
 8624SOL    HW126771   3.575   3.701   5.440
 8624SOL    HW226772   3.452   3.761   5.351
 8625SOL     OW26773   4.448   3.132   5.980
 8625SOL    HW126774   4.365   3.077   5.975
 8625SOL    HW226775   4.430   3.223   5.943
 8626SOL     OW26776   5.017   2.216   1.104
 8626SOL    HW126777   5.011   2.243   1.200
 8626SOL    HW226778   4.959   2.135   1.089
 8627SOL     OW26779   0.747   6.693   3.026
 8627SOL    HW126780   0.779   6.652   2.940
 8627SOL    HW226781   0.649   6.675   3.037
 8628SOL     OW26782   1.372   6.939   0.874
 8628SOL    HW126783   1.289   6.947   0.818
 8628SOL    HW226784   1.450   6.972   0.821
 8629SOL     OW26785   0.053   0.664   4.662
 8629SOL    HW126786   0.083   0.575   4.629
 8629SOL    HW226787   0.036   0.659   4.760
 8630SOL     OW26788   5.163   2.895   1.455
 8630SOL    HW126789   5.066   2.917   1.441
 8630SOL    HW226790   5.210   2.901   1.367
 8631SOL     OW26791   1.589   6.139   6.731
 8631SOL    HW126792   1.672   6.133   6.675
 8631SOL    HW226793   1.596   6.218   6.792
 8632SOL     OW26794   6.291   6.127   3.954
 8632SOL    HW126795   6.316   6.082   4.040
 8632SOL    HW226796   6.373   6.167   3.913
 8633SOL     OW26797   6.620   2.988   5.333
 8633SOL    HW126798   6.646   2.903   5.287
 8633SOL    HW226799   6.522   2.987   5.352
 8634SOL     OW26800   5.095   4.519   6.050
 8634SOL    HW126801   5.085   4.614   6.080
 8634SOL    HW226802   5.110   4.460   6.129
 8635SOL     OW26803   5.176   2.145   5.709
 8635SOL    HW126804   5.225   2.060   5.726
 8635SOL    HW226805   5.084   2.125   5.677
 8636SOL     OW26806   3.955   6.159   1.072
 8636SOL    HW126807   3.968   6.253   1.041
 8636SOL    HW226808   4.031   6.102   1.040
 8637SOL     OW26809   2.864   2.540   0.785
 8637SOL    HW126810   2.813   2.534   0.699
 8637SOL    HW226811   2.942   2.478   0.782
 8638SOL     OW26812   5.217   2.584   4.739
 8638SOL    HW126813   5.146   2.632   4.791
 8638SOL    HW226814   5.216   2.487   4.763
 8639SOL     OW26815   3.161   4.330   0.480
 8639SOL    HW126816   3.154   4.361   0.385
 8639SOL    HW226817   3.084   4.367   0.533
 8640SOL     OW26818   3.712   2.353   6.518
 8640SOL    HW126819   3.642   2.283   6.537
 8640SOL    HW226820   3.695   2.433   6.576
 8641SOL     OW26821   3.458   4.949   3.763
 8641SOL    HW126822   3.458   4.860   3.717
 8641SOL    HW226823   3.493   4.939   3.856
 8642SOL     OW26824   2.296   6.082   2.973
 8642SOL    HW126825   2.312   6.137   3.054
 8642SOL    HW226826   2.350   5.998   2.979
 8643SOL     OW26827   3.848   6.536   1.350
 8643SOL    HW126828   3.922   6.492   1.300
 8643SOL    HW226829   3.867   6.634   1.360
 8644SOL     OW26830   5.628   2.528   6.112
 8644SOL    HW126831   5.692   2.470   6.062
 8644SOL    HW226832   5.617   2.494   6.206
 8645SOL     OW26833   4.772   4.695   2.711
 8645SOL    HW126834   4.779   4.636   2.792
 8645SOL    HW226835   4.759   4.638   2.629
 8646SOL     OW26836   6.966   1.796   4.856
 8646SOL    HW126837   6.901   1.853   4.907
 8646SOL    HW226838   0.002   1.854   4.799
 8647SOL     OW26839   1.811   4.752   1.737
 8647SOL    HW126840   1.818   4.657   1.768
 8647SOL    HW226841   1.892   4.803   1.765
 8648SOL     OW26842   5.598   5.246   6.437
 8648SOL    HW126843   5.610   5.275   6.532
 8648SOL    HW226844   5.682   5.202   6.405
 8649SOL     OW26845   5.432   2.017   1.658
 8649SOL    HW126846   5.427   2.022   1.558
 8649SOL    HW226847   5.341   2.028   1.697
 8650SOL     OW26848   1.626   0.691   5.335
 8650SOL    HW126849   1.656   0.739   5.253
 8650SOL    HW226850   1.592   0.600   5.310
 8651SOL     OW26851   4.543   2.101   1.848
 8651SOL    HW126852   4.452   2.142   1.848
 8651SOL    HW226853   4.549   2.032   1.920
 8652SOL     OW26854   6.486   2.237   4.306
 8652SOL    HW126855   6.460   2.221   4.401
 8652SOL    HW226856   6.523   2.153   4.267
 8653SOL     OW26857   5.666   0.539   0.729
 8653SOL    HW126858   5.615   0.611   0.777
 8653SOL    HW226859   5.762   0.564   0.725
 8654SOL     OW26860   0.367   4.766   3.107
 8654SOL    HW126861   0.366   4.819   3.022
 8654SOL    HW226862   0.461   4.749   3.135
 8655SOL     OW26863   1.403   0.057   5.151
 8655SOL    HW126864   1.398   6.981   5.168
 8655SOL    HW226865   1.497   0.083   5.132
 8656SOL     OW26866   4.432   5.853   1.024
 8656SOL    HW126867   4.451   5.873   1.120
 8656SOL    HW226868   4.444   5.935   0.969
 8657SOL     OW26869   3.375   1.637   2.527
 8657SOL    HW126870   3.453   1.575   2.518
 8657SOL    HW226871   3.406   1.728   2.554
 8658SOL     OW26872   6.376   4.179   0.843
 8658SOL    HW126873   6.386   4.178   0.943
 8658SOL    HW226874   6.383   4.273   0.811
 8659SOL     OW26875   3.455   0.575   2.926
 8659SOL    HW126876   3.394   0.501   2.955
 8659SOL    HW226877   3.488   0.625   3.006
 8660SOL     OW26878   0.012   3.739   1.405
 8660SOL    HW126879   6.991   3.680   1.336
 8660SOL    HW226880   6.986   3.827   1.408
 8661SOL     OW26881   6.169   3.687   2.229
 8661SOL    HW126882   6.240   3.677   2.159
 8661SOL    HW226883   6.117   3.771   2.212
 8662SOL     OW26884   1.603   2.383   2.927
 8662SOL    HW126885   1.656   2.391   2.843
 8662SOL    HW226886   1.561   2.471   2.948
 8663SOL     OW26887   3.248   4.909   2.817
 8663SOL    HW126888   3.217   5.001   2.797
 8663SOL    HW226889   3.176   4.858   2.863
 8664SOL     OW26890   3.098   6.214   3.972
 8664SOL    HW126891   3.079   6.309   3.946
 8664SOL    HW226892   3.102   6.208   4.072
 8665SOL     OW26893   6.853   3.488   6.333
 8665SOL    HW126894   6.817   3.425   6.402
 8665SOL    HW226895   6.943   3.520   6.362
 8666SOL     OW26896   5.109   0.321   2.775
 8666SOL    HW126897   5.169   0.329   2.855
 8666SOL    HW226898   5.023   0.278   2.802
 8667SOL     OW26899   5.108   2.386   2.030
 8667SOL    HW126900   5.032   2.384   1.965
 8667SOL    HW226901   5.081   2.338   2.114
 8668SOL     OW26902   3.915   2.177   3.829
 8668SOL    HW126903   4.015   2.178   3.819
 8668SOL    HW226904   3.891   2.188   3.926
 8669SOL     OW26905   0.565   6.149   6.202
 8669SOL    HW126906   0.479   6.151   6.152
 8669SOL    HW226907   0.633   6.204   6.153
 8670SOL     OW26908   0.308   5.557   5.246
 8670SOL    HW126909   0.394   5.557   5.196
 8670SOL    HW226910   0.278   5.651   5.261
 8671SOL     OW26911   6.906   3.203   3.853
 8671SOL    HW126912   6.985   3.265   3.858
 8671SOL    HW226913   6.924   3.121   3.907
 8672SOL     OW26914   6.498   1.365   2.491
 8672SOL    HW126915   6.518   1.358   2.588
 8672SOL    HW226916   6.580   1.344   2.438
 8673SOL     OW26917   0.917   1.257   1.751
 8673SOL    HW126918   1.016   1.253   1.735
 8673SOL    HW226919   0.900   1.252   1.850
 8674SOL     OW26920   0.362   3.447   3.897
 8674SOL    HW126921   0.353   3.515   3.969
 8674SOL    HW226922   0.453   3.452   3.857
 8675SOL     OW26923   4.544   2.570   4.999
 8675SOL    HW126924   4.633   2.532   5.026
 8675SOL    HW226925   4.529   2.656   5.048
 8676SOL     OW26926   4.735   2.550   0.503
 8676SOL    HW126927   4.682   2.467   0.520
 8676SOL    HW226928   4.700   2.624   0.560
 8677SOL     OW26929   2.997   0.519   6.904
 8677SOL    HW126930   2.999   0.420   6.919
 8677SOL    HW226931   3.005   0.566   6.992
 8678SOL     OW26932   3.187   1.633   0.289
 8678SOL    HW126933   3.270   1.581   0.307
 8678SOL    HW226934   3.211   1.729   0.272
 8679SOL     OW26935   1.586   2.121   6.700
 8679SOL    HW126936   1.617   2.032   6.664
 8679SOL    HW226937   1.604   2.192   6.631
 8680SOL     OW26938   0.116   0.380   1.117
 8680SOL    HW126939   0.142   0.476   1.113
 8680SOL    HW226940   0.062   0.357   1.036
 8681SOL     OW26941   5.202   5.386   0.879
 8681SOL    HW126942   5.224   5.444   0.801
 8681SOL    HW226943   5.110   5.408   0.911
 8682SOL     OW26944   2.211   1.131   2.848
 8682SOL    HW126945   2.140   1.065   2.825
 8682SOL    HW226946   2.190   1.175   2.935
 8683SOL     OW26947   2.511   4.504   3.957
 8683SOL    HW126948   2.557   4.561   4.025
 8683SOL    HW226949   2.456   4.434   4.003
 8684SOL     OW26950   2.367   4.238   3.282
 8684SOL    HW126951   2.430   4.315   3.270
 8684SOL    HW226952   2.372   4.205   3.376
 8685SOL     OW26953   5.462   3.433   5.570
 8685SOL    HW126954   5.489   3.478   5.655
 8685SOL    HW226955   5.369   3.397   5.580
 8686SOL     OW26956   1.444   4.536   2.973
 8686SOL    HW126957   1.407   4.491   3.054
 8686SOL    HW226958   1.377   4.532   2.899
 8687SOL     OW26959   5.816   4.462   5.827
 8687SOL    HW126960   5.803   4.499   5.735
 8687SOL    HW226961   5.736   4.410   5.855
 8688SOL     OW26962   0.754   4.084   5.164
 8688SOL    HW126963   0.762   4.148   5.088
 8688SOL    HW226964   0.688   4.013   5.141
 8689SOL     OW26965   4.877   3.475   0.782
 8689SOL    HW126966   4.801   3.469   0.718
 8689SOL    HW226967   4.886   3.388   0.831
 8690SOL     OW26968   1.771   2.257   2.477
 8690SOL    HW126969   1.830   2.257   2.396
 8690SOL    HW226970   1.816   2.208   2.551
 8691SOL     OW26971   3.211   1.451   6.911
 8691SOL    HW126972   3.135   1.450   6.976
 8691SOL    HW226973   3.225   1.544   6.877
 8692SOL     OW26974   5.501   1.837   4.355
 8692SOL    HW126975   5.540   1.833   4.262
 8692SOL    HW226976   5.404   1.862   4.349
 8693SOL     OW26977   0.789   0.487   5.966
 8693SOL    HW126978   0.738   0.547   6.027
 8693SOL    HW226979   0.725   0.427   5.917
 8694SOL     OW26980   4.536   3.795   5.373
 8694SOL    HW126981   4.568   3.752   5.289
 8694SOL    HW226982   4.439   3.776   5.386
 8695SOL     OW26983   4.227   4.706   1.300
 8695SOL    HW126984   4.219   4.680   1.396
 8695SOL    HW226985   4.321   4.734   1.280
 8696SOL     OW26986   3.060   6.234   6.687
 8696SOL    HW126987   2.998   6.225   6.765
 8696SOL    HW226988   3.018   6.292   6.618
 8697SOL     OW26989   1.560   3.013   5.014
 8697SOL    HW126990   1.497   3.032   5.089
 8697SOL    HW226991   1.512   3.022   4.927
 8698SOL     OW26992   5.565   4.206   0.158
 8698SOL    HW126993   5.597   4.240   0.070
 8698SOL    HW226994   5.551   4.283   0.221
 8699SOL     OW26995   2.629   2.254   1.409
 8699SOL    HW126996   2.644   2.314   1.487
 8699SOL    HW226997   2.691   2.176   1.415
 8700SOL     OW26998   7.001   1.539   4.258
 8700SOL    HW126999   6.930   1.598   4.219
 8700SOL    HW227000   0.068   1.584   4.248
 8701SOL     OW27001   2.157   2.940   6.658
 8701SOL    HW127002   2.187   2.894   6.574
 8701SOL    HW227003   2.097   2.879   6.710
 8702SOL     OW27004   5.471   3.867   1.269
 8702SOL    HW127005   5.499   3.878   1.364
 8702SOL    HW227006   5.374   3.889   1.260
 8703SOL     OW27007   2.112   5.348   1.967
 8703SOL    HW127008   2.031   5.407   1.960
 8703SOL    HW227009   2.186   5.398   2.011
 8704SOL     OW27010   5.874   0.871   3.632
 8704SOL    HW127011   5.899   0.967   3.649
 8704SOL    HW227012   5.945   0.827   3.577
 8705SOL     OW27013   3.644   2.025   0.200
 8705SOL    HW127014   3.706   1.955   0.236
 8705SOL    HW227015   3.563   2.031   0.258
 8706SOL     OW27016   4.834   2.844   5.541
 8706SOL    HW127017   4.822   2.942   5.527
 8706SOL    HW227018   4.745   2.799   5.539
 8707SOL     OW27019   0.954   0.938   3.783
 8707SOL    HW127020   0.875   0.936   3.844
 8707SOL    HW227021   0.963   1.028   3.742
 8708SOL     OW27022   5.985   2.634   0.639
 8708SOL    HW127023   5.958   2.718   0.591
 8708SOL    HW227024   5.907   2.601   0.692
 8709SOL     OW27025   6.463   6.613   4.189
 8709SOL    HW127026   6.532   6.541   4.187
 8709SOL    HW227027   6.501   6.696   4.147
 8710SOL     OW27028   2.131   2.690   4.121
 8710SOL    HW127029   2.205   2.742   4.080
 8710SOL    HW227030   2.058   2.677   4.053
 8711SOL     OW27031   1.196   1.435   1.996
 8711SOL    HW127032   1.225   1.530   2.009
 8711SOL    HW227033   1.096   1.430   2.006
 8712SOL     OW27034   1.656   3.717   4.333
 8712SOL    HW127035   1.629   3.784   4.264
 8712SOL    HW227036   1.656   3.625   4.293
 8713SOL     OW27037   0.217   4.574   3.423
 8713SOL    HW127038   0.170   4.486   3.426
 8713SOL    HW227039   0.209   4.620   3.511
 8714SOL     OW27040   0.057   3.969   6.350
 8714SOL    HW127041   0.011   3.924   6.427
 8714SOL    HW227042   0.095   3.899   6.289
 8715SOL     OW27043   2.445   5.339   1.102
 8715SOL    HW127044   2.366   5.373   1.051
 8715SOL    HW227045   2.507   5.414   1.122
 8716SOL     OW27046   5.759   0.082   2.427
 8716SOL    HW127047   5.740   0.162   2.372
 8716SOL    HW227048   5.686   0.015   2.415
 8717SOL     OW27049   3.545   2.222   6.961
 8717SOL    HW127050   3.521   2.132   6.998
 8717SOL    HW227051   3.504   2.232   6.870
 8718SOL     OW27052   2.934   5.418   6.036
 8718SOL    HW127053   3.020   5.434   5.986
 8718SOL    HW227054   2.933   5.324   6.071
 8719SOL     OW27055   3.168   1.970   4.497
 8719SOL    HW127056   3.261   1.933   4.497
 8719SOL    HW227057   3.166   2.055   4.550
 8720SOL     OW27058   0.626   6.257   5.260
 8720SOL    HW127059   0.568   6.283   5.338
 8720SOL    HW227060   0.597   6.307   5.179
 8721SOL     OW27061   1.357   0.858   1.293
 8721SOL    HW127062   1.412   0.796   1.237
 8721SOL    HW227063   1.401   0.948   1.295
 8722SOL     OW27064   3.959   1.311   0.208
 8722SOL    HW127065   3.994   1.404   0.199
 8722SOL    HW227066   3.999   1.254   0.135
 8723SOL     OW27067   4.026   6.150   2.725
 8723SOL    HW127068   3.978   6.142   2.812
 8723SOL    HW227069   3.971   6.207   2.663
 8724SOL     OW27070   3.465   0.192   5.382
 8724SOL    HW127071   3.427   0.262   5.321
 8724SOL    HW227072   3.394   0.124   5.402
 8725SOL     OW27073   6.596   1.009   2.582
 8725SOL    HW127074   6.675   1.063   2.554
 8725SOL    HW227075   6.534   0.998   2.505
 8726SOL     OW27076   6.793   1.447   0.542
 8726SOL    HW127077   6.847   1.399   0.473
 8726SOL    HW227078   6.820   1.415   0.633
 8727SOL     OW27079   4.629   5.455   6.580
 8727SOL    HW127080   4.641   5.434   6.483
 8727SOL    HW227081   4.665   5.546   6.599
 8728SOL     OW27082   6.046   6.589   4.622
 8728SOL    HW127083   5.947   6.603   4.630
 8728SOL    HW227084   6.092   6.677   4.632
 8729SOL     OW27085   6.032   6.121   5.535
 8729SOL    HW127086   5.938   6.092   5.556
 8729SOL    HW227087   6.082   6.135   5.621
 8730SOL     OW27088   4.125   4.576   1.780
 8730SOL    HW127089   4.219   4.571   1.815
 8730SOL    HW227090   4.068   4.626   1.845
 8731SOL     OW27091   6.915   2.006   4.359
 8731SOL    HW127092   6.873   2.079   4.414
 8731SOL    HW227093   7.009   2.032   4.336
 8732SOL     OW27094   5.162   6.270   5.271
 8732SOL    HW127095   5.218   6.190   5.251
 8732SOL    HW227096   5.167   6.290   5.369
 8733SOL     OW27097   5.913   4.649   1.814
 8733SOL    HW127098   5.919   4.575   1.881
 8733SOL    HW227099   5.823   4.646   1.769
 8734SOL     OW27100   0.938   5.773   1.290
 8734SOL    HW127101   0.988   5.709   1.232
 8734SOL    HW227102   0.973   5.768   1.383
 8735SOL     OW27103   1.147   2.665   6.273
 8735SOL    HW127104   1.068   2.608   6.249
 8735SOL    HW227105   1.159   2.736   6.204
 8736SOL     OW27106   1.474   6.298   3.692
 8736SOL    HW127107   1.459   6.367   3.621
 8736SOL    HW227108   1.472   6.343   3.782
 8737SOL     OW27109   0.253   5.341   6.738
 8737SOL    HW127110   0.344   5.322   6.775
 8737SOL    HW227111   0.235   5.280   6.661
 8738SOL     OW27112   2.187   2.893   2.197
 8738SOL    HW127113   2.251   2.895   2.274
 8738SOL    HW227114   2.123   2.969   2.205
 8739SOL     OW27115   4.039   4.844   3.226
 8739SOL    HW127116   4.047   4.869   3.130
 8739SOL    HW227117   3.965   4.779   3.238
 8740SOL     OW27118   2.642   1.445   3.338
 8740SOL    HW127119   2.613   1.499   3.417
 8740SOL    HW227120   2.603   1.353   3.345
 8741SOL     OW27121   1.863   2.107   2.679
 8741SOL    HW127122   1.930   2.043   2.643
 8741SOL    HW227123   1.799   2.060   2.740
 8742SOL     OW27124   1.829   3.542   1.326
 8742SOL    HW127125   1.785   3.616   1.376
 8742SOL    HW227126   1.826   3.458   1.380
 8743SOL     OW27127   1.259   3.416   6.965
 8743SOL    HW127128   1.222   3.326   6.939
 8743SOL    HW227129   1.357   3.417   6.947
 8744SOL     OW27130   2.990   3.938   6.355
 8744SOL    HW127131   2.934   4.020   6.343
 8744SOL    HW227132   3.017   3.902   6.266
 8745SOL     OW27133   5.552   1.689   6.741
 8745SOL    HW127134   5.610   1.685   6.660
 8745SOL    HW227135   5.522   1.783   6.755
 8746SOL     OW27136   4.662   4.879   4.828
 8746SOL    HW127137   4.746   4.894   4.880
 8746SOL    HW227138   4.652   4.782   4.807
 8747SOL     OW27139   0.593   6.798   1.717
 8747SOL    HW127140   0.679   6.752   1.741
 8747SOL    HW227141   0.541   6.817   1.800
 8748SOL     OW27142   5.783   1.282   4.299
 8748SOL    HW127143   5.812   1.366   4.345
 8748SOL    HW227144   5.696   1.298   4.252
 8749SOL     OW27145   2.984   1.336   3.724
 8749SOL    HW127146   2.886   1.327   3.743
 8749SOL    HW227147   3.023   1.245   3.708
 8750SOL     OW27148   3.712   3.387   1.613
 8750SOL    HW127149   3.699   3.339   1.527
 8750SOL    HW227150   3.781   3.459   1.602
 8751SOL     OW27151   1.939   0.064   0.453
 8751SOL    HW127152   2.037   0.074   0.470
 8751SOL    HW227153   1.912   6.992   0.467
 8752SOL     OW27154   0.462   3.134   6.459
 8752SOL    HW127155   0.420   3.049   6.428
 8752SOL    HW227156   0.410   3.169   6.538
 8753SOL     OW27157   1.839   1.850   1.297
 8753SOL    HW127158   1.830   1.767   1.243
 8753SOL    HW227159   1.881   1.922   1.242
 8754SOL     OW27160   1.509   5.997   6.107
 8754SOL    HW127161   1.461   6.061   6.047
 8754SOL    HW227162   1.544   5.921   6.053
 8755SOL     OW27163   0.759   2.241   1.827
 8755SOL    HW127164   0.734   2.218   1.733
 8755SOL    HW227165   0.851   2.280   1.829
 8756SOL     OW27166   1.836   1.485   2.569
 8756SOL    HW127167   1.862   1.552   2.500
 8756SOL    HW227168   1.738   1.463   2.559
 8757SOL     OW27169   5.171   5.699   4.528
 8757SOL    HW127170   5.270   5.707   4.520
 8757SOL    HW227171   5.147   5.667   4.620
 8758SOL     OW27172   3.566   5.153   6.834
 8758SOL    HW127173   3.645   5.208   6.860
 8758SOL    HW227174   3.504   5.144   6.912
 8759SOL     OW27175   6.947   1.488   2.086
 8759SOL    HW127176   6.966   1.438   2.002
 8759SOL    HW227177   6.851   1.516   2.087
 8760SOL     OW27178   1.733   2.852   4.326
 8760SOL    HW127179   1.698   2.940   4.295
 8760SOL    HW227180   1.833   2.857   4.335
 8761SOL     OW27181   4.785   2.915   3.429
 8761SOL    HW127182   4.857   2.868   3.377
 8761SOL    HW227183   4.709   2.852   3.444
 8762SOL     OW27184   4.290   6.008   2.710
 8762SOL    HW127185   4.201   6.053   2.720
 8762SOL    HW227186   4.282   5.912   2.735
 8763SOL     OW27187   6.816   1.547   5.459
 8763SOL    HW127188   6.846   1.480   5.527
 8763SOL    HW227189   6.895   1.598   5.425
 8764SOL     OW27190   3.574   4.968   6.353
 8764SOL    HW127191   3.561   4.989   6.450
 8764SOL    HW227192   3.485   4.969   6.307
 8765SOL     OW27193   4.624   0.131   3.390
 8765SOL    HW127194   4.656   0.101   3.300
 8765SOL    HW227195   4.655   0.066   3.459
 8766SOL     OW27196   6.254   0.048   4.683
 8766SOL    HW127197   6.268   0.052   4.782
 8766SOL    HW227198   6.301   0.125   4.640
 8767SOL     OW27199   1.837   1.149   4.391
 8767SOL    HW127200   1.844   1.153   4.490
 8767SOL    HW227201   1.926   1.171   4.350
 8768SOL     OW27202   0.066   1.681   1.092
 8768SOL    HW127203   0.164   1.699   1.104
 8768SOL    HW227204   0.053   1.587   1.063
 8769SOL     OW27205   6.416   6.705   6.607
 8769SOL    HW127206   6.379   6.649   6.681
 8769SOL    HW227207   6.509   6.674   6.585
 8770SOL     OW27208   4.832   1.511   0.553
 8770SOL    HW127209   4.777   1.433   0.525
 8770SOL    HW227210   4.903   1.529   0.484
 8771SOL     OW27211   0.310   2.942   6.324
 8771SOL    HW127212   0.343   2.883   6.250
 8771SOL    HW227213   0.224   2.905   6.359
 8772SOL     OW27214   0.523   6.431   3.666
 8772SOL    HW127215   0.495   6.345   3.622
 8772SOL    HW227216   0.571   6.488   3.599
 8773SOL     OW27217   6.447   1.240   4.093
 8773SOL    HW127218   6.411   1.269   4.182
 8773SOL    HW227219   6.545   1.262   4.088
 8774SOL     OW27220   1.439   2.444   0.010
 8774SOL    HW127221   1.465   2.357   6.990
 8774SOL    HW227222   1.482   2.450   0.100
 8775SOL     OW27223   5.605   2.165   2.974
 8775SOL    HW127224   5.628   2.201   2.884
 8775SOL    HW227225   5.549   2.231   3.024
 8776SOL     OW27226   5.083   3.280   1.472
 8776SOL    HW127227   5.091   3.219   1.551
 8776SOL    HW227228   5.160   3.344   1.471
 8777SOL     OW27229   6.636   2.010   4.258
 8777SOL    HW127230   6.734   1.990   4.254
 8777SOL    HW227231   6.593   1.984   4.171
 8778SOL     OW27232   1.629   4.109   6.640
 8778SOL    HW127233   1.655   4.107   6.736
 8778SOL    HW227234   1.675   4.035   6.591
 8779SOL     OW27235   4.423   6.019   3.143
 8779SOL    HW127236   4.436   5.973   3.231
 8779SOL    HW227237   4.380   5.956   3.078
 8780SOL     OW27238   0.875   3.764   4.360
 8780SOL    HW127239   0.793   3.707   4.365
 8780SOL    HW227240   0.948   3.714   4.314
 8781SOL     OW27241   3.628   1.704   1.837
 8781SOL    HW127242   3.635   1.750   1.749
 8781SOL    HW227243   3.610   1.607   1.823
 8782SOL     OW27244   6.565   2.773   0.271
 8782SOL    HW127245   6.489   2.776   0.337
 8782SOL    HW227246   6.557   2.691   0.214
 8783SOL     OW27247   3.858   3.699   5.606
 8783SOL    HW127248   3.820   3.616   5.645
 8783SOL    HW227249   3.806   3.778   5.638
 8784SOL     OW27250   3.978   1.111   6.032
 8784SOL    HW127251   3.879   1.121   6.039
 8784SOL    HW227252   4.002   1.081   5.939
 8785SOL     OW27253   0.052   5.913   6.472
 8785SOL    HW127254   0.008   5.888   6.386
 8785SOL    HW227255   0.145   5.946   6.454
 8786SOL     OW27256   5.858   2.260   3.297
 8786SOL    HW127257   5.776   2.310   3.327
 8786SOL    HW227258   5.940   2.309   3.327
 8787SOL     OW27259   3.355   4.866   2.401
 8787SOL    HW127260   3.403   4.877   2.489
 8787SOL    HW227261   3.419   4.834   2.332
 8788SOL     OW27262   0.130   6.017   3.732
 8788SOL    HW127263   0.107   5.929   3.775
 8788SOL    HW227264   0.211   6.007   3.675
 8789SOL     OW27265   1.551   3.528   0.069
 8789SOL    HW127266   1.562   3.439   0.026
 8789SOL    HW227267   1.505   3.517   0.157
 8790SOL     OW27268   5.323   3.179   5.377
 8790SOL    HW127269   5.348   3.209   5.285
 8790SOL    HW227270   5.373   3.095   5.400
 8791SOL     OW27271   4.332   6.147   4.952
 8791SOL    HW127272   4.429   6.129   4.960
 8791SOL    HW227273   4.283   6.063   4.931
 8792SOL     OW27274   5.849   5.055   0.479
 8792SOL    HW127275   5.769   5.052   0.539
 8792SOL    HW227276   5.826   5.102   0.394
 8793SOL     OW27277   6.310   0.062   5.848
 8793SOL    HW127278   6.385   0.105   5.898
 8793SOL    HW227279   6.311   0.093   5.753
 8794SOL     OW27280   6.936   2.601   3.282
 8794SOL    HW127281   6.860   2.540   3.260
 8794SOL    HW227282   6.903   2.696   3.285
 8795SOL     OW27283   1.529   0.415   6.764
 8795SOL    HW127284   1.600   0.423   6.834
 8795SOL    HW227285   1.523   0.320   6.733
 8796SOL     OW27286   5.694   4.675   4.189
 8796SOL    HW127287   5.614   4.615   4.198
 8796SOL    HW227288   5.721   4.709   4.279
 8797SOL     OW27289   5.483   6.225   4.985
 8797SOL    HW127290   5.449   6.198   4.895
 8797SOL    HW227291   5.433   6.177   5.057
 8798SOL     OW27292   1.858   5.661   6.250
 8798SOL    HW127293   1.911   5.611   6.182
 8798SOL    HW227294   1.907   5.660   6.337
 8799SOL     OW27295   1.779   6.406   1.789
 8799SOL    HW127296   1.708   6.390   1.720
 8799SOL    HW227297   1.823   6.319   1.812
 8800SOL     OW27298   6.622   6.148   4.145
 8800SOL    HW127299   6.692   6.118   4.081
 8800SOL    HW227300   6.565   6.070   4.172
 8801SOL     OW27301   4.840   3.113   5.517
 8801SOL    HW127302   4.834   3.136   5.614
 8801SOL    HW227303   4.919   3.160   5.477
 8802SOL     OW27304   1.215   6.816   6.842
 8802SOL    HW127305   1.150   6.873   6.793
 8802SOL    HW227306   1.171   6.729   6.867
 8803SOL     OW27307   5.470   5.008   5.484
 8803SOL    HW127308   5.479   5.098   5.525
 8803SOL    HW227309   5.401   5.011   5.411
 8804SOL     OW27310   1.869   6.663   1.810
 8804SOL    HW127311   1.881   6.694   1.904
 8804SOL    HW227312   1.835   6.569   1.810
 8805SOL     OW27313   4.846   5.107   1.961
 8805SOL    HW127314   4.890   5.018   1.973
 8805SOL    HW227315   4.886   5.154   1.882
 8806SOL     OW27316   1.327   1.019   1.896
 8806SOL    HW127317   1.347   1.001   1.992
 8806SOL    HW227318   1.386   0.962   1.839
 8807SOL     OW27319   5.930   2.032   1.824
 8807SOL    HW127320   5.949   1.946   1.776
 8807SOL    HW227321   5.832   2.038   1.844
 8808SOL     OW27322   1.524   1.966   0.538
 8808SOL    HW127323   1.545   1.869   0.552
 8808SOL    HW227324   1.429   1.983   0.562
 8809SOL     OW27325   1.018   3.231   3.113
 8809SOL    HW127326   1.044   3.289   3.189
 8809SOL    HW227327   0.919   3.237   3.099
 8810SOL     OW27328   6.064   2.369   4.199
 8810SOL    HW127329   5.987   2.379   4.262
 8810SOL    HW227330   6.063   2.278   4.159
 8811SOL     OW27331   3.803   5.468   2.280
 8811SOL    HW127332   3.789   5.389   2.340
 8811SOL    HW227333   3.901   5.482   2.265
 8812SOL     OW27334   5.591   0.415   0.482
 8812SOL    HW127335   5.588   0.476   0.561
 8812SOL    HW227336   5.603   0.469   0.399
 8813SOL     OW27337   1.595   2.884   1.728
 8813SOL    HW127338   1.520   2.863   1.791
 8813SOL    HW227339   1.662   2.941   1.776
 8814SOL     OW27340   5.587   0.064   4.819
 8814SOL    HW127341   5.599   0.147   4.766
 8814SOL    HW227342   5.600   0.083   4.916
 8815SOL     OW27343   4.942   0.795   1.150
 8815SOL    HW127344   4.966   0.892   1.155
 8815SOL    HW227345   4.930   0.768   1.055
 8816SOL     OW27346   0.287   0.656   3.297
 8816SOL    HW127347   0.367   0.694   3.251
 8816SOL    HW227348   0.276   0.701   3.386
 8817SOL     OW27349   1.051   2.298   4.102
 8817SOL    HW127350   1.062   2.385   4.053
 8817SOL    HW227351   0.974   2.305   4.166
 8818SOL     OW27352   1.231   6.388   6.457
 8818SOL    HW127353   1.134   6.385   6.481
 8818SOL    HW227354   1.267   6.295   6.456
 8819SOL     OW27355   4.944   6.140   5.975
 8819SOL    HW127356   4.973   6.198   6.050
 8819SOL    HW227357   4.890   6.063   6.010
 8820SOL     OW27358   3.866   6.521   5.695
 8820SOL    HW127359   3.833   6.549   5.605
 8820SOL    HW227360   3.824   6.577   5.766
 8821SOL     OW27361   1.063   5.617   5.594
 8821SOL    HW127362   1.031   5.544   5.533
 8821SOL    HW227363   1.016   5.703   5.570
 8822SOL     OW27364   6.678   0.329   4.701
 8822SOL    HW127365   6.657   0.383   4.783
 8822SOL    HW227366   6.690   0.390   4.623
 8823SOL     OW27367   4.373   2.062   3.339
 8823SOL    HW127368   4.295   2.124   3.335
 8823SOL    HW227369   4.342   1.968   3.323
 8824SOL     OW27370   1.597   0.150   4.479
 8824SOL    HW127371   1.631   0.229   4.428
 8824SOL    HW227372   1.624   0.066   4.433
 8825SOL     OW27373   1.489   6.829   0.216
 8825SOL    HW127374   1.521   6.811   0.309
 8825SOL    HW227375   1.485   6.743   0.165
 8826SOL     OW27376   0.437   3.755   0.494
 8826SOL    HW127377   0.339   3.748   0.515
 8826SOL    HW227378   0.468   3.848   0.515
 8827SOL     OW27379   4.935   5.952   3.426
 8827SOL    HW127380   5.033   5.936   3.440
 8827SOL    HW227381   4.891   5.866   3.399
 8828SOL     OW27382   5.221   2.329   5.330
 8828SOL    HW127383   5.194   2.424   5.316
 8828SOL    HW227384   5.287   2.324   5.405
 8829SOL     OW27385   6.434   1.243   3.006
 8829SOL    HW127386   6.452   1.200   3.095
 8829SOL    HW227387   6.373   1.185   2.953
 8830SOL     OW27388   3.173   0.763   2.757
 8830SOL    HW127389   3.245   0.825   2.790
 8830SOL    HW227390   3.138   0.797   2.670
 8831SOL     OW27391   0.520   2.796   2.827
 8831SOL    HW127392   0.547   2.848   2.746
 8831SOL    HW227393   0.452   2.727   2.801
 8832SOL     OW27394   6.002   0.025   4.850
 8832SOL    HW127395   6.027   0.053   4.757
 8832SOL    HW227396   5.918   6.992   4.846
 8833SOL     OW27397   4.737   3.130   0.880
 8833SOL    HW127398   4.649   3.174   0.896
 8833SOL    HW227399   4.769   3.150   0.787
 8834SOL     OW27400   5.777   4.266   6.083
 8834SOL    HW127401   5.789   4.262   5.983
 8834SOL    HW227402   5.864   4.246   6.127
 8835SOL     OW27403   6.591   0.876   5.152
 8835SOL    HW127404   6.658   0.851   5.082
 8835SOL    HW227405   6.567   0.972   5.143
 8836SOL     OW27406   4.164   1.523   0.919
 8836SOL    HW127407   4.220   1.557   0.844
 8836SOL    HW227408   4.112   1.443   0.889
 8837SOL     OW27409   5.231   4.989   0.070
 8837SOL    HW127410   5.251   5.086   0.056
 8837SOL    HW227411   5.134   4.978   0.089
 8838SOL     OW27412   2.068   3.960   2.618
 8838SOL    HW127413   2.010   4.027   2.664
 8838SOL    HW227414   2.151   4.005   2.584
 8839SOL     OW27415   4.618   4.418   1.566
 8839SOL    HW127416   4.638   4.452   1.658
 8839SOL    HW227417   4.619   4.318   1.568
 8840SOL     OW27418   0.127   0.471   1.726
 8840SOL    HW127419   0.104   0.551   1.781
 8840SOL    HW227420   0.131   0.496   1.629
 8841SOL     OW27421   3.927   1.571   0.676
 8841SOL    HW127422   3.970   1.660   0.695
 8841SOL    HW227423   3.913   1.563   0.577
 8842SOL     OW27424   3.491   2.890   3.715
 8842SOL    HW127425   3.400   2.907   3.754
 8842SOL    HW227426   3.484   2.881   3.616
 8843SOL     OW27427   2.711   6.076   5.446
 8843SOL    HW127428   2.776   6.136   5.492
 8843SOL    HW227429   2.695   5.995   5.502
 8844SOL     OW27430   3.948   2.815   5.327
 8844SOL    HW127431   4.000   2.750   5.273
 8844SOL    HW227432   3.982   2.908   5.310
 8845SOL     OW27433   0.512   3.501   2.369
 8845SOL    HW127434   0.461   3.428   2.415
 8845SOL    HW227435   0.610   3.482   2.374
 8846SOL     OW27436   5.919   5.551   4.461
 8846SOL    HW127437   5.852   5.477   4.455
 8846SOL    HW227438   5.971   5.555   4.376
 8847SOL     OW27439   0.714   2.215   3.914
 8847SOL    HW127440   0.743   2.261   3.998
 8847SOL    HW227441   0.782   2.147   3.889
 8848SOL     OW27442   6.291   2.381   0.827
 8848SOL    HW127443   6.261   2.300   0.877
 8848SOL    HW227444   6.389   2.374   0.809
 8849SOL     OW27445   3.324   5.156   4.379
 8849SOL    HW127446   3.252   5.120   4.320
 8849SOL    HW227447   3.287   5.231   4.434
 8850SOL     OW27448   3.847   2.265   1.099
 8850SOL    HW127449   3.884   2.306   1.015
 8850SOL    HW227450   3.757   2.304   1.118
 8851SOL     OW27451   0.195   5.284   2.833
 8851SOL    HW127452   0.130   5.340   2.782
 8851SOL    HW227453   0.147   5.236   2.907
 8852SOL     OW27454   5.249   3.663   4.851
 8852SOL    HW127455   5.316   3.728   4.815
 8852SOL    HW227456   5.281   3.570   4.836
 8853SOL     OW27457   4.812   1.661   4.319
 8853SOL    HW127458   4.743   1.701   4.380
 8853SOL    HW227459   4.892   1.633   4.373
 8854SOL     OW27460   3.314   0.642   6.118
 8854SOL    HW127461   3.240   0.673   6.178
 8854SOL    HW227462   3.354   0.558   6.153
 8855SOL     OW27463   6.289   4.830   6.206
 8855SOL    HW127464   6.294   4.732   6.189
 8855SOL    HW227465   6.195   4.861   6.196
 8856SOL     OW27466   5.365   1.590   5.437
 8856SOL    HW127467   5.398   1.598   5.343
 8856SOL    HW227468   5.353   1.494   5.460
 8857SOL     OW27469   2.032   3.495   4.367
 8857SOL    HW127470   2.051   3.591   4.345
 8857SOL    HW227471   2.023   3.485   4.466
 8858SOL     OW27472   0.604   3.676   5.628
 8858SOL    HW127473   0.589   3.725   5.714
 8858SOL    HW227474   0.697   3.640   5.626
 8859SOL     OW27475   2.486   6.861   5.302
 8859SOL    HW127476   2.568   6.821   5.261
 8859SOL    HW227477   2.453   6.801   5.375
 8860SOL     OW27478   1.996   1.384   1.529
 8860SOL    HW127479   1.958   1.409   1.440
 8860SOL    HW227480   2.077   1.439   1.547
 8861SOL     OW27481   2.016   2.301   0.369
 8861SOL    HW127482   2.032   2.269   0.462
 8861SOL    HW227483   2.079   2.255   0.306
 8862SOL     OW27484   0.043   2.431   4.639
 8862SOL    HW127485   0.023   2.386   4.553
 8862SOL    HW227486   0.068   2.362   4.708
 8863SOL     OW27487   2.244   5.644   5.153
 8863SOL    HW127488   2.152   5.679   5.166
 8863SOL    HW227489   2.258   5.563   5.210
 8864SOL     OW27490   1.952   4.657   5.813
 8864SOL    HW127491   1.896   4.661   5.895
 8864SOL    HW227492   1.999   4.569   5.808
 8865SOL     OW27493   2.977   1.990   5.511
 8865SOL    HW127494   2.907   2.051   5.474
 8865SOL    HW227495   3.061   1.999   5.458
 8866SOL     OW27496   5.022   0.210   5.444
 8866SOL    HW127497   4.950   0.180   5.506
 8866SOL    HW227498   4.990   0.288   5.390
 8867SOL     OW27499   6.091   0.848   3.278
 8867SOL    HW127500   6.052   0.764   3.240
 8867SOL    HW227501   6.085   0.844   3.378
 8868SOL     OW27502   5.744   3.380   0.557
 8868SOL    HW127503   5.712   3.473   0.536
 8868SOL    HW227504   5.796   3.345   0.479
 8869SOL     OW27505   2.900   1.838   3.247
 8869SOL    HW127506   2.859   1.864   3.159
 8869SOL    HW227507   2.890   1.739   3.260
 8870SOL     OW27508   5.198   0.271   1.857
 8870SOL    HW127509   5.244   0.256   1.945
 8870SOL    HW227510   5.213   0.192   1.798
 8871SOL     OW27511   1.188   2.206   3.891
 8871SOL    HW127512   1.125   2.220   3.814
 8871SOL    HW227513   1.146   2.240   3.975
 8872SOL     OW27514   1.305   1.786   2.291
 8872SOL    HW127515   1.277   1.813   2.383
 8872SOL    HW227516   1.338   1.692   2.293
 8873SOL     OW27517   6.928   5.858   5.081
 8873SOL    HW127518   6.946   5.871   5.179
 8873SOL    HW227519   6.992   5.790   5.045
 8874SOL     OW27520   1.435   1.535   6.376
 8874SOL    HW127521   1.376   1.523   6.296
 8874SOL    HW227522   1.531   1.530   6.349
 8875SOL     OW27523   1.326   1.036   3.998
 8875SOL    HW127524   1.412   1.022   3.949
 8875SOL    HW227525   1.284   1.122   3.969
 8876SOL     OW27526   2.339   0.975   4.960
 8876SOL    HW127527   2.314   1.064   4.996
 8876SOL    HW227528   2.378   0.985   4.868
 8877SOL     OW27529   3.309   6.714   4.254
 8877SOL    HW127530   3.239   6.644   4.241
 8877SOL    HW227531   3.281   6.797   4.205
 8878SOL     OW27532   5.845   4.232   4.866
 8878SOL    HW127533   5.941   4.235   4.837
 8878SOL    HW227534   5.827   4.144   4.910
 8879SOL     OW27535   5.077   5.492   4.323
 8879SOL    HW127536   5.147   5.482   4.394
 8879SOL    HW227537   5.005   5.552   4.355
 8880SOL     OW27538   1.268   6.540   5.394
 8880SOL    HW127539   1.201   6.549   5.468
 8880SOL    HW227540   1.221   6.524   5.308
 8881SOL     OW27541   0.237   2.135   2.608
 8881SOL    HW127542   0.187   2.093   2.683
 8881SOL    HW227543   0.282   2.218   2.640
 8882SOL     OW27544   5.584   3.020   0.276
 8882SOL    HW127545   5.611   2.925   0.288
 8882SOL    HW227546   5.592   3.068   0.364
 8883SOL     OW27547   5.581   1.406   5.617
 8883SOL    HW127548   5.613   1.500   5.602
 8883SOL    HW227549   5.658   1.343   5.606
 8884SOL     OW27550   0.019   1.252   6.327
 8884SOL    HW127551   6.987   1.214   6.402
 8884SOL    HW227552   0.108   1.206   6.324
 8885SOL     OW27553   5.442   3.607   1.188
 8885SOL    HW127554   5.512   3.545   1.222
 8885SOL    HW227555   5.448   3.695   1.236
 8886SOL     OW27556   3.145   5.459   5.894
 8886SOL    HW127557   3.190   5.548   5.886
 8886SOL    HW227558   3.163   5.404   5.812
 8887SOL     OW27559   1.536   1.478   1.055
 8887SOL    HW127560   1.510   1.574   1.041
 8887SOL    HW227561   1.513   1.451   1.148
 8888SOL     OW27562   2.560   2.200   2.865
 8888SOL    HW127563   2.569   2.298   2.847
 8888SOL    HW227564   2.650   2.157   2.862
 8889SOL     OW27565   3.436   1.010   4.179
 8889SOL    HW127566   3.475   1.101   4.193
 8889SOL    HW227567   3.472   0.971   4.095
 8890SOL     OW27568   6.713   4.963   3.439
 8890SOL    HW127569   6.660   4.880   3.455
 8890SOL    HW227570   6.801   4.940   3.397
 8891SOL     OW27571   3.433   1.423   6.380
 8891SOL    HW127572   3.461   1.425   6.284
 8891SOL    HW227573   3.356   1.360   6.391
 8892SOL     OW27574   1.051   6.920   2.921
 8892SOL    HW127575   1.096   6.833   2.903
 8892SOL    HW227576   1.032   6.928   3.019
 8893SOL     OW27577   0.239   1.262   0.633
 8893SOL    HW127578   0.210   1.323   0.707
 8893SOL    HW227579   0.259   1.172   0.671
 8894SOL     OW27580   4.813   2.280   6.140
 8894SOL    HW127581   4.732   2.226   6.162
 8894SOL    HW227582   4.878   2.276   6.217
 8895SOL     OW27583   1.600   1.305   3.096
 8895SOL    HW127584   1.526   1.237   3.090
 8895SOL    HW227585   1.604   1.357   3.011
 8896SOL     OW27586   1.919   4.467   5.444
 8896SOL    HW127587   2.016   4.476   5.464
 8896SOL    HW227588   1.894   4.370   5.443
 8897SOL     OW27589   1.104   2.551   2.032
 8897SOL    HW127590   1.057   2.621   2.086
 8897SOL    HW227591   1.146   2.484   2.093
 8898SOL     OW27592   0.147   2.897   5.269
 8898SOL    HW127593   0.108   2.955   5.197
 8898SOL    HW227594   0.144   2.946   5.356
 8899SOL     OW27595   3.332   5.184   1.700
 8899SOL    HW127596   3.337   5.117   1.626
 8899SOL    HW227597   3.303   5.272   1.664
 8900SOL     OW27598   6.711   1.896   3.852
 8900SOL    HW127599   6.742   1.983   3.892
 8900SOL    HW227600   6.625   1.869   3.896
 8901SOL     OW27601   1.941   7.009   1.974
 8901SOL    HW127602   1.849   0.022   1.961
 8901SOL    HW227603   1.991   7.011   1.887
 8902SOL     OW27604   3.796   6.589   5.408
 8902SOL    HW127605   3.745   6.503   5.421
 8902SOL    HW227606   3.891   6.568   5.386
 8903SOL     OW27607   6.747   0.805   2.918
 8903SOL    HW127608   6.775   0.891   2.962
 8903SOL    HW227609   6.762   0.729   2.981
 8904SOL     OW27610   1.071   4.311   3.632
 8904SOL    HW127611   0.973   4.303   3.651
 8904SOL    HW227612   1.118   4.346   3.714
 8905SOL     OW27613   2.069   4.169   4.959
 8905SOL    HW127614   2.115   4.243   4.909
 8905SOL    HW227615   2.138   4.105   4.994
 8906SOL     OW27616   2.321   5.515   4.742
 8906SOL    HW127617   2.356   5.433   4.786
 8906SOL    HW227618   2.264   5.490   4.664
 8907SOL     OW27619   3.348   2.575   6.451
 8907SOL    HW127620   3.319   2.508   6.383
 8907SOL    HW227621   3.427   2.626   6.417
 8908SOL     OW27622   0.767   3.279   2.797
 8908SOL    HW127623   0.700   3.222   2.845
 8908SOL    HW227624   0.808   3.344   2.862
 8909SOL     OW27625   3.438   6.848   5.589
 8909SOL    HW127626   3.377   6.924   5.610
 8909SOL    HW227627   3.401   6.796   5.511
 8910SOL     OW27628   4.321   2.809   0.228
 8910SOL    HW127629   4.280   2.883   0.175
 8910SOL    HW227630   4.272   2.724   0.211
 8911SOL     OW27631   5.233   2.727   3.783
 8911SOL    HW127632   5.226   2.825   3.765
 8911SOL    HW227633   5.142   2.691   3.804
 8912SOL     OW27634   4.540   1.078   6.759
 8912SOL    HW127635   4.523   1.171   6.727
 8912SOL    HW227636   4.472   1.016   6.720
 8913SOL     OW27637   4.293   4.047   1.048
 8913SOL    HW127638   4.382   4.041   1.002
 8913SOL    HW227639   4.299   4.112   1.124
 8914SOL     OW27640   4.887   2.502   4.097
 8914SOL    HW127641   4.941   2.440   4.154
 8914SOL    HW227642   4.946   2.540   4.025
 8915SOL     OW27643   0.713   4.978   2.460
 8915SOL    HW127644   0.808   4.968   2.431
 8915SOL    HW227645   0.688   5.075   2.460
 8916SOL     OW27646   6.150   3.443   1.895
 8916SOL    HW127647   6.087   3.454   1.972
 8916SOL    HW227648   6.111   3.378   1.830
 8917SOL     OW27649   5.351   4.405   5.470
 8917SOL    HW127650   5.372   4.477   5.536
 8917SOL    HW227651   5.431   4.388   5.412
 8918SOL     OW27652   4.799   3.819   6.188
 8918SOL    HW127653   4.732   3.883   6.150
 8918SOL    HW227654   4.783   3.728   6.151
 8919SOL     OW27655   2.132   3.418   1.615
 8919SOL    HW127656   2.151   3.351   1.542
 8919SOL    HW227657   2.035   3.417   1.636
 8920SOL     OW27658   6.503   5.386   5.621
 8920SOL    HW127659   6.493   5.289   5.640
 8920SOL    HW227660   6.598   5.406   5.596
 8921SOL     OW27661   1.071   5.685   3.779
 8921SOL    HW127662   1.015   5.626   3.837
 8921SOL    HW227663   1.122   5.629   3.714
 8922SOL     OW27664   0.089   3.251   6.604
 8922SOL    HW127665   0.173   3.302   6.585
 8922SOL    HW227666   0.065   3.260   6.700
 8923SOL     OW27667   2.776   4.733   4.424
 8923SOL    HW127668   2.764   4.791   4.343
 8923SOL    HW227669   2.790   4.639   4.396
 8924SOL     OW27670   2.210   6.528   4.482
 8924SOL    HW127671   2.243   6.517   4.576
 8924SOL    HW227672   2.111   6.545   4.483
 8925SOL     OW27673   4.360   5.450   1.177
 8925SOL    HW127674   4.366   5.517   1.103
 8925SOL    HW227675   4.304   5.373   1.148
 8926SOL     OW27676   5.796   0.077   6.827
 8926SOL    HW127677   5.860   0.146   6.793
 8926SOL    HW227678   5.786   0.004   6.760
 8927SOL     OW27679   2.683   1.777   4.558
 8927SOL    HW127680   2.689   1.710   4.632
 8927SOL    HW227681   2.695   1.869   4.595
 8928SOL     OW27682   0.837   0.493   5.385
 8928SOL    HW127683   0.830   0.557   5.461
 8928SOL    HW227684   0.912   0.429   5.403
 8929SOL     OW27685   5.018   4.073   3.170
 8929SOL    HW127686   5.073   4.133   3.228
 8929SOL    HW227687   4.921   4.095   3.182
 8930SOL     OW27688   0.352   5.885   5.314
 8930SOL    HW127689   0.270   5.941   5.325
 8930SOL    HW227690   0.433   5.939   5.340
 8931SOL     OW27691   4.504   1.065   1.578
 8931SOL    HW127692   4.456   1.145   1.541
 8931SOL    HW227693   4.540   1.087   1.669
 8932SOL     OW27694   4.688   0.653   0.597
 8932SOL    HW127695   4.601   0.608   0.577
 8932SOL    HW227696   4.716   0.631   0.690
 8933SOL     OW27697   1.758   6.963   5.361
 8933SOL    HW127698   1.703   6.885   5.332
 8933SOL    HW227699   1.853   6.935   5.371
 8934SOL     OW27700   3.721   6.587   3.794
 8934SOL    HW127701   3.761   6.590   3.886
 8934SOL    HW227702   3.633   6.540   3.797
 8935SOL     OW27703   5.795   1.822   2.935
 8935SOL    HW127704   5.801   1.900   2.997
 8935SOL    HW227705   5.883   1.806   2.892
 8936SOL     OW27706   1.426   3.950   2.192
 8936SOL    HW127707   1.460   3.990   2.107
 8936SOL    HW227708   1.503   3.923   2.249
 8937SOL     OW27709   3.272   6.879   4.824
 8937SOL    HW127710   3.223   6.961   4.795
 8937SOL    HW227711   3.244   6.801   4.768
 8938SOL     OW27712   5.444   6.309   1.714
 8938SOL    HW127713   5.482   6.220   1.738
 8938SOL    HW227714   5.465   6.330   1.619
 8939SOL     OW27715   6.690   2.569   4.184
 8939SOL    HW127716   6.698   2.587   4.086
 8939SOL    HW227717   6.597   2.541   4.205
 8940SOL     OW27718   6.376   3.446   2.296
 8940SOL    HW127719   6.358   3.464   2.199
 8940SOL    HW227720   6.302   3.487   2.350
 8941SOL     OW27721   5.628   2.383   3.394
 8941SOL    HW127722   5.580   2.468   3.414
 8941SOL    HW227723   5.640   2.331   3.479
 8942SOL     OW27724   4.600   5.118   3.917
 8942SOL    HW127725   4.631   5.141   3.825
 8942SOL    HW227726   4.518   5.170   3.939
 8943SOL     OW27727   4.152   3.690   0.509
 8943SOL    HW127728   4.062   3.729   0.525
 8943SOL    HW227729   4.193   3.662   0.596
 8944SOL     OW27730   4.733   6.133   4.734
 8944SOL    HW127731   4.761   6.049   4.688
 8944SOL    HW227732   4.665   6.181   4.679
 8945SOL     OW27733   6.366   4.857   1.492
 8945SOL    HW127734   6.400   4.769   1.459
 8945SOL    HW227735   6.333   4.911   1.415
 8946SOL     OW27736   3.453   1.553   4.573
 8946SOL    HW127737   3.433   1.630   4.513
 8946SOL    HW227738   3.376   1.488   4.569
 8947SOL     OW27739   2.422   5.166   0.268
 8947SOL    HW127740   2.385   5.252   0.305
 8947SOL    HW227741   2.346   5.107   0.240
 8948SOL     OW27742   5.516   0.479   2.673
 8948SOL    HW127743   5.449   0.552   2.688
 8948SOL    HW227744   5.581   0.508   2.602
 8949SOL     OW27745   4.058   6.615   0.638
 8949SOL    HW127746   4.157   6.626   0.645
 8949SOL    HW227747   4.035   6.570   0.551
 8950SOL     OW27748   3.638   4.150   3.568
 8950SOL    HW127749   3.692   4.083   3.518
 8950SOL    HW227750   3.677   4.164   3.659
 8951SOL     OW27751   0.566   0.544   3.843
 8951SOL    HW127752   0.664   0.566   3.841
 8951SOL    HW227753   0.520   0.589   3.767
 8952SOL     OW27754   1.480   4.050   4.880
 8952SOL    HW127755   1.421   3.988   4.932
 8952SOL    HW227756   1.549   3.996   4.832
 8953SOL     OW27757   0.522   5.090   0.740
 8953SOL    HW127758   0.543   5.177   0.696
 8953SOL    HW227759   0.441   5.100   0.798
 8954SOL     OW27760   2.400   4.405   5.470
 8954SOL    HW127761   2.387   4.478   5.403
 8954SOL    HW227762   2.479   4.349   5.446
 8955SOL     OW27763   6.169   3.265   5.950
 8955SOL    HW127764   6.092   3.276   6.012
 8955SOL    HW227765   6.254   3.282   5.999
 8956SOL     OW27766   1.034   6.209   1.143
 8956SOL    HW127767   1.045   6.211   1.243
 8956SOL    HW227768   0.998   6.297   1.112
 8957SOL     OW27769   0.813   7.014   3.862
 8957SOL    HW127770   0.894   6.987   3.914
 8957SOL    HW227771   0.841   0.053   3.787
 8958SOL     OW27772   6.956   3.423   4.869
 8958SOL    HW127773   6.947   3.515   4.907
 8958SOL    HW227774   6.897   3.360   4.920
 8959SOL     OW27775   4.771   1.344   4.041
 8959SOL    HW127776   4.813   1.433   4.021
 8959SOL    HW227777   4.719   1.313   3.962
 8960SOL     OW27778   5.202   5.407   2.421
 8960SOL    HW127779   5.165   5.320   2.388
 8960SOL    HW227780   5.270   5.390   2.493
 8961SOL     OW27781   2.373   1.780   5.537
 8961SOL    HW127782   2.472   1.787   5.549
 8961SOL    HW227783   2.329   1.767   5.626
 8962SOL     OW27784   6.912   6.510   1.573
 8962SOL    HW127785   6.900   6.414   1.549
 8962SOL    HW227786   6.978   6.517   1.648
 8963SOL     OW27787   2.372   5.400   5.642
 8963SOL    HW127788   2.276   5.426   5.642
 8963SOL    HW227789   2.389   5.331   5.712
 8964SOL     OW27790   1.115   2.535   3.942
 8964SOL    HW127791   1.141   2.608   4.005
 8964SOL    HW227792   1.187   2.524   3.873
 8965SOL     OW27793   3.435   5.690   0.129
 8965SOL    HW127794   3.368   5.699   0.202
 8965SOL    HW227795   3.460   5.594   0.118
 8966SOL     OW27796   4.769   0.183   5.609
 8966SOL    HW127797   4.705   0.228   5.546
 8966SOL    HW227798   4.738   0.196   5.703
 8967SOL     OW27799   2.695   0.255   3.283
 8967SOL    HW127800   2.679   0.273   3.185
 8967SOL    HW227801   2.778   0.302   3.312
 8968SOL     OW27802   2.733   5.265   2.492
 8968SOL    HW127803   2.799   5.251   2.565
 8968SOL    HW227804   2.727   5.183   2.436
 8969SOL     OW27805   6.986   0.766   2.635
 8969SOL    HW127806   0.024   0.696   2.597
 8969SOL    HW227807   6.968   0.836   2.566
 8970SOL     OW27808   2.173   1.712   4.350
 8970SOL    HW127809   2.208   1.625   4.315
 8970SOL    HW227810   2.138   1.766   4.274
 8971SOL     OW27811   3.166   4.652   1.393
 8971SOL    HW127812   3.206   4.653   1.301
 8971SOL    HW227813   3.086   4.712   1.395
 8972SOL     OW27814   6.179   3.988   6.298
 8972SOL    HW127815   6.242   3.990   6.376
 8972SOL    HW227816   6.230   3.971   6.214
 8973SOL     OW27817   2.551   1.962   3.662
 8973SOL    HW127818   2.603   1.876   3.662
 8973SOL    HW227819   2.493   1.966   3.743
 8974SOL     OW27820   1.606   4.892   5.411
 8974SOL    HW127821   1.689   4.912   5.464
 8974SOL    HW227822   1.574   4.800   5.433
 8975SOL     OW27823   0.688   3.469   6.201
 8975SOL    HW127824   0.685   3.501   6.107
 8975SOL    HW227825   0.596   3.444   6.231
 8976SOL     OW27826   6.247   0.463   1.565
 8976SOL    HW127827   6.212   0.404   1.637
 8976SOL    HW227828   6.211   0.556   1.578
 8977SOL     OW27829   0.266   5.310   5.924
 8977SOL    HW127830   0.347   5.278   5.876
 8977SOL    HW227831   0.193   5.327   5.858
 8978SOL     OW27832   6.581   5.076   5.342
 8978SOL    HW127833   6.497   5.075   5.395
 8978SOL    HW227834   6.560   5.096   5.246
 8979SOL     OW27835   1.691   4.307   3.921
 8979SOL    HW127836   1.604   4.339   3.960
 8979SOL    HW227837   1.675   4.272   3.828
 8980SOL     OW27838   4.635   0.802   0.996
 8980SOL    HW127839   4.638   0.899   1.019
 8980SOL    HW227840   4.545   0.765   1.022
 8981SOL     OW27841   4.110   2.253   6.876
 8981SOL    HW127842   4.058   2.168   6.866
 8981SOL    HW227843   4.183   2.240   6.943
 8982SOL     OW27844   0.350   0.916   2.393
 8982SOL    HW127845   0.390   0.898   2.482
 8982SOL    HW227846   0.318   0.831   2.352
 8983SOL     OW27847   1.366   6.265   2.445
 8983SOL    HW127848   1.376   6.363   2.459
 8983SOL    HW227849   1.402   6.215   2.524
 8984SOL     OW27850   5.965   1.116   3.697
 8984SOL    HW127851   5.955   1.169   3.613
 8984SOL    HW227852   6.002   1.174   3.769
 8985SOL     OW27853   5.087   0.012   2.031
 8985SOL    HW127854   5.079   7.022   1.933
 8985SOL    HW227855   5.170   0.063   2.052
 8986SOL     OW27856   0.617   6.684   6.925
 8986SOL    HW127857   0.547   6.646   6.864
 8986SOL    HW227858   0.697   6.624   6.924
 8987SOL     OW27859   3.207   6.230   2.450
 8987SOL    HW127860   3.172   6.141   2.422
 8987SOL    HW227861   3.196   6.295   2.374
 8988SOL     OW27862   2.346   0.023   0.820
 8988SOL    HW127863   2.376   0.087   0.749
 8988SOL    HW227864   2.386   0.049   0.908
 8989SOL     OW27865   6.108   1.034   1.846
 8989SOL    HW127866   6.097   1.068   1.939
 8989SOL    HW227867   6.167   1.096   1.794
 8990SOL     OW27868   3.625   1.220   2.564
 8990SOL    HW127869   3.630   1.127   2.529
 8990SOL    HW227870   3.530   1.245   2.582
 8991SOL     OW27871   1.147   2.043   0.882
 8991SOL    HW127872   1.049   2.062   0.875
 8991SOL    HW227873   1.176   2.056   0.977
 8992SOL     OW27874   0.749   5.311   5.600
 8992SOL    HW127875   0.798   5.229   5.629
 8992SOL    HW227876   0.652   5.289   5.588
 8993SOL     OW27877   5.261   4.030   3.915
 8993SOL    HW127878   5.288   3.940   3.949
 8993SOL    HW227879   5.266   4.096   3.990
 8994SOL     OW27880   1.821   6.078   1.895
 8994SOL    HW127881   1.879   6.079   1.814
 8994SOL    HW227882   1.863   6.133   1.967
 8995SOL     OW27883   2.119   3.863   3.612
 8995SOL    HW127884   2.185   3.903   3.675
 8995SOL    HW227885   2.144   3.887   3.518
 8996SOL     OW27886   2.768   3.885   1.269
 8996SOL    HW127887   2.712   3.894   1.187
 8996SOL    HW227888   2.756   3.794   1.307
 8997SOL     OW27889   4.301   1.565   4.910
 8997SOL    HW127890   4.340   1.577   4.819
 8997SOL    HW227891   4.355   1.616   4.977
 8998SOL     OW27892   0.909   1.786   6.728
 8998SOL    HW127893   0.851   1.868   6.721
 8998SOL    HW227894   0.852   1.708   6.753
 8999SOL     OW27895   5.793   2.879   5.527
 8999SOL    HW127896   5.720   2.934   5.485
 8999SOL    HW227897   5.752   2.813   5.590
 9000SOL     OW27898   4.828   4.771   1.423
 9000SOL    HW127899   4.758   4.832   1.385
 9000SOL    HW227900   4.809   4.677   1.394
 9001SOL     OW27901   1.104   3.301   4.234
 9001SOL    HW127902   1.154   3.351   4.304
 9001SOL    HW227903   1.144   3.319   4.144
 9002SOL     OW27904   5.063   2.570   5.272
 9002SOL    HW127905   5.066   2.670   5.261
 9002SOL    HW227906   4.981   2.545   5.323
 9003SOL     OW27907   6.647   3.003   6.786
 9003SOL    HW127908   6.569   3.001   6.849
 9003SOL    HW227909   6.640   3.084   6.728
 9004SOL     OW27910   4.700   5.705   0.421
 9004SOL    HW127911   4.632   5.633   0.430
 9004SOL    HW227912   4.782   5.669   0.377
 9005SOL     OW27913   4.953   3.446   3.720
 9005SOL    HW127914   4.876   3.421   3.779
 9005SOL    HW227915   4.946   3.542   3.695
 9006SOL     OW27916   2.993   6.528   1.597
 9006SOL    HW127917   2.941   6.505   1.679
 9006SOL    HW227918   3.067   6.591   1.620
 9007SOL     OW27919   1.815   6.249   5.456
 9007SOL    HW127920   1.798   6.191   5.536
 9007SOL    HW227921   1.835   6.191   5.377
 9008SOL     OW27922   0.108   4.184   2.053
 9008SOL    HW127923   0.159   4.269   2.045
 9008SOL    HW227924   0.088   4.149   1.961
 9009SOL     OW27925   4.100   6.315   0.098
 9009SOL    HW127926   4.143   6.388   0.151
 9009SOL    HW227927   4.031   6.355   0.037
 9010SOL     OW27928   6.802   5.831   4.547
 9010SOL    HW127929   6.896   5.864   4.543
 9010SOL    HW227930   6.794   5.762   4.619
 9011SOL     OW27931   4.485   2.547   1.936
 9011SOL    HW127932   4.496   2.493   1.852
 9011SOL    HW227933   4.533   2.634   1.926
 9012SOL     OW27934   4.176   5.006   2.656
 9012SOL    HW127935   4.185   4.980   2.560
 9012SOL    HW227936   4.239   4.952   2.711
 9013SOL     OW27937   4.187   5.800   1.590
 9013SOL    HW127938   4.269   5.858   1.596
 9013SOL    HW227939   4.151   5.783   1.681
 9014SOL     OW27940   2.557   0.857   1.868
 9014SOL    HW127941   2.627   0.827   1.805
 9014SOL    HW227942   2.473   0.805   1.852
 9015SOL     OW27943   6.627   2.217   4.708
 9015SOL    HW127944   6.582   2.261   4.631
 9015SOL    HW227945   6.607   2.119   4.707
 9016SOL     OW27946   0.337   6.174   6.957
 9016SOL    HW127947   0.325   6.138   0.027
 9016SOL    HW227948   0.264   6.239   6.937
 9017SOL     OW27949   6.288   3.430   3.065
 9017SOL    HW127950   6.373   3.405   3.111
 9017SOL    HW227951   6.212   3.382   3.109
 9018SOL     OW27952   4.360   1.538   6.660
 9018SOL    HW127953   4.383   1.450   6.700
 9018SOL    HW227954   4.261   1.551   6.662
 9019SOL     OW27955   1.778   5.458   6.781
 9019SOL    HW127956   1.808   5.501   6.695
 9019SOL    HW227957   1.707   5.514   6.822
 9020SOL     OW27958   0.805   4.954   4.675
 9020SOL    HW127959   0.774   4.928   4.584
 9020SOL    HW227960   0.832   4.872   4.726
 9021SOL     OW27961   6.264   5.484   5.734
 9021SOL    HW127962   6.195   5.526   5.674
 9021SOL    HW227963   6.311   5.412   5.684
 9022SOL     OW27964   2.062   7.019   6.089
 9022SOL    HW127965   1.980   0.034   6.133
 9022SOL    HW227966   2.142   0.015   6.147
 9023SOL     OW27967   3.617   4.112   4.135
 9023SOL    HW127968   3.709   4.073   4.130
 9023SOL    HW227969   3.550   4.045   4.102
 9024SOL     OW27970   1.171   0.269   6.760
 9024SOL    HW127971   1.223   0.215   6.694
 9024SOL    HW227972   1.147   0.212   6.838
 9025SOL     OW27973   0.259   3.273   0.258
 9025SOL    HW127974   0.197   3.206   0.217
 9025SOL    HW227975   0.317   3.227   0.326
 9026SOL     OW27976   2.862   3.210   5.704
 9026SOL    HW127977   2.839   3.304   5.675
 9026SOL    HW227978   2.886   3.210   5.801
 9027SOL     OW27979   1.793   3.470   2.719
 9027SOL    HW127980   1.737   3.433   2.644
 9027SOL    HW227981   1.770   3.422   2.804
 9028SOL     OW27982   2.203   4.546   4.951
 9028SOL    HW127983   2.189   4.502   5.039
 9028SOL    HW227984   2.173   4.641   4.956
 9029SOL     OW27985   5.470   5.051   2.718
 9029SOL    HW127986   5.412   5.129   2.742
 9029SOL    HW227987   5.429   5.001   2.641
 9030SOL     OW27988   4.663   2.468   3.238
 9030SOL    HW127989   4.654   2.392   3.304
 9030SOL    HW227990   4.646   2.554   3.285
 9031SOL     OW27991   2.531   1.306   2.088
 9031SOL    HW127992   2.478   1.322   2.005
 9031SOL    HW227993   2.561   1.211   2.091
 9032SOL     OW27994   0.299   3.504   2.205
 9032SOL    HW127995   0.354   3.477   2.127
 9032SOL    HW227996   0.353   3.497   2.289
 9033SOL     OW27997   1.058   3.601   2.982
 9033SOL    HW127998   1.107   3.607   2.894
 9033SOL    HW227999   1.059   3.691   3.026
 9034SOL     OW28000   1.547   6.956   6.775
 9034SOL    HW128001   1.620   6.904   6.820
 9034SOL    HW228002   1.475   6.977   6.842
 9035SOL     OW28003   6.107   1.001   4.194
 9035SOL    HW128004   6.067   0.918   4.232
 9035SOL    HW228005   6.035   1.055   4.150
 9036SOL     OW28006   0.813   1.496   4.875
 9036SOL    HW128007   0.756   1.487   4.794
 9036SOL    HW228008   0.879   1.569   4.862
 9037SOL     OW28009   2.448   4.331   6.023
 9037SOL    HW128010   2.484   4.238   6.036
 9037SOL    HW228011   2.456   4.356   5.927
 9038SOL     OW28012   4.471   5.250   5.432
 9038SOL    HW128013   4.446   5.214   5.342
 9038SOL    HW228014   4.491   5.348   5.424
 9039SOL     OW28015   2.588   5.170   6.949
 9039SOL    HW128016   2.628   5.138   0.013
 9039SOL    HW228017   2.660   5.185   6.882
 9040SOL     OW28018   3.276   1.189   2.253
 9040SOL    HW128019   3.227   1.190   2.165
 9040SOL    HW228020   3.210   1.182   2.328
 9041SOL     OW28021   2.489   2.394   5.950
 9041SOL    HW128022   2.520   2.301   5.927
 9041SOL    HW228023   2.397   2.408   5.916
 9042SOL     OW28024   1.667   5.366   2.379
 9042SOL    HW128025   1.598   5.401   2.443
 9042SOL    HW228026   1.692   5.273   2.404
 9043SOL     OW28027   0.350   1.699   6.793
 9043SOL    HW128028   0.407   1.735   6.867
 9043SOL    HW228029   0.257   1.683   6.827
 9044SOL     OW28030   0.819   4.235   0.368
 9044SOL    HW128031   0.918   4.236   0.383
 9044SOL    HW228032   0.795   4.156   0.311
 9045SOL     OW28033   2.253   4.967   4.669
 9045SOL    HW128034   2.262   4.982   4.767
 9045SOL    HW228035   2.216   5.049   4.626
 9046SOL     OW28036   3.516   4.402   6.316
 9046SOL    HW128037   3.615   4.413   6.329
 9046SOL    HW228038   3.478   4.350   6.392
 9047SOL     OW28039   0.949   3.985   4.506
 9047SOL    HW128040   0.940   3.904   4.449
 9047SOL    HW228041   0.902   4.062   4.462
 9048SOL     OW28042   1.692   2.855   5.200
 9048SOL    HW128043   1.668   2.915   5.124
 9048SOL    HW228044   1.670   2.760   5.177
 9049SOL     OW28045   4.839   6.386   5.857
 9049SOL    HW128046   4.838   6.287   5.871
 9049SOL    HW228047   4.799   6.408   5.768
 9050SOL     OW28048   6.793   4.122   6.083
 9050SOL    HW128049   6.822   4.120   6.179
 9050SOL    HW228050   6.753   4.211   6.063
 9051SOL     OW28051   6.166   6.228   6.372
 9051SOL    HW128052   6.215   6.219   6.285
 9051SOL    HW228053   6.208   6.167   6.440
 9052SOL     OW28054   2.728   5.168   4.921
 9052SOL    HW128055   2.670   5.201   4.848
 9052SOL    HW228056   2.682   5.093   4.969
 9053SOL     OW28057   2.484   1.268   2.851
 9053SOL    HW128058   2.513   1.356   2.813
 9053SOL    HW228059   2.384   1.268   2.861
 9054SOL     OW28060   1.370   7.009   1.418
 9054SOL    HW128061   1.275   0.015   1.428
 9054SOL    HW228062   1.403   6.974   1.506
 9055SOL     OW28063   1.293   2.602   4.871
 9055SOL    HW128064   1.391   2.619   4.860
 9055SOL    HW228065   1.241   2.670   4.818
 9056SOL     OW28066   4.877   2.501   1.401
 9056SOL    HW128067   4.938   2.555   1.459
 9056SOL    HW228068   4.909   2.406   1.398
 9057SOL     OW28069   3.837   6.818   6.646
 9057SOL    HW128070   3.765   6.811   6.577
 9057SOL    HW228071   3.817   6.757   6.722
 9058SOL     OW28072   2.512   2.132   4.137
 9058SOL    HW128073   2.601   2.090   4.120
 9058SOL    HW228074   2.522   2.231   4.144
 9059SOL     OW28075   6.947   0.632   2.243
 9059SOL    HW128076   7.006   0.591   2.313
 9059SOL    HW228077   6.878   0.565   2.214
 9060SOL     OW28078   6.623   5.060   0.227
 9060SOL    HW128079   6.660   5.152   0.236
 9060SOL    HW228080   6.582   5.032   0.313
 9061SOL     OW28081   4.745   4.203   2.307
 9061SOL    HW128082   4.653   4.228   2.276
 9061SOL    HW228083   4.749   4.104   2.322
 9062SOL     OW28084   0.227   5.780   2.936
 9062SOL    HW128085   0.141   5.739   2.967
 9062SOL    HW228086   0.208   5.844   2.861
 9063SOL     OW28087   4.991   0.044   1.046
 9063SOL    HW128088   4.904   7.017   1.045
 9063SOL    HW228089   5.006   0.088   0.958
 9064SOL     OW28090   1.443   5.786   2.993
 9064SOL    HW128091   1.350   5.796   2.959
 9064SOL    HW228092   1.448   5.817   3.088
 9065SOL     OW28093   3.261   4.193   6.715
 9065SOL    HW128094   3.286   4.256   6.789
 9065SOL    HW228095   3.166   4.210   6.689
 9066SOL     OW28096   5.353   4.662   3.569
 9066SOL    HW128097   5.257   4.681   3.550
 9066SOL    HW228098   5.364   4.639   3.666
 9067SOL     OW28099   2.119   6.744   4.119
 9067SOL    HW128100   2.190   6.812   4.098
 9067SOL    HW228101   2.029   6.782   4.097
 9068SOL     OW28102   4.967   0.199   6.029
 9068SOL    HW128103   4.900   0.271   6.045
 9068SOL    HW228104   4.925   0.110   6.048
 9069SOL     OW28105   4.893   2.403   1.850
 9069SOL    HW128106   4.835   2.369   1.924
 9069SOL    HW228107   4.888   2.502   1.846
 9070SOL     OW28108   1.374   0.729   6.314
 9070SOL    HW128109   1.363   0.828   6.314
 9070SOL    HW228110   1.469   0.706   6.294
 9071SOL     OW28111   4.852   2.729   0.033
 9071SOL    HW128112   4.949   2.712   0.014
 9071SOL    HW228113   4.840   2.823   0.064
 9072SOL     OW28114   6.417   1.028   1.995
 9072SOL    HW128115   6.437   0.939   2.035
 9072SOL    HW228116   6.333   1.064   2.035
 9073SOL     OW28117   4.601   2.784   6.017
 9073SOL    HW128118   4.660   2.865   6.021
 9073SOL    HW228119   4.630   2.726   5.941
 9074SOL     OW28120   2.169   0.979   3.677
 9074SOL    HW128121   2.196   0.921   3.754
 9074SOL    HW228122   2.239   1.049   3.662
 9075SOL     OW28123   4.938   5.569   0.320
 9075SOL    HW128124   4.994   5.646   0.351
 9075SOL    HW228125   4.977   5.484   0.355
 9076SOL     OW28126   1.624   5.756   2.572
 9076SOL    HW128127   1.688   5.761   2.649
 9076SOL    HW228128   1.670   5.714   2.494
 9077SOL     OW28129   6.160   1.366   6.095
 9077SOL    HW128130   6.139   1.359   5.998
 9077SOL    HW228131   6.252   1.405   6.106
 9078SOL     OW28132   5.105   6.627   6.937
 9078SOL    HW128133   5.069   6.624   0.008
 9078SOL    HW228134   5.118   6.722   6.909
 9079SOL     OW28135   1.438   1.359   6.565
 9079SOL    HW128136   1.396   1.391   6.650
 9079SOL    HW228137   1.413   1.422   6.491
 9080SOL     OW28138   6.350   4.430   1.406
 9080SOL    HW128139   6.258   4.468   1.397
 9080SOL    HW228140   6.417   4.505   1.405
 9081SOL     OW28141   5.080   1.606   0.143
 9081SOL    HW128142   5.086   1.604   0.043
 9081SOL    HW228143   5.055   1.698   0.173
 9082SOL     OW28144   3.051   4.866   6.579
 9082SOL    HW128145   2.959   4.836   6.555
 9082SOL    HW228146   3.102   4.790   6.619
 9083SOL     OW28147   4.148   0.640   0.861
 9083SOL    HW128148   4.067   0.687   0.898
 9083SOL    HW228149   4.161   0.667   0.765
 9084SOL     OW28150   6.804   4.655   4.583
 9084SOL    HW128151   6.727   4.625   4.527
 9084SOL    HW228152   6.884   4.597   4.565
 9085SOL     OW28153   2.642   4.462   1.020
 9085SOL    HW128154   2.554   4.436   1.060
 9085SOL    HW228155   2.701   4.382   1.015
 9086SOL     OW28156   6.750   2.503   0.733
 9086SOL    HW128157   6.670   2.443   0.725
 9086SOL    HW228158   6.740   2.581   0.672
 9087SOL     OW28159   5.021   1.157   1.478
 9087SOL    HW128160   5.031   1.129   1.574
 9087SOL    HW228161   5.111   1.163   1.436
 9088SOL     OW28162   5.482   6.169   6.558
 9088SOL    HW128163   5.487   6.179   6.657
 9088SOL    HW228164   5.558   6.218   6.515
 9089SOL     OW28165   5.172   5.051   2.609
 9089SOL    HW128166   5.228   5.048   2.526
 9089SOL    HW228167   5.089   5.105   2.590
 9090SOL     OW28168   6.288   5.908   5.463
 9090SOL    HW128169   6.195   5.892   5.497
 9090SOL    HW228170   6.311   5.837   5.397
 9091SOL     OW28171   2.847   2.011   1.979
 9091SOL    HW128172   2.930   2.054   2.013
 9091SOL    HW228173   2.811   2.064   1.902
 9092SOL     OW28174   2.447   1.730   5.188
 9092SOL    HW128175   2.399   1.814   5.213
 9092SOL    HW228176   2.387   1.674   5.131
 9093SOL     OW28177   2.127   3.578   0.546
 9093SOL    HW128178   2.154   3.489   0.582
 9093SOL    HW228179   2.099   3.569   0.450
 9094SOL     OW28180   6.428   2.775   0.692
 9094SOL    HW128181   6.488   2.811   0.763
 9094SOL    HW228182   6.352   2.726   0.734
 9095SOL     OW28183   1.597   2.699   6.977
 9095SOL    HW128184   1.559   2.622   0.006
 9095SOL    HW228185   1.567   2.785   7.020
 9096SOL     OW28186   6.502   4.901   2.927
 9096SOL    HW128187   6.447   4.957   2.989
 9096SOL    HW228188   6.442   4.856   2.861
 9097SOL     OW28189   6.482   6.086   5.983
 9097SOL    HW128190   6.517   6.123   5.897
 9097SOL    HW228191   6.501   5.988   5.986
 9098SOL     OW28192   3.665   3.456   5.048
 9098SOL    HW128193   3.621   3.540   5.018
 9098SOL    HW228194   3.616   3.377   5.010
 9099SOL     OW28195   1.741   2.526   6.783
 9099SOL    HW128196   1.671   2.582   6.825
 9099SOL    HW228197   1.808   2.499   6.853
 9100SOL     OW28198   1.314   2.702   0.549
 9100SOL    HW128199   1.228   2.726   0.506
 9100SOL    HW228200   1.390   2.729   0.490
 9101SOL     OW28201   2.081   2.540   6.784
 9101SOL    HW128202   2.068   2.448   6.747
 9101SOL    HW228203   2.151   2.538   6.855
 9102SOL     OW28204   4.552   6.267   1.823
 9102SOL    HW128205   4.640   6.295   1.862
 9102SOL    HW228206   4.485   6.253   1.896
 9103SOL     OW28207   0.720   4.354   6.237
 9103SOL    HW128208   0.753   4.317   6.324
 9103SOL    HW228209   0.622   4.332   6.227
 9104SOL     OW28210   4.883   0.246   3.027
 9104SOL    HW128211   4.918   0.198   2.946
 9104SOL    HW228212   4.785   0.259   3.019
 9105SOL     OW28213   3.077   2.011   6.363
 9105SOL    HW128214   3.043   2.101   6.334
 9105SOL    HW228215   3.000   1.956   6.395
 9106SOL     OW28216   6.330   5.629   2.104
 9106SOL    HW128217   6.274   5.579   2.169
 9106SOL    HW228218   6.331   5.726   2.127
 9107SOL     OW28219   4.999   6.427   6.583
 9107SOL    HW128220   5.093   6.415   6.550
 9107SOL    HW228221   4.980   6.524   6.595
 9108SOL     OW28222   3.699   5.817   0.075
 9108SOL    HW128223   3.604   5.786   0.064
 9108SOL    HW228224   3.759   5.763   0.016
 9109SOL     OW28225   3.124   1.537   3.958
 9109SOL    HW128226   3.118   1.489   3.871
 9109SOL    HW228227   3.037   1.583   3.976
 9110SOL     OW28228   1.225   3.769   3.288
 9110SOL    HW128229   1.216   3.792   3.191
 9110SOL    HW228230   1.136   3.779   3.334
 9111SOL     OW28231   4.418   3.759   1.537
 9111SOL    HW128232   4.473   3.785   1.458
 9111SOL    HW228233   4.332   3.810   1.536
 9112SOL     OW28234   0.957   5.700   2.113
 9112SOL    HW128235   0.891   5.736   2.046
 9112SOL    HW228236   1.050   5.729   2.087
 9113SOL     OW28237   2.845   5.599   6.928
 9113SOL    HW128238   2.761   5.552   6.903
 9113SOL    HW228239   2.856   5.681   6.871
 9114SOL     OW28240   2.672   3.705   1.607
 9114SOL    HW128241   2.607   3.774   1.636
 9114SOL    HW228242   2.645   3.616   1.643
 9115SOL     OW28243   2.127   4.170   4.646
 9115SOL    HW128244   2.207   4.230   4.651
 9115SOL    HW228245   2.144   4.088   4.700
 9116SOL     OW28246   2.566   1.846   6.484
 9116SOL    HW128247   2.502   1.833   6.408
 9116SOL    HW228248   2.628   1.768   6.489
 9117SOL     OW28249   0.416   3.726   0.221
 9117SOL    HW128250   0.367   3.645   0.188
 9117SOL    HW228251   0.426   3.720   0.320
 9118SOL     OW28252   0.766   6.166   1.573
 9118SOL    HW128253   0.703   6.112   1.517
 9118SOL    HW228254   0.806   6.107   1.643
 9119SOL     OW28255   6.313   0.241   1.132
 9119SOL    HW128256   6.382   0.262   1.062
 9119SOL    HW228257   6.351   0.174   1.196
 9120SOL     OW28258   6.153   0.754   6.816
 9120SOL    HW128259   6.205   0.690   6.759
 9120SOL    HW228260   6.056   0.744   6.797
 9121SOL     OW28261   1.666   1.894   6.614
 9121SOL    HW128262   1.730   1.842   6.670
 9121SOL    HW228263   1.665   1.857   6.521
 9122SOL     OW28264   1.066   2.791   1.299
 9122SOL    HW128265   1.060   2.721   1.227
 9122SOL    HW228266   1.039   2.750   1.386
 9123SOL     OW28267   2.392   6.752   6.776
 9123SOL    HW128268   2.361   6.834   6.825
 9123SOL    HW228269   2.409   6.679   6.842
 9124SOL     OW28270   6.597   4.613   5.595
 9124SOL    HW128271   6.656   4.688   5.625
 9124SOL    HW228272   6.627   4.528   5.637
 9125SOL     OW28273   4.779   5.797   0.855
 9125SOL    HW128274   4.813   5.822   0.946
 9125SOL    HW228275   4.744   5.703   0.858
 9126SOL     OW28276   5.991   6.882   3.024
 9126SOL    HW128277   6.058   6.896   2.952
 9126SOL    HW228278   6.006   6.793   3.067
 9127SOL     OW28279   5.582   5.755   5.796
 9127SOL    HW128280   5.647   5.680   5.809
 9127SOL    HW228281   5.593   5.821   5.870
 9128SOL     OW28282   4.794   2.458   5.399
 9128SOL    HW128283   4.696   2.473   5.400
 9128SOL    HW228284   4.824   2.421   5.487
 9129SOL     OW28285   2.035   1.839   0.061
 9129SOL    HW128286   2.123   1.828   0.015
 9129SOL    HW228287   1.963   1.850   7.015
 9130SOL     OW28288   6.221   6.002   1.107
 9130SOL    HW128289   6.132   6.044   1.127
 9130SOL    HW228290   6.292   6.047   1.160
 9131SOL     OW28291   1.304   4.987   4.076
 9131SOL    HW128292   1.214   4.997   4.118
 9131SOL    HW228293   1.369   5.050   4.120
 9132SOL     OW28294   2.051   2.893   4.293
 9132SOL    HW128295   2.061   2.974   4.235
 9132SOL    HW228296   2.063   2.811   4.238
 9133SOL     OW28297   1.784   5.117   1.454
 9133SOL    HW128298   1.730   5.155   1.379
 9133SOL    HW228299   1.735   5.040   1.495
 9134SOL     OW28300   2.737   4.957   6.106
 9134SOL    HW128301   2.700   4.866   6.127
 9134SOL    HW228302   2.732   5.014   6.187
 9135SOL     OW28303   1.041   6.493   4.291
 9135SOL    HW128304   1.033   6.423   4.361
 9135SOL    HW228305   0.975   6.566   4.310
 9136SOL     OW28306   3.683   5.297   5.409
 9136SOL    HW128307   3.705   5.378   5.354
 9136SOL    HW228308   3.688   5.321   5.506
 9137SOL     OW28309   4.147   0.796   1.692
 9137SOL    HW128310   4.114   0.800   1.598
 9137SOL    HW228311   4.069   0.804   1.755
 9138SOL     OW28312   2.942   4.132   1.179
 9138SOL    HW128313   2.918   4.038   1.203
 9138SOL    HW228314   2.987   4.176   1.256
 9139SOL     OW28315   3.277   0.898   6.001
 9139SOL    HW128316   3.211   0.878   5.929
 9139SOL    HW228317   3.288   0.817   6.060
 9140SOL     OW28318   6.660   2.810   3.664
 9140SOL    HW128319   6.581   2.779   3.716
 9140SOL    HW228320   6.681   2.905   3.688
 9141SOL     OW28321   5.625   0.460   5.741
 9141SOL    HW128322   5.563   0.504   5.805
 9141SOL    HW228323   5.626   0.511   5.655
 9142SOL     OW28324   0.867   4.398   6.669
 9142SOL    HW128325   0.873   4.497   6.663
 9142SOL    HW228326   0.948   4.357   6.627
 9143SOL     OW28327   5.640   4.447   0.780
 9143SOL    HW128328   5.665   4.362   0.826
 9143SOL    HW228329   5.722   4.492   0.745
 9144SOL     OW28330   1.368   5.101   4.669
 9144SOL    HW128331   1.422   5.044   4.731
 9144SOL    HW228332   1.322   5.173   4.721
 9145SOL     OW28333   0.391   4.033   6.311
 9145SOL    HW128334   0.432   3.948   6.276
 9145SOL    HW228335   0.295   4.017   6.332
 9146SOL     OW28336   0.676   1.955   1.429
 9146SOL    HW128337   0.677   1.947   1.330
 9146SOL    HW228338   0.649   1.868   1.470
 9147SOL     OW28339   4.680   6.126   5.830
 9147SOL    HW128340   4.655   6.110   5.925
 9147SOL    HW228341   4.599   6.152   5.778
 9148SOL     OW28342   3.326   5.325   3.172
 9148SOL    HW128343   3.330   5.410   3.118
 9148SOL    HW228344   3.286   5.252   3.117
 9149SOL     OW28345   6.148   2.776   4.750
 9149SOL    HW128346   6.099   2.693   4.776
 9149SOL    HW228347   6.217   2.753   4.680
 9150SOL     OW28348   4.289   1.426   2.808
 9150SOL    HW128349   4.294   1.398   2.904
 9150SOL    HW228350   4.267   1.523   2.803
 9151SOL     OW28351   0.891   3.198   1.966
 9151SOL    HW128352   0.958   3.219   2.037
 9151SOL    HW228353   0.865   3.102   1.971
 9152SOL     OW28354   2.274   5.385   3.611
 9152SOL    HW128355   2.339   5.438   3.557
 9152SOL    HW228356   2.306   5.290   3.619
 9153SOL     OW28357   1.373   3.057   6.768
 9153SOL    HW128358   1.411   2.968   6.744
 9153SOL    HW228359   1.377   3.118   6.689
 9154SOL     OW28360   1.690   5.496   0.498
 9154SOL    HW128361   1.632   5.415   0.510
 9154SOL    HW228362   1.784   5.474   0.524
 9155SOL     OW28363   1.552   4.296   6.924
 9155SOL    HW128364   1.584   4.212   6.967
 9155SOL    HW228365   1.490   4.344   6.986
 9156SOL     OW28366   5.187   2.475   1.640
 9156SOL    HW128367   5.134   2.396   1.670
 9156SOL    HW228368   5.125   2.542   1.598
 9157SOL     OW28369   5.270   3.803   5.749
 9157SOL    HW128370   5.370   3.798   5.748
 9157SOL    HW228371   5.232   3.711   5.743
 9158SOL     OW28372   0.488   4.081   3.536
 9158SOL    HW128373   0.468   4.170   3.578
 9158SOL    HW228374   0.432   4.071   3.454
 9159SOL     OW28375   7.013   4.842   2.505
 9159SOL    HW128376   6.995   4.875   2.598
 9159SOL    HW228377   0.017   4.918   2.447
 9160SOL     OW28378   0.148   0.132   0.812
 9160SOL    HW128379   0.067   0.186   0.834
 9160SOL    HW228380   0.151   0.114   0.714
 9161SOL     OW28381   5.261   3.867   2.623
 9161SOL    HW128382   5.223   3.804   2.555
 9161SOL    HW228383   5.271   3.820   2.711
 9162SOL     OW28384   5.250   2.282   2.557
 9162SOL    HW128385   5.198   2.198   2.572
 9162SOL    HW228386   5.190   2.351   2.517
 9163SOL     OW28387   3.032   0.984   4.768
 9163SOL    HW128388   3.130   0.986   4.746
 9163SOL    HW228389   3.017   1.031   4.855
 9164SOL     OW28390   2.664   0.474   0.870
 9164SOL    HW128391   2.671   0.458   0.968
 9164SOL    HW228392   2.636   0.390   0.824
 9165SOL     OW28393   4.554   5.812   0.192
 9165SOL    HW128394   4.461   5.778   0.175
 9165SOL    HW228395   4.594   5.762   0.269
 9166SOL     OW28396   2.598   5.475   1.399
 9166SOL    HW128397   2.616   5.410   1.473
 9166SOL    HW228398   2.666   5.461   1.326
 9167SOL     OW28399   0.400   4.066   4.815
 9167SOL    HW128400   0.334   4.049   4.742
 9167SOL    HW228401   0.472   4.127   4.781
 9168SOL     OW28402   3.288   0.659   0.078
 9168SOL    HW128403   3.314   0.587   0.014
 9168SOL    HW228404   3.369   0.714   0.102
 9169SOL     OW28405   0.409   6.880   3.016
 9169SOL    HW128406   0.397   6.944   3.093
 9169SOL    HW228407   0.321   6.865   2.971
 9170SOL     OW28408   6.333   6.173   6.977
 9170SOL    HW128409   6.364   6.118   0.033
 9170SOL    HW228410   6.410   6.187   6.914
 9171SOL     OW28411   3.055   5.799   5.415
 9171SOL    HW128412   3.097   5.730   5.356
 9171SOL    HW228413   2.990   5.756   5.477
 9172SOL     OW28414   2.744   2.382   4.013
 9172SOL    HW128415   2.778   2.352   4.102
 9172SOL    HW228416   2.799   2.341   3.940
 9173SOL     OW28417   0.880   5.051   5.170
 9173SOL    HW128418   0.817   5.105   5.226
 9173SOL    HW228419   0.853   5.058   5.074
 9174SOL     OW28420   0.324   5.876   6.902
 9174SOL    HW128421   0.265   5.838   6.831
 9174SOL    HW228422   0.315   5.976   6.903
 9175SOL     OW28423   1.631   6.533   5.924
 9175SOL    HW128424   1.624   6.544   5.825
 9175SOL    HW228425   1.572   6.600   5.969
 9176SOL     OW28426   1.550   1.963   5.698
 9176SOL    HW128427   1.622   2.032   5.704
 9176SOL    HW228428   1.587   1.873   5.717
 9177SOL     OW28429   1.439   4.575   3.285
 9177SOL    HW128430   1.357   4.629   3.265
 9177SOL    HW228431   1.417   4.507   3.354
 9178SOL     OW28432   2.117   4.331   0.335
 9178SOL    HW128433   2.062   4.394   0.281
 9178SOL    HW228434   2.214   4.341   0.311
 9179SOL     OW28435   2.323   4.967   4.954
 9179SOL    HW128436   2.289   5.018   5.033
 9179SOL    HW228437   2.417   4.939   4.970
 9180SOL     OW28438   5.833   2.075   3.125
 9180SOL    HW128439   5.798   2.135   3.052
 9180SOL    HW228440   5.845   2.128   3.209
 9181SOL     OW28441   4.010   1.346   1.930
 9181SOL    HW128442   4.030   1.429   1.878
 9181SOL    HW228443   3.991   1.271   1.866
 9182SOL     OW28444   2.343   6.764   2.018
 9182SOL    HW128445   2.355   6.707   1.936
 9182SOL    HW228446   2.308   6.708   2.093
 9183SOL     OW28447   4.985   5.548   5.937
 9183SOL    HW128448   4.989   5.645   5.960
 9183SOL    HW228449   4.936   5.536   5.851
 9184SOL     OW28450   4.770   6.495   6.937
 9184SOL    HW128451   4.790   6.450   6.850
 9184SOL    HW228452   4.706   6.438   6.989
 9185SOL     OW28453   4.591   1.613   4.702
 9185SOL    HW128454   4.672   1.605   4.760
 9185SOL    HW228455   4.564   1.522   4.671
 9186SOL     OW28456   5.284   0.009   6.533
 9186SOL    HW128457   5.305   0.015   6.436
 9186SOL    HW228458   5.298   0.098   6.576
 9187SOL     OW28459   2.742   6.625   2.378
 9187SOL    HW128460   2.837   6.601   2.401
 9187SOL    HW228461   2.684   6.544   2.389
 9188SOL     OW28462   2.324   6.074   0.886
 9188SOL    HW128463   2.288   6.162   0.918
 9188SOL    HW228464   2.251   6.006   0.890
 9189SOL     OW28465   5.167   5.027   1.885
 9189SOL    HW128466   5.235   4.980   1.829
 9189SOL    HW228467   5.206   5.111   1.921
 9190SOL     OW28468   0.856   5.768   0.700
 9190SOL    HW128469   0.942   5.818   0.714
 9190SOL    HW228470   0.830   5.722   0.785
 9191SOL     OW28471   6.744   0.533   6.158
 9191SOL    HW128472   6.703   0.616   6.196
 9191SOL    HW228473   6.840   0.550   6.137
 9192SOL     OW28474   1.287   3.848   5.021
 9192SOL    HW128475   1.335   3.788   5.085
 9192SOL    HW228476   1.319   3.829   4.928
 9193SOL     OW28477   2.355   3.485   0.242
 9193SOL    HW128478   2.320   3.397   0.275
 9193SOL    HW228479   2.408   3.529   0.314
 9194SOL     OW28480   2.919   0.546   4.530
 9194SOL    HW128481   2.991   0.592   4.582
 9194SOL    HW228482   2.961   0.483   4.464
 9195SOL     OW28483   1.605   1.069   3.919
 9195SOL    HW128484   1.629   0.979   3.881
 9195SOL    HW228485   1.646   1.078   4.010
 9196SOL     OW28486   5.006   1.349   5.742
 9196SOL    HW128487   4.999   1.273   5.807
 9196SOL    HW228488   4.929   1.412   5.756
 9197SOL     OW28489   2.395   3.997   0.445
 9197SOL    HW128490   2.296   3.984   0.437
 9197SOL    HW228491   2.414   4.084   0.491
 9198SOL     OW28492   0.850   4.800   4.061
 9198SOL    HW128493   0.874   4.725   4.122
 9198SOL    HW228494   0.932   4.830   4.011
 9199SOL     OW28495   5.937   3.985   5.024
 9199SOL    HW128496   5.862   3.986   5.091
 9199SOL    HW228497   6.021   4.016   5.067
 9200SOL     OW28498   3.147   0.510   0.323
 9200SOL    HW128499   3.152   0.418   0.285
 9200SOL    HW228500   3.184   0.576   0.257
 9201SOL     OW28501   2.044   4.623   0.793
 9201SOL    HW128502   1.996   4.607   0.707
 9201SOL    HW228503   1.978   4.638   0.867
 9202SOL     OW28504   2.229   0.773   3.853
 9202SOL    HW128505   2.326   0.751   3.851
 9202SOL    HW228506   2.178   0.694   3.885
 9203SOL     OW28507   6.416   6.821   0.557
 9203SOL    HW128508   6.468   6.770   0.626
 9203SOL    HW228509   6.465   6.906   0.534
 9204SOL     OW28510   5.676   0.095   5.112
 9204SOL    HW128511   5.642   0.088   5.206
 9204SOL    HW228512   5.742   0.023   5.094
 9205SOL     OW28513   6.963   5.386   1.593
 9205SOL    HW128514   6.883   5.336   1.627
 9205SOL    HW228515   0.023   5.350   1.636
 9206SOL     OW28516   3.551   6.318   0.283
 9206SOL    HW128517   3.645   6.283   0.282
 9206SOL    HW228518   3.502   6.283   0.203
 9207SOL     OW28519   5.261   5.487   6.309
 9207SOL    HW128520   5.287   5.432   6.230
 9207SOL    HW228521   5.339   5.542   6.339
 9208SOL     OW28522   1.426   3.795   2.738
 9208SOL    HW128523   1.331   3.771   2.722
 9208SOL    HW228524   1.438   3.894   2.727
 9209SOL     OW28525   2.175   0.083   6.821
 9209SOL    HW128526   2.196   0.052   6.914
 9209SOL    HW228527   2.139   0.006   6.768
 9210SOL     OW28528   6.711   1.062   3.622
 9210SOL    HW128529   6.638   1.082   3.687
 9210SOL    HW228530   6.767   0.987   3.656
 9211SOL     OW28531   0.563   1.865   2.727
 9211SOL    HW128532   0.534   1.801   2.655
 9211SOL    HW228533   0.536   1.829   2.816
 9212SOL     OW28534   3.569   5.362   4.581
 9212SOL    HW128535   3.657   5.401   4.607
 9212SOL    HW228536   3.580   5.305   4.500
 9213SOL     OW28537   6.212   4.264   6.515
 9213SOL    HW128538   6.240   4.172   6.542
 9213SOL    HW228539   6.113   4.265   6.498
 9214SOL     OW28540   0.259   5.091   0.132
 9214SOL    HW128541   0.331   5.128   0.073
 9214SOL    HW228542   0.180   5.067   0.076
 9215SOL     OW28543   1.200   1.612   1.026
 9215SOL    HW128544   1.139   1.644   1.099
 9215SOL    HW228545   1.283   1.668   1.026
 9216SOL     OW28546   2.242   0.168   3.666
 9216SOL    HW128547   2.171   0.172   3.735
 9216SOL    HW228548   2.318   0.112   3.699
 9217SOL     OW28549   0.370   2.924   0.592
 9217SOL    HW128550   0.421   2.843   0.622
 9217SOL    HW228551   0.288   2.934   0.649
 9218SOL     OW28552   1.945   1.222   0.618
 9218SOL    HW128553   2.002   1.178   0.549
 9218SOL    HW228554   1.941   1.321   0.600
 9219SOL     OW28555   6.686   1.674   0.373
 9219SOL    HW128556   6.735   1.599   0.419
 9219SOL    HW228557   6.619   1.712   0.436
 9220SOL     OW28558   3.584   5.946   0.936
 9220SOL    HW128559   3.582   5.873   1.005
 9220SOL    HW228560   3.679   5.966   0.912
 9221SOL     OW28561   2.657   4.694   4.840
 9221SOL    HW128562   2.720   4.650   4.905
 9221SOL    HW228563   2.581   4.633   4.820
 9222SOL     OW28564   2.975   2.286   6.273
 9222SOL    HW128565   2.880   2.315   6.266
 9222SOL    HW228566   3.035   2.366   6.269
 9223SOL     OW28567   2.758   3.216   5.265
 9223SOL    HW128568   2.680   3.156   5.247
 9223SOL    HW228569   2.727   3.311   5.269
 9224SOL     OW28570   2.195   4.827   5.294
 9224SOL    HW128571   2.175   4.924   5.308
 9224SOL    HW228572   2.120   4.785   5.243
 9225SOL     OW28573   1.882   6.608   0.043
 9225SOL    HW128574   1.840   6.555   6.992
 9225SOL    HW228575   1.848   6.702   0.041
 9226SOL     OW28576   4.293   6.490   0.617
 9226SOL    HW128577   4.323   6.410   0.565
 9226SOL    HW228578   4.370   6.551   0.633
 9227SOL     OW28579   1.551   6.751   2.064
 9227SOL    HW128580   1.488   6.761   1.987
 9227SOL    HW228581   1.598   6.663   2.058
 9228SOL     OW28582   0.851   0.008   6.894
 9228SOL    HW128583   0.771   6.982   6.929
 9228SOL    HW228584   0.854   7.022   6.794
 9229SOL     OW28585   0.556   5.735   5.526
 9229SOL    HW128586   0.502   5.669   5.578
 9229SOL    HW228587   0.494   5.792   5.471
 9230SOL     OW28588   4.944   1.080   3.313
 9230SOL    HW128589   4.882   1.066   3.390
 9230SOL    HW228590   4.905   1.148   3.250
 9231SOL     OW28591   2.097   3.452   3.747
 9231SOL    HW128592   2.049   3.523   3.798
 9231SOL    HW228593   2.107   3.481   3.652
 9232SOL     OW28594   4.352   4.992   0.932
 9232SOL    HW128595   4.414   4.916   0.953
 9232SOL    HW228596   4.272   4.957   0.884
 9233SOL     OW28597   4.884   4.377   0.805
 9233SOL    HW128598   4.913   4.430   0.725
 9233SOL    HW228599   4.938   4.405   0.884
 9234SOL     OW28600   1.734   6.244   3.619
 9234SOL    HW128601   1.635   6.258   3.630
 9234SOL    HW228602   1.766   6.179   3.687
 9235SOL     OW28603   0.596   2.224   3.665
 9235SOL    HW128604   0.593   2.311   3.617
 9235SOL    HW228605   0.636   2.238   3.756
 9236SOL     OW28606   4.186   2.490   5.782
 9236SOL    HW128607   4.168   2.405   5.831
 9236SOL    HW228608   4.162   2.568   5.839
 9237SOL     OW28609   1.612   3.694   3.544
 9237SOL    HW128610   1.573   3.609   3.509
 9237SOL    HW228611   1.623   3.687   3.643
 9238SOL     OW28612   4.345   3.422   6.591
 9238SOL    HW128613   4.328   3.355   6.663
 9238SOL    HW228614   4.384   3.505   6.631
 9239SOL     OW28615   1.364   3.398   6.386
 9239SOL    HW128616   1.286   3.336   6.382
 9239SOL    HW228617   1.364   3.447   6.473
 9240SOL     OW28618   4.907   1.023   1.723
 9240SOL    HW128619   4.834   1.090   1.740
 9240SOL    HW228620   4.938   0.986   1.810
 9241SOL     OW28621   0.634   5.148   6.409
 9241SOL    HW128622   0.607   5.242   6.392
 9241SOL    HW228623   0.728   5.146   6.446
 9242SOL     OW28624   6.127   6.073   1.769
 9242SOL    HW128625   6.205   6.135   1.770
 9242SOL    HW228626   6.043   6.125   1.783
 9243SOL     OW28627   5.784   6.407   4.302
 9243SOL    HW128628   5.816   6.323   4.260
 9243SOL    HW228629   5.862   6.466   4.322
 9244SOL     OW28630   3.600   5.433   0.488
 9244SOL    HW128631   3.599   5.336   0.514
 9244SOL    HW228632   3.680   5.477   0.529
 9245SOL     OW28633   0.627   6.661   1.307
 9245SOL    HW128634   0.617   6.744   1.253
 9245SOL    HW228635   0.724   6.644   1.325
 9246SOL     OW28636   6.722   4.868   4.179
 9246SOL    HW128637   6.632   4.912   4.173
 9246SOL    HW228638   6.769   4.875   4.091
 9247SOL     OW28639   1.547   6.917   3.516
 9247SOL    HW128640   1.537   6.973   3.434
 9247SOL    HW228641   1.572   6.975   3.593
 9248SOL     OW28642   3.939   1.934   5.988
 9248SOL    HW128643   3.975   1.979   6.070
 9248SOL    HW228644   3.922   1.837   6.008
 9249SOL     OW28645   4.263   6.329   3.558
 9249SOL    HW128646   4.243   6.427   3.568
 9249SOL    HW228647   4.344   6.318   3.501
 9250SOL     OW28648   5.331   3.670   3.340
 9250SOL    HW128649   5.362   3.764   3.331
 9250SOL    HW228650   5.266   3.664   3.416
 9251SOL     OW28651   3.937   2.088   2.953
 9251SOL    HW128652   3.887   2.123   2.873
 9251SOL    HW228653   3.872   2.072   3.027
 9252SOL     OW28654   1.330   6.834   4.239
 9252SOL    HW128655   1.281   6.921   4.234
 9252SOL    HW228656   1.351   6.803   4.146
 9253SOL     OW28657   1.575   6.584   5.674
 9253SOL    HW128658   1.491   6.530   5.681
 9253SOL    HW228659   1.553   6.675   5.640
 9254SOL     OW28660   5.630   2.627   1.370
 9254SOL    HW128661   5.576   2.558   1.417
 9254SOL    HW228662   5.602   2.632   1.274
 9255SOL     OW28663   6.903   5.216   0.588
 9255SOL    HW128664   6.996   5.226   0.622
 9255SOL    HW228665   6.905   5.210   0.488
 9256SOL     OW28666   3.878   5.159   2.060
 9256SOL    HW128667   3.828   5.172   2.145
 9256SOL    HW228668   3.938   5.080   2.068
 9257SOL     OW28669   0.828   3.597   0.832
 9257SOL    HW128670   0.774   3.676   0.801
 9257SOL    HW228671   0.920   3.627   0.856
 9258SOL     OW28672   3.130   3.329   3.721
 9258SOL    HW128673   3.106   3.279   3.804
 9258SOL    HW228674   3.212   3.288   3.680
 9259SOL     OW28675   1.165   2.204   0.434
 9259SOL    HW128676   1.237   2.271   0.419
 9259SOL    HW228677   1.196   2.134   0.498
 9260SOL     OW28678   6.654   3.673   0.176
 9260SOL    HW128679   6.637   3.658   0.274
 9260SOL    HW228680   6.568   3.663   0.126
 9261SOL     OW28681   3.498   0.054   6.405
 9261SOL    HW128682   3.412   0.047   6.356
 9261SOL    HW228683   3.499   7.010   6.480
 9262SOL     OW28684   5.185   0.516   5.748
 9262SOL    HW128685   5.148   0.606   5.772
 9262SOL    HW228686   5.281   0.510   5.777
 9263SOL     OW28687   6.029   4.106   2.093
 9263SOL    HW128688   5.939   4.132   2.058
 9263SOL    HW228689   6.041   4.007   2.086
 9264SOL     OW28690   5.840   2.407   0.117
 9264SOL    HW128691   5.762   2.352   0.089
 9264SOL    HW228692   5.920   2.381   0.062
 9265SOL     OW28693   1.517   1.553   5.502
 9265SOL    HW128694   1.440   1.493   5.484
 9265SOL    HW228695   1.528   1.617   5.426
 9266SOL     OW28696   2.834   6.239   1.762
 9266SOL    HW128697   2.927   6.221   1.794
 9266SOL    HW228698   2.777   6.159   1.778
 9267SOL     OW28699   2.788   5.176   5.640
 9267SOL    HW128700   2.883   5.144   5.643
 9267SOL    HW228701   2.737   5.124   5.571
 9268SOL     OW28702   0.720   1.361   2.907
 9268SOL    HW128703   0.749   1.455   2.928
 9268SOL    HW228704   0.757   1.299   2.975
 9269SOL     OW28705   4.196   1.709   5.779
 9269SOL    HW128706   4.145   1.714   5.692
 9269SOL    HW228707   4.208   1.801   5.815
 9270SOL     OW28708   1.245   0.109   6.088
 9270SOL    HW128709   1.205   0.025   6.051
 9270SOL    HW228710   1.191   0.187   6.057
 9271SOL     OW28711   0.756   5.164   6.118
 9271SOL    HW128712   0.710   5.076   6.111
 9271SOL    HW228713   0.696   5.230   6.164
 9272SOL     OW28714   2.164   5.141   6.758
 9272SOL    HW128715   2.171   5.186   6.847
 9272SOL    HW228716   2.068   5.136   6.730
 9273SOL     OW28717   4.108   5.824   5.593
 9273SOL    HW128718   4.041   5.780   5.533
 9273SOL    HW228719   4.157   5.894   5.541
 9274SOL     OW28720   5.646   2.143   1.786
 9274SOL    HW128721   5.629   2.166   1.882
 9274SOL    HW228722   5.563   2.106   1.745
 9275SOL     OW28723   0.225   0.629   6.110
 9275SOL    HW128724   0.172   0.709   6.139
 9275SOL    HW228725   0.209   0.554   6.175
 9276SOL     OW28726   4.912   6.686   3.449
 9276SOL    HW128727   4.925   6.606   3.508
 9276SOL    HW228728   4.828   6.674   3.395
 9277SOL     OW28729   3.371   2.423   0.645
 9277SOL    HW128730   3.383   2.481   0.726
 9277SOL    HW228731   3.354   2.329   0.674
 9278SOL     OW28732   1.840   2.905   1.301
 9278SOL    HW128733   1.848   2.841   1.224
 9278SOL    HW228734   1.770   2.872   1.365
 9279SOL     OW28735   2.087   6.602   0.744
 9279SOL    HW128736   2.035   6.603   0.829
 9279SOL    HW228737   2.131   6.691   0.731
 9280SOL     OW28738   1.932   0.523   2.900
 9280SOL    HW128739   1.833   0.517   2.887
 9280SOL    HW228740   1.955   0.498   2.993
 9281SOL     OW28741   2.276   2.721   0.460
 9281SOL    HW128742   2.232   2.752   0.376
 9281SOL    HW228743   2.209   2.670   0.515
 9282SOL     OW28744   4.263   1.264   6.307
 9282SOL    HW128745   4.321   1.245   6.386
 9282SOL    HW228746   4.316   1.314   6.238
 9283SOL     OW28747   5.504   2.331   2.619
 9283SOL    HW128748   5.405   2.324   2.602
 9283SOL    HW228749   5.526   2.426   2.641
 9284SOL     OW28750   3.459   3.922   1.934
 9284SOL    HW128751   3.465   3.976   2.018
 9284SOL    HW228752   3.547   3.880   1.916
 9285SOL     OW28753   6.213   2.319   6.928
 9285SOL    HW128754   6.229   2.307   0.004
 9285SOL    HW228755   6.223   2.232   6.881
 9286SOL     OW28756   5.711   5.436   4.685
 9286SOL    HW128757   5.696   5.409   4.781
 9286SOL    HW228758   5.733   5.534   4.681
 9287SOL     OW28759   2.627   0.252   1.994
 9287SOL    HW128760   2.727   0.251   2.007
 9287SOL    HW228761   2.588   0.167   2.029
 9288SOL     OW28762   4.907   1.778   5.779
 9288SOL    HW128763   4.981   1.750   5.719
 9288SOL    HW228764   4.886   1.875   5.764
 9289SOL     OW28765   5.633   3.763   2.693
 9289SOL    HW128766   5.678   3.677   2.670
 9289SOL    HW228767   5.555   3.745   2.753
 9290SOL     OW28768   4.405   1.963   4.553
 9290SOL    HW128769   4.474   1.896   4.526
 9290SOL    HW228770   4.426   1.997   4.645
 9291SOL     OW28771   1.050   1.651   4.835
 9291SOL    HW128772   1.093   1.700   4.911
 9291SOL    HW228773   1.050   1.709   4.753
 9292SOL     OW28774   0.235   3.468   0.067
 9292SOL    HW128775   0.249   3.383   0.119
 9292SOL    HW228776   0.189   3.535   0.125
 9293SOL     OW28777   6.463   3.868   6.223
 9293SOL    HW128778   6.375   3.824   6.245
 9293SOL    HW228779   6.535   3.798   6.219
 9294SOL     OW28780   5.318   5.970   6.274
 9294SOL    HW128781   5.307   5.940   6.369
 9294SOL    HW228782   5.407   5.940   6.240
 9295SOL     OW28783   4.403   1.826   3.718
 9295SOL    HW128784   4.331   1.885   3.681
 9295SOL    HW228785   4.469   1.882   3.770
 9296SOL     OW28786   6.873   6.603   5.290
 9296SOL    HW128787   6.924   6.618   5.206
 9296SOL    HW228788   6.775   6.612   5.272
 9297SOL     OW28789   0.748   0.769   1.561
 9297SOL    HW128790   0.795   0.744   1.476
 9297SOL    HW228791   0.793   0.849   1.601
 9298SOL     OW28792   0.606   6.311   4.745
 9298SOL    HW128793   0.663   6.335   4.824
 9298SOL    HW228794   0.620   6.377   4.672
 9299SOL     OW28795   1.937   3.191   3.815
 9299SOL    HW128796   2.021   3.203   3.762
 9299SOL    HW228797   1.858   3.193   3.754
 9300SOL     OW28798   5.778   4.270   3.755
 9300SOL    HW128799   5.708   4.235   3.817
 9300SOL    HW228800   5.807   4.361   3.785
 9301SOL     OW28801   6.258   4.433   1.780
 9301SOL    HW128802   6.357   4.422   1.772
 9301SOL    HW228803   6.237   4.485   1.863
 9302SOL     OW28804   2.164   2.270   2.510
 9302SOL    HW128805   2.161   2.364   2.476
 9302SOL    HW228806   2.245   2.223   2.472
 9303SOL     OW28807   4.473   4.265   0.671
 9303SOL    HW128808   4.416   4.307   0.600
 9303SOL    HW228809   4.569   4.284   0.652
 9304SOL     OW28810   4.382   3.442   0.164
 9304SOL    HW128811   4.316   3.421   0.092
 9304SOL    HW228812   4.459   3.379   0.158
 9305SOL     OW28813   4.895   3.502   2.030
 9305SOL    HW128814   4.937   3.418   1.994
 9305SOL    HW228815   4.873   3.563   1.954
 9306SOL     OW28816   6.097   4.804   4.190
 9306SOL    HW128817   6.048   4.772   4.109
 9306SOL    HW228818   6.184   4.845   4.162
 9307SOL     OW28819   2.373   0.742   6.398
 9307SOL    HW128820   2.424   0.762   6.314
 9307SOL    HW228821   2.276   0.732   6.376
 9308SOL     OW28822   6.809   2.012   0.510
 9308SOL    HW128823   6.717   2.041   0.534
 9308SOL    HW228824   6.811   1.913   0.497
 9309SOL     OW28825   4.988   3.071   6.386
 9309SOL    HW128826   4.932   3.152   6.406
 9309SOL    HW228827   4.959   3.031   6.299
 9310SOL     OW28828   4.227   6.136   0.972
 9310SOL    HW128829   4.215   6.233   0.991
 9310SOL    HW228830   4.315   6.120   0.929
 9311SOL     OW28831   6.799   3.235   1.745
 9311SOL    HW128832   6.732   3.249   1.672
 9311SOL    HW228833   6.754   3.190   1.822
 9312SOL     OW28834   1.906   4.422   5.021
 9312SOL    HW128835   1.817   4.442   4.981
 9312SOL    HW228836   1.930   4.327   5.001
 9313SOL     OW28837   6.339   6.681   2.504
 9313SOL    HW128838   6.307   6.613   2.438
 9313SOL    HW228839   6.264   6.744   2.526
 9314SOL     OW28840   5.598   4.253   6.909
 9314SOL    HW128841   5.601   4.169   6.855
 9314SOL    HW228842   5.669   4.316   6.877
 9315SOL     OW28843   0.491   6.727   6.405
 9315SOL    HW128844   0.491   6.629   6.422
 9315SOL    HW228845   0.461   6.775   6.488
 9316SOL     OW28846   3.198   5.941   4.409
 9316SOL    HW128847   3.113   5.907   4.449
 9316SOL    HW228848   3.248   5.866   4.367
 9317SOL     OW28849   4.796   4.260   5.514
 9317SOL    HW128850   4.833   4.352   5.497
 9317SOL    HW228851   4.698   4.261   5.499
 9318SOL     OW28852   6.579   6.496   6.313
 9318SOL    HW128853   6.532   6.480   6.227
 9318SOL    HW228854   6.530   6.451   6.387
 9319SOL     OW28855   6.700   2.828   4.411
 9319SOL    HW128856   6.695   2.745   4.467
 9319SOL    HW228857   6.692   2.803   4.315
 9320SOL     OW28858   4.093   2.937   6.081
 9320SOL    HW128859   4.109   3.028   6.119
 9320SOL    HW228860   4.075   2.872   6.155
 9321SOL     OW28861   5.596   6.141   4.059
 9321SOL    HW128862   5.589   6.236   4.027
 9321SOL    HW228863   5.606   6.080   3.981
 9322SOL     OW28864   0.880   6.743   0.388
 9322SOL    HW128865   0.918   6.788   0.307
 9322SOL    HW228866   0.914   6.788   0.470
 9323SOL     OW28867   0.577   1.250   6.549
 9323SOL    HW128868   0.662   1.261   6.600
 9323SOL    HW228869   0.553   1.152   6.545
 9324SOL     OW28870   1.506   5.567   6.880
 9324SOL    HW128871   1.521   5.468   6.869
 9324SOL    HW228872   1.429   5.581   6.942
 9325SOL     OW28873   0.092   3.041   0.503
 9325SOL    HW128874   0.000   3.017   0.471
 9325SOL    HW228875   0.160   2.994   0.448
 9326SOL     OW28876   2.022   5.561   1.405
 9326SOL    HW128877   2.105   5.515   1.436
 9326SOL    HW228878   1.985   5.513   1.325
 9327SOL     OW28879   3.710   0.971   3.568
 9327SOL    HW128880   3.630   0.926   3.528
 9327SOL    HW228881   3.782   0.978   3.499
 9328SOL     OW28882   3.139   0.775   1.971
 9328SOL    HW128883   3.221   0.717   1.965
 9328SOL    HW228884   3.160   0.867   1.938
 9329SOL     OW28885   1.157   4.068   1.945
 9329SOL    HW128886   1.147   4.065   2.045
 9329SOL    HW228887   1.187   3.979   1.912
 9330SOL     OW28888   5.534   6.752   6.659
 9330SOL    HW128889   5.634   6.752   6.658
 9330SOL    HW228890   5.501   6.840   6.692
 9331SOL     OW28891   0.534   1.826   6.977
 9331SOL    HW128892   0.567   1.920   6.973
 9331SOL    HW228893   0.590   1.774   0.019
 9332SOL     OW28894   3.716   3.793   5.224
 9332SOL    HW128895   3.786   3.735   5.265
 9332SOL    HW228896   3.642   3.807   5.289
 9333SOL     OW28897   5.254   5.704   1.148
 9333SOL    HW128898   5.160   5.711   1.181
 9333SOL    HW228899   5.254   5.704   1.048
 9334SOL     OW28900   2.707   6.990   4.750
 9334SOL    HW128901   2.651   6.920   4.706
 9334SOL    HW228902   2.802   6.960   4.755
 9335SOL     OW28903   0.823   0.994   1.993
 9335SOL    HW128904   0.764   1.049   1.933
 9335SOL    HW228905   0.804   1.017   2.089
 9336SOL     OW28906   3.228   6.881   5.130
 9336SOL    HW128907   3.131   6.857   5.127
 9336SOL    HW228908   3.269   6.862   5.041
 9337SOL     OW28909   4.570   6.484   2.778
 9337SOL    HW128910   4.487   6.473   2.724
 9337SOL    HW228911   4.589   6.399   2.828
 9338SOL     OW28912   3.429   6.805   1.811
 9338SOL    HW128913   3.337   6.820   1.772
 9338SOL    HW228914   3.447   6.874   1.880
 9339SOL     OW28915   3.648   5.364   1.632
 9339SOL    HW128916   3.690   5.356   1.722
 9339SOL    HW228917   3.548   5.365   1.642
 9340SOL     OW28918   6.455   3.418   0.917
 9340SOL    HW128919   6.495   3.488   0.977
 9340SOL    HW228920   6.361   3.400   0.944
 9341SOL     OW28921   6.623   4.382   5.746
 9341SOL    HW128922   6.613   4.386   5.845
 9341SOL    HW228923   6.669   4.297   5.720
 9342SOL     OW28924   1.141   7.005   6.344
 9342SOL    HW128925   1.052   0.026   6.356
 9342SOL    HW228926   1.180   0.010   6.256
 9343SOL     OW28927   6.112   6.256   4.099
 9343SOL    HW128928   6.162   6.336   4.134
 9343SOL    HW228929   6.176   6.192   4.056
 9344SOL     OW28930   4.550   6.657   0.923
 9344SOL    HW128931   4.488   6.733   0.901
 9344SOL    HW228932   4.622   6.652   0.854
 9345SOL     OW28933   0.422   3.308   1.049
 9345SOL    HW128934   0.427   3.307   1.149
 9345SOL    HW228935   0.500   3.358   1.012
 9346SOL     OW28936   6.013   0.437   0.517
 9346SOL    HW128937   5.929   0.384   0.502
 9346SOL    HW228938   6.001   0.497   0.596
 9347SOL     OW28939   2.125   6.397   1.857
 9347SOL    HW128940   2.171   6.482   1.829
 9347SOL    HW228941   2.155   6.322   1.798
 9348SOL     OW28942   2.883   5.073   0.464
 9348SOL    HW128943   2.842   5.101   0.378
 9348SOL    HW228944   2.865   4.976   0.479
 9349SOL     OW28945   1.729   5.612   2.345
 9349SOL    HW128946   1.729   5.512   2.341
 9349SOL    HW228947   1.823   5.645   2.348
 9350SOL     OW28948   6.897   2.851   5.879
 9350SOL    HW128949   6.852   2.927   5.832
 9350SOL    HW228950   6.984   2.881   5.916
 9351SOL     OW28951   3.123   0.853   6.516
 9351SOL    HW128952   3.114   0.947   6.549
 9351SOL    HW228953   3.079   0.791   6.580
 9352SOL     OW28954   2.673   5.120   5.889
 9352SOL    HW128955   2.699   5.082   5.977
 9352SOL    HW228956   2.747   5.107   5.823
 9353SOL     OW28957   5.696   0.910   0.924
 9353SOL    HW128958   5.651   0.857   0.853
 9353SOL    HW228959   5.651   0.892   1.012
 9354SOL     OW28960   1.008   1.681   6.488
 9354SOL    HW128961   0.944   1.683   6.411
 9354SOL    HW228962   0.966   1.728   6.566
 9355SOL     OW28963   0.768   1.730   5.357
 9355SOL    HW128964   0.737   1.635   5.347
 9355SOL    HW228965   0.812   1.760   5.272
 9356SOL     OW28966   4.720   6.981   3.631
 9356SOL    HW128967   4.811   6.973   3.590
 9356SOL    HW228968   4.728   6.983   3.730
 9357SOL     OW28969   0.982   2.088   0.236
 9357SOL    HW128970   1.054   2.109   0.301
 9357SOL    HW228971   1.019   2.089   0.143
 9358SOL     OW28972   1.361   2.523   1.347
 9358SOL    HW128973   1.285   2.470   1.384
 9358SOL    HW228974   1.372   2.607   1.400
 9359SOL     OW28975   1.005   0.262   5.373
 9359SOL    HW128976   1.046   0.225   5.290
 9359SOL    HW228977   1.026   0.203   5.451
 9360SOL     OW28978   0.505   0.697   6.166
 9360SOL    HW128979   0.495   0.619   6.227
 9360SOL    HW228980   0.418   0.716   6.122
 9361SOL     OW28981   2.575   5.608   4.364
 9361SOL    HW128982   2.660   5.564   4.336
 9361SOL    HW228983   2.500   5.576   4.306
 9362SOL     OW28984   2.354   0.623   2.481
 9362SOL    HW128985   2.410   0.682   2.538
 9362SOL    HW228986   2.298   0.680   2.420
 9363SOL     OW28987   1.671   3.470   2.311
 9363SOL    HW128988   1.695   3.550   2.255
 9363SOL    HW228989   1.750   3.411   2.321
 9364SOL     OW28990   0.050   2.198   0.231
 9364SOL    HW128991   0.112   2.131   0.272
 9364SOL    HW228992   0.038   2.275   0.293
 9365SOL     OW28993   2.432   0.721   5.375
 9365SOL    HW128994   2.425   0.807   5.324
 9365SOL    HW228995   2.529   0.700   5.391
 9366SOL     OW28996   3.986   6.539   2.346
 9366SOL    HW128997   4.006   6.465   2.282
 9366SOL    HW228998   3.889   6.536   2.371
 9367SOL     OW28999   6.728   0.824   1.438
 9367SOL    HW129000   6.685   0.781   1.517
 9367SOL    HW229001   6.738   0.922   1.454
 9368SOL     OW29002   2.501   0.616   2.885
 9368SOL    HW129003   2.423   0.623   2.823
 9368SOL    HW229004   2.471   0.637   2.978
 9369SOL     OW29005   3.714   5.035   0.876
 9369SOL    HW129006   3.756   5.070   0.959
 9369SOL    HW229007   3.633   4.982   0.900
 9370SOL     OW29008   4.382   2.025   5.142
 9370SOL    HW129009   4.377   2.106   5.084
 9370SOL    HW229010   4.474   2.016   5.179
 9371SOL     OW29011   4.454   4.610   0.820
 9371SOL    HW129012   4.472   4.512   0.820
 9371SOL    HW229013   4.383   4.630   0.753
 9372SOL     OW29014   4.097   6.287   1.342
 9372SOL    HW129015   4.021   6.225   1.361
 9372SOL    HW229016   4.069   6.354   1.273
 9373SOL     OW29017   7.006   2.578   1.593
 9373SOL    HW129018   0.083   2.590   1.594
 9373SOL    HW229019   6.962   2.657   1.551
 9374SOL     OW29020   6.740   5.561   6.207
 9374SOL    HW129021   6.799   5.524   6.279
 9374SOL    HW229022   6.663   5.499   6.192
 9375SOL     OW29023   1.394   1.275   7.017
 9375SOL    HW129024   1.307   1.302   0.036
 9375SOL    HW229025   1.469   1.292   0.059
 9376SOL     OW29026   2.630   3.474   0.445
 9376SOL    HW129027   2.684   3.538   0.389
 9376SOL    HW229028   2.616   3.514   0.535
 9377SOL     OW29029   1.579   0.672   3.228
 9377SOL    HW129030   1.556   0.762   3.192
 9377SOL    HW229031   1.677   0.667   3.248
 9378SOL     OW29032   3.285   1.022   4.678
 9378SOL    HW129033   3.253   1.041   4.586
 9378SOL    HW229034   3.380   0.990   4.675
 9379SOL     OW29035   4.187   0.703   4.275
 9379SOL    HW129036   4.145   0.648   4.202
 9379SOL    HW229037   4.287   0.698   4.267
 9380SOL     OW29038   4.641   5.848   0.636
 9380SOL    HW129039   4.690   5.794   0.567
 9380SOL    HW229040   4.691   5.846   0.722
 9381SOL     OW29041   5.737   1.038   5.010
 9381SOL    HW129042   5.832   1.018   4.988
 9381SOL    HW229043   5.679   0.962   4.982
 9382SOL     OW29044   3.119   5.704   6.279
 9382SOL    HW129045   3.144   5.608   6.287
 9382SOL    HW229046   3.169   5.747   6.204
 9383SOL     OW29047   5.717   3.766   1.719
 9383SOL    HW129048   5.695   3.787   1.814
 9383SOL    HW229049   5.643   3.795   1.659
 9384SOL     OW29050   3.618   7.006   0.871
 9384SOL    HW129051   3.626   0.081   0.890
 9384SOL    HW229052   3.615   6.991   0.772
 9385SOL     OW29053   4.006   2.236   4.105
 9385SOL    HW129054   4.065   2.293   4.047
 9385SOL    HW229055   4.055   2.213   4.189
 9386SOL     OW29056   5.679   0.112   1.378
 9386SOL    HW129057   5.631   0.140   1.295
 9386SOL    HW229058   5.616   0.114   1.456
 9387SOL     OW29059   2.008   2.003   6.504
 9387SOL    HW129060   1.941   2.075   6.485
 9387SOL    HW229061   2.023   1.948   6.422
 9388SOL     OW29062   2.757   6.981   4.407
 9388SOL    HW129063   2.775   6.999   4.504
 9388SOL    HW229064   2.670   6.933   4.398
 9389SOL     OW29065   2.263   4.097   1.909
 9389SOL    HW129066   2.293   4.180   1.861
 9389SOL    HW229067   2.267   4.113   2.007
 9390SOL     OW29068   5.711   5.082   3.831
 9390SOL    HW129069   5.724   5.025   3.912
 9390SOL    HW229070   5.619   5.068   3.794
 9391SOL     OW29071   1.877   4.277   4.656
 9391SOL    HW129072   1.968   4.237   4.644
 9391SOL    HW229073   1.844   4.256   4.748
 9392SOL     OW29074   4.948   4.384   2.312
 9392SOL    HW129075   4.862   4.335   2.327
 9392SOL    HW229076   4.933   4.462   2.251
 9393SOL     OW29077   1.787   5.356   6.391
 9393SOL    HW129078   1.704   5.366   6.337
 9393SOL    HW229079   1.789   5.427   6.462
 9394SOL     OW29080   4.636   0.277   0.653
 9394SOL    HW129081   4.589   0.345   0.708
 9394SOL    HW229082   4.633   0.304   0.556
 9395SOL     OW29083   1.497   1.374   1.657
 9395SOL    HW129084   1.505   1.287   1.607
 9395SOL    HW229085   1.584   1.396   1.700
 9396SOL     OW29086   0.952   0.949   6.154
 9396SOL    HW129087   0.897   0.878   6.197
 9396SOL    HW229088   1.040   0.910   6.127
 9397SOL     OW29089   3.229   1.123   4.427
 9397SOL    HW129090   3.145   1.116   4.374
 9397SOL    HW229091   3.302   1.072   4.381
 9398SOL     OW29092   0.062   1.694   0.188
 9398SOL    HW129093   0.160   1.676   0.198
 9398SOL    HW229094   0.037   1.772   0.245
 9399SOL     OW29095   1.299   2.345   4.965
 9399SOL    HW129096   1.300   2.440   4.935
 9399SOL    HW229097   1.340   2.287   4.895
 9400SOL     OW29098   6.011   1.736   1.256
 9400SOL    HW129099   6.012   1.807   1.185
 9400SOL    HW229100   5.962   1.656   1.222
 9401SOL     OW29101   0.135   2.437   3.795
 9401SOL    HW129102   0.125   2.337   3.795
 9401SOL    HW229103   0.073   2.477   3.728
 9402SOL     OW29104   3.552   6.206   5.180
 9402SOL    HW129105   3.552   6.106   5.181
 9402SOL    HW229106   3.548   6.239   5.086
 9403SOL     OW29107   5.915   2.176   1.084
 9403SOL    HW129108   5.911   2.167   0.985
 9403SOL    HW229109   6.010   2.192   1.113
 9404SOL     OW29110   2.265   2.754   1.012
 9404SOL    HW129111   2.296   2.661   1.031
 9404SOL    HW229112   2.313   2.789   0.932
 9405SOL     OW29113   6.406   6.033   5.142
 9405SOL    HW129114   6.354   5.950   5.165
 9405SOL    HW229115   6.504   6.012   5.139
 9406SOL     OW29116   1.448   1.940   0.867
 9406SOL    HW129117   1.397   1.912   0.786
 9406SOL    HW229118   1.544   1.915   0.856
 9407SOL     OW29119   1.815   4.128   4.875
 9407SOL    HW129120   1.910   4.120   4.904
 9407SOL    HW229121   1.781   4.039   4.845
 9408SOL     OW29122   5.603   4.217   3.976
 9408SOL    HW129123   5.653   4.131   3.989
 9408SOL    HW229124   5.536   4.228   4.049
 9409SOL     OW29125   5.687   5.802   1.227
 9409SOL    HW129126   5.653   5.709   1.235
 9409SOL    HW229127   5.649   5.857   1.301
 9410SOL     OW29128   4.318   0.130   1.216
 9410SOL    HW129129   4.390   0.179   1.266
 9410SOL    HW229130   4.282   0.189   1.144
 9411SOL     OW29131   3.315   4.149   3.655
 9411SOL    HW129132   3.300   4.120   3.750
 9411SOL    HW229133   3.392   4.213   3.652
 9412SOL     OW29134   4.917   6.868   1.706
 9412SOL    HW129135   4.847   6.886   1.637
 9412SOL    HW229136   4.874   6.863   1.796
 9413SOL     OW29137   3.762   4.898   3.317
 9413SOL    HW129138   3.846   4.949   3.297
 9413SOL    HW229139   3.716   4.941   3.395
 9414SOL     OW29140   2.442   1.691   2.222
 9414SOL    HW129141   2.444   1.594   2.244
 9414SOL    HW229142   2.536   1.727   2.220
 9415SOL     OW29143   5.284   0.386   1.383
 9415SOL    HW129144   5.209   0.448   1.358
 9415SOL    HW229145   5.341   0.369   1.302
 9416SOL     OW29146   6.137   5.129   5.592
 9416SOL    HW129147   6.108   5.154   5.684
 9416SOL    HW229148   6.064   5.075   5.548
 9417SOL     OW29149   3.701   5.745   2.345
 9417SOL    HW129150   3.735   5.748   2.439
 9417SOL    HW229151   3.722   5.656   2.304
 9418SOL     OW29152   3.333   2.041   4.980
 9418SOL    HW129153   3.271   1.963   4.987
 9418SOL    HW229154   3.283   2.126   4.997
 9419SOL     OW29155   2.180   2.319   6.103
 9419SOL    HW129156   2.222   2.404   6.132
 9419SOL    HW229157   2.247   2.245   6.108
 9420SOL     OW29158   5.679   3.527   5.782
 9420SOL    HW129159   5.713   3.573   5.700
 9420SOL    HW229160   5.752   3.520   5.849
 9421SOL     OW29161   4.208   6.539   6.719
 9421SOL    HW129162   4.301   6.549   6.756
 9421SOL    HW229163   4.157   6.624   6.733
 9422SOL     OW29164   2.646   6.740   5.562
 9422SOL    HW129165   2.647   6.663   5.625
 9422SOL    HW229166   2.551   6.771   5.550
 9423SOL     OW29167   4.562   5.331   1.615
 9423SOL    HW129168   4.648   5.361   1.575
 9423SOL    HW229169   4.574   5.310   1.712
 9424SOL     OW29170   6.582   0.305   4.010
 9424SOL    HW129171   6.590   0.357   3.926
 9424SOL    HW229172   6.489   0.314   4.046
 9425SOL     OW29173   0.028   4.975   0.786
 9425SOL    HW129174   6.995   4.931   0.714
 9425SOL    HW229175   0.072   5.056   0.748
 9426SOL     OW29176   4.175   2.864   6.362
 9426SOL    HW129177   4.224   2.951   6.364
 9426SOL    HW229178   4.205   2.806   6.438
 9427SOL     OW29179   3.772   5.339   1.872
 9427SOL    HW129180   3.794   5.268   1.938
 9427SOL    HW229181   3.821   5.423   1.896
 9428SOL     OW29182   0.880   6.294   5.705
 9428SOL    HW129183   0.814   6.223   5.730
 9428SOL    HW229184   0.861   6.327   5.613
 9429SOL     OW29185   3.101   2.187   4.034
 9429SOL    HW129186   3.114   2.166   4.131
 9429SOL    HW229187   3.161   2.130   3.979
 9430SOL     OW29188   1.358   0.450   4.658
 9430SOL    HW129189   1.373   0.358   4.695
 9430SOL    HW229190   1.424   0.513   4.698
 9431SOL     OW29191   1.341   4.542   5.053
 9431SOL    HW129192   1.257   4.524   5.004
 9431SOL    HW229193   1.349   4.479   5.131
 9432SOL     OW29194   7.008   1.282   3.374
 9432SOL    HW129195   6.977   1.362   3.426
 9432SOL    HW229196   0.083   1.266   3.393
 9433SOL     OW29197   4.278   5.494   1.676
 9433SOL    HW129198   4.261   5.553   1.597
 9433SOL    HW229199   4.353   5.431   1.655
 9434SOL     OW29200   4.525   5.818   4.903
 9434SOL    HW129201   4.550   5.905   4.947
 9434SOL    HW229202   4.546   5.742   4.964
 9435SOL     OW29203   6.045   4.038   0.155
 9435SOL    HW129204   5.993   3.973   0.099
 9435SOL    HW229205   6.063   3.997   0.245
 9436SOL     OW29206   3.213   1.237   2.880
 9436SOL    HW129207   3.152   1.241   2.959
 9436SOL    HW229208   3.291   1.299   2.895
 9437SOL     OW29209   5.111   1.086   4.514
 9437SOL    HW129210   5.184   1.037   4.561
 9437SOL    HW229211   5.122   1.076   4.415
 9438SOL     OW29212   5.163   0.412   2.542
 9438SOL    HW129213   5.247   0.373   2.505
 9438SOL    HW229214   5.145   0.371   2.632
 9439SOL     OW29215   2.268   4.654   0.968
 9439SOL    HW129216   2.204   4.609   0.906
 9439SOL    HW229217   2.361   4.622   0.949
 9440SOL     OW29218   1.973   5.718   5.131
 9440SOL    HW129219   1.953   5.680   5.041
 9440SOL    HW229220   1.944   5.653   5.202
 9441SOL     OW29221   0.362   6.144   4.413
 9441SOL    HW129222   0.423   6.106   4.482
 9441SOL    HW229223   0.410   6.213   4.360
 9442SOL     OW29224   6.196   3.089   1.291
 9442SOL    HW129225   6.113   3.132   1.328
 9442SOL    HW229226   6.276   3.133   1.332
 9443SOL     OW29227   2.616   4.460   1.360
 9443SOL    HW129228   2.657   4.369   1.360
 9443SOL    HW229229   2.648   4.511   1.440
 9444SOL     OW29230   2.034   5.353   6.563
 9444SOL    HW129231   1.984   5.278   6.606
 9444SOL    HW229232   2.010   5.358   6.467
 9445SOL     OW29233   0.330   0.728   4.168
 9445SOL    HW129234   0.234   0.711   4.189
 9445SOL    HW229235   0.370   0.787   4.239
 9446SOL     OW29236   6.189   4.627   4.378
 9446SOL    HW129237   6.277   4.656   4.416
 9446SOL    HW229238   6.152   4.700   4.321
 9447SOL     OW29239   5.689   5.416   1.812
 9447SOL    HW129240   5.620   5.464   1.757
 9447SOL    HW229241   5.747   5.483   1.858
 9448SOL     OW29242   5.226   2.107   6.851
 9448SOL    HW129243   5.216   2.177   6.780
 9448SOL    HW229244   5.171   2.027   6.827
 9449SOL     OW29245   4.951   6.403   2.445
 9449SOL    HW129246   4.893   6.443   2.516
 9449SOL    HW229247   4.986   6.476   2.386
 9450SOL     OW29248   0.765   0.313   2.504
 9450SOL    HW129249   0.854   0.312   2.548
 9450SOL    HW229250   0.738   0.408   2.486
 9451SOL     OW29251   4.020   5.136   0.394
 9451SOL    HW129252   4.108   5.092   0.376
 9451SOL    HW229253   3.950   5.092   0.338
 9452SOL     OW29254   5.718   3.852   6.533
 9452SOL    HW129255   5.720   3.930   6.470
 9452SOL    HW229256   5.630   3.805   6.525
 9453SOL     OW29257   0.054   4.968   2.286
 9453SOL    HW129258   0.066   4.899   2.215
 9453SOL    HW229259   0.136   5.025   2.291
 9454SOL     OW29260   5.508   5.384   0.475
 9454SOL    HW129261   5.439   5.355   0.409
 9454SOL    HW229262   5.542   5.475   0.451
 9455SOL     OW29263   4.515   0.332   1.504
 9455SOL    HW129264   4.540   0.410   1.447
 9455SOL    HW229265   4.417   0.335   1.523
 9456SOL     OW29266   0.033   2.521   2.409
 9456SOL    HW129267   0.024   2.431   2.453
 9456SOL    HW229268   6.977   2.578   2.433
 9457SOL     OW29269   6.628   6.401   4.265
 9457SOL    HW129270   6.583   6.387   4.353
 9457SOL    HW229271   6.624   6.316   4.212
 9458SOL     OW29272   6.576   3.655   0.431
 9458SOL    HW129273   6.533   3.565   0.439
 9458SOL    HW229274   6.550   3.710   0.511
 9459SOL     OW29275   5.195   4.496   4.657
 9459SOL    HW129276   5.202   4.478   4.756
 9459SOL    HW229277   5.101   4.520   4.634
 9460SOL     OW29278   1.869   2.919   2.952
 9460SOL    HW129279   1.965   2.931   2.927
 9460SOL    HW229280   1.858   2.935   3.050
 9461SOL     OW29281   2.475   1.830   1.742
 9461SOL    HW129282   2.495   1.738   1.776
 9461SOL    HW229283   2.437   1.885   1.817
 9462SOL     OW29284   6.933   1.412   5.718
 9462SOL    HW129285   6.904   1.408   5.814
 9462SOL    HW229286   0.006   1.381   5.711
 9463SOL     OW29287   6.513   5.020   0.515
 9463SOL    HW129288   6.597   5.036   0.568
 9463SOL    HW229289   6.486   4.924   0.526
 9464SOL     OW29290   1.073   6.863   1.423
 9464SOL    HW129291   1.069   6.876   1.324
 9464SOL    HW229292   1.003   6.920   1.467
 9465SOL     OW29293   6.566   5.676   0.160
 9465SOL    HW129294   6.524   5.597   0.207
 9465SOL    HW229295   6.502   5.712   0.092
 9466SOL     OW29296   4.160   3.990   5.360
 9466SOL    HW129297   4.066   4.024   5.363
 9466SOL    HW229298   4.223   4.068   5.361
 9467SOL     OW29299   1.021   4.161   1.130
 9467SOL    HW129300   1.114   4.196   1.142
 9467SOL    HW229301   0.959   4.212   1.189
 9468SOL     OW29302   6.145   1.423   1.485
 9468SOL    HW129303   6.166   1.344   1.544
 9468SOL    HW229304   6.230   1.458   1.446
 9469SOL     OW29305   6.705   6.823   2.095
 9469SOL    HW129306   6.797   6.794   2.122
 9469SOL    HW229307   6.673   6.766   2.019
 9470SOL     OW29308   3.191   2.894   1.037
 9470SOL    HW129309   3.141   2.835   0.973
 9470SOL    HW229310   3.277   2.849   1.062
 9471SOL     OW29311   6.307   3.116   4.451
 9471SOL    HW129312   6.386   3.093   4.509
 9471SOL    HW229313   6.238   3.044   4.458
 9472SOL     OW29314   2.086   3.161   6.495
 9472SOL    HW129315   1.993   3.170   6.458
 9472SOL    HW229316   2.118   3.068   6.481
 9473SOL     OW29317   2.768   3.462   1.182
 9473SOL    HW129318   2.850   3.410   1.155
 9473SOL    HW229319   2.718   3.488   1.100
 9474SOL     OW29320   5.850   4.552   0.666
 9474SOL    HW129321   5.876   4.616   0.594
 9474SOL    HW229322   5.931   4.504   0.698
 9475SOL     OW29323   5.721   3.539   6.680
 9475SOL    HW129324   5.646   3.600   6.706
 9475SOL    HW229325   5.768   3.576   6.600
 9476SOL     OW29326   4.086   3.897   0.959
 9476SOL    HW129327   4.040   3.848   1.033
 9476SOL    HW229328   4.165   3.946   0.994
 9477SOL     OW29329   1.571   4.668   0.975
 9477SOL    HW129330   1.508   4.594   0.998
 9477SOL    HW229331   1.552   4.747   1.033
 9478SOL     OW29332   6.871   3.392   5.466
 9478SOL    HW129333   6.842   3.394   5.561
 9478SOL    HW229334   6.918   3.478   5.444
 9479SOL     OW29335   4.376   0.529   2.163
 9479SOL    HW129336   4.426   0.554   2.246
 9479SOL    HW229337   4.441   0.514   2.089
 9480SOL     OW29338   5.528   0.024   0.857
 9480SOL    HW129339   5.464   0.003   0.782
 9480SOL    HW229340   5.587   6.967   0.873
 9481SOL     OW29341   4.971   0.037   3.259
 9481SOL    HW129342   5.008   0.126   3.233
 9481SOL    HW229343   4.878   0.027   3.222
 9482SOL     OW29344   5.712   4.850   5.111
 9482SOL    HW129345   5.801   4.821   5.146
 9482SOL    HW229346   5.684   4.788   5.037
 9483SOL     OW29347   5.705   4.881   6.793
 9483SOL    HW129348   5.711   4.974   6.756
 9483SOL    HW229349   5.796   4.849   6.818
 9484SOL     OW29350   1.797   6.467   4.269
 9484SOL    HW129351   1.735   6.534   4.226
 9484SOL    HW229352   1.889   6.478   4.231
 9485SOL     OW29353   0.482   1.244   4.979
 9485SOL    HW129354   0.484   1.212   4.884
 9485SOL    HW229355   0.453   1.340   4.981
 9486SOL     OW29356   6.752   5.978   7.008
 9486SOL    HW129357   6.756   6.047   6.935
 9486SOL    HW229358   6.662   5.980   0.029
 9487SOL     OW29359   3.328   3.618   3.339
 9487SOL    HW129360   3.399   3.637   3.272
 9487SOL    HW229361   3.311   3.519   3.343
 9488SOL     OW29362   1.959   0.861   1.932
 9488SOL    HW129363   1.976   0.822   1.842
 9488SOL    HW229364   1.998   0.802   2.003
 9489SOL     OW29365   5.991   4.234   7.018
 9489SOL    HW129366   6.071   4.294   0.000
 9489SOL    HW229367   6.000   4.162   0.065
 9490SOL     OW29368   5.586   3.615   4.549
 9490SOL    HW129369   5.526   3.678   4.597
 9490SOL    HW229370   5.678   3.655   4.543
 9491SOL     OW29371   5.581   0.214   2.751
 9491SOL    HW129372   5.576   0.313   2.738
 9491SOL    HW229373   5.630   0.173   2.675
 9492SOL     OW29374   4.606   2.475   4.458
 9492SOL    HW129375   4.635   2.379   4.459
 9492SOL    HW229376   4.583   2.503   4.551
 9493SOL     OW29377   2.797   6.176   2.163
 9493SOL    HW129378   2.859   6.251   2.143
 9493SOL    HW229379   2.841   6.089   2.140
 9494SOL     OW29380   5.006   2.625   2.655
 9494SOL    HW129381   4.946   2.552   2.687
 9494SOL    HW229382   4.951   2.702   2.623
 9495SOL     OW29383   5.005   2.834   1.093
 9495SOL    HW129384   5.061   2.888   1.030
 9495SOL    HW229385   4.966   2.893   1.163
 9496SOL     OW29386   5.676   2.885   1.463
 9496SOL    HW129387   5.653   2.797   1.422
 9496SOL    HW229388   5.769   2.882   1.499
 9497SOL     OW29389   5.189   4.590   5.086
 9497SOL    HW129390   5.151   4.513   5.138
 9497SOL    HW229391   5.254   4.640   5.143
 9498SOL     OW29392   0.943   5.507   6.106
 9498SOL    HW129393   0.876   5.519   6.180
 9498SOL    HW229394   0.958   5.409   6.091
 9499SOL     OW29395   5.304   6.185   4.018
 9499SOL    HW129396   5.377   6.133   3.973
 9499SOL    HW229397   5.220   6.177   3.964
 9500SOL     OW29398   2.791   1.388   0.766
 9500SOL    HW129399   2.757   1.456   0.701
 9500SOL    HW229400   2.779   1.297   0.728
 9501SOL     OW29401   2.051   3.705   5.469
 9501SOL    HW129402   1.954   3.688   5.483
 9501SOL    HW229403   2.096   3.622   5.438
 9502SOL     OW29404   5.547   4.639   3.321
 9502SOL    HW129405   5.569   4.541   3.325
 9502SOL    HW229406   5.461   4.656   3.368
 9503SOL     OW29407   5.414   1.123   0.468
 9503SOL    HW129408   5.348   1.198   0.471
 9503SOL    HW229409   5.507   1.161   0.467
 9504SOL     OW29410   6.483   5.857   2.724
 9504SOL    HW129411   6.502   5.955   2.727
 9504SOL    HW229412   6.384   5.842   2.713
 9505SOL     OW29413   4.823   3.292   6.504
 9505SOL    HW129414   4.809   3.384   6.469
 9505SOL    HW229415   4.745   3.234   6.482
 9506SOL     OW29416   3.212   1.322   1.823
 9506SOL    HW129417   3.243   1.410   1.858
 9506SOL    HW229418   3.162   1.336   1.737
 9507SOL     OW29419   6.894   6.213   1.307
 9507SOL    HW129420   6.991   6.235   1.301
 9507SOL    HW229421   6.882   6.114   1.312
 9508SOL     OW29422   5.346   0.915   1.825
 9508SOL    HW129423   5.383   0.931   1.733
 9508SOL    HW229424   5.299   0.997   1.857
 9509SOL     OW29425   5.866   1.547   4.134
 9509SOL    HW129426   5.896   1.576   4.044
 9509SOL    HW229427   5.767   1.558   4.142
 9510SOL     OW29428   1.326   3.392   2.678
 9510SOL    HW129429   1.393   3.410   2.606
 9510SOL    HW229430   1.372   3.354   2.758
 9511SOL     OW29431   0.949   1.879   1.229
 9511SOL    HW129432   1.010   1.921   1.162
 9511SOL    HW229433   0.985   1.790   1.256
 9512SOL     OW29434   6.527   2.422   1.691
 9512SOL    HW129435   6.565   2.503   1.647
 9512SOL    HW229436   6.601   2.369   1.732
 9513SOL     OW29437   4.749   4.113   5.160
 9513SOL    HW129438   4.800   4.082   5.240
 9513SOL    HW229439   4.669   4.165   5.189
 9514SOL     OW29440   3.622   2.942   1.351
 9514SOL    HW129441   3.552   3.009   1.327
 9514SOL    HW229442   3.581   2.872   1.410
 9515SOL     OW29443   0.155   5.969   2.731
 9515SOL    HW129444   0.087   6.005   2.795
 9515SOL    HW229445   0.113   5.956   2.641
 9516SOL     OW29446   0.502   3.999   5.993
 9516SOL    HW129447   0.549   3.959   6.072
 9516SOL    HW229448   0.489   4.097   6.009
 9517SOL     OW29449   1.140   6.164   1.726
 9517SOL    HW129450   1.069   6.233   1.738
 9517SOL    HW229451   1.229   6.208   1.721
 9518SOL     OW29452   0.726   0.815   1.050
 9518SOL    HW129453   0.659   0.872   1.098
 9518SOL    HW229454   0.786   0.874   0.995
 9519SOL     OW29455   1.802   2.278   5.243
 9519SOL    HW129456   1.714   2.323   5.226
 9519SOL    HW229457   1.801   2.238   5.335
 9520SOL     OW29458   4.380   6.935   1.598
 9520SOL    HW129459   4.368   7.007   1.666
 9520SOL    HW229460   4.317   6.859   1.619
 9521SOL     OW29461   5.431   4.379   3.065
 9521SOL    HW129462   5.457   4.379   2.969
 9521SOL    HW229463   5.514   4.378   3.121
 9522SOL     OW29464   3.157   4.842   6.089
 9522SOL    HW129465   3.079   4.783   6.070
 9522SOL    HW229466   3.234   4.815   6.031
 9523SOL     OW29467   1.997   0.215   5.223
 9523SOL    HW129468   2.079   0.221   5.166
 9523SOL    HW229469   1.993   0.125   5.266
 9524SOL     OW29470   5.661   3.365   0.132
 9524SOL    HW129471   5.646   3.283   0.078
 9524SOL    HW229472   5.581   3.381   0.191
 9525SOL     OW29473   4.183   0.068   4.753
 9525SOL    HW129474   4.178   0.037   4.658
 9525SOL    HW229475   4.275   0.104   4.771
 9526SOL     OW29476   5.063   5.326   0.487
 9526SOL    HW129477   5.034   5.231   0.500
 9526SOL    HW229478   5.020   5.384   0.556
 9527SOL     OW29479   0.270   2.311   0.440
 9527SOL    HW129480   0.281   2.267   0.529
 9527SOL    HW229481   0.196   2.378   0.445
 9528SOL     OW29482   6.618   1.195   1.867
 9528SOL    HW129483   6.702   1.141   1.876
 9528SOL    HW229484   6.540   1.142   1.901
 9529SOL     OW29485   2.018   2.425   5.143
 9529SOL    HW129486   1.928   2.395   5.175
 9529SOL    HW229487   2.062   2.479   5.214
 9530SOL     OW29488   2.655   1.116   3.711
 9530SOL    HW129489   2.558   1.098   3.693
 9530SOL    HW229490   2.706   1.031   3.707
 9531SOL     OW29491   2.914   6.791   3.859
 9531SOL    HW129492   2.907   6.890   3.867
 9531SOL    HW229493   2.998   6.767   3.811
 9532SOL     OW29494   3.263   1.589   1.904
 9532SOL    HW129495   3.264   1.671   1.847
 9532SOL    HW229496   3.223   1.610   1.993
 9533SOL     OW29497   0.584   1.550   4.111
 9533SOL    HW129498   0.585   1.477   4.179
 9533SOL    HW229499   0.552   1.635   4.154
 9534SOL     OW29500   5.818   1.535   4.430
 9534SOL    HW129501   5.745   1.594   4.395
 9534SOL    HW229502   5.907   1.574   4.406
 9535SOL     OW29503   2.991   1.732   4.532
 9535SOL    HW129504   3.001   1.823   4.491
 9535SOL    HW229505   2.950   1.741   4.623
 9536SOL     OW29506   2.147   6.560   6.400
 9536SOL    HW129507   2.204   6.523   6.473
 9536SOL    HW229508   2.050   6.549   6.423
 9537SOL     OW29509   1.665   1.001   0.525
 9537SOL    HW129510   1.699   0.980   0.617
 9537SOL    HW229511   1.741   1.034   0.468
 9538SOL     OW29512   5.837   3.943   2.590
 9538SOL    HW129513   5.776   3.868   2.616
 9538SOL    HW229514   5.807   4.027   2.636
 9539SOL     OW29515   0.064   3.699   6.820
 9539SOL    HW129516   7.013   3.685   6.887
 9539SOL    HW229517   0.137   3.633   6.837
 9540SOL     OW29518   5.891   3.524   5.939
 9540SOL    HW129519   5.873   3.505   6.036
 9540SOL    HW229520   5.989   3.534   5.925
 9541SOL     OW29521   6.699   1.960   3.460
 9541SOL    HW129522   6.634   1.951   3.535
 9541SOL    HW229523   6.651   1.960   3.372
 9542SOL     OW29524   4.676   4.405   4.599
 9542SOL    HW129525   4.729   4.484   4.628
 9542SOL    HW229526   4.608   4.383   4.669
 9543SOL     OW29527   3.643   2.252   0.762
 9543SOL    HW129528   3.740   2.270   0.779
 9543SOL    HW229529   3.595   2.339   0.748
 9544SOL     OW29530   4.927   0.402   1.024
 9544SOL    HW129531   4.966   0.338   0.957
 9544SOL    HW229532   5.001   0.456   1.065
 9545SOL     OW29533   1.421   6.911   4.758
 9545SOL    HW129534   1.329   6.931   4.790
 9545SOL    HW229535   1.474   6.996   4.757
 9546SOL     OW29536   2.506   4.535   1.900
 9546SOL    HW129537   2.475   4.445   1.871
 9546SOL    HW229538   2.604   4.532   1.919
 9547SOL     OW29539   5.218   6.243   3.137
 9547SOL    HW129540   5.229   6.332   3.181
 9547SOL    HW229541   5.127   6.237   3.097
 9548SOL     OW29542   5.520   6.401   2.385
 9548SOL    HW129543   5.520   6.333   2.312
 9548SOL    HW229544   5.612   6.436   2.398
 9549SOL     OW29545   2.054   5.666   6.961
 9549SOL    HW129546   2.072   5.637   6.867
 9549SOL    HW229547   1.966   5.712   6.966
 9550SOL     OW29548   1.910   1.067   0.364
 9550SOL    HW129549   1.939   1.105   0.276
 9550SOL    HW229550   1.990   1.058   0.424
 9551SOL     OW29551   1.645   5.568   5.178
 9551SOL    HW129552   1.717   5.549   5.110
 9551SOL    HW229553   1.631   5.486   5.234
 9552SOL     OW29554   0.027   5.465   2.679
 9552SOL    HW129555   0.052   5.547   2.627
 9552SOL    HW229556   0.052   5.384   2.627
 9553SOL     OW29557   5.363   4.576   6.503
 9553SOL    HW129558   5.408   4.491   6.477
 9553SOL    HW229559   5.432   4.644   6.526
 9554SOL     OW29560   2.274   1.909   2.308
 9554SOL    HW129561   2.347   1.881   2.245
 9554SOL    HW229562   2.188   1.913   2.258
 9555SOL     OW29563   6.422   2.353   6.577
 9555SOL    HW129564   6.517   2.379   6.559
 9555SOL    HW229565   6.362   2.432   6.563
 9556SOL     OW29566   6.489   0.951   1.158
 9556SOL    HW129567   6.576   0.997   1.141
 9556SOL    HW229568   6.419   0.989   1.098
 9557SOL     OW29569   4.952   1.533   1.567
 9557SOL    HW129570   5.046   1.545   1.597
 9557SOL    HW229571   4.931   1.435   1.562
 9558SOL     OW29572   0.366   3.828   1.341
 9558SOL    HW129573   0.300   3.756   1.363
 9558SOL    HW229574   0.337   3.875   1.257
 9559SOL     OW29575   0.804   4.239   3.129
 9559SOL    HW129576   0.889   4.196   3.097
 9559SOL    HW229577   0.808   4.252   3.228
 9560SOL     OW29578   3.585   2.068   5.670
 9560SOL    HW129579   3.569   2.059   5.571
 9560SOL    HW229580   3.648   1.995   5.699
 9561SOL     OW29581   3.384   5.189   0.010
 9561SOL    HW129582   3.412   5.182   0.106
 9561SOL    HW229583   3.311   5.123   7.014
 9562SOL     OW29584   6.489   5.473   4.009
 9562SOL    HW129585   6.437   5.394   4.042
 9562SOL    HW229586   6.555   5.442   3.941
 9563SOL     OW29587   0.449   6.909   6.600
 9563SOL    HW129588   0.408   6.915   6.691
 9563SOL    HW229589   0.511   6.986   6.587
 9564SOL     OW29590   1.139   0.683   5.970
 9564SOL    HW129591   1.163   0.663   5.875
 9564SOL    HW229592   1.040   0.702   5.975
 9565SOL     OW29593   2.703   5.808   5.663
 9565SOL    HW129594   2.637   5.732   5.665
 9565SOL    HW229595   2.796   5.772   5.668
 9566SOL     OW29596   2.794   5.668   5.113
 9566SOL    HW129597   2.831   5.611   5.039
 9566SOL    HW229598   2.839   5.757   5.112
 9567SOL     OW29599   5.640   4.535   4.526
 9567SOL    HW129600   5.553   4.567   4.563
 9567SOL    HW229601   5.687   4.611   4.481
 9568SOL     OW29602   5.911   3.432   5.344
 9568SOL    HW129603   5.935   3.362   5.411
 9568SOL    HW229604   5.976   3.507   5.350
 9569SOL     OW29605   5.249   0.100   1.441
 9569SOL    HW129606   5.281   0.195   1.445
 9569SOL    HW229607   5.161   0.096   1.395
 9570SOL     OW29608   0.753   2.359   6.854
 9570SOL    HW129609   0.812   2.423   6.805
 9570SOL    HW229610   0.697   2.309   6.788
 9571SOL     OW29611   3.494   1.931   0.006
 9571SOL    HW129612   3.477   1.836   0.030
 9571SOL    HW229613   3.567   1.967   0.064
 9572SOL     OW29614   0.708   4.173   0.827
 9572SOL    HW129615   0.679   4.080   0.848
 9572SOL    HW229616   0.640   4.237   0.861
 9573SOL     OW29617   5.070   1.923   2.068
 9573SOL    HW129618   5.068   1.970   2.156
 9573SOL    HW229619   4.983   1.878   2.052
 9574SOL     OW29620   2.753   1.675   3.652
 9574SOL    HW129621   2.810   1.670   3.569
 9574SOL    HW229622   2.685   1.602   3.650
 9575SOL     OW29623   3.528   1.737   3.040
 9575SOL    HW129624   3.558   1.832   3.052
 9575SOL    HW229625   3.587   1.691   2.974
 9576SOL     OW29626   3.433   3.565   5.660
 9576SOL    HW129627   3.472   3.537   5.572
 9576SOL    HW229628   3.378   3.648   5.647
 9577SOL     OW29629   0.444   4.982   3.837
 9577SOL    HW129630   0.426   5.073   3.800
 9577SOL    HW229631   0.376   4.917   3.803
 9578SOL     OW29632   0.134   4.356   1.380
 9578SOL    HW129633   0.137   4.268   1.428
 9578SOL    HW229634   0.040   4.378   1.355
 9579SOL     OW29635   1.714   4.562   3.012
 9579SOL    HW129636   1.615   4.561   3.026
 9579SOL    HW229637   1.750   4.470   3.025
 9580SOL     OW29638   4.294   3.490   5.361
 9580SOL    HW129639   4.209   3.441   5.380
 9580SOL    HW229640   4.282   3.587   5.381
 9581SOL     OW29641   1.369   6.228   5.960
 9581SOL    HW129642   1.290   6.240   5.899
 9581SOL    HW229643   1.361   6.290   6.037
 9582SOL     OW29644   3.526   5.805   3.142
 9582SOL    HW129645   3.548   5.726   3.200
 9582SOL    HW229646   3.590   5.879   3.163
 9583SOL     OW29647   1.347   5.281   1.991
 9583SOL    HW129648   1.258   5.235   1.995
 9583SOL    HW229649   1.334   5.378   1.972
 9584SOL     OW29650   5.214   4.059   6.912
 9584SOL    HW129651   5.144   4.015   6.855
 9584SOL    HW229652   5.265   4.124   6.856
 9585SOL     OW29653   5.709   1.212   3.079
 9585SOL    HW129654   5.808   1.198   3.084
 9585SOL    HW229655   5.673   1.222   3.172
 9586SOL     OW29656   4.920   3.989   2.190
 9586SOL    HW129657   4.984   3.996   2.114
 9586SOL    HW229658   4.961   4.025   2.273
 9587SOL     OW29659   4.544   6.185   1.549
 9587SOL    HW129660   4.628   6.218   1.507
 9587SOL    HW229661   4.537   6.221   1.642
 9588SOL     OW29662   5.584   1.055   3.445
 9588SOL    HW129663   5.592   1.004   3.531
 9588SOL    HW229664   5.495   1.036   3.404
 9589SOL     OW29665   4.012   1.711   5.561
 9589SOL    HW129666   3.969   1.793   5.597
 9589SOL    HW229667   4.016   1.716   5.461
 9590SOL     OW29668   6.873   4.914   4.614
 9590SOL    HW129669   6.850   4.954   4.525
 9590SOL    HW229670   6.841   4.819   4.617
 9591SOL     OW29671   6.972   4.452   2.525
 9591SOL    HW129672   6.969   4.357   2.495
 9591SOL    HW229673   6.906   4.505   2.472
 9592SOL     OW29674   4.100   5.673   0.374
 9592SOL    HW129675   4.042   5.731   0.317
 9592SOL    HW229676   4.059   5.581   0.379
 9593SOL     OW29677   1.944   2.072   3.520
 9593SOL    HW129678   1.901   1.982   3.524
 9593SOL    HW229679   1.972   2.091   3.426
 9594SOL     OW29680   5.529   0.174   1.150
 9594SOL    HW129681   5.522   0.089   1.098
 9594SOL    HW229682   5.492   0.249   1.095
 9595SOL     OW29683   2.407   5.195   5.823
 9595SOL    HW129684   2.504   5.171   5.834
 9595SOL    HW229685   2.362   5.125   5.767
 9596SOL     OW29686   5.798   5.160   2.342
 9596SOL    HW129687   5.850   5.222   2.400
 9596SOL    HW229688   5.735   5.106   2.399
 9597SOL     OW29689   2.245   4.837   1.563
 9597SOL    HW129690   2.264   4.919   1.509
 9597SOL    HW229691   2.332   4.792   1.585
 9598SOL     OW29692   0.722   6.090   5.785
 9598SOL    HW129693   0.628   6.062   5.803
 9598SOL    HW229694   0.782   6.010   5.787
 9599SOL     OW29695   3.836   1.998   5.332
 9599SOL    HW129696   3.743   1.960   5.330
 9599SOL    HW229697   3.833   2.094   5.302
 9600SOL     OW29698   1.353   6.140   6.580
 9600SOL    HW129699   1.281   6.127   6.648
 9600SOL    HW229700   1.442   6.139   6.625
 9601SOL     OW29701   1.647   6.820   4.911
 9601SOL    HW129702   1.664   6.727   4.877
 9601SOL    HW229703   1.565   6.857   4.868
 9602SOL     OW29704   1.218   5.645   6.361
 9602SOL    HW129705   1.222   5.730   6.309
 9602SOL    HW229706   1.128   5.636   6.404
 9603SOL     OW29707   0.764   5.710   1.623
 9603SOL    HW129708   0.739   5.799   1.660
 9603SOL    HW229709   0.836   5.669   1.680
 9604SOL     OW29710   6.756   0.747   6.487
 9604SOL    HW129711   6.696   0.772   6.410
 9604SOL    HW229712   6.845   0.790   6.475
 9605SOL     OW29713   3.781   4.580   1.289
 9605SOL    HW129714   3.769   4.484   1.267
 9605SOL    HW229715   3.815   4.589   1.383
 9606SOL     OW29716   0.317   1.524   5.206
 9606SOL    HW129717   0.381   1.532   5.283
 9606SOL    HW229718   0.361   1.559   5.123
 9607SOL     OW29719   6.842   2.593   3.941
 9607SOL    HW129720   6.859   2.613   3.845
 9607SOL    HW229721   6.929   2.588   3.990
 9608SOL     OW29722   6.199   0.923   1.553
 9608SOL    HW129723   6.249   0.875   1.481
 9608SOL    HW229724   6.258   0.992   1.594
 9609SOL     OW29725   1.668   2.311   4.382
 9609SOL    HW129726   1.648   2.409   4.374
 9609SOL    HW229727   1.684   2.273   4.292
 9610SOL     OW29728   5.092   0.763   5.834
 9610SOL    HW129729   5.001   0.743   5.798
 9610SOL    HW229730   5.083   0.821   5.915
 9611SOL     OW29731   4.696   5.546   0.827
 9611SOL    HW129732   4.691   5.523   0.924
 9611SOL    HW229733   4.617   5.507   0.780
 9612SOL     OW29734   5.850   4.083   3.572
 9612SOL    HW129735   5.946   4.069   3.548
 9612SOL    HW229736   5.842   4.164   3.630
 9613SOL     OW29737   5.458   0.650   4.684
 9613SOL    HW129738   5.459   0.573   4.748
 9613SOL    HW229739   5.441   0.735   4.735
 9614SOL     OW29740   2.911   2.645   0.462
 9614SOL    HW129741   2.855   2.721   0.493
 9614SOL    HW229742   2.921   2.648   0.363
 9615SOL     OW29743   0.004   5.793   3.798
 9615SOL    HW129744   6.932   5.790   3.766
 9615SOL    HW229745   0.007   5.770   3.896
 9616SOL     OW29746   0.868   2.159   0.989
 9616SOL    HW129747   0.792   2.224   0.982
 9616SOL    HW229748   0.942   2.200   1.042
 9617SOL     OW29749   0.212   3.065   3.850
 9617SOL    HW129750   0.201   3.145   3.791
 9617SOL    HW229751   0.175   2.984   3.804
 9618SOL     OW29752   5.125   3.437   1.744
 9618SOL    HW129753   5.067   3.515   1.766
 9618SOL    HW229754   5.109   3.363   1.809
 9619SOL     OW29755   0.833   0.458   0.840
 9619SOL    HW129756   0.795   0.366   0.832
 9619SOL    HW229757   0.776   0.512   0.903
 9620SOL     OW29758   4.317   0.906   6.331
 9620SOL    HW129759   4.402   0.956   6.322
 9620SOL    HW229760   4.269   0.935   6.414
 9621SOL     OW29761   0.165   1.115   1.405
 9621SOL    HW129762   0.258   1.125   1.442
 9621SOL    HW229763   0.138   1.019   1.409
 9622SOL     OW29764   6.697   6.571   4.667
 9622SOL    HW129765   6.772   6.512   4.636
 9622SOL    HW229766   6.690   6.650   4.607
 9623SOL     OW29767   2.355   6.054   6.186
 9623SOL    HW129768   2.448   6.088   6.176
 9623SOL    HW229769   2.354   5.974   6.246
 9624SOL     OW29770   4.646   5.132   6.409
 9624SOL    HW129771   4.681   5.050   6.364
 9624SOL    HW229772   4.622   5.111   6.503
 9625SOL     OW29773   5.357   4.652   5.675
 9625SOL    HW129774   5.348   4.586   5.749
 9625SOL    HW229775   5.298   4.731   5.693
 9626SOL     OW29776   2.500   2.831   6.760
 9626SOL    HW129777   2.473   2.841   6.856
 9626SOL    HW229778   2.600   2.836   6.753
 9627SOL     OW29779   6.683   6.477   0.701
 9627SOL    HW129780   6.713   6.396   0.752
 9627SOL    HW229781   6.683   6.456   0.603
 9628SOL     OW29782   5.387   1.299   5.475
 9628SOL    HW129783   5.468   1.331   5.525
 9628SOL    HW229784   5.415   1.268   5.384
 9629SOL     OW29785   0.397   5.052   4.107
 9629SOL    HW129786   0.303   5.085   4.119
 9629SOL    HW229787   0.414   5.033   4.010
 9630SOL     OW29788   6.137   0.127   6.935
 9630SOL    HW129789   6.121   0.048   6.876
 9630SOL    HW229790   6.148   0.096   0.007
 9631SOL     OW29791   5.127   5.761   0.416
 9631SOL    HW129792   5.214   5.715   0.434
 9631SOL    HW229793   5.092   5.799   0.502
 9632SOL     OW29794   2.862   5.226   2.952
 9632SOL    HW129795   2.887   5.200   2.859
 9632SOL    HW229796   2.821   5.147   2.998
 9633SOL     OW29797   3.182   3.087   5.300
 9633SOL    HW129798   3.133   3.129   5.223
 9633SOL    HW229799   3.115   3.047   5.363
 9634SOL     OW29800   6.450   4.695   2.473
 9634SOL    HW129801   6.510   4.630   2.520
 9634SOL    HW229802   6.412   4.653   2.390
 9635SOL     OW29803   0.562   5.718   4.554
 9635SOL    HW129804   0.629   5.787   4.582
 9635SOL    HW229805   0.565   5.707   4.455
 9636SOL     OW29806   5.294   3.601   3.780
 9636SOL    HW129807   5.304   3.599   3.880
 9636SOL    HW229808   5.335   3.519   3.741
 9637SOL     OW29809   2.655   2.484   6.825
 9637SOL    HW129810   2.652   2.556   6.756
 9637SOL    HW229811   2.626   2.521   6.913
 9638SOL     OW29812   0.201   4.493   5.463
 9638SOL    HW129813   0.159   4.440   5.389
 9638SOL    HW229814   0.170   4.587   5.458
 9639SOL     OW29815   4.673   2.958   1.486
 9639SOL    HW129816   4.606   2.884   1.495
 9639SOL    HW229817   4.734   2.957   1.565
 9640SOL     OW29818   3.262   6.853   3.139
 9640SOL    HW129819   3.280   6.769   3.190
 9640SOL    HW229820   3.348   6.891   3.107
 9641SOL     OW29821   0.666   3.152   4.810
 9641SOL    HW129822   0.729   3.203   4.752
 9641SOL    HW229823   0.573   3.162   4.775
 9642SOL     OW29824   0.514   3.439   5.298
 9642SOL    HW129825   0.503   3.366   5.230
 9642SOL    HW229826   0.600   3.424   5.348
 9643SOL     OW29827   5.491   5.273   4.378
 9643SOL    HW129828   5.460   5.368   4.388
 9643SOL    HW229829   5.501   5.251   4.281
 9644SOL     OW29830   0.958   4.576   3.712
 9644SOL    HW129831   1.050   4.554   3.745
 9644SOL    HW229832   0.910   4.628   3.782
 9645SOL     OW29833   1.209   4.832   6.856
 9645SOL    HW129834   1.219   4.746   6.907
 9645SOL    HW229835   1.175   4.903   6.917
 9646SOL     OW29836   2.876   5.057   0.972
 9646SOL    HW129837   2.821   5.125   1.020
 9646SOL    HW229838   2.832   4.967   0.978
 9647SOL     OW29839   5.811   0.040   3.364
 9647SOL    HW129840   5.800   6.971   3.404
 9647SOL    HW229841   5.794   0.036   3.266
 9648SOL     OW29842   3.610   2.366   1.163
 9648SOL    HW129843   3.628   2.434   1.235
 9648SOL    HW229844   3.513   2.366   1.140
 9649SOL     OW29845   6.747   6.356   1.119
 9649SOL    HW129846   6.772   6.312   1.205
 9649SOL    HW229847   6.769   6.454   1.123
 9650SOL     OW29848   0.651   5.474   4.591
 9650SOL    HW129849   0.620   5.563   4.556
 9650SOL    HW229850   0.749   5.465   4.573
 9651SOL     OW29851   4.342   1.440   7.004
 9651SOL    HW129852   4.394   1.525   7.000
 9651SOL    HW229853   4.267   1.450   0.048
 9652SOL     OW29854   0.081   3.671   0.776
 9652SOL    HW129855   0.027   3.588   0.782
 9652SOL    HW229856   0.130   3.685   0.862
 9653SOL     OW29857   5.179   3.967   5.411
 9653SOL    HW129858   5.252   4.010   5.464
 9653SOL    HW229859   5.207   3.959   5.316
 9654SOL     OW29860   3.830   3.035   4.445
 9654SOL    HW129861   3.806   2.965   4.378
 9654SOL    HW229862   3.928   3.055   4.439
 9655SOL     OW29863   4.904   0.196   0.624
 9655SOL    HW129864   4.929   0.221   0.530
 9655SOL    HW229865   4.806   0.212   0.637
 9656SOL     OW29866   5.618   4.446   6.221
 9656SOL    HW129867   5.677   4.385   6.167
 9656SOL    HW229868   5.544   4.392   6.261
 9657SOL     OW29869   4.680   5.085   2.642
 9657SOL    HW129870   4.763   5.033   2.662
 9657SOL    HW229871   4.690   5.178   2.678
 9658SOL     OW29872   5.466   0.750   2.685
 9658SOL    HW129873   5.408   0.830   2.702
 9658SOL    HW229874   5.538   0.746   2.755
 9659SOL     OW29875   3.210   2.653   0.435
 9659SOL    HW129876   3.134   2.619   0.489
 9659SOL    HW229877   3.181   2.669   0.341
 9660SOL     OW29878   2.363   0.006   1.502
 9660SOL    HW129879   2.283   6.972   1.479
 9660SOL    HW229880   2.399   0.048   1.419
 9661SOL     OW29881   4.013   3.595   2.187
 9661SOL    HW129882   3.932   3.653   2.174
 9661SOL    HW229883   4.059   3.583   2.099
 9662SOL     OW29884   4.291   0.486   5.386
 9662SOL    HW129885   4.258   0.511   5.477
 9662SOL    HW229886   4.266   0.391   5.366
 9663SOL     OW29887   1.155   5.676   2.810
 9663SOL    HW129888   1.123   5.750   2.870
 9663SOL    HW229889   1.184   5.714   2.723
 9664SOL     OW29890   1.917   4.788   3.550
 9664SOL    HW129891   1.828   4.780   3.595
 9664SOL    HW229892   1.963   4.699   3.551
 9665SOL     OW29893   6.661   4.383   6.389
 9665SOL    HW129894   6.578   4.415   6.344
 9665SOL    HW229895   6.660   4.283   6.391
 9666SOL     OW29896   5.355   3.521   0.688
 9666SOL    HW129897   5.263   3.557   0.673
 9666SOL    HW229898   5.421   3.596   0.691
 9667SOL     OW29899   5.385   5.906   6.539
 9667SOL    HW129900   5.408   6.000   6.564
 9667SOL    HW229901   5.444   5.843   6.589
 9668SOL     OW29902   2.453   0.339   0.282
 9668SOL    HW129903   2.357   0.312   0.291
 9668SOL    HW229904   2.462   0.438   0.296
 9669SOL     OW29905   3.673   0.402   6.882
 9669SOL    HW129906   3.742   0.334   6.907
 9669SOL    HW229907   3.694   0.490   6.924
 9670SOL     OW29908   0.912   0.257   2.028
 9670SOL    HW129909   0.961   0.281   1.944
 9670SOL    HW229910   0.828   0.207   2.005
 9671SOL     OW29911   0.930   6.226   6.512
 9671SOL    HW129912   0.957   6.309   6.561
 9671SOL    HW229913   0.834   6.206   6.529
 9672SOL     OW29914   1.157   3.969   4.668
 9672SOL    HW129915   1.081   3.949   4.607
 9672SOL    HW229916   1.147   4.062   4.704
 9673SOL     OW29917   2.816   3.122   6.149
 9673SOL    HW129918   2.745   3.160   6.209
 9673SOL    HW229919   2.885   3.077   6.205
 9674SOL     OW29920   1.998   0.198   3.790
 9674SOL    HW129921   1.917   0.170   3.739
 9674SOL    HW229922   1.975   0.209   3.887
 9675SOL     OW29923   5.917   4.110   5.845
 9675SOL    HW129924   5.854   4.174   5.800
 9675SOL    HW229925   5.873   4.020   5.853
 9676SOL     OW29926   1.244   3.174   5.940
 9676SOL    HW129927   1.285   3.151   5.852
 9676SOL    HW229928   1.317   3.189   6.007
 9677SOL     OW29929   0.399   4.559   2.691
 9677SOL    HW129930   0.301   4.539   2.689
 9677SOL    HW229931   0.429   4.571   2.786
 9678SOL     OW29932   4.546   2.873   6.260
 9678SOL    HW129933   4.613   2.836   6.325
 9678SOL    HW229934   4.553   2.823   6.173
 9679SOL     OW29935   1.062   0.908   4.065
 9679SOL    HW129936   1.027   0.951   3.981
 9679SOL    HW229937   1.160   0.928   4.074
 9680SOL     OW29938   4.943   0.368   1.898
 9680SOL    HW129939   5.031   0.323   1.883
 9680SOL    HW229940   4.903   0.393   1.809
 9681SOL     OW29941   0.738   3.516   1.403
 9681SOL    HW129942   0.741   3.460   1.319
 9681SOL    HW229943   0.771   3.461   1.480
 9682SOL     OW29944   4.021   6.497   5.278
 9682SOL    HW129945   4.063   6.407   5.286
 9682SOL    HW229946   4.083   6.559   5.230
 9683SOL     OW29947   3.324   6.155   3.840
 9683SOL    HW129948   3.245   6.168   3.900
 9683SOL    HW229949   3.311   6.206   3.755
 9684SOL     OW29950   0.646   2.623   6.237
 9684SOL    HW129951   0.743   2.644   6.227
 9684SOL    HW229952   0.591   2.698   6.200
 9685SOL     OW29953   3.665   4.405   1.705
 9685SOL    HW129954   3.658   4.500   1.733
 9685SOL    HW229955   3.574   4.367   1.689
 9686SOL     OW29956   0.374   1.697   6.033
 9686SOL    HW129957   0.399   1.769   5.967
 9686SOL    HW229958   0.275   1.685   6.033
 9687SOL     OW29959   5.039   1.791   3.881
 9687SOL    HW129960   4.995   1.748   3.960
 9687SOL    HW229961   5.055   1.722   3.810
 9688SOL     OW29962   0.266   5.221   1.928
 9688SOL    HW129963   0.313   5.133   1.911
 9688SOL    HW229964   0.172   5.204   1.955
 9689SOL     OW29965   1.909   5.544   1.647
 9689SOL    HW129966   1.831   5.483   1.649
 9689SOL    HW229967   1.960   5.531   1.562
 9690SOL     OW29968   5.843   4.464   5.001
 9690SOL    HW129969   5.813   4.386   4.947
 9690SOL    HW229970   5.943   4.469   5.000
 9691SOL     OW29971   3.851   3.243   2.095
 9691SOL    HW129972   3.947   3.245   2.123
 9691SOL    HW229973   3.824   3.335   2.066
 9692SOL     OW29974   4.886   4.701   0.432
 9692SOL    HW129975   4.909   4.628   0.496
 9692SOL    HW229976   4.938   4.689   0.347
 9693SOL     OW29977   4.571   2.958   6.634
 9693SOL    HW129978   4.617   2.895   6.572
 9693SOL    HW229979   4.563   3.048   6.591
 9694SOL     OW29980   2.456   6.377   1.021
 9694SOL    HW129981   2.529   6.354   0.957
 9694SOL    HW229982   2.471   6.330   1.108
 9695SOL     OW29983   2.047   2.730   3.628
 9695SOL    HW129984   2.006   2.801   3.570
 9695SOL    HW229985   2.120   2.769   3.682
 9696SOL     OW29986   4.912   3.366   3.312
 9696SOL    HW129987   5.006   3.352   3.343
 9696SOL    HW229988   4.849   3.322   3.376
 9697SOL     OW29989   6.887   6.957   1.708
 9697SOL    HW129990   6.860   0.028   1.732
 9697SOL    HW229991   6.847   6.933   1.620
 9698SOL     OW29992   6.728   3.531   1.967
 9698SOL    HW129993   6.647   3.536   1.909
 9698SOL    HW229994   6.704   3.491   2.055
 9699SOL     OW29995   1.933   6.792   2.164
 9699SOL    HW129996   1.939   6.874   2.107
 9699SOL    HW229997   1.930   6.820   2.261
 9700SOL     OW29998   6.455   0.978   5.886
 9700SOL    HW129999   6.541   0.961   5.837
 9700SOL    HW230000   6.379   0.979   5.821
 9701SOL     OW30001   5.318   3.865   6.650
 9701SOL    HW130002   5.225   3.881   6.682
 9701SOL    HW230003   5.319   3.788   6.587
 9702SOL     OW30004   3.288   4.091   1.807
 9702SOL    HW130005   3.345   4.029   1.861
 9702SOL    HW230006   3.236   4.037   1.740
 9703SOL     OW30007   6.329   5.441   2.988
 9703SOL    HW130008   6.350   5.534   2.961
 9703SOL    HW230009   6.365   5.377   2.920
 9704SOL     OW30010   0.977   4.267   1.917
 9704SOL    HW130011   1.013   4.355   1.887
 9704SOL    HW230012   1.047   4.197   1.908
 9705SOL     OW30013   0.227   3.908   5.970
 9705SOL    HW130014   0.235   3.855   5.886
 9705SOL    HW230015   0.312   3.957   5.986
 9706SOL     OW30016   1.429   6.258   2.039
 9706SOL    HW130017   1.371   6.181   2.011
 9706SOL    HW230018   1.373   6.342   2.042
 9707SOL     OW30019   1.068   5.382   2.216
 9707SOL    HW130020   1.165   5.391   2.193
 9707SOL    HW230021   1.046   5.443   2.293
 9708SOL     OW30022   2.735   1.490   2.032
 9708SOL    HW130023   2.688   1.406   2.062
 9708SOL    HW230024   2.829   1.489   2.065
 9709SOL     OW30025   4.661   1.456   1.665
 9709SOL    HW130026   4.648   1.555   1.676
 9709SOL    HW230027   4.580   1.417   1.621
 9710SOL     OW30028   4.518   4.532   4.404
 9710SOL    HW130029   4.566   4.586   4.335
 9710SOL    HW230030   4.584   4.474   4.452
 9711SOL     OW30031   2.896   0.956   6.751
 9711SOL    HW130032   2.887   0.982   6.655
 9711SOL    HW230033   2.936   0.865   6.758
 9712SOL     OW30034   4.861   6.637   5.159
 9712SOL    HW130035   4.923   6.653   5.083
 9712SOL    HW230036   4.766   6.646   5.127
 9713SOL     OW30037   1.347   0.718   2.864
 9713SOL    HW130038   1.272   0.774   2.827
 9713SOL    HW230039   1.405   0.774   2.922
 9714SOL     OW30040   2.194   2.499   4.308
 9714SOL    HW130041   2.187   2.573   4.241
 9714SOL    HW230042   2.189   2.411   4.260
 9715SOL     OW30043   0.042   1.938   6.032
 9715SOL    HW130044   0.095   1.987   6.101
 9715SOL    HW230045   0.034   1.842   6.058
 9716SOL     OW30046   2.196   6.749   1.175
 9716SOL    HW130047   2.157   6.680   1.114
 9716SOL    HW230048   2.201   6.713   1.268
 9717SOL     OW30049   3.944   2.444   6.134
 9717SOL    HW130050   3.872   2.460   6.066
 9717SOL    HW230051   3.909   2.383   6.205
 9718SOL     OW30052   3.338   2.471   6.693
 9718SOL    HW130053   3.341   2.521   6.606
 9718SOL    HW230054   3.270   2.512   6.753
 9719SOL     OW30055   4.044   6.852   5.235
 9719SOL    HW130056   4.053   6.951   5.237
 9719SOL    HW230057   3.957   6.825   5.277
 9720SOL     OW30058   1.886   2.933   2.363
 9720SOL    HW130059   1.840   2.879   2.292
 9720SOL    HW230060   1.878   2.886   2.451
 9721SOL     OW30061   1.118   2.224   1.681
 9721SOL    HW130062   1.124   2.151   1.749
 9721SOL    HW230063   1.092   2.309   1.726
 9722SOL     OW30064   3.419   2.698   5.292
 9722SOL    HW130065   3.324   2.668   5.282
 9722SOL    HW230066   3.426   2.796   5.273
 9723SOL     OW30067   5.743   0.326   5.002
 9723SOL    HW130068   5.754   0.403   5.065
 9723SOL    HW230069   5.693   0.253   5.047
 9724SOL     OW30070   2.008   5.147   1.120
 9724SOL    HW130071   2.069   5.182   1.050
 9724SOL    HW230072   2.039   5.056   1.150
 9725SOL     OW30073   5.404   5.371   3.941
 9725SOL    HW130074   5.463   5.343   4.016
 9725SOL    HW230075   5.460   5.406   3.865
 9726SOL     OW30076   0.174   0.314   3.427
 9726SOL    HW130077   0.097   0.332   3.365
 9726SOL    HW230078   0.204   0.219   3.417
 9727SOL     OW30079   6.368   2.817   1.766
 9727SOL    HW130080   6.342   2.757   1.691
 9727SOL    HW230081   6.468   2.819   1.774
 9728SOL     OW30082   5.895   2.096   4.944
 9728SOL    HW130083   5.880   1.997   4.942
 9728SOL    HW230084   5.975   2.119   4.888
 9729SOL     OW30085   0.122   3.559   2.565
 9729SOL    HW130086   0.128   3.654   2.598
 9729SOL    HW230087   0.211   3.514   2.579
 9730SOL     OW30088   1.035   5.336   3.536
 9730SOL    HW130089   1.069   5.242   3.530
 9730SOL    HW230090   1.110   5.399   3.519
 9731SOL     OW30091   6.648   1.847   1.472
 9731SOL    HW130092   6.663   1.805   1.562
 9731SOL    HW230093   6.714   1.810   1.407
 9732SOL     OW30094   0.623   2.851   3.551
 9732SOL    HW130095   0.588   2.936   3.511
 9732SOL    HW230096   0.703   2.821   3.499
 9733SOL     OW30097   5.724   5.504   0.749
 9733SOL    HW130098   5.703   5.410   0.776
 9733SOL    HW230099   5.815   5.508   0.709
 9734SOL     OW30100   4.002   4.180   6.945
 9734SOL    HW130101   4.053   4.196   0.007
 9734SOL    HW230102   3.947   4.097   6.955
 9735SOL     OW30103   1.164   1.736   0.593
 9735SOL    HW130104   1.161   1.688   0.681
 9735SOL    HW230105   1.222   1.685   0.530
 9736SOL     OW30106   4.973   2.194   5.417
 9736SOL    HW130107   5.060   2.218   5.373
 9736SOL    HW230108   4.955   2.259   5.491
 9737SOL     OW30109   5.361   3.197   4.785
 9737SOL    HW130110   5.422   3.270   4.753
 9737SOL    HW230111   5.278   3.198   4.729
 9738SOL     OW30112   2.103   6.218   1.484
 9738SOL    HW130113   2.096   6.312   1.515
 9738SOL    HW230114   2.127   6.216   1.387
 9739SOL     OW30115   5.512   6.751   0.011
 9739SOL    HW130116   5.584   6.716   6.974
 9739SOL    HW230117   5.450   6.808   6.980
 9740SOL     OW30118   6.756   1.064   1.136
 9740SOL    HW130119   6.836   1.071   1.075
 9740SOL    HW230120   6.786   1.071   1.231
 9741SOL     OW30121   2.357   2.662   3.296
 9741SOL    HW130122   2.433   2.597   3.292
 9741SOL    HW230123   2.379   2.733   3.363
 9742SOL     OW30124   4.323   0.861   6.770
 9742SOL    HW130125   4.289   0.847   6.863
 9742SOL    HW230126   4.367   0.778   6.737
 9743SOL     OW30127   6.727   3.529   4.698
 9743SOL    HW130128   6.748   3.567   4.788
 9743SOL    HW230129   6.781   3.446   4.683
 9744SOL     OW30130   1.677   2.462   2.648
 9744SOL    HW130131   1.762   2.510   2.670
 9744SOL    HW230132   1.685   2.417   2.560
 9745SOL     OW30133   1.394   6.394   6.218
 9745SOL    HW130134   1.389   6.486   6.180
 9745SOL    HW230135   1.333   6.388   6.297
 9746SOL     OW30136   3.129   6.375   6.373
 9746SOL    HW130137   3.039   6.334   6.383
 9746SOL    HW230138   3.122   6.457   6.316
 9747SOL     OW30139   4.064   1.523   3.190
 9747SOL    HW130140   4.083   1.475   3.275
 9747SOL    HW230141   4.024   1.461   3.123
 9748SOL     OW30142   0.772   2.114   3.344
 9748SOL    HW130143   0.697   2.172   3.313
 9748SOL    HW230144   0.738   2.051   3.414
 9749SOL     OW30145   6.813   0.293   1.293
 9749SOL    HW130146   6.906   0.324   1.310
 9749SOL    HW230147   6.754   0.323   1.368
 9750SOL     OW30148   5.521   2.323   4.855
 9750SOL    HW130149   5.548   2.228   4.874
 9750SOL    HW230150   5.422   2.328   4.846
 9751SOL     OW30151   2.775   6.227   0.846
 9751SOL    HW130152   2.807   6.168   0.771
 9751SOL    HW230153   2.701   6.181   0.895
 9752SOL     OW30154   3.542   3.420   0.856
 9752SOL    HW130155   3.606   3.486   0.894
 9752SOL    HW230156   3.581   3.328   0.861
 9753SOL     OW30157   6.652   6.274   3.265
 9753SOL    HW130158   6.724   6.323   3.217
 9753SOL    HW230159   6.582   6.245   3.199
 9754SOL     OW30160   3.585   1.349   2.027
 9754SOL    HW130161   3.572   1.263   2.077
 9754SOL    HW230162   3.677   1.384   2.044
 9755SOL     OW30163   3.208   3.832   1.202
 9755SOL    HW130164   3.286   3.868   1.151
 9755SOL    HW230165   3.172   3.752   1.154
 9756SOL     OW30166   5.511   7.012   6.760
 9756SOL    HW130167   5.456   0.070   6.735
 9756SOL    HW230168   5.594   0.020   6.806
 9757SOL     OW30169   5.243   3.964   4.534
 9757SOL    HW130170   5.212   4.046   4.582
 9757SOL    HW230171   5.316   3.989   4.469
 9758SOL     OW30172   3.321   0.939   2.461
 9758SOL    HW130173   3.230   0.900   2.475
 9758SOL    HW230174   3.321   1.035   2.488
 9759SOL     OW30175   0.153   2.229   1.154
 9759SOL    HW130176   0.108   2.161   1.096
 9759SOL    HW230177   0.129   2.212   1.249
 9760SOL     OW30178   4.594   0.543   6.036
 9760SOL    HW130179   4.574   0.522   5.941
 9760SOL    HW230180   4.605   0.642   6.047
 9761SOL     OW30181   0.938   1.834   1.684
 9761SOL    HW130182   0.972   1.912   1.632
 9761SOL    HW230183   0.887   1.866   1.764
 9762SOL     OW30184   3.845   1.011   6.381
 9762SOL    HW130185   3.892   0.924   6.396
 9762SOL    HW230186   3.912   1.085   6.371
 9763SOL     OW30187   6.224   2.108   0.959
 9763SOL    HW130188   6.181   2.018   0.973
 9763SOL    HW230189   6.208   2.165   1.040
 9764SOL     OW30190   0.367   2.620   3.068
 9764SOL    HW130191   0.287   2.563   3.085
 9764SOL    HW230192   0.372   2.642   2.971
 9765SOL     OW30193   6.499   2.145   1.294
 9765SOL    HW130194   6.406   2.147   1.330
 9765SOL    HW230195   6.506   2.207   1.216
 9766SOL     OW30196   0.294   2.628   2.813
 9766SOL    HW130197   0.263   2.721   2.796
 9766SOL    HW230198   0.215   2.567   2.819
 9767SOL     OW30199   3.862   1.465   5.161
 9767SOL    HW130200   3.940   1.439   5.217
 9767SOL    HW230201   3.778   1.430   5.201
 9768SOL     OW30202   5.072   1.898   6.793
 9768SOL    HW130203   4.994   1.878   6.852
 9768SOL    HW230204   5.083   1.825   6.726
 9769SOL     OW30205   3.676   1.079   5.165
 9769SOL    HW130206   3.774   1.093   5.183
 9769SOL    HW230207   3.650   0.987   5.197
 9770SOL     OW30208   1.924   3.342   5.114
 9770SOL    HW130209   1.914   3.261   5.057
 9770SOL    HW230210   1.993   3.324   5.185
 9771SOL     OW30211   3.552   1.115   2.210
 9771SOL    HW130212   3.599   1.102   2.297
 9771SOL    HW230213   3.460   1.151   2.227
 9772SOL     OW30214   0.372   0.434   2.151
 9772SOL    HW130215   0.392   0.418   2.248
 9772SOL    HW230216   0.314   0.515   2.142
 9773SOL     OW30217   5.926   6.364   2.107
 9773SOL    HW130218   5.915   6.463   2.100
 9773SOL    HW230219   6.010   6.336   2.061
 9774SOL     OW30220   1.639   6.131   4.529
 9774SOL    HW130221   1.653   6.101   4.434
 9774SOL    HW230222   1.710   6.198   4.553
 9775SOL     OW30223   1.144   1.379   3.015
 9775SOL    HW130224   1.154   1.414   3.108
 9775SOL    HW230225   1.210   1.424   2.955
 9776SOL     OW30226   1.845   5.878   1.697
 9776SOL    HW130227   1.910   5.853   1.625
 9776SOL    HW230228   1.873   5.836   1.784
 9777SOL     OW30229   4.267   1.856   5.341
 9777SOL    HW130230   4.174   1.825   5.328
 9777SOL    HW230231   4.294   1.915   5.265
 9778SOL     OW30232   1.509   3.756   3.068
 9778SOL    HW130233   1.594   3.796   3.033
 9778SOL    HW230234   1.433   3.781   3.008
 9779SOL     OW30235   2.954   0.381   3.295
 9779SOL    HW130236   2.960   0.471   3.338
 9779SOL    HW230237   2.971   0.390   3.196
 9780SOL     OW30238   1.039   1.576   0.795
 9780SOL    HW130239   1.092   1.585   0.879
 9780SOL    HW230240   1.076   1.501   0.740
 9781SOL     OW30241   1.362   1.018   2.158
 9781SOL    HW130242   1.456   0.997   2.185
 9781SOL    HW230243   1.299   0.988   2.231
 9782SOL     OW30244   6.978   2.690   0.457
 9782SOL    HW130245   6.965   2.773   0.403
 9782SOL    HW230246   0.041   2.697   0.510
 9783SOL     OW30247   4.953   1.985   2.319
 9783SOL    HW130248   4.957   2.039   2.403
 9783SOL    HW230249   4.857   1.967   2.295
 9784SOL     OW30250   1.937   1.494   0.564
 9784SOL    HW130251   1.965   1.566   0.500
 9784SOL    HW230252   1.898   1.536   0.646
 9785SOL     OW30253   1.637   3.631   4.756
 9785SOL    HW130254   1.704   3.673   4.696
 9785SOL    HW230255   1.615   3.694   4.831
 9786SOL     OW30256   2.859   4.682   0.045
 9786SOL    HW130257   2.823   4.734   6.989
 9786SOL    HW230258   2.862   4.740   0.126
 9787SOL     OW30259   2.635   3.422   0.935
 9787SOL    HW130260   2.578   3.502   0.952
 9787SOL    HW230261   2.586   3.340   0.964
 9788SOL     OW30262   2.986   6.908   2.493
 9788SOL    HW130263   2.959   6.819   2.457
 9788SOL    HW230264   3.018   6.898   2.587
 9789SOL     OW30265   4.350   1.642   0.758
 9789SOL    HW130266   4.371   1.727   0.806
 9789SOL    HW230267   4.427   1.618   0.699
 9790SOL     OW30268   4.715   5.858   4.629
 9790SOL    HW130269   4.686   5.847   4.724
 9790SOL    HW230270   4.813   5.880   4.626
 9791SOL     OW30271   0.669   0.949   1.363
 9791SOL    HW130272   0.697   0.891   1.439
 9791SOL    HW230273   0.748   0.969   1.305
 9792SOL     OW30274   3.510   3.884   0.768
 9792SOL    HW130275   3.595   3.933   0.789
 9792SOL    HW230276   3.444   3.947   0.728
 9793SOL     OW30277   6.031   1.207   2.551
 9793SOL    HW130278   6.094   1.249   2.485
 9793SOL    HW230279   5.986   1.279   2.604
 9794SOL     OW30280   3.815   5.483   4.688
 9794SOL    HW130281   3.897   5.471   4.632
 9794SOL    HW230282   3.807   5.580   4.714
 9795SOL     OW30283   1.936   3.954   3.187
 9795SOL    HW130284   1.842   3.978   3.163
 9795SOL    HW230285   1.980   4.032   3.232
 9796SOL     OW30286   3.400   3.967   4.495
 9796SOL    HW130287   3.479   4.026   4.510
 9796SOL    HW230288   3.398   3.937   4.399
 9797SOL     OW30289   3.485   5.436   0.197
 9797SOL    HW130290   3.524   5.446   0.289
 9797SOL    HW230291   3.434   5.350   0.192
 9798SOL     OW30292   6.902   4.169   6.338
 9798SOL    HW130293   6.943   4.254   6.373
 9798SOL    HW230294   6.958   4.092   6.366
 9799SOL     OW30295   4.118   6.282   6.759
 9799SOL    HW130296   4.154   6.375   6.763
 9799SOL    HW230297   4.181   6.224   6.708
 9800SOL     OW30298   6.315   4.597   4.885
 9800SOL    HW130299   6.245   4.630   4.822
 9800SOL    HW230300   6.306   4.646   4.972
 9801SOL     OW30301   4.117   7.021   0.530
 9801SOL    HW130302   4.162   6.937   0.557
 9801SOL    HW230303   4.097   7.018   0.432
 9802SOL     OW30304   4.153   3.251   0.387
 9802SOL    HW130305   4.120   3.341   0.357
 9802SOL    HW230306   4.078   3.204   0.434
 9803SOL     OW30307   2.060   3.305   6.977
 9803SOL    HW130308   2.125   3.292   0.030
 9803SOL    HW230309   1.977   3.347   7.013
 9804SOL     OW30310   1.241   4.298   2.821
 9804SOL    HW130311   1.311   4.276   2.889
 9804SOL    HW230312   1.173   4.360   2.861
 9805SOL     OW30313   0.113   5.653   4.650
 9805SOL    HW130314   0.045   5.582   4.631
 9805SOL    HW230315   0.074   5.742   4.628
 9806SOL     OW30316   3.292   1.348   6.670
 9806SOL    HW130317   3.376   1.389   6.634
 9806SOL    HW230318   3.252   1.408   6.738
 9807SOL     OW30319   3.826   3.002   3.882
 9807SOL    HW130320   3.834   2.990   3.783
 9807SOL    HW230321   3.750   2.947   3.916
 9808SOL     OW30322   3.216   5.755   2.455
 9808SOL    HW130323   3.313   5.735   2.464
 9808SOL    HW230324   3.178   5.705   2.377
 9809SOL     OW30325   5.808   2.458   1.103
 9809SOL    HW130326   5.873   2.521   1.145
 9809SOL    HW230327   5.836   2.363   1.121
 9810SOL     OW30328   2.945   3.123   0.772
 9810SOL    HW130329   2.884   3.101   0.849
 9810SOL    HW230330   2.923   3.213   0.737
 9811SOL     OW30331   5.032   3.823   4.055
 9811SOL    HW130332   5.014   3.918   4.078
 9811SOL    HW230333   5.130   3.809   4.044
 9812SOL     OW30334   3.590   5.524   6.598
 9812SOL    HW130335   3.619   5.607   6.645
 9812SOL    HW230336   3.628   5.523   6.505
 9813SOL     OW30337   4.545   1.224   2.198
 9813SOL    HW130338   4.494   1.179   2.271
 9813SOL    HW230339   4.552   1.164   2.119
 9814SOL     OW30340   6.627   1.780   6.202
 9814SOL    HW130341   6.608   1.878   6.207
 9814SOL    HW230342   6.663   1.749   6.289
 9815SOL     OW30343   4.989   2.505   4.533
 9815SOL    HW130344   5.050   2.503   4.612
 9815SOL    HW230345   4.952   2.597   4.522
 9816SOL     OW30346   2.988   0.731   0.089
 9816SOL    HW130347   2.958   0.798   0.022
 9816SOL    HW230348   3.081   0.753   0.119
 9817SOL     OW30349   6.789   0.455   1.552
 9817SOL    HW130350   6.748   0.501   1.631
 9817SOL    HW230351   6.854   0.517   1.507
 9818SOL     OW30352   3.472   2.389   5.500
 9818SOL    HW130353   3.444   2.466   5.444
 9818SOL    HW230354   3.455   2.304   5.451
 9819SOL     OW30355   2.923   0.600   1.569
 9819SOL    HW130356   2.954   0.695   1.563
 9819SOL    HW230357   2.981   0.551   1.634
 9820SOL     OW30358   3.824   2.558   6.695
 9820SOL    HW130359   3.730   2.576   6.725
 9820SOL    HW230360   3.867   2.643   6.666
 9821SOL     OW30361   6.806   5.560   0.077
 9821SOL    HW130362   6.714   5.599   0.077
 9821SOL    HW230363   6.801   5.462   0.059
 9822SOL     OW30364   0.122   0.516   2.443
 9822SOL    HW130365   0.178   0.503   2.525
 9822SOL    HW230366   0.082   0.428   2.416
 9823SOL     OW30367   3.575   6.560   2.011
 9823SOL    HW130368   3.568   6.658   2.031
 9823SOL    HW230369   3.631   6.547   1.929
 9824SOL     OW30370   1.867   3.839   5.920
 9824SOL    HW130371   1.777   3.866   5.885
 9824SOL    HW230372   1.858   3.812   6.016
 9825SOL     OW30373   4.249   5.478   4.787
 9825SOL    HW130374   4.326   5.437   4.836
 9825SOL    HW230375   4.184   5.516   4.853
 9826SOL     OW30376   5.874   6.486   5.024
 9826SOL    HW130377   5.819   6.407   5.053
 9826SOL    HW230378   5.947   6.455   4.963
 9827SOL     OW30379   1.081   4.828   5.125
 9827SOL    HW130380   0.991   4.872   5.128
 9827SOL    HW230381   1.074   4.734   5.157
 9828SOL     OW30382   2.080   2.217   6.982
 9828SOL    HW130383   2.179   2.207   6.971
 9828SOL    HW230384   2.034   2.185   6.899
 9829SOL     OW30385   2.388   4.359   1.491
 9829SOL    HW130386   2.301   4.400   1.463
 9829SOL    HW230387   2.464   4.414   1.456
 9830SOL     OW30388   6.663   1.163   0.830
 9830SOL    HW130389   6.570   1.193   0.806
 9830SOL    HW230390   6.693   1.211   0.912
 9831SOL     OW30391   5.698   6.631   1.226
 9831SOL    HW130392   5.720   6.707   1.288
 9831SOL    HW230393   5.599   6.628   1.212
 9832SOL     OW30394   3.746   4.241   1.071
 9832SOL    HW130395   3.824   4.280   1.022
 9832SOL    HW230396   3.665   4.246   1.014
 9833SOL     OW30397   4.734   4.439   6.256
 9833SOL    HW130398   4.683   4.525   6.256
 9833SOL    HW230399   4.700   4.380   6.329
 9834SOL     OW30400   2.150   2.007   3.702
 9834SOL    HW130401   2.217   2.076   3.730
 9834SOL    HW230402   2.081   2.050   3.643
 9835SOL     OW30403   5.705   1.213   4.804
 9835SOL    HW130404   5.721   1.175   4.894
 9835SOL    HW230405   5.788   1.203   4.748
 9836SOL     OW30406   4.803   5.173   1.503
 9836SOL    HW130407   4.786   5.076   1.489
 9836SOL    HW230408   4.864   5.186   1.582
 9837SOL     OW30409   2.436   6.215   5.653
 9837SOL    HW130410   2.483   6.201   5.566
 9837SOL    HW230411   2.435   6.312   5.676
 9838SOL     OW30412   6.670   5.847   4.822
 9838SOL    HW130413   6.692   5.751   4.803
 9838SOL    HW230414   6.656   5.859   4.920
 9839SOL     OW30415   6.013   2.961   2.637
 9839SOL    HW130416   5.934   2.942   2.578
 9839SOL    HW230417   5.982   3.003   2.722
 9840SOL     OW30418   5.782   0.235   0.559
 9840SOL    HW130419   5.790   0.181   0.475
 9840SOL    HW230420   5.703   0.296   0.552
 9841SOL     OW30421   2.274   2.905   4.457
 9841SOL    HW130422   2.275   2.979   4.525
 9841SOL    HW230423   2.198   2.918   4.394
 9842SOL     OW30424   3.389   3.534   3.960
 9842SOL    HW130425   3.409   3.581   4.046
 9842SOL    HW230426   3.473   3.521   3.908
 9843SOL     OW30427   6.157   4.745   2.941
 9843SOL    HW130428   6.080   4.779   2.887
 9843SOL    HW230429   6.242   4.759   2.890
 9844SOL     OW30430   5.273   0.196   2.156
 9844SOL    HW130431   5.236   0.275   2.205
 9844SOL    HW230432   5.324   0.139   2.219
 9845SOL     OW30433   1.393   1.561   3.313
 9845SOL    HW130434   1.406   1.601   3.223
 9845SOL    HW230435   1.396   1.633   3.382
 9846SOL     OW30436   3.273   3.823   3.528
 9846SOL    HW130437   3.363   3.837   3.570
 9846SOL    HW230438   3.281   3.754   3.456
 9847SOL     OW30439   2.164   4.425   5.193
 9847SOL    HW130440   2.074   4.413   5.151
 9847SOL    HW230441   2.195   4.338   5.231
 9848SOL     OW30442   5.847   3.893   0.470
 9848SOL    HW130443   5.808   3.910   0.379
 9848SOL    HW230444   5.802   3.953   0.536
 9849SOL     OW30445   7.006   6.286   5.308
 9849SOL    HW130446   6.964   6.356   5.250
 9849SOL    HW230447   6.937   6.216   5.331
 9850SOL     OW30448   4.345   0.109   2.845
 9850SOL    HW130449   4.329   0.208   2.847
 9850SOL    HW230450   4.287   0.064   2.912
 9851SOL     OW30451   5.540   3.086   5.084
 9851SOL    HW130452   5.566   3.072   4.989
 9851SOL    HW230453   5.491   3.172   5.093
 9852SOL     OW30454   5.769   1.740   4.721
 9852SOL    HW130455   5.850   1.696   4.681
 9852SOL    HW230456   5.688   1.717   4.667
 9853SOL     OW30457   0.448   4.721   1.353
 9853SOL    HW130458   0.443   4.808   1.402
 9853SOL    HW230459   0.544   4.693   1.344
 9854SOL     OW30460   3.962   6.251   3.645
 9854SOL    HW130461   4.025   6.290   3.712
 9854SOL    HW230462   3.869   6.251   3.682
 9855SOL     OW30463   2.097   3.840   0.729
 9855SOL    HW130464   2.052   3.755   0.755
 9855SOL    HW230465   2.113   3.840   0.630
 9856SOL     OW30466   3.415   3.115   1.293
 9856SOL    HW130467   3.327   3.071   1.313
 9856SOL    HW230468   3.429   3.118   1.194
 9857SOL     OW30469   6.488   4.430   2.891
 9857SOL    HW130470   6.563   4.494   2.875
 9857SOL    HW230471   6.414   4.448   2.825
 9858SOL     OW30472   3.670   1.513   1.268
 9858SOL    HW130473   3.643   1.607   1.289
 9858SOL    HW230474   3.770   1.507   1.265
 9859SOL     OW30475   0.101   0.244   1.345
 9859SOL    HW130476   0.068   0.149   1.346
 9859SOL    HW230477   0.112   0.274   1.251
 9860SOL     OW30478   0.841   0.693   2.474
 9860SOL    HW130479   0.881   0.749   2.401
 9860SOL    HW230480   0.750   0.661   2.446
 9861SOL     OW30481   3.006   6.442   4.536
 9861SOL    HW130482   2.944   6.520   4.550
 9861SOL    HW230483   3.079   6.469   4.473
 9862SOL     OW30484   0.439   2.155   1.075
 9862SOL    HW130485   0.422   2.088   1.003
 9862SOL    HW230486   0.450   2.107   1.162
 9863SOL     OW30487   3.321   6.837   0.347
 9863SOL    HW130488   3.324   6.770   0.273
 9863SOL    HW230489   3.407   6.889   0.348
 9864SOL     OW30490   4.575   5.729   2.999
 9864SOL    HW130491   4.535   5.729   2.907
 9864SOL    HW230492   4.598   5.823   3.025
 9865SOL     OW30493   1.646   2.644   3.746
 9865SOL    HW130494   1.626   2.738   3.718
 9865SOL    HW230495   1.650   2.640   3.846
 9866SOL     OW30496   3.427   5.190   3.654
 9866SOL    HW130497   3.428   5.101   3.699
 9866SOL    HW230498   3.517   5.233   3.663
 9867SOL     OW30499   4.018   0.280   6.241
 9867SOL    HW130500   4.055   0.198   6.198
 9867SOL    HW230501   4.032   0.275   6.340
 9868SOL     OW30502   0.885   5.125   5.720
 9868SOL    HW130503   0.831   5.047   5.755
 9868SOL    HW230504   0.979   5.096   5.704
 9869SOL     OW30505   1.396   4.151   2.999
 9869SOL    HW130506   1.347   4.192   3.076
 9869SOL    HW230507   1.486   4.120   3.028
 9870SOL     OW30508   4.338   4.544   2.112
 9870SOL    HW130509   4.317   4.515   2.019
 9870SOL    HW230510   4.434   4.524   2.133
 9871SOL     OW30511   1.755   2.093   5.856
 9871SOL    HW130512   1.766   2.157   5.781
 9871SOL    HW230513   1.760   2.143   5.943
 9872SOL     OW30514   1.357   4.181   3.767
 9872SOL    HW130515   1.392   4.260   3.718
 9872SOL    HW230516   1.340   4.207   3.863
 9873SOL     OW30517   1.481   2.057   0.269
 9873SOL    HW130518   1.489   2.011   0.357
 9873SOL    HW230519   1.559   2.118   0.256
 9874SOL     OW30520   1.358   3.791   4.778
 9874SOL    HW130521   1.425   3.780   4.704
 9874SOL    HW230522   1.290   3.858   4.750
 9875SOL     OW30523   0.806   1.217   2.657
 9875SOL    HW130524   0.783   1.269   2.739
 9875SOL    HW230525   0.906   1.212   2.648
 9876SOL     OW30526   7.018   5.164   1.969
 9876SOL    HW130527   6.977   5.083   1.927
 9876SOL    HW230528   6.960   5.197   2.043
 9877SOL     OW30529   3.372   6.928   1.449
 9877SOL    HW130530   3.459   6.976   1.463
 9877SOL    HW230531   3.385   6.830   1.462
 9878SOL     OW30532   0.669   0.136   5.297
 9878SOL    HW130533   0.729   0.139   5.218
 9878SOL    HW230534   0.663   0.227   5.338
 9879SOL     OW30535   5.708   5.960   5.144
 9879SOL    HW130536   5.774   5.940   5.217
 9879SOL    HW230537   5.619   5.922   5.168
 9880SOL     OW30538   1.694   1.439   3.832
 9880SOL    HW130539   1.756   1.360   3.824
 9880SOL    HW230540   1.700   1.475   3.925
 9881SOL     OW30541   6.917   1.342   6.069
 9881SOL    HW130542   6.935   1.307   6.161
 9881SOL    HW230543   6.995   1.396   6.038
 9882SOL     OW30544   2.091   2.167   3.077
 9882SOL    HW130545   2.024   2.094   3.091
 9882SOL    HW230546   2.173   2.130   3.035
 9883SOL     OW30547   2.769   1.294   2.370
 9883SOL    HW130548   2.807   1.324   2.283
 9883SOL    HW230549   2.814   1.344   2.445
 9884SOL     OW30550   3.295   0.413   4.161
 9884SOL    HW130551   3.363   0.485   4.173
 9884SOL    HW230552   3.300   0.377   4.067
 9885SOL     OW30553   6.498   4.310   4.446
 9885SOL    HW130554   6.491   4.211   4.458
 9885SOL    HW230555   6.408   4.348   4.428
 9886SOL     OW30556   0.912   3.280   1.714
 9886SOL    HW130557   0.879   3.373   1.728
 9886SOL    HW230558   0.909   3.229   1.800
 9887SOL     OW30559   4.398   6.792   6.087
 9887SOL    HW130560   4.378   6.763   6.181
 9887SOL    HW230561   4.349   6.733   6.023
 9888SOL     OW30562   6.209   5.432   6.868
 9888SOL    HW130563   6.298   5.448   6.826
 9888SOL    HW230564   6.200   5.336   6.892
 9889SOL     OW30565   0.486   4.959   0.500
 9889SOL    HW130566   0.418   4.885   0.506
 9889SOL    HW230567   0.484   5.012   0.585
 9890SOL     OW30568   1.460   3.354   0.520
 9890SOL    HW130569   1.437   3.261   0.490
 9890SOL    HW230570   1.441   3.363   0.618
 9891SOL     OW30571   5.144   1.676   1.949
 9891SOL    HW130572   5.234   1.667   1.906
 9891SOL    HW230573   5.143   1.756   2.009
 9892SOL     OW30574   0.925   6.593   6.962
 9892SOL    HW130575   0.990   6.631   0.005
 9892SOL    HW230576   0.939   6.633   6.872
 9893SOL     OW30577   2.159   1.556   0.919
 9893SOL    HW130578   2.183   1.649   0.890
 9893SOL    HW230579   2.165   1.550   1.019
 9894SOL     OW30580   2.031   1.083   1.500
 9894SOL    HW130581   2.123   1.071   1.537
 9894SOL    HW230582   1.998   1.174   1.524
 9895SOL     OW30583   4.490   2.943   5.332
 9895SOL    HW130584   4.513   2.883   5.410
 9895SOL    HW230585   4.541   3.028   5.340
 9896SOL     OW30586   6.986   6.438   6.375
 9896SOL    HW130587   6.959   6.513   6.314
 9896SOL    HW230588   7.016   6.360   6.321
 9897SOL     OW30589   5.391   5.029   4.484
 9897SOL    HW130590   5.469   4.989   4.533
 9897SOL    HW230591   5.408   5.126   4.469
 9898SOL     OW30592   2.831   6.837   5.726
 9898SOL    HW130593   2.771   6.884   5.792
 9898SOL    HW230594   2.775   6.796   5.654
 9899SOL     OW30595   0.090   5.317   6.997
 9899SOL    HW130596   0.094   5.395   0.037
 9899SOL    HW230597   0.152   5.333   6.920
 9900SOL     OW30598   2.294   4.218   3.587
 9900SOL    HW130599   2.326   4.300   3.636
 9900SOL    HW230600   2.301   4.139   3.647
 9901SOL     OW30601   2.587   3.045   5.710
 9901SOL    HW130602   2.566   2.951   5.683
 9901SOL    HW230603   2.639   3.090   5.636
 9902SOL     OW30604   2.814   4.034   0.492
 9902SOL    HW130605   2.842   4.123   0.455
 9902SOL    HW230606   2.778   4.047   0.584
 9903SOL     OW30607   5.324   0.724   4.425
 9903SOL    HW130608   5.288   0.696   4.513
 9903SOL    HW230609   5.395   0.660   4.396
 9904SOL     OW30610   6.215   2.652   0.783
 9904SOL    HW130611   6.119   2.651   0.754
 9904SOL    HW230612   6.243   2.560   0.808
 9905SOL     OW30613   5.213   0.422   0.316
 9905SOL    HW130614   5.233   0.423   0.414
 9905SOL    HW230615   5.115   0.407   0.302
 9906SOL     OW30616   3.135   3.056   4.891
 9906SOL    HW130617   3.052   3.097   4.930
 9906SOL    HW230618   3.149   2.966   4.932
 9907SOL     OW30619   1.288   6.733   1.909
 9907SOL    HW130620   1.243   6.806   1.961
 9907SOL    HW230621   1.340   6.773   1.834
 9908SOL     OW30622   4.900   3.653   2.266
 9908SOL    HW130623   4.891   3.751   2.249
 9908SOL    HW230624   4.875   3.601   2.184
 9909SOL     OW30625   2.253   0.415   5.146
 9909SOL    HW130626   2.256   0.489   5.079
 9909SOL    HW230627   2.220   0.331   5.101
 9910SOL     OW30628   0.106   5.148   3.609
 9910SOL    HW130629   0.074   5.117   3.520
 9910SOL    HW230630   0.161   5.231   3.597
 9911SOL     OW30631   2.896   5.510   2.382
 9911SOL    HW130632   2.857   5.590   2.427
 9911SOL    HW230633   2.843   5.428   2.407
 9912SOL     OW30634   4.922   0.610   6.831
 9912SOL    HW130635   5.012   0.589   6.870
 9912SOL    HW230636   4.900   0.543   6.760
 9913SOL     OW30637   4.614   3.377   6.985
 9913SOL    HW130638   4.596   3.318   0.041
 9913SOL    HW230639   4.691   3.341   6.933
 9914SOL     OW30640   0.049   4.294   4.097
 9914SOL    HW130641   6.974   4.289   4.122
 9914SOL    HW230642   0.102   4.324   4.175
 9915SOL     OW30643   5.313   1.039   3.368
 9915SOL    HW130644   5.262   0.965   3.324
 9915SOL    HW230645   5.252   1.117   3.382
 9916SOL     OW30646   1.524   3.057   2.152
 9916SOL    HW130647   1.498   2.964   2.129
 9916SOL    HW230648   1.542   3.109   2.068
 9917SOL     OW30649   6.169   4.091   5.150
 9917SOL    HW130650   6.261   4.083   5.112
 9917SOL    HW230651   6.163   4.176   5.204
 9918SOL     OW30652   4.790   2.803   2.360
 9918SOL    HW130653   4.773   2.821   2.457
 9918SOL    HW230654   4.886   2.822   2.339
 9919SOL     OW30655   6.029   6.213   0.778
 9919SOL    HW130656   6.112   6.235   0.726
 9919SOL    HW230657   5.950   6.252   0.733
 9920SOL     OW30658   4.759   1.674   2.668
 9920SOL    HW130659   4.831   1.731   2.627
 9920SOL    HW230660   4.738   1.709   2.760
 9921SOL     OW30661   3.695   4.917   6.102
 9921SOL    HW130662   3.671   4.916   6.199
 9921SOL    HW230663   3.780   4.866   6.088
 9922SOL     OW30664   0.070   5.285   0.785
 9922SOL    HW130665   0.097   5.377   0.758
 9922SOL    HW230666   7.010   5.290   0.842
 9923SOL     OW30667   5.452   4.749   1.047
 9923SOL    HW130668   5.540   4.772   1.089
 9923SOL    HW230669   5.380   4.749   1.116
 9924SOL     OW30670   1.291   3.511   4.844
 9924SOL    HW130671   1.220   3.483   4.908
 9924SOL    HW230672   1.280   3.608   4.822
 9925SOL     OW30673   5.535   1.994   3.316
 9925SOL    HW130674   5.618   2.027   3.271
 9925SOL    HW230675   5.540   2.016   3.414
 9926SOL     OW30676   2.673   5.133   0.225
 9926SOL    HW130677   2.581   5.173   0.228
 9926SOL    HW230678   2.733   5.193   0.172
 9927SOL     OW30679   5.290   0.253   4.018
 9927SOL    HW130680   5.337   0.167   3.998
 9927SOL    HW230681   5.194   0.245   3.991
 9928SOL     OW30682   4.567   4.977   2.190
 9928SOL    HW130683   4.543   4.965   2.287
 9928SOL    HW230684   4.631   5.053   2.181
 9929SOL     OW30685   1.196   4.634   2.748
 9929SOL    HW130686   1.136   4.579   2.689
 9929SOL    HW230687   1.235   4.709   2.695
 9930SOL     OW30688   5.925   0.505   3.499
 9930SOL    HW130689   6.000   0.456   3.456
 9930SOL    HW230690   5.853   0.440   3.525
 9931SOL     OW30691   0.439   5.410   6.096
 9931SOL    HW130692   0.353   5.396   6.047
 9931SOL    HW230693   0.512   5.430   6.031
 9932SOL     OW30694   0.652   6.416   5.543
 9932SOL    HW130695   0.595   6.472   5.483
 9932SOL    HW230696   0.619   6.424   5.637
 9933SOL     OW30697   0.237   5.971   2.409
 9933SOL    HW130698   0.191   5.922   2.335
 9933SOL    HW230699   0.336   5.958   2.400
 9934SOL     OW30700   6.697   2.011   5.444
 9934SOL    HW130701   6.634   1.951   5.396
 9934SOL    HW230702   6.745   1.960   5.516
 9935SOL     OW30703   2.827   0.283   6.348
 9935SOL    HW130704   2.855   0.374   6.317
 9935SOL    HW230705   2.845   0.216   6.276
 9936SOL     OW30706   1.184   4.161   4.410
 9936SOL    HW130707   1.110   4.175   4.475
 9936SOL    HW230708   1.164   4.081   4.352
 9937SOL     OW30709   6.539   2.450   6.303
 9937SOL    HW130710   6.585   2.376   6.351
 9937SOL    HW230711   6.558   2.443   6.205
 9938SOL     OW30712   0.296   6.271   2.429
 9938SOL    HW130713   0.300   6.329   2.511
 9938SOL    HW230714   0.259   6.181   2.454
 9939SOL     OW30715   3.182   3.294   2.796
 9939SOL    HW130716   3.130   3.349   2.861
 9939SOL    HW230717   3.206   3.351   2.716
 9940SOL     OW30718   0.067   0.674   1.155
 9940SOL    HW130719   0.034   0.658   1.062
 9940SOL    HW230720   0.167   0.678   1.155
 9941SOL     OW30721   3.355   5.546   4.953
 9941SOL    HW130722   3.396   5.612   4.890
 9941SOL    HW230723   3.382   5.453   4.928
 9942SOL     OW30724   2.459   5.848   4.062
 9942SOL    HW130725   2.452   5.749   4.070
 9942SOL    HW230726   2.373   5.884   4.024
 9943SOL     OW30727   0.533   6.927   5.275
 9943SOL    HW130728   0.571   7.018   5.264
 9943SOL    HW230729   0.442   6.924   5.232
 9944SOL     OW30730   1.386   4.231   6.659
 9944SOL    HW130731   1.420   4.292   6.731
 9944SOL    HW230732   1.448   4.153   6.649
 9945SOL     OW30733   0.198   5.982   0.137
 9945SOL    HW130734   0.271   5.916   0.157
 9945SOL    HW230735   0.121   5.967   0.198
 9946SOL     OW30736   5.829   1.818   4.981
 9946SOL    HW130737   5.920   1.799   5.018
 9946SOL    HW230738   5.820   1.776   4.891
 9947SOL     OW30739   6.056   4.733   3.389
 9947SOL    HW130740   6.129   4.777   3.338
 9947SOL    HW230741   5.988   4.695   3.326
 9948SOL     OW30742   5.573   3.714   4.029
 9948SOL    HW130743   5.663   3.704   3.987
 9948SOL    HW230744   5.558   3.640   4.095
 9949SOL     OW30745   6.155   5.047   1.931
 9949SOL    HW130746   6.087   5.060   2.003
 9949SOL    HW230747   6.247   5.060   1.970
 9950SOL     OW30748   2.865   6.403   6.508
 9950SOL    HW130749   2.780   6.419   6.558
 9950SOL    HW230750   2.844   6.384   6.412
 9951SOL     OW30751   6.134   2.353   3.384
 9951SOL    HW130752   6.112   2.448   3.408
 9951SOL    HW230753   6.169   2.349   3.291
 9952SOL     OW30754   6.643   4.870   6.113
 9952SOL    HW130755   6.558   4.918   6.092
 9952SOL    HW230756   6.716   4.936   6.131
 9953SOL     OW30757   5.680   2.772   3.593
 9953SOL    HW130758   5.779   2.761   3.603
 9953SOL    HW230759   5.634   2.731   3.672
 9954SOL     OW30760   4.162   0.334   4.629
 9954SOL    HW130761   4.140   0.248   4.675
 9954SOL    HW230762   4.186   0.315   4.534
 9955SOL     OW30763   0.694   4.777   4.463
 9955SOL    HW130764   0.661   4.861   4.419
 9955SOL    HW230765   0.626   4.744   4.528
 9956SOL     OW30766   1.065   6.344   0.158
 9956SOL    HW130767   1.059   6.263   0.217
 9956SOL    HW230768   1.033   6.321   0.066
 9957SOL     OW30769   5.899   5.697   2.277
 9957SOL    HW130770   5.991   5.666   2.255
 9957SOL    HW230771   5.837   5.674   2.203
 9958SOL     OW30772   2.911   4.395   0.799
 9958SOL    HW130773   2.994   4.400   0.854
 9958SOL    HW230774   2.846   4.331   0.842
 9959SOL     OW30775   3.425   3.857   1.367
 9959SOL    HW130776   3.341   3.873   1.315
 9959SOL    HW230777   3.413   3.779   1.428
 9960SOL     OW30778   0.718   1.482   2.545
 9960SOL    HW130779   0.706   1.389   2.580
 9960SOL    HW230780   0.809   1.516   2.567
 9961SOL     OW30781   2.128   3.906   4.795
 9961SOL    HW130782   2.063   3.839   4.829
 9961SOL    HW230783   2.178   3.946   4.872
 9962SOL     OW30784   5.064   6.490   4.092
 9962SOL    HW130785   4.994   6.508   4.023
 9962SOL    HW230786   5.046   6.401   4.135
 9963SOL     OW30787   3.449   1.200   0.903
 9963SOL    HW130788   3.449   1.116   0.849
 9963SOL    HW230789   3.363   1.208   0.953
 9964SOL     OW30790   5.224   6.429   4.723
 9964SOL    HW130791   5.251   6.505   4.664
 9964SOL    HW230792   5.144   6.383   4.684
 9965SOL     OW30793   4.681   6.673   0.655
 9965SOL    HW130794   4.763   6.673   0.598
 9965SOL    HW230795   4.628   6.756   0.638
 9966SOL     OW30796   6.253   1.089   3.348
 9966SOL    HW130797   6.179   1.068   3.284
 9966SOL    HW230798   6.265   1.014   3.413
 9967SOL     OW30799   1.007   4.910   0.809
 9967SOL    HW130800   0.911   4.890   0.786
 9967SOL    HW230801   1.066   4.842   0.765
 9968SOL     OW30802   3.101   3.659   3.189
 9968SOL    HW130803   3.146   3.616   3.267
 9968SOL    HW230804   3.102   3.759   3.200
 9969SOL     OW30805   1.313   3.384   1.208
 9969SOL    HW130806   1.248   3.323   1.252
 9969SOL    HW230807   1.403   3.340   1.202
 9970SOL     OW30808   6.144   4.597   1.585
 9970SOL    HW130809   6.127   4.690   1.620
 9970SOL    HW230810   6.189   4.543   1.654
 9971SOL     OW30811   2.628   0.004   6.645
 9971SOL    HW130812   2.625   0.095   6.604
 9971SOL    HW230813   2.717   6.984   6.627
 9972SOL     OW30814   6.669   5.217   1.159
 9972SOL    HW130815   6.720   5.188   1.240
 9972SOL    HW230816   6.681   5.150   1.086
 9973SOL     OW30817   5.495   0.144   3.537
 9973SOL    HW130818   5.411   0.104   3.575
 9973SOL    HW230819   5.486   0.152   3.438
 9974SOL     OW30820   2.450   0.077   4.431
 9974SOL    HW130821   2.481   7.005   4.445
 9974SOL    HW230822   2.501   0.138   4.492
 9975SOL     OW30823   6.923   4.436   0.672
 9975SOL    HW130824   6.967   4.346   0.667
 9975SOL    HW230825   6.824   4.425   0.661
 9976SOL     OW30826   2.894   6.651   5.077
 9976SOL    HW130827   2.810   6.597   5.080
 9976SOL    HW230828   2.936   6.650   5.168
 9977SOL     OW30829   6.364   4.219   3.486
 9977SOL    HW130830   6.337   4.170   3.403
 9977SOL    HW230831   6.437   4.284   3.464
 9978SOL     OW30832   0.146   2.305   4.896
 9978SOL    HW130833   0.141   2.245   4.976
 9978SOL    HW230834   0.126   2.399   4.924
 9979SOL     OW30835   0.870   4.092   4.865
 9979SOL    HW130836   0.918   4.176   4.839
 9979SOL    HW230837   0.935   4.030   4.909
 9980SOL     OW30838   2.610   6.514   5.730
 9980SOL    HW130839   2.549   6.503   5.809
 9980SOL    HW230840   2.703   6.488   5.756
 9981SOL     OW30841   4.162   1.968   4.110
 9981SOL    HW130842   4.151   2.036   4.183
 9981SOL    HW230843   4.093   1.897   4.120
 9982SOL     OW30844   6.544   6.471   2.988
 9982SOL    HW130845   6.614   6.525   3.035
 9982SOL    HW230846   6.521   6.514   2.901
 9983SOL     OW30847   6.285   1.050   0.978
 9983SOL    HW130848   6.306   1.123   0.913
 9983SOL    HW230849   6.237   1.088   1.057
 9984SOL     OW30850   3.103   1.132   6.564
 9984SOL    HW130851   3.010   1.169   6.562
 9984SOL    HW230852   3.151   1.168   6.644
 9985SOL     OW30853   2.187   1.575   1.626
 9985SOL    HW130854   2.269   1.560   1.571
 9985SOL    HW230855   2.214   1.608   1.717
 9986SOL     OW30856   4.894   4.288   4.832
 9986SOL    HW130857   4.957   4.266   4.907
 9986SOL    HW230858   4.861   4.203   4.791
 9987SOL     OW30859   0.375   4.337   5.585
 9987SOL    HW130860   0.437   4.414   5.595
 9987SOL    HW230861   0.305   4.359   5.518
 9988SOL     OW30862   6.701   0.489   4.458
 9988SOL    HW130863   6.738   0.581   4.442
 9988SOL    HW230864   6.716   0.433   4.376
 9989SOL     OW30865   1.538   3.121   4.756
 9989SOL    HW130866   1.547   3.103   4.658
 9989SOL    HW230867   1.514   3.217   4.770
 9990SOL     OW30868   1.391   5.262   1.576
 9990SOL    HW130869   1.481   5.306   1.574
 9990SOL    HW230870   1.337   5.300   1.651
 9991SOL     OW30871   4.118   1.869   3.324
 9991SOL    HW130872   4.025   1.837   3.303
 9991SOL    HW230873   4.184   1.818   3.269
 9992SOL     OW30874   6.490   5.549   6.326
 9992SOL    HW130875   6.403   5.518   6.289
 9992SOL    HW230876   6.492   5.533   6.425
 9993SOL     OW30877   1.201   0.494   2.052
 9993SOL    HW130878   1.180   0.444   1.968
 9993SOL    HW230879   1.119   0.541   2.084
 9994SOL     OW30880   6.371   5.081   3.114
 9994SOL    HW130881   6.296   5.148   3.113
 9994SOL    HW230882   6.459   5.129   3.115
 9995SOL     OW30883   5.078   1.384   4.892
 9995SOL    HW130884   5.171   1.376   4.856
 9995SOL    HW230885   5.017   1.418   4.821
 9996SOL     OW30886   2.560   2.910   0.077
 9996SOL    HW130887   2.578   2.971   0.001
 9996SOL    HW230888   2.465   2.879   0.074
 9997SOL     OW30889   2.072   0.339   4.313
 9997SOL    HW130890   2.037   0.416   4.366
 9997SOL    HW230891   2.147   0.369   4.255
 9998SOL     OW30892   5.788   5.925   4.901
 9998SOL    HW130893   5.739   5.946   4.985
 9998SOL    HW230894   5.790   6.005   4.842
 9999SOL     OW30895   0.112   0.755   5.127
 9999SOL    HW130896   0.122   0.853   5.142
 9999SOL    HW230897   0.203   0.712   5.126
10000SOL     OW30898   6.919   4.652   0.312
10000SOL    HW130899   6.911   4.596   0.229
10000SOL    HW230900   6.944   4.745   0.287
10001SOL     OW30901   3.852   0.013   3.394
10001SOL    HW130902   3.951   0.031   3.390
10001SOL    HW230903   3.813   0.021   3.302
10002SOL     OW30904   1.534   2.004   1.718
10002SOL    HW130905   1.526   1.945   1.637
10002SOL    HW230906   1.569   1.950   1.795
10003SOL     OW30907   5.069   3.344   2.661
10003SOL    HW130908   5.036   3.429   2.622
10003SOL    HW230909   4.992   3.293   2.700
10004SOL     OW30910   6.723   3.102   3.669
10004SOL    HW130911   6.643   3.120   3.726
10004SOL    HW230912   6.803   3.145   3.710
10005SOL     OW30913   4.841   6.936   3.904
10005SOL    HW130914   4.841   6.851   3.957
10005SOL    HW230915   4.906   7.001   3.943
10006SOL     OW30916   4.613   1.530   4.165
10006SOL    HW130917   4.618   1.430   4.173
10006SOL    HW230918   4.687   1.571   4.218
10007SOL     OW30919   5.886   4.421   4.126
10007SOL    HW130920   5.790   4.429   4.154
10007SOL    HW230921   5.899   4.463   4.036
10008SOL     OW30922   3.229   0.015   3.805
10008SOL    HW130923   3.230   6.946   3.763
10008SOL    HW230924   3.151   0.067   3.770
10009SOL     OW30925   2.421   4.394   1.185
10009SOL    HW130926   2.340   4.374   1.241
10009SOL    HW230927   2.499   4.414   1.244
10010SOL     OW30928   5.914   0.914   6.582
10010SOL    HW130929   5.873   0.831   6.544
10010SOL    HW230930   5.872   0.935   6.670
10011SOL     OW30931   6.970   6.467   3.602
10011SOL    HW130932   0.034   6.516   3.607
10011SOL    HW230933   6.894   6.532   3.604
10012SOL     OW30934   5.519   0.485   4.403
10012SOL    HW130935   5.475   0.395   4.410
10012SOL    HW230936   5.618   0.472   4.389
10013SOL     OW30937   1.465   0.651   1.987
10013SOL    HW130938   1.371   0.650   1.953
10013SOL    HW230939   1.524   0.602   1.923
10014SOL     OW30940   1.624   4.835   5.732
10014SOL    HW130941   1.688   4.768   5.695
10014SOL    HW230942   1.567   4.792   5.802
10015SOL     OW30943   2.387   5.808   6.297
10015SOL    HW130944   2.295   5.823   6.332
10015SOL    HW230945   2.389   5.722   6.245
10016SOL     OW30946   2.217   1.211   5.026
10016SOL    HW130947   2.238   1.274   4.952
10016SOL    HW230948   2.118   1.194   5.028
10017SOL     OW30949   0.204   1.890   3.443
10017SOL    HW130950   0.276   1.959   3.453
10017SOL    HW230951   0.245   1.800   3.435
10018SOL     OW30952   5.031   6.581   5.886
10018SOL    HW130953   4.982   6.499   5.855
10018SOL    HW230954   5.041   6.645   5.810
10019SOL     OW30955   1.184   0.877   2.648
10019SOL    HW130956   1.227   0.968   2.647
10019SOL    HW230957   1.134   0.866   2.734
10020SOL     OW30958   0.094   3.043   0.175
10020SOL    HW130959   0.154   2.968   0.204
10020SOL    HW230960   0.008   3.039   0.226
10021SOL     OW30961   4.929   3.010   1.340
10021SOL    HW130962   4.837   2.974   1.351
10021SOL    HW230963   4.938   3.095   1.392
10022SOL     OW30964   1.846   0.916   6.211
10022SOL    HW130965   1.850   0.980   6.135
10022SOL    HW230966   1.911   0.841   6.195
10023SOL     OW30967   0.627   3.504   0.993
10023SOL    HW130968   0.712   3.516   0.941
10023SOL    HW230969   0.615   3.579   1.057
10024SOL     OW30970   1.143   3.869   3.041
10024SOL    HW130971   1.073   3.921   3.090
10024SOL    HW230972   1.184   3.926   2.970
10025SOL     OW30973   0.600   1.122   0.922
10025SOL    HW130974   0.509   1.087   0.942
10025SOL    HW230975   0.612   1.131   0.823
10026SOL     OW30976   6.763   0.794   4.601
10026SOL    HW130977   6.689   0.771   4.663
10026SOL    HW230978   6.843   0.737   4.620
10027SOL     OW30979   6.031   2.835   5.689
10027SOL    HW130980   6.113   2.883   5.660
10027SOL    HW230981   5.952   2.871   5.640
10028SOL     OW30982   1.857   1.142   1.874
10028SOL    HW130983   1.861   1.203   1.954
10028SOL    HW230984   1.877   1.049   1.903
10029SOL     OW30985   3.604   1.344   3.968
10029SOL    HW130986   3.559   1.327   4.055
10029SOL    HW230987   3.630   1.257   3.926
10030SOL     OW30988   1.461   1.295   2.817
10030SOL    HW130989   1.543   1.243   2.794
10030SOL    HW230990   1.485   1.391   2.830
10031SOL     OW30991   6.381   4.712   3.850
10031SOL    HW130992   6.353   4.719   3.754
10031SOL    HW230993   6.391   4.615   3.874
10032SOL     OW30994   4.007   1.782   5.305
10032SOL    HW130995   4.009   1.754   5.210
10032SOL    HW230996   3.952   1.865   5.315
10033SOL     OW30997   5.418   3.315   3.694
10033SOL    HW130998   5.439   3.299   3.597
10033SOL    HW230999   5.502   3.337   3.743
10034SOL     OW31000   4.211   6.653   5.953
10034SOL    HW131001   4.209   6.659   5.854
10034SOL    HW231002   4.147   6.582   5.984
10035SOL     OW31003   0.921   6.605   3.854
10035SOL    HW131004   0.989   6.592   3.927
10035SOL    HW231005   0.840   6.649   3.892
10036SOL     OW31006   6.076   0.473   0.220
10036SOL    HW131007   6.173   0.462   0.238
10036SOL    HW231008   6.027   0.487   0.306
10037SOL     OW31009   0.162   6.965   1.418
10037SOL    HW131010   0.078   7.012   1.446
10037SOL    HW231011   0.177   6.886   1.477
10038SOL     OW31012   6.035   6.904   1.339
10038SOL    HW131013   6.065   6.983   1.285
10038SOL    HW231014   6.052   6.922   1.436
10039SOL     OW31015   4.316   0.748   2.668
10039SOL    HW131016   4.367   0.669   2.702
10039SOL    HW231017   4.341   0.829   2.721
10040SOL     OW31018   0.769   2.310   0.746
10040SOL    HW131019   0.858   2.356   0.746
10040SOL    HW231020   0.723   2.326   0.833
10041SOL     OW31021   1.389   6.709   0.563
10041SOL    HW131022   1.298   6.712   0.604
10041SOL    HW231023   1.420   6.803   0.544
10042SOL     OW31024   5.955   1.989   3.537
10042SOL    HW131025   5.894   1.920   3.497
10042SOL    HW231026   5.910   2.078   3.535
10043SOL     OW31027   1.803   2.461   5.541
10043SOL    HW131028   1.839   2.555   5.535
10043SOL    HW231029   1.720   2.454   5.485
10044SOL     OW31030   4.797   0.843   6.692
10044SOL    HW131031   4.750   0.901   6.758
10044SOL    HW231032   4.828   0.759   6.738
10045SOL     OW31033   1.984   1.201   1.138
10045SOL    HW131034   2.074   1.179   1.177
10045SOL    HW231035   1.985   1.186   1.039
10046SOL     OW31036   0.674   5.701   0.925
10046SOL    HW131037   0.642   5.636   0.993
10046SOL    HW231038   0.689   5.790   0.968
10047SOL     OW31039   1.333   3.384   0.762
10047SOL    HW131040   1.261   3.314   0.754
10047SOL    HW231041   1.403   3.353   0.826
10048SOL     OW31042   6.020   3.852   1.985
10048SOL    HW131043   5.978   3.848   1.894
10048SOL    HW231044   5.950   3.833   2.054
10049SOL     OW31045   6.388   1.451   4.907
10049SOL    HW131046   6.408   1.450   5.005
10049SOL    HW231047   6.319   1.521   4.889
10050SOL     OW31048   6.685   2.242   6.410
10050SOL    HW131049   6.761   2.306   6.399
10050SOL    HW231050   6.718   2.148   6.402
10051SOL     OW31051   2.008   1.300   3.611
10051SOL    HW131052   1.978   1.274   3.703
10051SOL    HW231053   1.943   1.365   3.572
10052SOL     OW31054   0.867   0.572   3.825
10052SOL    HW131055   0.935   0.500   3.841
10052SOL    HW231056   0.867   0.636   3.901
10053SOL     OW31057   6.043   5.335   2.759
10053SOL    HW131058   6.143   5.329   2.758
10053SOL    HW231059   6.006   5.262   2.816
10054SOL     OW31060   6.431   3.828   3.660
10054SOL    HW131061   6.391   3.742   3.691
10054SOL    HW231062   6.364   3.902   3.670
10055SOL     OW31063   1.859   1.912   6.883
10055SOL    HW131064   1.872   2.010   6.864
10055SOL    HW231065   1.886   1.859   6.803
10056SOL     OW31066   5.555   1.834   4.070
10056SOL    HW131067   5.457   1.832   4.049
10056SOL    HW231068   5.591   1.926   4.055
10057SOL     OW31069   6.086   4.307   5.312
10057SOL    HW131070   6.122   4.304   5.405
10057SOL    HW231071   5.987   4.288   5.314
10058SOL     OW31072   6.643   3.990   3.764
10058SOL    HW131073   6.573   3.925   3.735
10058SOL    HW231074   6.731   3.944   3.770
10059SOL     OW31075   4.840   5.842   6.341
10059SOL    HW131076   4.865   5.745   6.343
10059SOL    HW231077   4.860   5.883   6.430
10060SOL     OW31078   2.638   1.972   2.151
10060SOL    HW131079   2.717   1.987   2.091
10060SOL    HW231080   2.670   1.934   2.238
10061SOL     OW31081   3.791   6.566   3.173
10061SOL    HW131082   3.843   6.511   3.109
10061SOL    HW231083   3.720   6.616   3.124
10062SOL     OW31084   6.677   6.789   4.486
10062SOL    HW131085   6.674   6.854   4.563
10062SOL    HW231086   6.586   6.751   4.471
10063SOL     OW31087   3.572   2.066   4.396
10063SOL    HW131088   3.545   2.144   4.339
10063SOL    HW231089   3.629   2.099   4.472
10064SOL     OW31090   3.217   6.389   2.214
10064SOL    HW131091   3.301   6.340   2.192
10064SOL    HW231092   3.240   6.479   2.252
10065SOL     OW31093   0.147   1.801   1.938
10065SOL    HW131094   0.132   1.704   1.919
10065SOL    HW231095   0.083   1.856   1.885
10066SOL     OW31096   6.511   3.805   3.420
10066SOL    HW131097   6.562   3.718   3.426
10066SOL    HW231098   6.479   3.831   3.511
10067SOL     OW31099   5.540   3.487   5.305
10067SOL    HW131100   5.528   3.465   5.402
10067SOL    HW231101   5.596   3.416   5.261
10068SOL     OW31102   2.056   3.223   2.518
10068SOL    HW131103   2.088   3.215   2.423
10068SOL    HW231104   2.002   3.142   2.541
10069SOL     OW31105   3.005   4.991   1.861
10069SOL    HW131106   3.029   4.897   1.841
10069SOL    HW231107   2.919   5.015   1.815
10070SOL     OW31108   4.775   6.761   0.277
10070SOL    HW131109   4.770   6.861   0.289
10070SOL    HW231110   4.819   6.720   0.356
10071SOL     OW31111   5.388   0.722   5.244
10071SOL    HW131112   5.346   0.673   5.320
10071SOL    HW231113   5.408   0.816   5.271
10072SOL     OW31114   5.759   2.893   2.535
10072SOL    HW131115   5.721   2.981   2.562
10072SOL    HW231116   5.739   2.876   2.439
10073SOL     OW31117   5.748   6.249   5.119
10073SOL    HW131118   5.685   6.285   5.187
10073SOL    HW231119   5.722   6.155   5.096
10074SOL     OW31120   1.843   4.597   1.000
10074SOL    HW131121   1.850   4.638   1.091
10074SOL    HW231122   1.759   4.627   0.956
10075SOL     OW31123   1.281   3.158   2.378
10075SOL    HW131124   1.266   3.187   2.473
10075SOL    HW231125   1.346   3.220   2.335
10076SOL     OW31126   5.656   4.395   3.226
10076SOL    HW131127   5.677   4.386   3.324
10076SOL    HW231128   5.678   4.309   3.180
10077SOL     OW31129   4.182   3.637   6.517
10077SOL    HW131130   4.248   3.565   6.537
10077SOL    HW231131   4.211   3.722   6.561
10078SOL     OW31132   5.590   5.317   4.118
10078SOL    HW131133   5.643   5.398   4.093
10078SOL    HW231134   5.641   5.235   4.094
10079SOL     OW31135   5.739   4.918   2.943
10079SOL    HW131136   5.767   4.933   3.037
10079SOL    HW231137   5.816   4.880   2.891
10080SOL     OW31138   5.480   2.543   5.439
10080SOL    HW131139   5.509   2.553   5.344
10080SOL    HW231140   5.427   2.623   5.467
10081SOL     OW31141   1.661   4.995   0.530
10081SOL    HW131142   1.746   5.002   0.582
10081SOL    HW231143   1.668   4.920   0.465
10082SOL     OW31144   0.971   4.997   1.535
10082SOL    HW131145   1.001   5.027   1.445
10082SOL    HW231146   1.003   5.062   1.604
10083SOL     OW31147   2.863   6.203   2.482
10083SOL    HW131148   2.863   6.138   2.406
10083SOL    HW231149   2.786   6.266   2.472
10084SOL     OW31150   1.914   2.950   5.325
10084SOL    HW131151   1.836   2.930   5.265
10084SOL    HW231152   1.998   2.949   5.272
10085SOL     OW31153   3.681   0.007   1.498
10085SOL    HW131154   3.704   0.088   1.552
10085SOL    HW231155   3.740   0.002   1.418
10086SOL     OW31156   3.209   0.467   2.832
10086SOL    HW131157   3.181   0.563   2.831
10086SOL    HW231158   3.270   0.449   2.754
10087SOL     OW31159   1.887   4.933   6.107
10087SOL    HW131160   1.826   5.012   6.118
10087SOL    HW231161   1.962   4.958   6.046
10088SOL     OW31162   6.152   1.838   1.001
10088SOL    HW131163   6.110   1.790   0.924
10088SOL    HW231164   6.240   1.795   1.023
10089SOL     OW31165   3.916   6.692   1.984
10089SOL    HW131166   3.948   6.782   1.956
10089SOL    HW231167   3.828   6.701   2.031
10090SOL     OW31168   2.765   5.384   1.976
10090SOL    HW131169   2.802   5.392   2.068
10090SOL    HW231170   2.755   5.287   1.953
10091SOL     OW31171   5.655   5.210   3.000
10091SOL    HW131172   5.572   5.244   3.043
10091SOL    HW231173   5.639   5.120   2.960
10092SOL     OW31174   0.161   1.126   2.655
10092SOL    HW131175   0.146   1.118   2.556
10092SOL    HW231176   0.129   1.215   2.686
10093SOL     OW31177   4.583   3.970   6.095
10093SOL    HW131178   4.554   4.061   6.065
10093SOL    HW231179   4.524   3.940   6.171
10094SOL     OW31180   3.594   2.525   0.893
10094SOL    HW131181   3.664   2.471   0.939
10094SOL    HW231182   3.608   2.622   0.911
10095SOL     OW31183   4.366   2.691   5.282
10095SOL    HW131184   4.271   2.665   5.265
10095SOL    HW231185   4.370   2.789   5.303
10096SOL     OW31186   6.714   4.816   2.008
10096SOL    HW131187   6.680   4.727   2.036
10096SOL    HW231188   6.639   4.868   1.966
10097SOL     OW31189   1.210   1.199   1.177
10097SOL    HW131190   1.141   1.175   1.245
10097SOL    HW231191   1.299   1.167   1.208
10098SOL     OW31192   3.999   5.188   0.078
10098SOL    HW131193   3.918   5.183   0.136
10098SOL    HW231194   4.046   5.274   0.093
10099SOL     OW31195   6.941   6.256   3.258
10099SOL    HW131196   0.001   6.311   3.245
10099SOL    HW231197   6.940   6.220   3.351
10100SOL     OW31198   4.984   5.106   3.688
10100SOL    HW131199   4.918   5.037   3.718
10100SOL    HW231200   5.053   5.118   3.759
10101SOL     OW31201   0.118   2.296   6.985
10101SOL    HW131202   0.115   2.239   6.903
10101SOL    HW231203   0.116   2.238   0.044
10102SOL     OW31204   6.970   4.743   2.967
10102SOL    HW131205   7.009   4.699   3.048
10102SOL    HW231206   7.021   4.827   2.946
10103SOL     OW31207   6.967   0.181   6.951
10103SOL    HW131208   6.991   0.237   6.872
10103SOL    HW231209   0.014   0.194   0.000
10104SOL     OW31210   2.308   1.331   4.786
10104SOL    HW131211   2.299   1.411   4.726
10104SOL    HW231212   2.402   1.323   4.817
10105SOL     OW31213   3.015   1.433   4.280
10105SOL    HW131214   3.008   1.530   4.259
10105SOL    HW231215   2.967   1.381   4.209
10106SOL     OW31216   5.893   3.925   1.146
10106SOL    HW131217   5.933   3.927   1.055
10106SOL    HW231218   5.933   3.850   1.198
10107SOL     OW31219   5.254   5.909   5.990
10107SOL    HW131220   5.339   5.940   5.948
10107SOL    HW231221   5.254   5.936   6.087
10108SOL     OW31222   2.460   2.165   5.086
10108SOL    HW131223   2.396   2.230   5.046
10108SOL    HW231224   2.450   2.166   5.186
10109SOL     OW31225   0.964   3.049   1.238
10109SOL    HW131226   1.004   3.082   1.153
10109SOL    HW231227   0.973   2.949   1.244
10110SOL     OW31228   6.185   6.528   2.324
10110SOL    HW131229   6.157   6.460   2.391
10110SOL    HW231230   6.104   6.570   2.283
10111SOL     OW31231   0.161   2.830   1.666
10111SOL    HW131232   0.099   2.903   1.637
10111SOL    HW231233   0.212   2.796   1.587
10112SOL     OW31234   0.011   3.071   4.202
10112SOL    HW131235   0.038   2.999   4.267
10112SOL    HW231236   0.088   3.132   4.186
10113SOL     OW31237   6.972   6.192   6.577
10113SOL    HW131238   6.974   6.243   6.491
10113SOL    HW231239   6.977   6.094   6.558
10114SOL     OW31240   5.360   4.104   1.589
10114SOL    HW131241   5.278   4.046   1.584
10114SOL    HW231242   5.332   4.200   1.588
10115SOL     OW31243   3.777   1.931   6.270
10115SOL    HW131244   3.754   1.904   6.363
10115SOL    HW231245   3.693   1.937   6.215
10116SOL     OW31246   0.206   6.977   6.505
10116SOL    HW131247   0.305   6.962   6.504
10116SOL    HW231248   0.179   7.016   6.593
10117SOL     OW31249   0.321   4.282   1.660
10117SOL    HW131250   0.268   4.243   1.585
10117SOL    HW231251   0.402   4.328   1.624
10118SOL     OW31252   4.093   5.339   3.614
10118SOL    HW131253   4.078   5.313   3.519
10118SOL    HW231254   4.064   5.434   3.627
10119SOL     OW31255   5.827   6.034   6.830
10119SOL    HW131256   5.899   6.070   6.889
10119SOL    HW231257   5.776   5.964   6.881
10120SOL     OW31258   2.511   2.569   3.000
10120SOL    HW131259   2.540   2.526   3.085
10120SOL    HW231260   2.560   2.528   2.923
10121SOL     OW31261   6.565   5.543   1.347
10121SOL    HW131262   6.613   5.619   1.303
10121SOL    HW231263   6.479   5.576   1.385
10122SOL     OW31264   1.794   0.285   3.281
10122SOL    HW131265   1.770   0.197   3.239
10122SOL    HW231266   1.764   0.286   3.376
10123SOL     OW31267   6.013   6.239   6.683
10123SOL    HW131268   6.005   6.149   6.725
10123SOL    HW231269   5.932   6.293   6.704
10124SOL     OW31270   1.219   4.296   3.149
10124SOL    HW131271   1.166   4.376   3.120
10124SOL    HW231272   1.231   4.299   3.248
10125SOL     OW31273   1.902   1.770   4.551
10125SOL    HW131274   1.908   1.859   4.596
10125SOL    HW231275   1.931   1.699   4.616
10126SOL     OW31276   6.744   6.078   4.406
10126SOL    HW131277   6.734   6.147   4.334
10126SOL    HW231278   6.839   6.045   4.408
10127SOL     OW31279   2.120   0.730   5.085
10127SOL    HW131280   2.094   0.690   4.997
10127SOL    HW231281   2.095   0.827   5.086
10128SOL     OW31282   3.140   1.150   0.405
10128SOL    HW131283   3.163   1.223   0.469
10128SOL    HW231284   3.043   1.127   0.414
10129SOL     OW31285   6.448   2.111   5.523
10129SOL    HW131286   6.376   2.059   5.478
10129SOL    HW231287   6.534   2.061   5.518
10130SOL     OW31288   1.248   2.470   3.204
10130SOL    HW131289   1.279   2.451   3.111
10130SOL    HW231290   1.323   2.508   3.257
10131SOL     OW31291   2.167   0.920   5.322
10131SOL    HW131292   2.177   0.823   5.300
10131SOL    HW231293   2.073   0.948   5.304
10132SOL     OW31294   5.960   0.645   2.163
10132SOL    HW131295   6.035   0.610   2.106
10132SOL    HW231296   5.945   0.741   2.142
10133SOL     OW31297   4.546   5.156   0.956
10133SOL    HW131298   4.574   5.170   1.051
10133SOL    HW231299   4.461   5.103   0.953
10134SOL     OW31300   6.392   0.481   3.053
10134SOL    HW131301   6.443   0.521   2.977
10134SOL    HW231302   6.421   0.523   3.139
10135SOL     OW31303   6.068   6.725   3.489
10135SOL    HW131304   5.977   6.756   3.464
10135SOL    HW231305   6.098   6.772   3.573
10136SOL     OW31306   4.741   0.807   2.763
10136SOL    HW131307   4.708   0.819   2.669
10136SOL    HW231308   4.803   0.730   2.766
10137SOL     OW31309   6.658   5.627   3.185
10137SOL    HW131310   6.563   5.621   3.218
10137SOL    HW231311   6.676   5.721   3.155
10138SOL     OW31312   0.405   1.811   2.261
10138SOL    HW131313   0.327   1.749   2.261
10138SOL    HW231314   0.391   1.882   2.330
10139SOL     OW31315   3.935   2.683   0.865
10139SOL    HW131316   3.935   2.783   0.864
10139SOL    HW231317   3.980   2.650   0.948
10140SOL     OW31318   5.977   6.719   4.141
10140SOL    HW131319   5.976   6.708   4.042
10140SOL    HW231320   5.898   6.774   4.169
10141SOL     OW31321   0.927   2.143   4.606
10141SOL    HW131322   0.840   2.190   4.596
10141SOL    HW231323   0.960   2.115   4.515
10142SOL     OW31324   4.214   6.143   1.737
10142SOL    HW131325   4.288   6.106   1.681
10142SOL    HW231326   4.126   6.127   1.692
10143SOL     OW31327   6.399   3.344   6.779
10143SOL    HW131328   6.474   3.282   6.755
10143SOL    HW231329   6.396   3.357   6.878
10144SOL     OW31330   4.093   0.822   1.435
10144SOL    HW131331   4.116   0.873   1.352
10144SOL    HW231332   4.019   0.758   1.415
10145SOL     OW31333   6.473   0.486   5.363
10145SOL    HW131334   6.477   0.487   5.463
10145SOL    HW231335   6.553   0.532   5.325
10146SOL     OW31336   1.661   1.360   5.621
10146SOL    HW131337   1.638   1.288   5.687
10146SOL    HW231338   1.587   1.427   5.618
10147SOL     OW31339   3.442   4.875   0.723
10147SOL    HW131340   3.514   4.866   0.655
10147SOL    HW231341   3.398   4.965   0.714
10148SOL     OW31342   0.176   5.517   6.450
10148SOL    HW131343   0.112   5.536   6.524
10148SOL    HW231344   0.174   5.420   6.428
10149SOL     OW31345   3.101   3.537   3.576
10149SOL    HW131346   3.097   3.452   3.628
10149SOL    HW231347   3.191   3.579   3.589
10150SOL     OW31348   5.639   4.684   0.360
10150SOL    HW131349   5.650   4.703   0.262
10150SOL    HW231350   5.727   4.692   0.406
10151SOL     OW31351   0.445   1.046   0.422
10151SOL    HW131352   0.424   0.976   0.354
10151SOL    HW231353   0.395   1.027   0.506
10152SOL     OW31354   3.298   6.461   3.615
10152SOL    HW131355   3.357   6.488   3.539
10152SOL    HW231356   3.206   6.441   3.580
10153SOL     OW31357   4.971   3.940   1.407
10153SOL    HW131358   4.926   3.995   1.336
10153SOL    HW231359   4.907   3.871   1.441
10154SOL     OW31360   4.807   5.535   5.716
10154SOL    HW131361   4.789   5.633   5.722
10154SOL    HW231362   4.807   5.507   5.620
10155SOL     OW31363   4.828   2.499   4.809
10155SOL    HW131364   4.728   2.495   4.806
10155SOL    HW231365   4.866   2.446   4.734
10156SOL     OW31366   3.257   1.715   6.779
10156SOL    HW131367   3.320   1.727   6.703
10156SOL    HW231368   3.237   1.803   6.822
10157SOL     OW31369   0.706   4.936   1.717
10157SOL    HW131370   0.688   5.031   1.692
10157SOL    HW231371   0.787   4.903   1.670
10158SOL     OW31372   6.198   4.854   6.620
10158SOL    HW131373   6.273   4.788   6.628
10158SOL    HW231374   6.113   4.810   6.649
10159SOL     OW31375   3.823   3.050   1.567
10159SOL    HW131376   3.787   3.094   1.484
10159SOL    HW231377   3.751   2.995   1.609
10160SOL     OW31378   0.054   4.185   2.359
10160SOL    HW131379   0.115   4.139   2.294
10160SOL    HW231380   0.082   4.163   2.452
10161SOL     OW31381   6.279   3.002   0.203
10161SOL    HW131382   6.241   3.004   0.111
10161SOL    HW231383   6.362   3.059   0.205
10162SOL     OW31384   2.336   2.459   2.098
10162SOL    HW131385   2.249   2.419   2.071
10162SOL    HW231386   2.337   2.557   2.076
10163SOL     OW31387   3.669   5.400   5.039
10163SOL    HW131388   3.757   5.367   5.004
10163SOL    HW231389   3.595   5.370   4.979
10164SOL     OW31390   0.289   0.774   3.874
10164SOL    HW131391   0.280   0.768   3.974
10164SOL    HW231392   0.276   0.683   3.835
10165SOL     OW31393   2.087   3.351   4.005
10165SOL    HW131394   2.166   3.413   3.998
10165SOL    HW231395   2.047   3.339   3.914
10166SOL     OW31396   2.916   6.314   3.146
10166SOL    HW131397   2.971   6.332   3.064
10166SOL    HW231398   2.908   6.216   3.160
10167SOL     OW31399   3.972   1.491   6.885
10167SOL    HW131400   4.042   1.545   6.839
10167SOL    HW231401   3.900   1.466   6.820
10168SOL     OW31402   0.715   0.869   6.487
10168SOL    HW131403   0.709   0.831   6.580
10168SOL    HW231404   0.800   0.920   6.478
10169SOL     OW31405   4.393   4.870   2.766
10169SOL    HW131406   4.364   4.781   2.801
10169SOL    HW231407   4.476   4.899   2.813
10170SOL     OW31408   4.808   6.289   6.719
10170SOL    HW131409   4.889   6.318   6.667
10170SOL    HW231410   4.731   6.347   6.697
10171SOL     OW31411   1.380   3.856   3.507
10171SOL    HW131412   1.459   3.795   3.503
10171SOL    HW231413   1.324   3.845   3.425
10172SOL     OW31414   0.545   1.068   3.193
10172SOL    HW131415   0.581   0.986   3.239
10172SOL    HW231416   0.622   1.126   3.166
10173SOL     OW31417   4.633   2.855   5.098
10173SOL    HW131418   4.593   2.890   5.182
10173SOL    HW231419   4.711   2.913   5.071
10174SOL     OW31420   4.938   4.852   1.147
10174SOL    HW131421   4.937   4.752   1.157
10174SOL    HW231422   4.913   4.894   1.234
10175SOL     OW31423   6.397   0.198   3.375
10175SOL    HW131424   6.468   0.205   3.305
10175SOL    HW231425   6.402   0.108   3.418
10176SOL     OW31426   6.758   1.387   4.803
10176SOL    HW131427   6.832   1.323   4.782
10176SOL    HW231428   6.670   1.343   4.784
10177SOL     OW31429   3.013   0.979   4.270
10177SOL    HW131430   3.066   1.020   4.196
10177SOL    HW231431   2.938   0.926   4.231
10178SOL     OW31432   0.131   1.702   2.283
10178SOL    HW131433   0.040   1.743   2.288
10178SOL    HW231434   0.132   1.630   2.214
10179SOL     OW31435   0.265   5.866   0.768
10179SOL    HW131436   0.288   5.873   0.865
10179SOL    HW231437   0.169   5.891   0.754
10180SOL     OW31438   2.251   0.292   6.176
10180SOL    HW131439   2.315   0.341   6.235
10180SOL    HW231440   2.212   0.215   6.227
10181SOL     OW31441   6.774   4.118   2.067
10181SOL    HW131442   6.758   4.032   2.116
10181SOL    HW231443   6.836   4.102   1.990
10182SOL     OW31444   3.523   6.896   6.607
10182SOL    HW131445   3.565   6.811   6.575
10182SOL    HW231446   3.509   6.892   6.706
10183SOL     OW31447   3.975   6.090   5.792
10183SOL    HW131448   4.004   6.136   5.708
10183SOL    HW231449   4.015   5.998   5.796
10184SOL     OW31450   5.119   2.443   4.274
10184SOL    HW131451   5.137   2.345   4.277
10184SOL    HW231452   5.068   2.470   4.356
10185SOL     OW31453   2.950   4.790   2.080
10185SOL    HW131454   2.884   4.736   2.028
10185SOL    HW231455   2.914   4.882   2.095
10186SOL     OW31456   3.406   2.957   1.717
10186SOL    HW131457   3.449   2.895   1.651
10186SOL    HW231458   3.420   2.921   1.809
10187SOL     OW31459   1.784   4.040   5.629
10187SOL    HW131460   1.752   3.958   5.677
10187SOL    HW231461   1.852   4.014   5.561
10188SOL     OW31462   2.372   0.549   6.576
10188SOL    HW131463   2.273   0.534   6.582
10188SOL    HW231464   2.389   0.635   6.528
10189SOL     OW31465   2.067   2.115   5.241
10189SOL    HW131466   2.044   2.023   5.209
10189SOL    HW231467   2.009   2.182   5.195
10190SOL     OW31468   3.359   3.951   0.543
10190SOL    HW131469   3.262   3.929   0.553
10190SOL    HW231470   3.387   3.932   0.448
10191SOL     OW31471   5.628   0.586   0.260
10191SOL    HW131472   5.691   0.663   0.251
10191SOL    HW231473   5.534   0.621   0.262
10192SOL     OW31474   2.689   0.348   4.276
10192SOL    HW131475   2.671   0.335   4.374
10192SOL    HW231476   2.753   0.423   4.264
10193SOL     OW31477   4.148   3.652   3.662
10193SOL    HW131478   4.123   3.573   3.718
10193SOL    HW231479   4.234   3.690   3.695
10194SOL     OW31480   2.938   5.704   3.450
10194SOL    HW131481   2.999   5.768   3.498
10194SOL    HW231482   2.981   5.675   3.364
10195SOL     OW31483   5.376   0.326   2.429
10195SOL    HW131484   5.458   0.359   2.476
10195SOL    HW231485   5.396   0.241   2.381
10196SOL     OW31486   4.593   4.532   3.775
10196SOL    HW131487   4.595   4.457   3.841
10196SOL    HW231488   4.579   4.618   3.824
10197SOL     OW31489   5.013   1.777   2.896
10197SOL    HW131490   4.982   1.704   2.956
10197SOL    HW231491   5.088   1.827   2.939
10198SOL     OW31492   3.473   1.860   2.021
10198SOL    HW131493   3.534   1.821   1.952
10198SOL    HW231494   3.378   1.841   1.996
10199SOL     OW31495   1.291   1.865   6.924
10199SOL    HW131496   1.195   1.873   6.951
10199SOL    HW231497   1.318   1.948   6.875
10200SOL     OW31498   5.745   0.198   3.749
10200SOL    HW131499   5.749   0.284   3.698
10200SOL    HW231500   5.810   0.133   3.710
10201SOL     OW31501   1.192   4.945   2.964
10201SOL    HW131502   1.170   4.909   2.874
10201SOL    HW231503   1.165   5.041   2.970
10202SOL     OW31504   1.243   2.151   3.364
10202SOL    HW131505   1.177   2.213   3.322
10202SOL    HW231506   1.320   2.203   3.401
10203SOL     OW31507   6.881   2.312   0.852
10203SOL    HW131508   6.839   2.399   0.825
10203SOL    HW231509   6.930   2.272   0.774
10204SOL     OW31510   2.012   6.188   4.307
10204SOL    HW131511   2.085   6.133   4.348
10204SOL    HW231512   2.051   6.269   4.264
10205SOL     OW31513   3.299   0.017   0.962
10205SOL    HW131514   3.244   0.086   0.915
10205SOL    HW231515   3.249   7.006   1.042
10206SOL     OW31516   5.992   6.210   7.013
10206SOL    HW131517   5.978   6.308   0.000
10206SOL    HW231518   6.062   6.179   0.055
10207SOL     OW31519   3.341   1.214   2.582
10207SOL    HW131520   3.294   1.290   2.536
10207SOL    HW231521   3.304   1.203   2.674
10208SOL     OW31522   6.870   2.656   6.398
10208SOL    HW131523   6.871   2.722   6.474
10208SOL    HW231524   6.814   2.693   6.323
10209SOL     OW31525   3.914   6.325   6.927
10209SOL    HW131526   3.833   6.266   6.925
10209SOL    HW231527   3.971   6.306   6.846
10210SOL     OW31528   4.614   6.456   6.678
10210SOL    HW131529   4.594   6.480   6.583
10210SOL    HW231530   4.554   6.508   6.739
10211SOL     OW31531   3.423   5.174   5.341
10211SOL    HW131532   3.330   5.155   5.373
10211SOL    HW231533   3.433   5.272   5.325
10212SOL     OW31534   6.322   6.170   5.684
10212SOL    HW131535   6.417   6.173   5.715
10212SOL    HW231536   6.320   6.187   5.585
10213SOL     OW31537   4.230   0.042   4.490
10213SOL    HW131538   4.327   0.065   4.495
10213SOL    HW231539   4.187   0.096   4.417
10214SOL     OW31540   0.093   0.790   0.307
10214SOL    HW131541   0.033   0.748   0.238
10214SOL    HW231542   0.050   0.873   0.342
10215SOL     OW31543   4.501   2.390   0.533
10215SOL    HW131544   4.421   2.381   0.475
10215SOL    HW231545   4.482   2.455   0.607
10216SOL     OW31546   5.114   0.665   2.458
10216SOL    HW131547   5.132   0.568   2.475
10216SOL    HW231548   5.149   0.691   2.368
10217SOL     OW31549   3.177   2.282   5.802
10217SOL    HW131550   3.257   2.340   5.820
10217SOL    HW231551   3.207   2.193   5.768
10218SOL     OW31552   3.959   0.682   6.551
10218SOL    HW131553   4.047   0.728   6.539
10218SOL    HW231554   3.906   0.730   6.620
10219SOL     OW31555   0.427   4.832   0.163
10219SOL    HW131556   0.341   4.872   0.131
10219SOL    HW231557   0.408   4.760   0.230
10220SOL     OW31558   4.046   2.408   6.675
10220SOL    HW131559   4.059   2.340   6.747
10220SOL    HW231560   3.960   2.457   6.690
10221SOL     OW31561   2.271   0.818   4.214
10221SOL    HW131562   2.227   0.808   4.124
10221SOL    HW231563   2.290   0.728   4.252
10222SOL     OW31564   2.394   4.608   5.269
10222SOL    HW131565   2.371   4.527   5.216
10222SOL    HW231566   2.320   4.675   5.263
10223SOL     OW31567   1.125   4.862   5.990
10223SOL    HW131568   1.106   4.959   6.006
10223SOL    HW231569   1.217   4.840   6.022
10224SOL     OW31570   3.173   5.876   5.686
10224SOL    HW131571   3.213   5.966   5.672
10224SOL    HW231572   3.147   5.837   5.598
10225SOL     OW31573   5.296   0.042   4.585
10225SOL    HW131574   5.350   6.980   4.585
10225SOL    HW231575   5.250   0.051   4.674
10226SOL     OW31576   6.907   2.396   6.401
10226SOL    HW131577   6.971   2.372   6.474
10226SOL    HW231578   6.890   2.494   6.402
10227SOL     OW31579   4.867   4.509   5.328
10227SOL    HW131580   4.948   4.451   5.335
10227SOL    HW231581   4.825   4.498   5.238
10228SOL     OW31582   0.890   2.909   1.649
10228SOL    HW131583   0.880   2.846   1.726
10228SOL    HW231584   0.967   2.970   1.664
10229SOL     OW31585   2.671   1.083   2.085
10229SOL    HW131586   2.765   1.071   2.055
10229SOL    HW231587   2.664   1.062   2.183
10230SOL     OW31588   5.283   6.939   3.212
10230SOL    HW131589   5.243   0.004   3.239
10230SOL    HW231590   5.298   6.939   3.113
10231SOL     OW31591   4.570   5.827   4.405
10231SOL    HW131592   4.582   5.903   4.341
10231SOL    HW231593   4.617   5.847   4.491
10232SOL     OW31594   4.296   2.310   3.119
10232SOL    HW131595   4.314   2.367   3.199
10232SOL    HW231596   4.233   2.237   3.143
10233SOL     OW31597   4.769   6.485   5.597
10233SOL    HW131598   4.772   6.579   5.630
10233SOL    HW231599   4.821   6.478   5.511
10234SOL     OW31600   4.182   4.601   1.054
10234SOL    HW131601   4.180   4.646   1.144
10234SOL    HW231602   4.141   4.661   0.986
10235SOL     OW31603   4.669   0.132   0.003
10235SOL    HW131604   4.591   0.126   0.066
10235SOL    HW231605   4.653   0.207   6.961
10236SOL     OW31606   1.300   5.241   1.307
10236SOL    HW131607   1.287   5.251   1.406
10236SOL    HW231608   1.397   5.245   1.285
10237SOL     OW31609   5.914   2.601   3.285
10237SOL    HW131610   5.820   2.618   3.257
10237SOL    HW231611   5.917   2.585   3.384
10238SOL     OW31612   4.736   5.502   6.321
10238SOL    HW131613   4.835   5.513   6.321
10238SOL    HW231614   4.703   5.501   6.227
10239SOL     OW31615   5.569   3.543   4.242
10239SOL    HW131616   5.601   3.540   4.337
10239SOL    HW231617   5.591   3.457   4.197
10240SOL     OW31618   4.896   3.670   2.800
10240SOL    HW131619   4.863   3.604   2.868
10240SOL    HW231620   4.994   3.686   2.814
10241SOL     OW31621   1.219   2.457   2.877
10241SOL    HW131622   1.305   2.454   2.827
10241SOL    HW231623   1.187   2.552   2.884
10242SOL     OW31624   1.320   5.356   6.563
10242SOL    HW131625   1.355   5.307   6.643
10242SOL    HW231626   1.220   5.349   6.562
10243SOL     OW31627   0.388   5.803   3.578
10243SOL    HW131628   0.304   5.828   3.531
10243SOL    HW231629   0.422   5.716   3.542
10244SOL     OW31630   2.140   5.848   6.709
10244SOL    HW131631   2.217   5.784   6.714
10244SOL    HW231632   2.159   5.917   6.640
10245SOL     OW31633   3.273   2.832   0.659
10245SOL    HW131634   3.199   2.796   0.716
10245SOL    HW231635   3.248   2.822   0.562
10246SOL     OW31636   3.808   4.124   4.966
10246SOL    HW131637   3.763   4.138   5.054
10246SOL    HW231638   3.837   4.029   4.958
10247SOL     OW31639   1.222   5.916   6.271
10247SOL    HW131640   1.155   5.929   6.344
10247SOL    HW231641   1.315   5.924   6.309
10248SOL     OW31642   6.109   0.756   3.544
10248SOL    HW131643   6.078   0.661   3.543
10248SOL    HW231644   6.183   0.767   3.611
10249SOL     OW31645   4.565   0.803   6.082
10249SOL    HW131646   4.545   0.871   6.152
10249SOL    HW231647   4.601   0.848   6.001
10250SOL     OW31648   4.374   5.607   0.967
10250SOL    HW131649   4.357   5.612   0.869
10250SOL    HW231650   4.419   5.691   0.997
10251SOL     OW31651   4.081   4.393   1.591
10251SOL    HW131652   4.090   4.464   1.661
10251SOL    HW231653   4.172   4.370   1.555
10252SOL     OW31654   0.398   3.842   0.852
10252SOL    HW131655   0.346   3.837   0.937
10252SOL    HW231656   0.430   3.751   0.826
10253SOL     OW31657   4.178   4.210   0.119
10253SOL    HW131658   4.248   4.143   0.097
10253SOL    HW231659   4.201   4.297   0.076
10254SOL     OW31660   2.668   1.911   5.178
10254SOL    HW131661   2.581   1.873   5.145
10254SOL    HW231662   2.652   1.958   5.266
10255SOL     OW31663   3.488   4.934   4.038
10255SOL    HW131664   3.396   4.898   4.050
10255SOL    HW231665   3.490   5.030   4.067
10256SOL     OW31666   5.542   5.912   0.279
10256SOL    HW131667   5.557   5.978   0.352
10256SOL    HW231668   5.470   5.945   0.218
10257SOL     OW31669   2.075   4.813   5.620
10257SOL    HW131670   2.016   4.776   5.693
10257SOL    HW231671   2.021   4.825   5.537
10258SOL     OW31672   4.439   1.085   2.422
10258SOL    HW131673   4.419   1.164   2.480
10258SOL    HW231674   4.371   1.013   2.438
10259SOL     OW31675   6.879   3.277   4.310
10259SOL    HW131676   6.934   3.338   4.252
10259SOL    HW231677   6.910   3.183   4.299
10260SOL     OW31678   0.096   5.706   2.003
10260SOL    HW131679   7.022   5.689   2.026
10260SOL    HW231680   0.136   5.622   1.966
10261SOL     OW31681   2.118   0.428   2.160
10261SOL    HW131682   2.203   0.426   2.214
10261SOL    HW231683   2.115   0.348   2.100
10262SOL     OW31684   0.347   6.181   4.014
10262SOL    HW131685   0.310   6.228   3.934
10262SOL    HW231686   0.347   6.243   4.092
10263SOL     OW31687   6.544   3.019   4.567
10263SOL    HW131688   6.616   2.975   4.514
10263SOL    HW231689   6.575   3.031   4.661
10264SOL     OW31690   0.664   0.311   0.499
10264SOL    HW131691   0.609   0.370   0.440
10264SOL    HW231692   0.608   0.282   0.577
10265SOL     OW31693   5.215   2.533   4.047
10265SOL    HW131694   5.214   2.633   4.053
10265SOL    HW231695   5.179   2.494   4.132
10266SOL     OW31696   3.427   3.698   0.146
10266SOL    HW131697   3.508   3.643   0.167
10266SOL    HW231698   3.366   3.646   0.085
10267SOL     OW31699   6.975   0.905   6.420
10267SOL    HW131700   6.941   0.999   6.417
10267SOL    HW231701   7.004   0.878   6.328
10268SOL     OW31702   6.658   3.970   0.337
10268SOL    HW131703   6.650   4.017   0.250
10268SOL    HW231704   6.650   3.872   0.323
10269SOL     OW31705   4.002   1.666   6.011
10269SOL    HW131706   3.992   1.644   5.914
10269SOL    HW231707   4.097   1.688   6.030
10270SOL     OW31708   3.662   5.934   2.841
10270SOL    HW131709   3.634   6.020   2.882
10270SOL    HW231710   3.588   5.899   2.784
10271SOL     OW31711   1.978   4.756   1.439
10271SOL    HW131712   2.052   4.805   1.392
10271SOL    HW231713   1.933   4.817   1.503
10272SOL     OW31714   1.913   2.712   3.974
10272SOL    HW131715   1.819   2.690   4.003
10272SOL    HW231716   1.925   2.811   3.975
10273SOL     OW31717   4.211   6.120   3.369
10273SOL    HW131718   4.217   6.177   3.451
10273SOL    HW231719   4.256   6.167   3.293
10274SOL     OW31720   2.549   4.407   6.574
10274SOL    HW131721   2.544   4.356   6.488
10274SOL    HW231722   2.486   4.368   6.640
10275SOL     OW31723   0.999   5.934   1.917
10275SOL    HW131724   1.000   5.971   2.010
10275SOL    HW231725   1.047   5.996   1.855
10276SOL     OW31726   1.423   6.979   0.538
10276SOL    HW131727   1.390   0.024   0.604
10276SOL    HW231728   1.458   0.004   0.457
10277SOL     OW31729   6.903   6.137   2.223
10277SOL    HW131730   6.949   6.204   2.165
10277SOL    HW231731   6.837   6.085   2.168
10278SOL     OW31732   6.263   1.192   5.219
10278SOL    HW131733   6.282   1.099   5.188
10278SOL    HW231734   6.167   1.215   5.200
10279SOL     OW31735   3.750   6.032   4.311
10279SOL    HW131736   3.660   6.062   4.280
10279SOL    HW231737   3.816   6.106   4.297
10280SOL     OW31738   2.530   2.593   0.296
10280SOL    HW131739   2.456   2.531   0.272
10280SOL    HW231740   2.515   2.628   0.389
10281SOL     OW31741   4.257   0.964   4.351
10281SOL    HW131742   4.235   0.914   4.268
10281SOL    HW231743   4.303   0.902   4.416
10282SOL     OW31744   1.624   3.129   4.252
10282SOL    HW131745   1.665   3.174   4.332
10282SOL    HW231746   1.665   3.167   4.169
10283SOL     OW31747   1.765   5.201   6.134
10283SOL    HW131748   1.682   5.162   6.092
10283SOL    HW231749   1.743   5.234   6.226
10284SOL     OW31750   5.024   2.954   0.080
10284SOL    HW131751   4.980   3.044   0.085
10284SOL    HW231752   5.002   2.901   0.162
10285SOL     OW31753   5.170   1.622   1.155
10285SOL    HW131754   5.131   1.703   1.200
10285SOL    HW231755   5.099   1.552   1.145
10286SOL     OW31756   3.651   0.142   3.912
10286SOL    HW131757   3.688   0.217   3.968
10286SOL    HW231758   3.726   0.093   3.868
10287SOL     OW31759   1.991   4.448   2.021
10287SOL    HW131760   2.070   4.449   1.959
10287SOL    HW231761   2.007   4.513   2.096
10288SOL     OW31762   4.201   6.108   4.208
10288SOL    HW131763   4.164   6.090   4.299
10288SOL    HW231764   4.142   6.175   4.161
10289SOL     OW31765   2.702   1.469   1.646
10289SOL    HW131766   2.718   1.377   1.682
10289SOL    HW231767   2.785   1.524   1.658
10290SOL     OW31768   3.216   3.024   3.496
10290SOL    HW131769   3.316   3.021   3.498
10290SOL    HW231770   3.180   2.933   3.517
10291SOL     OW31771   3.841   0.337   4.085
10291SOL    HW131772   3.861   0.372   4.177
10291SOL    HW231773   3.926   0.303   4.044
10292SOL     OW31774   6.657   2.189   3.828
10292SOL    HW131775   6.698   2.223   3.743
10292SOL    HW231776   6.729   2.176   3.896
10293SOL     OW31777   1.834   4.821   3.114
10293SOL    HW131778   1.804   4.732   3.080
10293SOL    HW231779   1.787   4.893   3.063
10294SOL     OW31780   5.528   0.821   3.231
10294SOL    HW131781   5.551   0.911   3.194
10294SOL    HW231782   5.595   0.795   3.301
10295SOL     OW31783   1.731   3.889   3.872
10295SOL    HW131784   1.811   3.926   3.825
10295SOL    HW231785   1.757   3.804   3.918
10296SOL     OW31786   6.384   3.254   1.446
10296SOL    HW131787   6.317   3.271   1.518
10296SOL    HW231788   6.400   3.339   1.395
10297SOL     OW31789   3.691   4.977   5.066
10297SOL    HW131790   3.595   4.967   5.092
10297SOL    HW231791   3.715   5.074   5.065
10298SOL     OW31792   5.834   3.184   2.846
10298SOL    HW131793   5.763   3.164   2.779
10298SOL    HW231794   5.877   3.272   2.824
10299SOL     OW31795   4.046   4.692   2.005
10299SOL    HW131796   4.128   4.637   2.022
10299SOL    HW231797   3.992   4.700   2.088
10300SOL     OW31798   0.500   6.113   2.269
10300SOL    HW131799   0.520   6.193   2.326
10300SOL    HW231800   0.510   6.030   2.324
10301SOL     OW31801   4.563   0.190   1.876
10301SOL    HW131802   4.643   0.195   1.817
10301SOL    HW231803   4.536   0.282   1.905
10302SOL     OW31804   0.664   3.891   3.507
10302SOL    HW131805   0.605   3.968   3.528
10302SOL    HW231806   0.756   3.924   3.485
10303SOL     OW31807   4.462   3.449   1.248
10303SOL    HW131808   4.554   3.488   1.240
10303SOL    HW231809   4.467   3.360   1.293
10304SOL     OW31810   5.735   5.785   3.244
10304SOL    HW131811   5.824   5.791   3.287
10304SOL    HW231812   5.719   5.866   3.188
10305SOL     OW31813   2.357   5.557   1.309
10305SOL    HW131814   2.446   5.513   1.323
10305SOL    HW231815   2.331   5.608   1.391
10306SOL     OW31816   4.577   3.911   6.947
10306SOL    HW131817   4.587   3.825   6.996
10306SOL    HW231818   4.662   3.963   6.954
10307SOL     OW31819   2.599   1.800   6.073
10307SOL    HW131820   2.669   1.766   6.136
10307SOL    HW231821   2.626   1.781   5.979
10308SOL     OW31822   3.058   5.170   4.260
10308SOL    HW131823   2.996   5.190   4.184
10308SOL    HW231824   3.030   5.084   4.303
10309SOL     OW31825   0.220   6.292   3.788
10309SOL    HW131826   0.142   6.231   3.771
10309SOL    HW231827   0.284   6.287   3.711
10310SOL     OW31828   3.634   4.134   4.764
10310SOL    HW131829   3.608   4.204   4.697
10310SOL    HW231830   3.689   4.176   4.836
10311SOL     OW31831   1.021   0.110   1.180
10311SOL    HW131832   0.965   0.030   1.162
10311SOL    HW231833   1.062   0.142   1.095
10312SOL     OW31834   3.010   4.738   0.530
10312SOL    HW131835   3.028   4.640   0.521
10312SOL    HW231836   3.037   4.785   0.447
10313SOL     OW31837   6.706   5.875   4.016
10313SOL    HW131838   6.622   5.832   3.982
10313SOL    HW231839   6.724   5.844   4.109
10314SOL     OW31840   6.994   5.891   5.331
10314SOL    HW131841   7.014   5.811   5.388
10314SOL    HW231842   0.024   5.969   5.364
10315SOL     OW31843   4.225   6.200   5.557
10315SOL    HW131844   4.140   6.206   5.503
10315SOL    HW231845   4.253   6.291   5.585
10316SOL     OW31846   0.650   3.643   4.365
10316SOL    HW131847   0.591   3.715   4.329
10316SOL    HW231848   0.594   3.575   4.413
10317SOL     OW31849   5.725   4.438   6.479
10317SOL    HW131850   5.699   4.518   6.532
10317SOL    HW231851   5.687   4.445   6.386
10318SOL     OW31852   5.375   4.681   2.820
10318SOL    HW131853   5.303   4.749   2.806
10318SOL    HW231854   5.339   4.590   2.798
10319SOL     OW31855   4.664   6.702   3.274
10319SOL    HW131856   4.671   6.616   3.223
10319SOL    HW231857   4.629   6.773   3.214
10320SOL     OW31858   3.736   6.555   1.784
10320SOL    HW131859   3.719   6.640   1.736
10320SOL    HW231860   3.828   6.557   1.824
10321SOL     OW31861   4.612   6.244   4.471
10321SOL    HW131862   4.665   6.309   4.525
10321SOL    HW231863   4.519   6.239   4.506
10322SOL     OW31864   6.871   1.450   6.988
10322SOL    HW131865   6.820   1.406   0.040
10322SOL    HW231866   6.848   1.547   6.985
10323SOL     OW31867   0.666   2.304   5.112
10323SOL    HW131868   0.614   2.248   5.176
10323SOL    HW231869   0.604   2.360   5.058
10324SOL     OW31870   3.123   3.156   4.138
10324SOL    HW131871   3.166   3.097   4.206
10324SOL    HW231872   3.091   3.240   4.182
10325SOL     OW31873   0.737   3.319   3.784
10325SOL    HW131874   0.774   3.227   3.775
10325SOL    HW231875   0.745   3.349   3.879
10326SOL     OW31876   5.660   1.831   1.416
10326SOL    HW131877   5.738   1.893   1.408
10326SOL    HW231878   5.632   1.827   1.512
10327SOL     OW31879   6.059   1.569   3.780
10327SOL    HW131880   6.051   1.621   3.694
10327SOL    HW231881   6.132   1.501   3.770
10328SOL     OW31882   6.804   3.812   2.051
10328SOL    HW131883   6.872   3.739   2.061
10328SOL    HW231884   6.737   3.805   2.125
10329SOL     OW31885   2.992   5.817   3.158
10329SOL    HW131886   2.966   5.721   3.148
10329SOL    HW231887   3.091   5.826   3.144
10330SOL     OW31888   2.907   3.754   1.039
10330SOL    HW131889   2.957   3.675   1.074
10330SOL    HW231890   2.840   3.784   1.107
10331SOL     OW31891   5.052   1.623   4.455
10331SOL    HW131892   5.101   1.631   4.368
10331SOL    HW231893   5.114   1.589   4.525
10332SOL     OW31894   1.402   2.540   6.768
10332SOL    HW131895   1.432   2.516   6.860
10332SOL    HW231896   1.376   2.457   6.718
10333SOL     OW31897   7.018   4.708   5.423
10333SOL    HW131898   6.968   4.622   5.407
10333SOL    HW231899   6.959   4.785   5.400
10334SOL     OW31900   0.688   4.983   5.443
10334SOL    HW131901   0.690   4.919   5.366
10334SOL    HW231902   0.672   5.076   5.410
10335SOL     OW31903   3.025   5.086   3.312
10335SOL    HW131904   3.094   5.123   3.374
10335SOL    HW231905   2.934   5.111   3.345
10336SOL     OW31906   4.680   6.996   2.833
10336SOL    HW131907   4.628   6.912   2.843
10336SOL    HW231908   4.621   0.046   2.798
10337SOL     OW31909   1.380   3.882   6.286
10337SOL    HW131910   1.299   3.884   6.344
10337SOL    HW231911   1.395   3.972   6.245
10338SOL     OW31912   2.619   4.602   2.506
10338SOL    HW131913   2.715   4.630   2.508
10338SOL    HW231914   2.591   4.585   2.412
10339SOL     OW31915   3.333   5.883   6.969
10339SOL    HW131916   3.376   5.811   0.001
10339SOL    HW231917   3.396   5.913   6.897
10340SOL     OW31918   1.790   6.790   0.796
10340SOL    HW131919   1.862   6.818   0.860
10340SOL    HW231920   1.731   6.722   0.841
10341SOL     OW31921   0.758   3.142   2.241
10341SOL    HW131922   0.851   3.161   2.274
10341SOL    HW231923   0.713   3.078   2.304
10342SOL     OW31924   2.791   5.466   4.272
10342SOL    HW131925   2.767   5.428   4.362
10342SOL    HW231926   2.886   5.497   4.274
10343SOL     OW31927   2.699   2.411   4.840
10343SOL    HW131928   2.693   2.332   4.902
10343SOL    HW231929   2.694   2.495   4.893
10344SOL     OW31930   4.797   3.724   1.485
10344SOL    HW131931   4.717   3.744   1.428
10344SOL    HW231932   4.800   3.626   1.505
10345SOL     OW31933   3.525   1.666   6.340
10345SOL    HW131934   3.502   1.572   6.365
10345SOL    HW231935   3.607   1.665   6.282
10346SOL     OW31936   6.289   5.831   0.208
10346SOL    HW131937   6.267   5.810   0.304
10346SOL    HW231938   6.206   5.859   0.160
10347SOL     OW31939   4.056   0.189   2.062
10347SOL    HW131940   4.043   0.246   1.981
10347SOL    HW231941   4.047   0.092   2.036
10348SOL     OW31942   6.867   3.960   5.476
10348SOL    HW131943   6.942   3.948   5.410
10348SOL    HW231944   6.785   3.915   5.442
10349SOL     OW31945   5.822   1.871   0.226
10349SOL    HW131946   5.873   1.840   0.306
10349SOL    HW231947   5.764   1.949   0.252
10350SOL     OW31948   2.177   4.836   4.294
10350SOL    HW131949   2.236   4.917   4.301
10350SOL    HW231950   2.204   4.781   4.215
10351SOL     OW31951   3.980   5.550   4.923
10351SOL    HW131952   3.920   5.613   4.875
10351SOL    HW231953   3.959   5.456   4.894
10352SOL     OW31954   0.595   1.175   1.502
10352SOL    HW131955   0.625   1.236   1.428
10352SOL    HW231956   0.568   1.087   1.463
10353SOL     OW31957   5.915   3.123   3.432
10353SOL    HW131958   5.860   3.067   3.371
10353SOL    HW231959   5.878   3.118   3.525
10354SOL     OW31960   7.014   3.043   1.644
10354SOL    HW131961   6.963   3.120   1.606
10354SOL    HW231962   6.967   3.008   1.725
10355SOL     OW31963   6.977   2.181   0.638
10355SOL    HW131964   6.931   2.115   0.579
10355SOL    HW231965   0.051   2.156   0.647
10356SOL     OW31966   5.760   2.396   6.799
10356SOL    HW131967   5.737   2.314   6.850
10356SOL    HW231968   5.858   2.413   6.805
10357SOL     OW31969   0.215   0.457   6.327
10357SOL    HW131970   0.182   0.512   6.404
10357SOL    HW231971   0.187   0.362   6.339
10358SOL     OW31972   0.856   2.631   3.912
10358SOL    HW131973   0.827   2.672   3.998
10358SOL    HW231974   0.943   2.584   3.925
10359SOL     OW31975   0.767   2.702   2.520
10359SOL    HW131976   0.859   2.731   2.549
10359SOL    HW231977   0.775   2.624   2.458
10360SOL     OW31978   6.149   4.655   0.873
10360SOL    HW131979   6.109   4.742   0.900
10360SOL    HW231980   6.149   4.647   0.774
10361SOL     OW31981   6.086   2.035   2.992
10361SOL    HW131982   6.005   2.038   3.049
10361SOL    HW231983   6.079   1.959   2.927
10362SOL     OW31984   0.617   6.243   1.307
10362SOL    HW131985   0.590   6.188   1.385
10362SOL    HW231986   0.684   6.192   1.252
10363SOL     OW31987   5.322   5.411   6.028
10363SOL    HW131988   5.415   5.377   6.025
10363SOL    HW231989   5.320   5.508   6.003
10364SOL     OW31990   6.088   5.163   1.645
10364SOL    HW131991   5.996   5.189   1.673
10364SOL    HW231992   6.155   5.223   1.689
10365SOL     OW31993   6.088   5.876   0.027
10365SOL    HW131994   6.091   5.797   6.989
10365SOL    HW231995   5.998   5.882   0.070
10366SOL     OW31996   2.964   0.120   3.156
10366SOL    HW131997   2.982   0.200   3.099
10366SOL    HW231998   2.925   0.048   3.099
10367SOL     OW31999   5.376   5.885   1.638
10367SOL    HW132000   5.324   5.803   1.660
10367SOL    HW232001   5.313   5.962   1.626
10368SOL     OW32002   1.330   5.843   1.587
10368SOL    HW132003   1.376   5.800   1.665
10368SOL    HW232004   1.375   5.816   1.502
10369SOL     OW32005   2.370   0.774   5.798
10369SOL    HW132006   2.332   0.711   5.866
10369SOL    HW232007   2.295   0.818   5.748
10370SOL     OW32008   1.591   2.152   6.113
10370SOL    HW132009   1.499   2.182   6.090
10370SOL    HW232010   1.633   2.218   6.175
10371SOL     OW32011   3.593   5.450   3.292
10371SOL    HW132012   3.644   5.497   3.220
10371SOL    HW232013   3.500   5.430   3.261
10372SOL     OW32014   1.475   6.072   1.151
10372SOL    HW132015   1.383   6.085   1.114
10372SOL    HW232016   1.517   6.162   1.168
10373SOL     OW32017   6.326   0.685   6.244
10373SOL    HW132018   6.349   0.592   6.273
10373SOL    HW232019   6.259   0.724   6.306
10374SOL     OW32020   2.803   4.795   3.159
10374SOL    HW132021   2.817   4.805   3.258
10374SOL    HW232022   2.743   4.716   3.143
10375SOL     OW32023   2.359   5.699   6.638
10375SOL    HW132024   2.397   5.615   6.601
10375SOL    HW232025   2.425   5.774   6.627
10376SOL     OW32026   2.338   5.147   4.084
10376SOL    HW132027   2.421   5.114   4.039
10376SOL    HW232028   2.270   5.074   4.086
10377SOL     OW32029   2.486   0.599   3.828
10377SOL    HW132030   2.423   0.535   3.784
10377SOL    HW232031   2.578   0.560   3.828
10378SOL     OW32032   0.598   6.878   6.014
10378SOL    HW132033   0.594   6.978   6.007
10378SOL    HW232034   0.604   6.839   5.922
10379SOL     OW32035   0.830   5.886   3.515
10379SOL    HW132036   0.888   5.862   3.437
10379SOL    HW232037   0.880   5.948   3.575
10380SOL     OW32038   2.916   1.005   3.952
10380SOL    HW132039   2.842   0.942   3.975
10380SOL    HW232040   2.914   1.024   3.854
10381SOL     OW32041   2.794   0.323   2.689
10381SOL    HW132042   2.792   0.233   2.646
10381SOL    HW232043   2.838   0.388   2.628
10382SOL     OW32044   4.249   5.555   1.942
10382SOL    HW132045   4.250   5.525   1.847
10382SOL    HW232046   4.340   5.588   1.967
10383SOL     OW32047   0.454   0.060   6.916
10383SOL    HW132048   0.521   7.020   6.957
10383SOL    HW232049   0.502   0.134   6.869
10384SOL     OW32050   4.849   5.140   0.900
10384SOL    HW132051   4.897   5.055   0.879
10384SOL    HW232052   4.752   5.129   0.880
10385SOL     OW32053   4.123   4.713   6.647
10385SOL    HW132054   4.119   4.812   6.661
10385SOL    HW232055   4.086   4.667   6.728
10386SOL     OW32056   0.223   0.202   2.128
10386SOL    HW132057   0.169   0.184   2.046
10386SOL    HW232058   0.279   0.284   2.114
10387SOL     OW32059   5.402   1.979   1.409
10387SOL    HW132060   5.460   1.898   1.407
10387SOL    HW232061   5.317   1.960   1.358
10388SOL     OW32062   1.414   0.384   4.933
10388SOL    HW132063   1.417   0.284   4.925
10388SOL    HW232064   1.319   0.413   4.943
10389SOL     OW32065   0.593   3.528   0.464
10389SOL    HW132066   0.681   3.535   0.416
10389SOL    HW232067   0.545   3.615   0.459
10390SOL     OW32068   2.151   1.913   2.056
10390SOL    HW132069   2.080   1.955   1.999
10390SOL    HW232070   2.241   1.942   2.025
10391SOL     OW32071   6.309   6.970   3.172
10391SOL    HW132072   6.356   7.003   3.254
10391SOL    HW232073   6.366   6.989   3.092
10392SOL     OW32074   6.606   3.640   4.197
10392SOL    HW132075   6.653   3.711   4.249
10392SOL    HW232076   6.511   3.634   4.228
10393SOL     OW32077   2.089   2.502   2.315
10393SOL    HW132078   2.024   2.426   2.320
10393SOL    HW232079   2.115   2.518   2.220
10394SOL     OW32080   2.975   6.391   3.616
10394SOL    HW132081   2.984   6.444   3.532
10394SOL    HW232082   2.949   6.297   3.593
10395SOL     OW32083   0.874   0.975   1.652
10395SOL    HW132084   0.969   0.944   1.653
10395SOL    HW232085   0.867   1.063   1.699
10396SOL     OW32086   3.385   2.200   5.260
10396SOL    HW132087   3.306   2.261   5.257
10396SOL    HW232088   3.387   2.143   5.178
10397SOL     OW32089   5.158   1.393   3.896
10397SOL    HW132090   5.203   1.327   3.835
10397SOL    HW232091   5.072   1.423   3.854
10398SOL     OW32092   5.336   2.647   2.303
10398SOL    HW132093   5.405   2.583   2.338
10398SOL    HW232094   5.359   2.671   2.208
10399SOL     OW32095   0.554   4.064   2.435
10399SOL    HW132096   0.482   3.995   2.446
10399SOL    HW232097   0.635   4.022   2.396
10400SOL     OW32098   2.049   6.682   0.358
10400SOL    HW132099   1.973   6.742   0.384
10400SOL    HW232100   2.122   6.690   0.426
10401SOL     OW32101   6.940   0.657   5.984
10401SOL    HW132102   6.851   0.702   5.991
10401SOL    HW232103   6.948   0.613   5.895
10402SOL     OW32104   6.877   4.359   4.977
10402SOL    HW132105   6.858   4.342   5.074
10402SOL    HW232106   6.970   4.329   4.956
10403SOL     OW32107   2.888   6.953   1.032
10403SOL    HW132108   2.805   6.974   0.979
10403SOL    HW232109   2.953   0.006   1.021
10404SOL     OW32110   0.283   5.809   5.894
10404SOL    HW132111   0.315   5.737   5.833
10404SOL    HW232112   0.229   5.875   5.843
10405SOL     OW32113   0.117   1.650   6.944
10405SOL    HW132114   0.117   1.673   0.019
10405SOL    HW232115   0.024   1.630   6.914
10406SOL     OW32116   1.437   5.575   0.835
10406SOL    HW132117   1.443   5.644   0.907
10406SOL    HW232118   1.348   5.582   0.789
10407SOL     OW32119   2.004   6.224   6.447
10407SOL    HW132120   1.941   6.159   6.491
10407SOL    HW232121   1.990   6.221   6.348
10408SOL     OW32122   4.583   0.801   0.130
10408SOL    HW132123   4.644   0.826   0.205
10408SOL    HW232124   4.636   0.787   0.046
10409SOL     OW32125   6.102   4.157   0.736
10409SOL    HW132126   6.084   4.249   0.771
10409SOL    HW232127   6.193   4.127   0.767
10410SOL     OW32128   4.064   6.974   0.879
10410SOL    HW132129   4.004   6.968   0.799
10410SOL    HW232130   4.103   0.044   0.884
10411SOL     OW32131   2.096   5.225   4.265
10411SOL    HW132132   2.042   5.286   4.206
10411SOL    HW232133   2.192   5.228   4.237
10412SOL     OW32134   5.497   0.045   1.897
10412SOL    HW132135   5.541   6.978   1.889
10412SOL    HW232136   5.488   0.087   1.806
10413SOL     OW32137   6.145   2.758   2.768
10413SOL    HW132138   6.223   2.766   2.706
10413SOL    HW232139   6.092   2.842   2.766
10414SOL     OW32140   5.681   3.299   4.151
10414SOL    HW132141   5.650   3.230   4.216
10414SOL    HW232142   5.776   3.283   4.127
10415SOL     OW32143   0.846   1.101   6.871
10415SOL    HW132144   0.945   1.086   6.879
10415SOL    HW232145   0.797   1.025   6.913
10416SOL     OW32146   5.137   3.041   3.943
10416SOL    HW132147   5.045   3.075   3.923
10416SOL    HW232148   5.191   3.041   3.859
10417SOL     OW32149   1.853   4.315   3.054
10417SOL    HW132150   1.900   4.300   3.141
10417SOL    HW232151   1.919   4.305   2.979
10418SOL     OW32152   1.606   5.570   6.237
10418SOL    HW132153   1.702   5.596   6.227
10418SOL    HW232154   1.588   5.545   6.332
10419SOL     OW32155   1.383   0.809   0.161
10419SOL    HW132156   1.395   0.841   0.067
10419SOL    HW232157   1.297   0.759   0.169
10420SOL     OW32158   0.205   2.893   2.717
10420SOL    HW132159   0.186   2.828   2.644
10420SOL    HW232160   0.149   2.975   2.704
10421SOL     OW32161   0.832   2.352   3.055
10421SOL    HW132162   0.737   2.367   3.028
10421SOL    HW232163   0.871   2.277   3.001
10422SOL     OW32164   5.126   3.239   6.935
10422SOL    HW132165   5.202   3.273   6.989
10422SOL    HW232166   5.161   3.189   6.856
10423SOL     OW32167   5.157   4.856   2.807
10423SOL    HW132168   5.185   4.927   2.742
10423SOL    HW232169   5.082   4.890   2.863
10424SOL     OW32170   4.366   1.649   6.399
10424SOL    HW132171   4.275   1.630   6.362
10424SOL    HW232172   4.378   1.599   6.484
10425SOL     OW32173   1.648   6.997   1.972
10425SOL    HW132174   1.657   6.957   1.881
10425SOL    HW232175   1.632   6.924   2.039
10426SOL     OW32176   6.314   4.096   0.116
10426SOL    HW132177   6.356   4.127   0.201
10426SOL    HW232178   6.216   4.083   0.129
10427SOL     OW32179   5.044   0.740   0.914
10427SOL    HW132180   5.014   0.777   0.827
10427SOL    HW232181   5.143   0.756   0.924
10428SOL     OW32182   4.796   1.344   3.265
10428SOL    HW132183   4.783   1.320   3.362
10428SOL    HW232184   4.874   1.406   3.256
10429SOL     OW32185   6.088   5.587   1.953
10429SOL    HW132186   6.136   5.674   1.961
10429SOL    HW232187   6.149   5.512   1.980
10430SOL     OW32188   4.395   6.252   2.786
10430SOL    HW132189   4.371   6.161   2.751
10430SOL    HW232190   4.435   6.306   2.712
10431SOL     OW32191   2.586   1.277   5.303
10431SOL    HW132192   2.606   1.351   5.368
10431SOL    HW232193   2.488   1.258   5.305
10432SOL     OW32194   4.346   0.563   4.634
10432SOL    HW132195   4.313   0.618   4.710
10432SOL    HW232196   4.281   0.489   4.615
10433SOL     OW32197   2.672   6.650   0.616
10433SOL    HW132198   2.747   6.630   0.553
10433SOL    HW232199   2.709   6.691   0.700
10434SOL     OW32200   2.766   1.989   4.711
10434SOL    HW132201   2.835   1.931   4.753
10434SOL    HW232202   2.793   2.085   4.721
10435SOL     OW32203   5.680   5.545   6.250
10435SOL    HW132204   5.713   5.639   6.237
10435SOL    HW232205   5.591   5.546   6.295
10436SOL     OW32206   0.773   0.691   2.740
10436SOL    HW132207   0.772   0.689   2.640
10436SOL    HW232208   0.747   0.602   2.775
10437SOL     OW32209   0.466   4.277   6.049
10437SOL    HW132210   0.400   4.303   5.979
10437SOL    HW232211   0.428   4.295   6.139
10438SOL     OW32212   3.363   6.730   6.097
10438SOL    HW132213   3.409   6.751   6.011
10438SOL    HW232214   3.267   6.756   6.091
10439SOL     OW32215   3.519   0.653   4.905
10439SOL    HW132216   3.552   0.614   4.991
10439SOL    HW232217   3.430   0.696   4.920
10440SOL     OW32218   0.991   5.435   0.861
10440SOL    HW132219   0.987   5.339   0.830
10440SOL    HW232220   1.073   5.478   0.823
10441SOL     OW32221   3.628   6.868   0.420
10441SOL    HW132222   3.723   6.888   0.394
10441SOL    HW232223   3.613   6.770   0.418
10442SOL     OW32224   4.955   6.026   4.975
10442SOL    HW132225   4.930   6.123   4.983
10442SOL    HW232226   5.028   6.016   4.907
10443SOL     OW32227   6.169   2.485   4.445
10443SOL    HW132228   6.140   2.446   4.357
10443SOL    HW232229   6.094   2.537   4.485
10444SOL     OW32230   3.725   4.995   4.752
10444SOL    HW132231   3.782   4.969   4.830
10444SOL    HW232232   3.629   4.986   4.776
10445SOL     OW32233   6.400   6.234   2.126
10445SOL    HW132234   6.463   6.311   2.116
10445SOL    HW232235   6.397   6.206   2.222
10446SOL     OW32236   1.000   6.410   6.729
10446SOL    HW132237   1.003   6.365   6.818
10446SOL    HW232238   0.937   6.487   6.733
10447SOL     OW32239   5.560   1.519   0.341
10447SOL    HW132240   5.483   1.581   0.329
10447SOL    HW232241   5.615   1.517   0.257
10448SOL     OW32242   3.373   3.708   2.595
10448SOL    HW132243   3.283   3.753   2.595
10448SOL    HW232244   3.444   3.776   2.578
10449SOL     OW32245   1.788   5.522   4.953
10449SOL    HW132246   1.753   5.431   4.930
10449SOL    HW232247   1.888   5.523   4.944
10450SOL     OW32248   0.135   3.308   1.099
10450SOL    HW132249   0.146   3.239   1.027
10450SOL    HW232250   0.214   3.370   1.098
10451SOL     OW32251   2.254   4.601   2.449
10451SOL    HW132252   2.211   4.511   2.437
10451SOL    HW232253   2.295   4.630   2.362
10452SOL     OW32254   1.788   2.827   5.784
10452SOL    HW132255   1.791   2.741   5.834
10452SOL    HW232256   1.751   2.898   5.844
10453SOL     OW32257   5.069   0.554   1.245
10453SOL    HW132258   5.036   0.647   1.232
10453SOL    HW232259   4.993   0.494   1.270
10454SOL     OW32260   5.421   3.878   1.901
10454SOL    HW132261   5.382   3.794   1.862
10454SOL    HW232262   5.366   3.956   1.872
10455SOL     OW32263   0.713   4.645   3.298
10455SOL    HW132264   0.767   4.563   3.319
10455SOL    HW232265   0.673   4.635   3.207
10456SOL     OW32266   3.835   6.119   1.326
10456SOL    HW132267   3.749   6.170   1.328
10456SOL    HW232268   3.870   6.117   1.233
10457SOL     OW32269   3.946   3.239   3.985
10457SOL    HW132270   3.930   3.157   3.930
10457SOL    HW232271   3.861   3.269   4.027
10458SOL     OW32272   0.316   6.008   1.636
10458SOL    HW132273   0.281   5.917   1.656
10458SOL    HW232274   0.361   6.045   1.718
10459SOL     OW32275   6.842   4.802   1.646
10459SOL    HW132276   6.790   4.718   1.659
10459SOL    HW232277   6.919   4.785   1.585
10460SOL     OW32278   1.376   4.282   1.825
10460SOL    HW132279   1.402   4.364   1.774
10460SOL    HW232280   1.337   4.308   1.913
10461SOL     OW32281   3.438   0.430   6.226
10461SOL    HW132282   3.422   0.439   6.325
10461SOL    HW232283   3.513   0.366   6.210
10462SOL     OW32284   5.279   6.533   1.096
10462SOL    HW132285   5.198   6.581   1.130
10462SOL    HW232286   5.274   6.523   0.997
10463SOL     OW32287   3.232   3.461   0.839
10463SOL    HW132288   3.331   3.447   0.848
10463SOL    HW232289   3.186   3.372   0.838
10464SOL     OW32290   5.790   6.155   2.227
10464SOL    HW132291   5.698   6.191   2.216
10464SOL    HW232292   5.856   6.224   2.197
10465SOL     OW32293   0.311   5.079   4.591
10465SOL    HW132294   0.362   5.029   4.661
10465SOL    HW232295   0.357   5.166   4.573
10466SOL     OW32296   4.934   6.457   5.377
10466SOL    HW132297   5.024   6.447   5.419
10466SOL    HW232298   4.944   6.477   5.279
10467SOL     OW32299   4.703   1.301   3.538
10467SOL    HW132300   4.790   1.340   3.566
10467SOL    HW232301   4.707   1.201   3.546
10468SOL     OW32302   3.015   5.261   3.610
10468SOL    HW132303   3.077   5.313   3.669
10468SOL    HW232304   2.955   5.205   3.666
10469SOL     OW32305   0.711   4.643   6.468
10469SOL    HW132306   0.773   4.672   6.541
10469SOL    HW232307   0.724   4.701   6.388
10470SOL     OW32308   2.821   2.309   4.615
10470SOL    HW132309   2.790   2.355   4.532
10470SOL    HW232310   2.779   2.351   4.695
10471SOL     OW32311   4.410   4.054   0.110
10471SOL    HW132312   4.412   4.011   0.200
10471SOL    HW232313   4.453   3.993   0.043
10472SOL     OW32314   3.929   1.184   3.221
10472SOL    HW132315   4.017   1.152   3.255
10472SOL    HW232316   3.870   1.105   3.205
10473SOL     OW32317   4.933   4.988   0.087
10473SOL    HW132318   4.931   5.010   7.012
10473SOL    HW232319   4.879   5.054   0.138
10474SOL     OW32320   5.187   0.894   3.609
10474SOL    HW132321   5.274   0.923   3.569
10474SOL    HW232322   5.204   0.846   3.695
10475SOL     OW32323   4.359   6.327   1.388
10475SOL    HW132324   4.262   6.322   1.363
10475SOL    HW232325   4.376   6.270   1.468
10476SOL     OW32326   0.136   4.871   6.381
10476SOL    HW132327   0.226   4.898   6.346
10476SOL    HW232328   0.146   4.828   6.471
10477SOL     OW32329   4.734   4.477   5.053
10477SOL    HW132330   4.745   4.378   5.038
10477SOL    HW232331   4.777   4.526   4.978
10478SOL     OW32332   0.517   6.265   3.256
10478SOL    HW132333   0.557   6.335   3.314
10478SOL    HW232334   0.590   6.211   3.214
10479SOL     OW32335   1.002   4.329   2.208
10479SOL    HW132336   0.960   4.333   2.117
10479SOL    HW232337   1.066   4.252   2.211
10480SOL     OW32338   4.989   1.147   0.684
10480SOL    HW132339   5.050   1.068   0.689
10480SOL    HW232340   4.983   1.178   0.589
10481SOL     OW32341   2.595   1.409   4.419
10481SOL    HW132342   2.601   1.312   4.445
10481SOL    HW232343   2.686   1.450   4.420
10482SOL     OW32344   0.984   6.236   6.959
10482SOL    HW132345   1.049   6.162   6.942
10482SOL    HW232346   0.899   6.199   6.998
10483SOL     OW32347   0.218   5.574   0.654
10483SOL    HW132348   0.171   5.586   0.741
10483SOL    HW232349   0.249   5.663   0.620
10484SOL     OW32350   6.771   1.698   1.777
10484SOL    HW132351   6.731   1.625   1.832
10484SOL    HW232352   6.851   1.662   1.728
10485SOL     OW32353   3.584   4.169   4.400
10485SOL    HW132354   3.608   4.156   4.304
10485SOL    HW232355   3.496   4.216   4.407
10486SOL     OW32356   6.293   5.726   5.814
10486SOL    HW132357   6.304   5.628   5.801
10486SOL    HW232358   6.338   5.775   5.739
10487SOL     OW32359   5.426   3.647   2.798
10487SOL    HW132360   5.464   3.600   2.877
10487SOL    HW232361   5.388   3.580   2.734
10488SOL     OW32362   0.422   2.154   5.533
10488SOL    HW132363   0.501   2.205   5.498
10488SOL    HW232364   0.365   2.214   5.588
10489SOL     OW32365   5.921   4.804   2.778
10489SOL    HW132366   5.935   4.867   2.702
10489SOL    HW232367   5.846   4.742   2.756
10490SOL     OW32368   5.260   6.344   6.505
10490SOL    HW132369   5.293   6.438   6.494
10490SOL    HW232370   5.338   6.282   6.510
10491SOL     OW32371   2.241   2.431   5.844
10491SOL    HW132372   2.157   2.376   5.849
10491SOL    HW232373   2.280   2.424   5.752
10492SOL     OW32374   2.622   6.361   0.337
10492SOL    HW132375   2.706   6.340   0.387
10492SOL    HW232376   2.569   6.430   0.386
10493SOL     OW32377   3.491   5.454   0.799
10493SOL    HW132378   3.509   5.370   0.748
10493SOL    HW232379   3.573   5.480   0.850
10494SOL     OW32380   0.146   5.170   4.116
10494SOL    HW132381   0.125   5.151   4.212
10494SOL    HW232382   0.069   5.220   4.075
10495SOL     OW32383   6.276   6.698   0.328
10495SOL    HW132384   6.342   6.692   0.403
10495SOL    HW232385   6.195   6.644   0.351
10496SOL     OW32386   0.575   4.980   6.073
10496SOL    HW132387   0.500   4.970   6.007
10496SOL    HW232388   0.559   4.921   6.151
10497SOL     OW32389   3.606   6.358   0.850
10497SOL    HW132390   3.627   6.336   0.755
10497SOL    HW232391   3.526   6.306   0.880
10498SOL     OW32392   3.483   3.327   6.898
10498SOL    HW132393   3.517   3.326   6.992
10498SOL    HW232394   3.492   3.419   6.859
10499SOL     OW32395   4.042   4.826   2.933
10499SOL    HW132396   3.981   4.848   2.857
10499SOL    HW232397   4.096   4.745   2.910
10500SOL     OW32398   1.974   2.917   4.884
10500SOL    HW132399   1.986   2.830   4.932
10500SOL    HW232400   2.009   2.909   4.791
10501SOL     OW32401   3.691   5.012   3.582
10501SOL    HW132402   3.680   5.108   3.554
10501SOL    HW232403   3.695   5.007   3.681
10502SOL     OW32404   2.890   3.608   2.753
10502SOL    HW132405   2.919   3.697   2.788
10502SOL    HW232406   2.890   3.541   2.827
10503SOL     OW32407   6.594   0.809   0.453
10503SOL    HW132408   6.634   0.900   0.445
10503SOL    HW232409   6.495   0.815   0.448
10504SOL     OW32410   1.349   3.114   5.701
10504SOL    HW132411   1.294   3.146   5.624
10504SOL    HW232412   1.434   3.074   5.666
10505SOL     OW32413   5.913   6.603   0.797
10505SOL    HW132414   5.861   6.558   0.871
10505SOL    HW232415   5.959   6.684   0.832
10506SOL     OW32416   1.553   4.713   4.996
10506SOL    HW132417   1.476   4.653   5.017
10506SOL    HW232418   1.587   4.754   5.081
10507SOL     OW32419   1.746   6.067   5.669
10507SOL    HW132420   1.649   6.083   5.651
10507SOL    HW232421   1.766   6.091   5.764
10508SOL     OW32422   1.635   6.287   1.210
10508SOL    HW132423   1.689   6.271   1.293
10508SOL    HW232424   1.616   6.385   1.201
10509SOL     OW32425   4.910   3.264   2.276
10509SOL    HW132426   4.846   3.301   2.208
10509SOL    HW232427   4.998   3.311   2.268
10510SOL     OW32428   5.614   5.971   3.098
10510SOL    HW132429   5.622   6.024   3.013
10510SOL    HW232430   5.566   6.025   3.167
10511SOL     OW32431   3.678   1.706   0.746
10511SOL    HW132432   3.750   1.637   0.741
10511SOL    HW232433   3.590   1.664   0.725
10512SOL     OW32434   4.098   1.038   4.962
10512SOL    HW132435   4.124   1.112   4.900
10512SOL    HW232436   4.055   0.964   4.910
10513SOL     OW32437   3.681   3.656   0.496
10513SOL    HW132438   3.765   3.706   0.517
10513SOL    HW232439   3.617   3.664   0.573
10514SOL     OW32440   1.225   5.563   1.447
10514SOL    HW132441   1.194   5.563   1.352
10514SOL    HW232442   1.190   5.644   1.493
10515SOL     OW32443   2.149   3.743   4.567
10515SOL    HW132444   2.182   3.813   4.630
10515SOL    HW232445   2.153   3.654   4.612
10516SOL     OW32446   5.401   1.555   2.163
10516SOL    HW132447   5.351   1.627   2.211
10516SOL    HW232448   5.336   1.490   2.123
10517SOL     OW32449   0.833   1.955   1.912
10517SOL    HW132450   0.752   1.979   1.857
10517SOL    HW232451   0.804   1.909   1.996
10518SOL     OW32452   0.977   6.209   2.441
10518SOL    HW132453   0.924   6.127   2.418
10518SOL    HW232454   1.051   6.221   2.375
10519SOL     OW32455   2.426   6.219   0.672
10519SOL    HW132456   2.472   6.132   0.657
10519SOL    HW232457   2.338   6.203   0.715
10520SOL     OW32458   2.747   2.635   6.318
10520SOL    HW132459   2.747   2.709   6.251
10520SOL    HW232460   2.717   2.550   6.275
10521SOL     OW32461   6.216   2.233   2.804
10521SOL    HW132462   6.313   2.211   2.811
10521SOL    HW232463   6.163   2.173   2.863
10522SOL     OW32464   5.032   1.622   3.668
10522SOL    HW132465   5.070   1.671   3.589
10522SOL    HW232466   4.932   1.629   3.666
10523SOL     OW32467   0.771   4.136   1.789
10523SOL    HW132468   0.711   4.175   1.859
10523SOL    HW232469   0.856   4.189   1.784
10524SOL     OW32470   5.911   6.270   4.533
10524SOL    HW132471   5.861   6.349   4.500
10524SOL    HW232472   5.994   6.257   4.479
10525SOL     OW32473   4.752   1.629   3.560
10525SOL    HW132474   4.654   1.613   3.547
10525SOL    HW232475   4.785   1.690   3.488
10526SOL     OW32476   1.568   5.805   5.886
10526SOL    HW132477   1.565   5.720   5.939
10526SOL    HW232478   1.617   5.789   5.800
10527SOL     OW32479   0.198   6.494   5.831
10527SOL    HW132480   0.205   6.521   5.927
10527SOL    HW232481   0.113   6.528   5.793
10528SOL     OW32482   2.224   5.430   5.316
10528SOL    HW132483   2.309   5.379   5.333
10528SOL    HW232484   2.185   5.461   5.403
10529SOL     OW32485   6.803   5.323   0.292
10529SOL    HW132486   6.787   5.379   0.374
10529SOL    HW232487   6.846   5.379   0.222
10530SOL     OW32488   6.439   0.552   1.346
10530SOL    HW132489   6.394   0.480   1.399
10530SOL    HW232490   6.513   0.513   1.292
10531SOL     OW32491   3.318   1.707   5.987
10531SOL    HW132492   3.306   1.694   6.085
10531SOL    HW232493   3.290   1.800   5.962
10532SOL     OW32494   4.750   5.847   5.764
10532SOL    HW132495   4.723   5.941   5.783
10532SOL    HW232496   4.846   5.834   5.790
10533SOL     OW32497   4.492   6.840   3.085
10533SOL    HW132498   4.399   6.807   3.104
10533SOL    HW232499   4.521   6.808   2.995
10534SOL     OW32500   1.100   6.606   4.062
10534SOL    HW132501   1.196   6.578   4.057
10534SOL    HW232502   1.056   6.560   4.140
10535SOL     OW32503   4.423   1.722   2.266
10535SOL    HW132504   4.388   1.800   2.317
10535SOL    HW232505   4.360   1.645   2.276
10536SOL     OW32506   5.913   3.775   4.164
10536SOL    HW132507   5.901   3.676   4.157
10536SOL    HW232508   5.977   3.806   4.094
10537SOL     OW32509   3.492   1.006   3.125
10537SOL    HW132510   3.418   0.938   3.127
10537SOL    HW232511   3.513   1.030   3.030
10538SOL     OW32512   6.163   2.594   3.666
10538SOL    HW132513   6.173   2.640   3.754
10538SOL    HW232514   6.186   2.497   3.676
10539SOL     OW32515   6.544   6.843   2.720
10539SOL    HW132516   6.556   6.754   2.676
10539SOL    HW232517   6.493   6.904   2.659
10540SOL     OW32518   1.733   3.517   6.292
10540SOL    HW132519   1.815   3.526   6.350
10540SOL    HW232520   1.761   3.517   6.196
10541SOL     OW32521   3.246   2.435   6.260
10541SOL    HW132522   3.249   2.350   6.208
10541SOL    HW232523   3.233   2.512   6.197
10542SOL     OW32524   4.096   6.282   2.077
10542SOL    HW132525   4.005   6.241   2.071
10542SOL    HW232526   4.090   6.379   2.053
10543SOL     OW32527   1.646   2.600   4.361
10543SOL    HW132528   1.588   2.579   4.282
10543SOL    HW232529   1.695   2.686   4.343
10544SOL     OW32530   2.749   2.239   2.429
10544SOL    HW132531   2.694   2.312   2.470
10544SOL    HW232532   2.724   2.228   2.333
10545SOL     OW32533   1.557   3.308   1.965
10545SOL    HW132534   1.613   3.391   1.956
10545SOL    HW232535   1.488   3.306   1.892
10546SOL     OW32536   2.010   6.983   5.496
10546SOL    HW132537   2.031   6.903   5.551
10546SOL    HW232538   2.071   6.986   5.416
10547SOL     OW32539   3.667   6.420   6.099
10547SOL    HW132540   3.587   6.388   6.152
10547SOL    HW232541   3.729   6.343   6.085
10548SOL     OW32542   0.860   5.532   3.459
10548SOL    HW132543   0.904   5.607   3.509
10548SOL    HW232544   0.905   5.446   3.482
10549SOL     OW32545   0.106   1.384   2.755
10549SOL    HW132546   0.039   1.456   2.741
10549SOL    HW232547   0.129   1.378   2.852
10550SOL     OW32548   6.067   5.740   3.151
10550SOL    HW132549   6.083   5.692   3.237
10550SOL    HW232550   5.989   5.699   3.104
10551SOL     OW32551   4.561   0.472   4.466
10551SOL    HW132552   4.478   0.498   4.516
10551SOL    HW232553   4.640   0.482   4.526
10552SOL     OW32554   2.687   6.768   3.183
10552SOL    HW132555   2.706   6.755   3.085
10552SOL    HW232556   2.685   6.866   3.204
10553SOL     OW32557   5.257   5.369   1.395
10553SOL    HW132558   5.307   5.448   1.362
10553SOL    HW232559   5.160   5.379   1.372
10554SOL     OW32560   6.100   5.737   1.308
10554SOL    HW132561   6.077   5.809   1.375
10554SOL    HW232562   6.034   5.741   1.233
10555SOL     OW32563   3.595   3.200   1.883
10555SOL    HW132564   3.586   3.225   1.787
10555SOL    HW232565   3.561   3.274   1.940
10556SOL     OW32566   2.494   2.240   1.961
10556SOL    HW132567   2.463   2.335   1.962
10556SOL    HW232568   2.578   2.232   1.907
10557SOL     OW32569   0.775   3.708   3.192
10557SOL    HW132570   0.685   3.733   3.227
10557SOL    HW232571   0.777   3.718   3.093
10558SOL     OW32572   4.541   5.109   4.299
10558SOL    HW132573   4.507   5.082   4.209
10558SOL    HW232574   4.583   5.200   4.292
10559SOL     OW32575   3.640   5.727   1.174
10559SOL    HW132576   3.735   5.727   1.142
10559SOL    HW232577   3.618   5.638   1.213
10560SOL     OW32578   5.499   0.087   3.933
10560SOL    HW132579   5.558   0.149   3.881
10560SOL    HW232580   5.466   0.014   3.873
10561SOL     OW32581   0.935   5.283   5.955
10561SOL    HW132582   0.864   5.246   6.015
10561SOL    HW232583   0.914   5.260   5.860
10562SOL     OW32584   3.812   6.611   2.737
10562SOL    HW132585   3.883   6.681   2.733
10562SOL    HW232586   3.767   6.603   2.648
10563SOL     OW32587   2.097   5.905   2.126
10563SOL    HW132588   2.007   5.865   2.107
10563SOL    HW232589   2.132   5.870   2.213
10564SOL     OW32590   5.255   4.513   3.221
10564SOL    HW132591   5.261   4.611   3.205
10564SOL    HW232592   5.325   4.466   3.168
10565SOL     OW32593   0.426   1.523   4.940
10565SOL    HW132594   0.337   1.559   4.914
10565SOL    HW232595   0.482   1.510   4.858
10566SOL     OW32596   3.937   2.081   0.727
10566SOL    HW132597   3.904   2.002   0.778
10566SOL    HW232598   3.877   2.097   0.648
10567SOL     OW32599   3.134   2.539   6.857
10567SOL    HW132600   3.045   2.498   6.836
10567SOL    HW232601   3.167   2.504   6.945
10568SOL     OW32602   5.665   2.283   5.709
10568SOL    HW132603   5.624   2.237   5.630
10568SOL    HW232604   5.720   2.360   5.677
10569SOL     OW32605   5.158   0.508   0.843
10569SOL    HW132606   5.096   0.581   0.868
10569SOL    HW232607   5.135   0.474   0.751
10570SOL     OW32608   1.679   4.079   3.159
10570SOL    HW132609   1.725   4.166   3.139
10570SOL    HW232610   1.662   4.031   3.073
10571SOL     OW32611   0.304   3.964   5.467
10571SOL    HW132612   0.359   4.017   5.531
10571SOL    HW232613   0.354   3.882   5.439
10572SOL     OW32614   6.495   4.710   0.624
10572SOL    HW132615   6.398   4.691   0.609
10572SOL    HW232616   6.549   4.677   0.547
10573SOL     OW32617   6.220   2.760   3.876
10573SOL    HW132618   6.277   2.827   3.924
10573SOL    HW232619   6.216   2.676   3.929
10574SOL     OW32620   5.623   2.591   2.709
10574SOL    HW132621   5.660   2.584   2.616
10574SOL    HW232622   5.660   2.672   2.754
10575SOL     OW32623   5.255   6.949   2.696
10575SOL    HW132624   5.329   6.988   2.641
10575SOL    HW232625   5.168   6.968   2.651
10576SOL     OW32626   1.816   3.128   4.966
10576SOL    HW132627   1.871   3.045   4.954
10576SOL    HW232628   1.727   3.103   5.003
10577SOL     OW32629   3.491   4.427   7.021
10577SOL    HW132630   3.520   4.332   0.009
10577SOL    HW232631   3.571   4.485   7.010
10578SOL     OW32632   1.204   3.611   2.761
10578SOL    HW132633   1.239   3.525   2.726
10578SOL    HW232634   1.122   3.638   2.709
10579SOL     OW32635   6.876   3.040   6.941
10579SOL    HW132636   6.947   2.970   6.949
10579SOL    HW232637   6.795   3.000   6.898
10580SOL     OW32638   5.543   6.159   6.832
10580SOL    HW132639   5.543   6.240   6.889
10580SOL    HW232640   5.629   6.109   6.845
10581SOL     OW32641   4.191   0.941   2.499
10581SOL    HW132642   4.229   0.864   2.551
10581SOL    HW232643   4.135   0.997   2.560
10582SOL     OW32644   6.969   3.294   6.830
10582SOL    HW132645   6.941   3.199   6.846
10582SOL    HW232646   6.887   3.352   6.823
10583SOL     OW32647   4.458   2.267   5.507
10583SOL    HW132648   4.485   2.283   5.602
10583SOL    HW232649   4.524   2.207   5.463
10584SOL     OW32650   6.204   1.005   3.849
10584SOL    HW132651   6.287   0.956   3.875
10584SOL    HW232652   6.154   0.952   3.779
10585SOL     OW32653   1.376   1.346   5.325
10585SOL    HW132654   1.402   1.262   5.278
10585SOL    HW232655   1.372   1.421   5.260
10586SOL     OW32656   4.410   3.785   5.961
10586SOL    HW132657   4.467   3.857   6.002
10586SOL    HW232658   4.411   3.793   5.862
10587SOL     OW32659   2.078   5.514   4.936
10587SOL    HW132660   2.109   5.440   4.996
10587SOL    HW232661   2.157   5.563   4.900
10588SOL     OW32662   1.189   3.930   4.252
10588SOL    HW132663   1.247   3.854   4.221
10588SOL    HW232664   1.098   3.921   4.210
10589SOL     OW32665   6.162   0.268   3.681
10589SOL    HW132666   6.150   0.283   3.583
10589SOL    HW232667   6.094   0.322   3.732
10590SOL     OW32668   0.706   5.807   2.000
10590SOL    HW132669   0.672   5.787   1.908
10590SOL    HW232670   0.657   5.887   2.036
10591SOL     OW32671   6.574   4.099   2.394
10591SOL    HW132672   6.594   4.194   2.369
10591SOL    HW232673   6.480   4.092   2.426
10592SOL     OW32674   6.974   3.056   4.684
10592SOL    HW132675   0.049   3.057   4.707
10592SOL    HW232676   6.934   2.968   4.710
10593SOL     OW32677   3.612   5.823   3.560
10593SOL    HW132678   3.630   5.909   3.608
10593SOL    HW232679   3.543   5.771   3.610
10594SOL     OW32680   3.640   5.753   4.005
10594SOL    HW132681   3.562   5.816   4.012
10594SOL    HW232682   3.723   5.799   4.035
10595SOL     OW32683   5.253   6.252   1.039
10595SOL    HW132684   5.252   6.343   1.080
10595SOL    HW232685   5.232   6.183   1.109
10596SOL     OW32686   5.688   3.702   0.135
10596SOL    HW132687   5.639   3.675   0.052
10596SOL    HW232688   5.641   3.780   0.177
10597SOL     OW32689   1.601   6.739   5.326
10597SOL    HW132690   1.630   6.665   5.266
10597SOL    HW232691   1.589   6.705   5.419
10598SOL     OW32692   3.468   1.457   0.854
10598SOL    HW132693   3.448   1.360   0.870
10598SOL    HW232694   3.551   1.482   0.904
10599SOL     OW32695   0.805   2.013   0.732
10599SOL    HW132696   0.813   2.050   0.825
10599SOL    HW232697   0.802   2.088   0.666
10600SOL     OW32698   4.373   1.410   1.546
10600SOL    HW132699   4.343   1.460   1.627
10600SOL    HW232700   4.306   1.339   1.524
10601SOL     OW32701   1.999   1.591   4.745
10601SOL    HW132702   2.085   1.578   4.794
10601SOL    HW232703   1.929   1.531   4.785
10602SOL     OW32704   6.833   6.849   1.465
10602SOL    HW132705   6.755   6.831   1.405
10602SOL    HW232706   6.874   6.761   1.492
10603SOL     OW32707   5.875   0.441   2.729
10603SOL    HW132708   5.904   0.514   2.791
10603SOL    HW232709   5.831   0.480   2.649
10604SOL     OW32710   5.559   2.702   5.181
10604SOL    HW132711   5.495   2.746   5.117
10604SOL    HW232712   5.591   2.616   5.143
10605SOL     OW32713   4.241   2.302   1.456
10605SOL    HW132714   4.195   2.246   1.387
10605SOL    HW232715   4.178   2.320   1.532
10606SOL     OW32716   5.910   1.424   0.651
10606SOL    HW132717   5.847   1.498   0.627
10606SOL    HW232718   5.862   1.354   0.703
10607SOL     OW32719   2.558   4.883   0.770
10607SOL    HW132720   2.526   4.961   0.718
10607SOL    HW232721   2.514   4.800   0.736
10608SOL     OW32722   5.325   4.103   3.066
10608SOL    HW132723   5.358   4.192   3.098
10608SOL    HW232724   5.272   4.115   2.982
10609SOL     OW32725   5.825   6.514   6.407
10609SOL    HW132726   5.913   6.520   6.454
10609SOL    HW232727   5.786   6.606   6.398
10610SOL     OW32728   0.611   2.148   2.749
10610SOL    HW132729   0.607   2.053   2.717
10610SOL    HW232730   0.687   2.158   2.814
10611SOL     OW32731   4.136   4.997   5.240
10611SOL    HW132732   4.208   4.938   5.276
10611SOL    HW232733   4.093   4.954   5.161
10612SOL     OW32734   5.443   2.534   3.535
10612SOL    HW132735   5.412   2.596   3.463
10612SOL    HW232736   5.469   2.587   3.616
10613SOL     OW32737   5.050   5.109   4.980
10613SOL    HW132738   5.017   5.098   4.886
10613SOL    HW232739   5.036   5.204   5.009
10614SOL     OW32740   3.862   2.110   6.542
10614SOL    HW132741   3.774   2.071   6.515
10614SOL    HW232742   3.855   2.210   6.543
10615SOL     OW32743   2.772   2.379   5.261
10615SOL    HW132744   2.678   2.409   5.278
10615SOL    HW232745   2.779   2.343   5.168
10616SOL     OW32746   1.396   5.656   0.305
10616SOL    HW132747   1.321   5.607   0.349
10616SOL    HW232748   1.483   5.617   0.334
10617SOL     OW32749   1.927   2.538   0.227
10617SOL    HW132750   1.847   2.572   0.277
10617SOL    HW232751   1.971   2.466   0.281
10618SOL     OW32752   0.576   4.634   4.165
10618SOL    HW132753   0.652   4.695   4.187
10618SOL    HW232754   0.597   4.581   4.083
10619SOL     OW32755   1.134   2.828   0.920
10619SOL    HW132756   1.116   2.917   0.962
10619SOL    HW232757   1.081   2.819   0.836
10620SOL     OW32758   3.542   0.976   5.612
10620SOL    HW132759   3.488   1.013   5.687
10620SOL    HW232760   3.485   0.972   5.529
10621SOL     OW32761   0.776   4.166   4.373
10621SOL    HW132762   0.805   4.257   4.400
10621SOL    HW232763   0.678   4.155   4.393
10622SOL     OW32764   4.180   2.113   5.733
10622SOL    HW132765   4.138   2.197   5.767
10622SOL    HW232766   4.118   2.069   5.668
10623SOL     OW32767   5.549   4.629   5.485
10623SOL    HW132768   5.485   4.648   5.560
10623SOL    HW232769   5.640   4.664   5.508
10624SOL     OW32770   6.722   1.673   6.439
10624SOL    HW132771   6.648   1.712   6.493
10624SOL    HW232772   6.808   1.675   6.491
10625SOL     OW32773   5.706   5.545   6.743
10625SOL    HW132774   5.738   5.507   6.830
10625SOL    HW232775   5.777   5.532   6.673
10626SOL     OW32776   5.480   3.392   2.354
10626SOL    HW132777   5.420   3.465   2.387
10626SOL    HW232778   5.428   3.307   2.346
10627SOL     OW32779   5.887   4.515   5.501
10627SOL    HW132780   5.879   4.497   5.403
10627SOL    HW232781   5.868   4.612   5.518
10628SOL     OW32782   2.703   5.719   1.523
10628SOL    HW132783   2.610   5.756   1.530
10628SOL    HW232784   2.698   5.624   1.491
10629SOL     OW32785   4.376   5.246   3.985
10629SOL    HW132786   4.305   5.263   3.918
10629SOL    HW232787   4.379   5.321   4.051
10630SOL     OW32788   3.822   1.047   1.489
10630SOL    HW132789   3.788   1.088   1.404
10630SOL    HW232790   3.922   1.047   1.488
10631SOL     OW32791   3.652   5.763   1.752
10631SOL    HW132792   3.718   5.772   1.826
10631SOL    HW232793   3.650   5.848   1.699
10632SOL     OW32794   5.864   7.010   4.348
10632SOL    HW132795   5.923   0.054   4.395
10632SOL    HW232796   5.866   0.005   4.250
10633SOL     OW32797   2.339   2.857   0.760
10633SOL    HW132798   2.407   2.802   0.711
10633SOL    HW232799   2.371   2.952   0.766
10634SOL     OW32800   0.893   4.387   0.158
10634SOL    HW132801   0.991   4.401   0.173
10634SOL    HW232802   0.863   4.307   0.211
10635SOL     OW32803   3.039   4.495   6.981
10635SOL    HW132804   2.978   4.562   0.000
10635SOL    HW232805   2.984   4.423   6.937
10636SOL     OW32806   6.605   3.183   0.954
10636SOL    HW132807   6.672   3.185   0.880
10636SOL    HW232808   6.560   3.272   0.961
10637SOL     OW32809   2.493   0.501   5.846
10637SOL    HW132810   2.553   0.578   5.869
10637SOL    HW232811   2.410   0.504   5.902
10638SOL     OW32812   5.695   5.167   6.747
10638SOL    HW132813   5.715   5.220   6.829
10638SOL    HW232814   5.763   5.188   6.677
10639SOL     OW32815   6.254   5.180   6.987
10639SOL    HW132816   6.199   5.128   6.922
10639SOL    HW232817   6.291   5.119   0.035
10640SOL     OW32818   3.532   6.240   4.026
10640SOL    HW132819   3.624   6.246   3.986
10640SOL    HW232820   3.470   6.195   3.961
10641SOL     OW32821   1.039   1.253   3.717
10641SOL    HW132822   1.071   1.255   3.812
10641SOL    HW232823   0.942   1.275   3.713
10642SOL     OW32824   0.069   1.947   6.492
10642SOL    HW132825   0.140   1.925   6.559
10642SOL    HW232826   0.108   2.005   6.420
10643SOL     OW32827   3.054   5.129   5.657
10643SOL    HW132828   3.083   5.052   5.600
10643SOL    HW232829   3.133   5.165   5.706
10644SOL     OW32830   0.563   3.672   3.621
10644SOL    HW132831   0.515   3.614   3.555
10644SOL    HW232832   0.597   3.754   3.575
10645SOL     OW32833   2.173   3.021   3.377
10645SOL    HW132834   2.269   2.994   3.382
10645SOL    HW232835   2.125   2.961   3.312
10646SOL     OW32836   4.888   0.588   2.867
10646SOL    HW132837   4.869   0.648   2.945
10646SOL    HW232838   4.970   0.619   2.820
10647SOL     OW32839   4.068   5.390   4.582
10647SOL    HW132840   4.063   5.291   4.567
10647SOL    HW232841   4.138   5.410   4.651
10648SOL     OW32842   4.840   4.009   5.624
10648SOL    HW132843   4.797   4.011   5.715
10648SOL    HW232844   4.813   4.091   5.573
10649SOL     OW32845   6.138   3.334   3.878
10649SOL    HW132846   6.157   3.238   3.859
10649SOL    HW232847   6.224   3.381   3.901
10650SOL     OW32848   0.880   6.908   2.636
10650SOL    HW132849   0.973   6.898   2.672
10650SOL    HW232850   0.819   6.934   2.710
10651SOL     OW32851   2.176   5.768   5.953
10651SOL    HW132852   2.140   5.843   6.008
10651SOL    HW232853   2.130   5.766   5.864
10652SOL     OW32854   2.635   0.643   6.917
10652SOL    HW132855   2.574   0.573   6.880
10652SOL    HW232856   2.675   0.611   7.003
10653SOL     OW32857   5.596   6.180   4.406
10653SOL    HW132858   5.569   6.252   4.470
10653SOL    HW232859   5.695   6.186   4.389
10654SOL     OW32860   6.255   1.267   4.313
10654SOL    HW132861   6.244   1.187   4.372
10654SOL    HW232862   6.174   1.277   4.255
10655SOL     OW32863   6.490   5.643   0.657
10655SOL    HW132864   6.404   5.593   0.658
10655SOL    HW232865   6.532   5.637   0.748
10656SOL     OW32866   6.143   0.747   6.040
10656SOL    HW132867   6.240   0.722   6.038
10656SOL    HW232868   6.125   0.804   6.120
10657SOL     OW32869   4.776   6.729   5.669
10657SOL    HW132870   4.866   6.753   5.633
10657SOL    HW232871   4.756   6.784   5.750
10658SOL     OW32872   0.748   1.508   5.978
10658SOL    HW132873   0.838   1.470   5.999
10658SOL    HW232874   0.753   1.561   5.894
10659SOL     OW32875   0.627   5.630   0.171
10659SOL    HW132876   0.670   5.714   0.137
10659SOL    HW232877   0.676   5.599   0.253
10660SOL     OW32878   6.059   2.468   6.762
10660SOL    HW132879   6.063   2.420   6.674
10660SOL    HW232880   6.118   2.421   6.828
10661SOL     OW32881   3.452   5.537   5.720
10661SOL    HW132882   3.392   5.595   5.775
10661SOL    HW232883   3.537   5.587   5.702
10662SOL     OW32884   3.012   1.174   0.704
10662SOL    HW132885   2.955   1.132   0.633
10662SOL    HW232886   3.047   1.104   0.765
10663SOL     OW32887   0.256   3.214   4.129
10663SOL    HW132888   0.324   3.286   4.117
10663SOL    HW232889   0.248   3.161   4.045
10664SOL     OW32890   1.082   6.265   5.059
10664SOL    HW132891   1.011   6.202   5.091
10664SOL    HW232892   1.104   6.245   4.964
10665SOL     OW32893   3.395   3.946   0.276
10665SOL    HW132894   3.390   3.872   0.209
10665SOL    HW232895   3.348   4.026   0.240
10666SOL     OW32896   4.424   3.601   1.008
10666SOL    HW132897   4.492   3.673   1.022
10666SOL    HW232898   4.437   3.530   1.078
10667SOL     OW32899   5.589   2.636   4.035
10667SOL    HW132900   5.546   2.719   4.069
10667SOL    HW232901   5.597   2.569   4.109
10668SOL     OW32902   3.574   3.623   5.890
10668SOL    HW132903   3.508   3.619   5.815
10668SOL    HW232904   3.583   3.532   5.930
10669SOL     OW32905   6.321   2.519   1.830
10669SOL    HW132906   6.287   2.559   1.745
10669SOL    HW232907   6.406   2.469   1.811
10670SOL     OW32908   4.899   4.624   3.822
10670SOL    HW132909   4.800   4.608   3.818
10670SOL    HW232910   4.938   4.574   3.899
10671SOL     OW32911   2.155   3.346   4.894
10671SOL    HW132912   2.126   3.425   4.948
10671SOL    HW232913   2.161   3.265   4.953
10672SOL     OW32914   6.041   4.715   1.341
10672SOL    HW132915   6.077   4.659   1.415
10672SOL    HW232916   6.081   4.807   1.346
10673SOL     OW32917   3.039   1.216   1.280
10673SOL    HW132918   3.083   1.302   1.254
10673SOL    HW232919   2.958   1.202   1.223
10674SOL     OW32920   3.863   3.453   4.378
10674SOL    HW132921   3.963   3.446   4.377
10674SOL    HW232922   3.823   3.368   4.344
10675SOL     OW32923   3.676   6.314   5.413
10675SOL    HW132924   3.650   6.268   5.497
10675SOL    HW232925   3.621   6.279   5.337
10676SOL     OW32926   1.434   1.016   4.768
10676SOL    HW132927   1.456   0.946   4.835
10676SOL    HW232928   1.473   1.104   4.797
10677SOL     OW32929   0.233   2.041   6.974
10677SOL    HW132930   0.267   2.017   0.043
10677SOL    HW232931   0.142   2.002   6.962
10678SOL     OW32932   3.822   5.269   2.467
10678SOL    HW132933   3.874   5.206   2.409
10678SOL    HW232934   3.729   5.232   2.480
10679SOL     OW32935   5.041   3.987   0.442
10679SOL    HW132936   5.020   4.057   0.510
10679SOL    HW232937   5.137   3.963   0.448
10680SOL     OW32938   5.045   0.946   5.514
10680SOL    HW132939   5.103   1.001   5.454
10680SOL    HW232940   4.965   0.999   5.540
10681SOL     OW32941   2.430   3.278   5.340
10681SOL    HW132942   2.481   3.363   5.354
10681SOL    HW232943   2.487   3.213   5.289
10682SOL     OW32944   4.967   3.354   6.174
10682SOL    HW132945   5.013   3.400   6.249
10682SOL    HW232946   5.034   3.306   6.118
10683SOL     OW32947   2.034   0.811   2.984
10683SOL    HW132948   2.035   0.725   2.932
10683SOL    HW232949   2.097   0.804   3.062
10684SOL     OW32950   4.943   4.328   1.326
10684SOL    HW132951   4.988   4.292   1.408
10684SOL    HW232952   4.930   4.254   1.260
10685SOL     OW32953   1.233   6.826   2.401
10685SOL    HW132954   1.174   6.857   2.326
10685SOL    HW232955   1.327   6.854   2.382
10686SOL     OW32956   2.503   1.448   6.655
10686SOL    HW132957   2.442   1.368   6.651
10686SOL    HW232958   2.464   1.516   6.717
10687SOL     OW32959   0.878   3.463   3.348
10687SOL    HW132960   0.847   3.455   3.443
10687SOL    HW232961   0.870   3.558   3.319
10688SOL     OW32962   4.956   1.363   3.641
10688SOL    HW132963   5.006   1.446   3.667
10688SOL    HW232964   5.021   1.294   3.608
10689SOL     OW32965   1.036   1.174   2.835
10689SOL    HW132966   1.069   1.255   2.883
10689SOL    HW232967   1.002   1.108   2.901
10690SOL     OW32968   1.149   6.546   5.117
10690SOL    HW132969   1.200   6.581   5.039
10690SOL    HW232970   1.123   6.450   5.100
10691SOL     OW32971   3.235   6.430   1.339
10691SOL    HW132972   3.304   6.481   1.391
10691SOL    HW232973   3.149   6.428   1.391
10692SOL     OW32974   2.766   1.998   4.260
10692SOL    HW132975   2.833   1.951   4.316
10692SOL    HW232976   2.782   1.977   4.164
10693SOL     OW32977   1.112   4.738   0.595
10693SOL    HW132978   1.071   4.655   0.556
10693SOL    HW232979   1.078   4.818   0.545
10694SOL     OW32980   4.494   0.762   5.026
10694SOL    HW132981   4.416   0.771   4.964
10694SOL    HW232982   4.461   0.754   5.120
10695SOL     OW32983   5.100   4.540   1.637
10695SOL    HW132984   5.019   4.597   1.652
10695SOL    HW232985   5.179   4.599   1.619
10696SOL     OW32986   6.590   4.555   4.456
10696SOL    HW132987   6.561   4.568   4.361
10696SOL    HW232988   6.561   4.465   4.487
10697SOL     OW32989   3.052   5.641   4.965
10697SOL    HW132990   3.147   5.625   4.991
10697SOL    HW232991   3.009   5.554   4.939
10698SOL     OW32992   3.741   4.001   0.180
10698SOL    HW132993   3.690   3.998   0.266
10698SOL    HW232994   3.697   4.065   0.117
10699SOL     OW32995   3.754   3.268   1.109
10699SOL    HW132996   3.657   3.259   1.085
10699SOL    HW232997   3.794   3.345   1.060
10700SOL     OW32998   4.866   0.388   1.361
10700SOL    HW132999   4.782   0.427   1.322
10700SOL    HW233000   4.852   0.291   1.381
10701SOL     OW33001   3.553   6.277   6.505
10701SOL    HW133002   3.463   6.258   6.544
10701SOL    HW233003   3.624   6.240   6.564
10702SOL     OW33004   5.747   1.840   2.076
10702SOL    HW133005   5.695   1.906   2.131
10702SOL    HW233006   5.842   1.837   2.109
10703SOL     OW33007   0.449   1.799   5.459
10703SOL    HW133008   0.519   1.864   5.487
10703SOL    HW233009   0.359   1.837   5.480
10704SOL     OW33010   5.240   6.698   2.400
10704SOL    HW133011   5.269   6.603   2.394
10704SOL    HW233012   5.227   6.723   2.496
10705SOL     OW33013   4.656   3.426   0.618
10705SOL    HW133014   4.685   3.334   0.589
10705SOL    HW233015   4.567   3.447   0.579
10706SOL     OW33016   3.394   0.994   1.535
10706SOL    HW133017   3.371   1.082   1.495
10706SOL    HW233018   3.442   0.938   1.467
10707SOL     OW33019   4.737   6.484   3.112
10707SOL    HW133020   4.797   6.549   3.064
10707SOL    HW233021   4.703   6.417   3.046
10708SOL     OW33022   4.220   1.055   1.773
10708SOL    HW133023   4.294   1.075   1.838
10708SOL    HW233024   4.202   0.956   1.773
10709SOL     OW33025   6.015   4.605   2.269
10709SOL    HW133026   6.080   4.573   2.339
10709SOL    HW233027   5.925   4.615   2.310
10710SOL     OW33028   4.481   1.622   3.528
10710SOL    HW133029   4.448   1.531   3.551
10710SOL    HW233030   4.491   1.677   3.611
10711SOL     OW33031   2.644   6.886   2.384
10711SOL    HW133032   2.681   6.795   2.402
10711SOL    HW233033   2.623   6.932   2.470
10712SOL     OW33034   5.392   0.445   3.574
10712SOL    HW133035   5.344   0.365   3.538
10712SOL    HW233036   5.386   0.445   3.674
10713SOL     OW33037   1.589   4.095   1.559
10713SOL    HW133038   1.501   4.052   1.539
10713SOL    HW233039   1.578   4.194   1.564
10714SOL     OW33040   3.078   4.137   5.194
10714SOL    HW133041   3.018   4.066   5.159
10714SOL    HW233042   3.168   4.098   5.215
10715SOL     OW33043   5.872   0.900   2.141
10715SOL    HW133044   5.854   0.925   2.046
10715SOL    HW233045   5.812   0.953   2.201
10716SOL     OW33046   5.068   0.902   3.171
10716SOL    HW133047   5.019   0.816   3.188
10716SOL    HW233048   5.032   0.974   3.230
10717SOL     OW33049   2.632   2.626   0.058
10717SOL    HW133050   2.583   2.713   0.052
10717SOL    HW233051   2.592   2.569   0.129
10718SOL     OW33052   1.533   4.630   6.241
10718SOL    HW133053   1.580   4.698   6.298
10718SOL    HW233054   1.570   4.539   6.261
10719SOL     OW33055   0.381   5.646   4.751
10719SOL    HW133056   0.439   5.695   4.686
10719SOL    HW233057   0.286   5.653   4.721
10720SOL     OW33058   0.294   5.015   3.279
10720SOL    HW133059   0.303   4.937   3.217
10720SOL    HW233060   0.336   5.095   3.237
10721SOL     OW33061   4.955   2.965   6.128
10721SOL    HW133062   4.918   2.885   6.082
10721SOL    HW233063   4.918   3.048   6.087
10722SOL     OW33064   0.294   3.520   5.521
10722SOL    HW133065   0.323   3.607   5.562
10722SOL    HW233066   0.314   3.446   5.585
10723SOL     OW33067   5.407   6.738   0.495
10723SOL    HW133068   5.474   6.669   0.466
10723SOL    HW233069   5.337   6.693   0.550
10724SOL     OW33070   0.126   6.578   6.829
10724SOL    HW133071   0.099   6.539   6.917
10724SOL    HW233072   0.080   6.666   6.816
10725SOL     OW33073   2.185   6.155   5.700
10725SOL    HW133074   2.147   6.069   5.663
10725SOL    HW233075   2.284   6.149   5.702
10726SOL     OW33076   4.227   0.957   3.679
10726SOL    HW133077   4.149   0.931   3.736
10726SOL    HW233078   4.276   1.033   3.722
10727SOL     OW33079   2.183   6.579   6.150
10727SOL    HW133080   2.157   6.573   6.247
10727SOL    HW233081   2.237   6.499   6.125
10728SOL     OW33082   5.207   5.545   0.662
10728SOL    HW133083   5.244   5.532   0.570
10728SOL    HW233084   5.109   5.523   0.662
10729SOL     OW33085   6.164   2.226   1.211
10729SOL    HW133086   6.163   2.176   1.297
10729SOL    HW233087   6.209   2.314   1.224
10730SOL     OW33088   4.403   0.356   2.476
10730SOL    HW133089   4.348   0.357   2.393
10730SOL    HW233090   4.455   0.271   2.481
10731SOL     OW33091   4.705   0.159   1.427
10731SOL    HW133092   4.636   0.221   1.464
10731SOL    HW233093   4.728   0.090   1.495
10732SOL     OW33094   0.859   3.568   5.671
10732SOL    HW133095   0.911   3.503   5.727
10732SOL    HW233096   0.896   3.660   5.684
10733SOL     OW33097   5.699   1.591   0.552
10733SOL    HW133098   5.650   1.577   0.467
10733SOL    HW233099   5.687   1.687   0.581
10734SOL     OW33100   6.592   2.935   2.070
10734SOL    HW133101   6.528   2.990   2.125
10734SOL    HW233102   6.681   2.980   2.068
10735SOL     OW33103   0.347   4.978   2.941
10735SOL    HW133104   0.431   5.014   2.983
10735SOL    HW233105   0.359   4.971   2.842
10736SOL     OW33106   2.144   0.526   3.962
10736SOL    HW133107   2.062   0.550   4.014
10736SOL    HW233108   2.213   0.489   4.025
10737SOL     OW33109   6.731   2.090   0.935
10737SOL    HW133110   6.761   2.005   0.892
10737SOL    HW233111   6.769   2.168   0.886
10738SOL     OW33112   3.932   0.269   3.637
10738SOL    HW133113   3.903   0.199   3.703
10738SOL    HW233114   4.021   0.306   3.665
10739SOL     OW33115   2.873   1.742   1.946
10739SOL    HW133116   2.786   1.702   1.975
10739SOL    HW233117   2.875   1.839   1.971
10740SOL     OW33118   4.484   5.327   3.154
10740SOL    HW133119   4.413   5.336   3.224
10740SOL    HW233120   4.444   5.291   3.070
10741SOL     OW33121   3.621   0.863   2.814
10741SOL    HW133122   3.569   0.778   2.814
10741SOL    HW233123   3.689   0.860   2.740
10742SOL     OW33124   6.665   5.447   0.496
10742SOL    HW133125   6.583   5.423   0.547
10742SOL    HW233126   6.724   5.505   0.553
10743SOL     OW33127   2.495   2.691   5.244
10743SOL    HW133128   2.461   2.720   5.154
10743SOL    HW233129   2.531   2.770   5.293
10744SOL     OW33130   5.549   1.996   0.490
10744SOL    HW133131   5.453   2.021   0.503
10744SOL    HW233132   5.582   1.948   0.571
10745SOL     OW33133   6.695   5.774   6.477
10745SOL    HW133134   6.720   5.737   6.388
10745SOL    HW233135   6.773   5.766   6.540
10746SOL     OW33136   0.985   4.208   5.939
10746SOL    HW133137   1.057   4.140   5.956
10746SOL    HW233138   0.954   4.201   5.844
10747SOL     OW33139   3.335   1.961   4.268
10747SOL    HW133140   3.334   2.015   4.184
10747SOL    HW233141   3.408   1.993   4.328
10748SOL     OW33142   4.996   1.463   2.329
10748SOL    HW133143   4.898   1.448   2.336
10748SOL    HW233144   5.041   1.380   2.295
10749SOL     OW33145   2.463   0.152   6.839
10749SOL    HW133146   2.486   0.096   6.759
10749SOL    HW233147   2.372   0.128   6.872
10750SOL     OW33148   4.133   6.983   6.265
10750SOL    HW133149   4.090   7.013   6.350
10750SOL    HW233150   4.223   6.944   6.285
10751SOL     OW33151   2.104   5.586   3.971
10751SOL    HW133152   2.117   5.647   3.893
10751SOL    HW233153   2.146   5.497   3.950
10752SOL     OW33154   5.344   4.907   3.902
10752SOL    HW133155   5.310   4.991   3.944
10752SOL    HW233156   5.280   4.832   3.923
10753SOL     OW33157   6.611   3.305   4.403
10753SOL    HW133158   6.593   3.229   4.466
10753SOL    HW233159   6.706   3.334   4.412
10754SOL     OW33160   0.992   0.109   2.540
10754SOL    HW133161   0.994   0.143   2.446
10754SOL    HW233162   0.922   0.037   2.547
10755SOL     OW33163   6.437   5.895   2.388
10755SOL    HW133164   6.400   5.814   2.434
10755SOL    HW233165   6.379   5.919   2.311
10756SOL     OW33166   0.719   0.057   5.555
10756SOL    HW133167   0.697   0.083   5.461
10756SOL    HW233168   0.811   0.019   5.558
10757SOL     OW33169   2.781   2.989   0.959
10757SOL    HW133170   2.855   2.970   1.024
10757SOL    HW233171   2.738   2.904   0.931
10758SOL     OW33172   0.681   4.998   3.953
10758SOL    HW133173   0.587   4.981   3.926
10758SOL    HW233174   0.709   4.930   4.021
10759SOL     OW33175   6.998   1.416   6.742
10759SOL    HW133176   6.938   1.441   6.818
10759SOL    HW233177   0.071   1.431   6.768
10760SOL     OW33178   5.618   1.488   4.805
10760SOL    HW133179   5.673   1.568   4.782
10760SOL    HW233180   5.676   1.406   4.800
10761SOL     OW33181   2.634   5.012   5.490
10761SOL    HW133182   2.552   4.957   5.507
10761SOL    HW233183   2.635   5.041   5.394
10762SOL     OW33184   2.856   1.389   4.783
10762SOL    HW133185   2.897   1.371   4.694
10762SOL    HW233186   2.926   1.382   4.854
10763SOL     OW33187   4.173   6.356   3.856
10763SOL    HW133188   4.158   6.433   3.793
10763SOL    HW233189   4.249   6.300   3.823
10764SOL     OW33190   4.721   0.290   4.843
10764SOL    HW133191   4.777   0.282   4.760
10764SOL    HW233192   4.685   0.200   4.868
10765SOL     OW33193   6.090   3.776   0.423
10765SOL    HW133194   6.159   3.817   0.482
10765SOL    HW233195   6.001   3.818   0.443
10766SOL     OW33196   3.449   3.453   1.423
10766SOL    HW133197   3.482   3.476   1.331
10766SOL    HW233198   3.438   3.354   1.431
10767SOL     OW33199   4.845   1.777   2.101
10767SOL    HW133200   4.797   1.787   2.188
10767SOL    HW233201   4.826   1.687   2.062
10768SOL     OW33202   5.960   4.737   6.756
10768SOL    HW133203   5.973   4.776   6.847
10768SOL    HW233204   5.921   4.645   6.764
10769SOL     OW33205   1.729   3.807   5.287
10769SOL    HW133206   1.774   3.722   5.315
10769SOL    HW233207   1.793   3.883   5.300
10770SOL     OW33208   3.708   6.065   3.676
10770SOL    HW133209   3.667   6.151   3.643
10770SOL    HW233210   3.740   6.077   3.770
10771SOL     OW33211   2.237   1.339   3.959
10771SOL    HW133212   2.267   1.362   3.866
10771SOL    HW233213   2.313   1.354   4.022
10772SOL     OW33214   5.268   5.792   3.239
10772SOL    HW133215   5.178   5.766   3.206
10772SOL    HW233216   5.337   5.731   3.200
10773SOL     OW33217   5.878   4.607   3.244
10773SOL    HW133218   5.805   4.552   3.285
10773SOL    HW233219   5.869   4.605   3.144
10774SOL     OW33220   0.402   0.024   3.220
10774SOL    HW133221   0.489   0.039   3.267
10774SOL    HW233222   0.332   0.002   3.287
10775SOL     OW33223   0.469   3.547   1.467
10775SOL    HW133224   0.566   3.534   1.444
10775SOL    HW233225   0.461   3.616   1.539
10776SOL     OW33226   1.447   0.408   6.195
10776SOL    HW133227   1.354   0.445   6.205
10776SOL    HW233228   1.492   0.406   6.285
10777SOL     OW33229   2.555   5.935   1.206
10777SOL    HW133230   2.534   5.922   1.303
10777SOL    HW233231   2.496   5.877   1.151
10778SOL     OW33232   5.853   5.824   2.533
10778SOL    HW133233   5.863   5.780   2.443
10778SOL    HW233234   5.832   5.755   2.602
10779SOL     OW33235   4.905   2.733   3.823
10779SOL    HW133236   4.881   2.705   3.916
10779SOL    HW233237   4.869   2.825   3.806
10780SOL     OW33238   6.709   0.429   2.544
10780SOL    HW133239   6.624   0.478   2.525
10780SOL    HW233240   6.752   0.467   2.626
10781SOL     OW33241   3.423   0.024   3.994
10781SOL    HW133242   3.355   0.027   3.921
10781SOL    HW233243   3.511   7.014   3.957
10782SOL     OW33244   6.094   5.255   3.608
10782SOL    HW133245   6.163   5.304   3.662
10782SOL    HW233246   6.005   5.263   3.652
10783SOL     OW33247   0.112   2.191   3.512
10783SOL    HW133248   0.068   2.170   3.425
10783SOL    HW233249   0.210   2.177   3.505
10784SOL     OW33250   2.789   1.580   4.387
10784SOL    HW133251   2.880   1.606   4.420
10784SOL    HW233252   2.721   1.641   4.428
10785SOL     OW33253   1.181   3.470   6.095
10785SOL    HW133254   1.154   3.522   6.176
10785SOL    HW233255   1.175   3.372   6.115
10786SOL     OW33256   0.361   4.549   3.715
10786SOL    HW133257   0.318   4.636   3.739
10786SOL    HW233258   0.334   4.479   3.782
10787SOL     OW33259   1.910   2.619   6.134
10787SOL    HW133260   1.924   2.718   6.124
10787SOL    HW233261   1.998   2.574   6.147
10788SOL     OW33262   5.849   3.792   5.885
10788SOL    HW133263   5.847   3.703   5.931
10788SOL    HW233264   5.910   3.789   5.807
10789SOL     OW33265   5.812   1.697   0.956
10789SOL    HW133266   5.899   1.704   0.909
10789SOL    HW233267   5.783   1.601   0.960
10790SOL     OW33268   0.159   6.385   3.178
10790SOL    HW133269   0.237   6.356   3.123
10790SOL    HW233270   0.152   6.485   3.175
10791SOL     OW33271   0.681   6.276   2.520
10791SOL    HW133272   0.626   6.353   2.488
10791SOL    HW233273   0.778   6.294   2.502
10792SOL     OW33274   3.841   4.178   5.574
10792SOL    HW133275   3.797   4.266   5.556
10792SOL    HW233276   3.833   4.120   5.493
10793SOL     OW33277   6.367   3.863   4.193
10793SOL    HW133278   6.457   3.823   4.207
10793SOL    HW233279   6.375   3.943   4.134
10794SOL     OW33280   3.023   3.834   4.223
10794SOL    HW133281   3.079   3.876   4.151
10794SOL    HW233282   3.022   3.894   4.303
10795SOL     OW33283   6.992   5.220   2.973
10795SOL    HW133284   6.950   5.189   2.888
10795SOL    HW233285   6.924   5.266   3.030
10796SOL     OW33286   1.481   6.020   5.738
10796SOL    HW133287   1.494   5.945   5.802
10796SOL    HW233288   1.433   6.095   5.784
10797SOL     OW33289   3.458   2.524   0.193
10797SOL    HW133290   3.549   2.512   0.151
10797SOL    HW233291   3.468   2.575   0.278
10798SOL     OW33292   6.670   1.309   1.058
10798SOL    HW133293   6.715   1.375   1.118
10798SOL    HW233294   6.699   1.216   1.083
10799SOL     OW33295   4.915   1.974   1.045
10799SOL    HW133296   4.929   2.002   0.950
10799SOL    HW233297   4.925   1.875   1.052
10800SOL     OW33298   0.005   6.732   1.776
10800SOL    HW133299   6.961   6.802   1.749
10800SOL    HW233300   0.076   6.725   1.706
10801SOL     OW33301   1.719   0.706   1.126
10801SOL    HW133302   1.807   0.663   1.107
10801SOL    HW233303   1.733   0.796   1.167
10802SOL     OW33304   6.484   1.246   3.355
10802SOL    HW133305   6.406   1.183   3.355
10802SOL    HW233306   6.567   1.194   3.336
10803SOL     OW33307   2.248   5.295   6.074
10803SOL    HW133308   2.303   5.262   6.150
10803SOL    HW233309   2.290   5.268   5.988
10804SOL     OW33310   0.067   2.867   4.392
10804SOL    HW133311   0.149   2.917   4.422
10804SOL    HW233312   0.042   2.799   4.462
10805SOL     OW33313   6.462   1.045   6.410
10805SOL    HW133314   6.434   0.949   6.401
10805SOL    HW233315   6.477   1.084   6.320
10806SOL     OW33316   1.315   5.313   0.019
10806SOL    HW133317   1.234   5.287   0.072
10806SOL    HW233318   1.396   5.308   0.078
10807SOL     OW33319   3.015   5.992   5.217
10807SOL    HW133320   3.097   5.969   5.165
10807SOL    HW233321   2.991   5.917   5.279
10808SOL     OW33322   1.048   3.061   6.116
10808SOL    HW133323   0.986   3.139   6.103
10808SOL    HW233324   1.128   3.073   6.058
10809SOL     OW33325   1.620   0.119   4.943
10809SOL    HW133326   1.658   0.026   4.937
10809SOL    HW233327   1.695   0.184   4.959
10810SOL     OW33328   6.468   0.662   4.089
10810SOL    HW133329   6.447   0.738   4.149
10810SOL    HW233330   6.383   0.623   4.052
10811SOL     OW33331   4.953   5.099   4.740
10811SOL    HW133332   4.894   5.065   4.667
10811SOL    HW233333   4.926   5.193   4.763
10812SOL     OW33334   6.721   3.198   0.393
10812SOL    HW133335   6.730   3.283   0.445
10812SOL    HW233336   6.769   3.207   0.306
10813SOL     OW33337   0.738   3.064   6.390
10813SOL    HW133338   0.732   3.058   6.291
10813SOL    HW233339   0.677   3.136   6.423
10814SOL     OW33340   3.181   1.537   0.766
10814SOL    HW133341   3.099   1.594   0.772
10814SOL    HW233342   3.199   1.494   0.855
10815SOL     OW33343   5.310   0.938   4.603
10815SOL    HW133344   5.402   0.978   4.608
10815SOL    HW233345   5.303   0.881   4.521
10816SOL     OW33346   3.103   3.042   4.617
10816SOL    HW133347   3.050   3.121   4.585
10816SOL    HW233348   3.094   3.034   4.716
10817SOL     OW33349   1.527   6.429   3.943
10817SOL    HW133350   1.446   6.436   4.001
10817SOL    HW233351   1.571   6.518   3.936
10818SOL     OW33352   3.775   4.373   6.865
10818SOL    HW133353   3.845   4.340   6.928
10818SOL    HW233354   3.818   4.391   6.776
10819SOL     OW33355   6.532   6.498   5.353
10819SOL    HW133356   6.547   6.501   5.254
10819SOL    HW233357   6.434   6.499   5.372
10820SOL     OW33358   2.752   4.485   6.029
10820SOL    HW133359   2.725   4.492   5.933
10820SOL    HW233360   2.699   4.550   6.083
10821SOL     OW33361   4.717   5.410   2.797
10821SOL    HW133362   4.775   5.376   2.871
10821SOL    HW233363   4.765   5.484   2.750
10822SOL     OW33364   5.767   1.160   2.471
10822SOL    HW133365   5.737   1.095   2.401
10822SOL    HW233366   5.867   1.160   2.476
10823SOL     OW33367   5.416   6.693   1.237
10823SOL    HW133368   5.376   6.778   1.202
10823SOL    HW233369   5.381   6.615   1.185
10824SOL     OW33370   1.095   2.966   3.900
10824SOL    HW133371   1.109   2.971   3.999
10824SOL    HW233372   1.147   3.038   3.855
10825SOL     OW33373   0.450   2.659   0.686
10825SOL    HW133374   0.469   2.565   0.658
10825SOL    HW233375   0.453   2.665   0.786
10826SOL     OW33376   6.959   3.657   2.847
10826SOL    HW133377   6.980   3.698   2.758
10826SOL    HW233378   6.865   3.625   2.847
10827SOL     OW33379   0.285   3.607   4.734
10827SOL    HW133380   0.265   3.629   4.638
10827SOL    HW233381   0.276   3.508   4.748
10828SOL     OW33382   6.466   4.211   5.161
10828SOL    HW133383   6.492   4.239   5.254
10828SOL    HW233384   6.523   4.134   5.132
10829SOL     OW33385   3.553   2.985   5.518
10829SOL    HW133386   3.518   3.076   5.539
10829SOL    HW233387   3.556   2.973   5.419
10830SOL     OW33388   4.883   2.049   3.198
10830SOL    HW133389   4.901   2.065   3.101
10830SOL    HW233390   4.785   2.044   3.214
10831SOL     OW33391   4.195   6.964   3.743
10831SOL    HW133392   4.214   6.939   3.648
10831SOL    HW233393   4.109   7.013   3.748
10832SOL     OW33394   6.638   2.532   0.060
10832SOL    HW133395   6.736   2.534   0.045
10832SOL    HW233396   6.591   2.559   6.998
10833SOL     OW33397   0.653   1.283   7.007
10833SOL    HW133398   0.622   1.370   6.969
10833SOL    HW233399   0.678   1.222   6.932
10834SOL     OW33400   5.949   6.374   1.451
10834SOL    HW133401   6.004   6.447   1.410
10834SOL    HW233402   5.854   6.383   1.421
10835SOL     OW33403   7.009   2.388   5.241
10835SOL    HW133404   6.929   2.418   5.291
10835SOL    HW233405   0.047   2.466   5.223
10836SOL     OW33406   0.219   1.278   3.497
10836SOL    HW133407   0.286   1.204   3.491
10836SOL    HW233408   0.263   1.361   3.530
10837SOL     OW33409   0.620   3.261   4.044
10837SOL    HW133410   0.553   3.312   4.097
10837SOL    HW233411   0.578   3.178   4.008
10838SOL     OW33412   0.507   5.906   2.437
10838SOL    HW133413   0.549   5.819   2.409
10838SOL    HW233414   0.548   5.936   2.523
10839SOL     OW33415   4.613   2.956   0.520
10839SOL    HW133416   4.616   2.888   0.447
10839SOL    HW233417   4.572   2.916   0.602
10840SOL     OW33418   2.097   0.475   1.655
10840SOL    HW133419   2.165   0.413   1.694
10840SOL    HW233420   2.031   0.423   1.601
10841SOL     OW33421   2.255   5.748   4.872
10841SOL    HW133422   2.287   5.717   4.962
10841SOL    HW233423   2.296   5.690   4.801
10842SOL     OW33424   5.779   4.734   2.294
10842SOL    HW133425   5.688   4.775   2.282
10842SOL    HW233426   5.837   4.759   2.216
10843SOL     OW33427   3.009   1.776   1.483
10843SOL    HW133428   2.968   1.865   1.504
10843SOL    HW233429   3.019   1.766   1.384
10844SOL     OW33430   1.634   5.357   5.358
10844SOL    HW133431   1.565   5.333   5.426
10844SOL    HW233432   1.686   5.276   5.333
10845SOL     OW33433   3.961   0.003   4.260
10845SOL    HW133434   3.976   6.979   4.348
10845SOL    HW233435   3.868   0.038   4.257
10846SOL     OW33436   5.805   0.149   6.022
10846SOL    HW133437   5.890   0.107   5.992
10846SOL    HW233438   5.815   0.183   6.116
10847SOL     OW33439   3.349   0.437   6.482
10847SOL    HW133440   3.253   0.438   6.510
10847SOL    HW233441   3.403   0.387   6.550
10848SOL     OW33442   1.763   4.139   1.792
10848SOL    HW133443   1.716   4.088   1.720
10848SOL    HW233444   1.861   4.120   1.788
10849SOL     OW33445   2.398   6.458   2.871
10849SOL    HW133446   2.452   6.509   2.804
10849SOL    HW233447   2.306   6.443   2.835
10850SOL     OW33448   4.284   4.252   0.877
10850SOL    HW133449   4.311   4.164   0.917
10850SOL    HW233450   4.316   4.259   0.783
10851SOL     OW33451   1.460   4.273   0.565
10851SOL    HW133452   1.402   4.192   0.573
10851SOL    HW233453   1.537   4.253   0.504
10852SOL     OW33454   2.389   2.134   2.434
10852SOL    HW133455   2.359   2.043   2.405
10852SOL    HW233456   2.474   2.157   2.386
10853SOL     OW33457   3.389   1.349   5.931
10853SOL    HW133458   3.414   1.432   5.882
10853SOL    HW233459   3.440   1.344   6.017
10854SOL     OW33460   3.044   6.036   5.934
10854SOL    HW133461   3.060   6.082   5.847
10854SOL    HW233462   2.947   6.014   5.943
10855SOL     OW33463   4.062   1.548   0.125
10855SOL    HW133464   4.035   1.511   0.036
10855SOL    HW233465   4.101   1.639   0.114
10856SOL     OW33466   0.900   1.212   0.581
10856SOL    HW133467   0.919   1.275   0.656
10856SOL    HW233468   0.967   1.227   0.508
10857SOL     OW33469   6.898   2.822   2.118
10857SOL    HW133470   6.951   2.745   2.080
10857SOL    HW233471   6.874   2.801   2.213
10858SOL     OW33472   2.529   6.263   2.148
10858SOL    HW133473   2.502   6.310   2.232
10858SOL    HW233474   2.629   6.257   2.145
10859SOL     OW33475   1.634   5.437   3.509
10859SOL    HW133476   1.715   5.386   3.536
10859SOL    HW233477   1.552   5.388   3.541
10860SOL     OW33478   6.863   4.156   3.307
10860SOL    HW133479   6.786   4.204   3.265
10860SOL    HW233480   6.829   4.093   3.377
10861SOL     OW33481   3.714   2.772   5.647
10861SOL    HW133482   3.695   2.689   5.595
10861SOL    HW233483   3.643   2.840   5.627
10862SOL     OW33484   0.671   0.768   5.077
10862SOL    HW133485   0.634   0.784   4.986
10862SOL    HW233486   0.727   0.684   5.076
10863SOL     OW33487   2.577   6.377   4.514
10863SOL    HW133488   2.634   6.295   4.512
10863SOL    HW233489   2.581   6.418   4.605
10864SOL     OW33490   3.571   6.185   2.941
10864SOL    HW133491   3.481   6.189   2.985
10864SOL    HW233492   3.574   6.248   2.865
10865SOL     OW33493   6.340   1.707   6.151
10865SOL    HW133494   6.349   1.607   6.152
10865SOL    HW233495   6.428   1.748   6.174
10866SOL     OW33496   5.436   5.085   6.830
10866SOL    HW133497   5.378   5.159   6.864
10866SOL    HW233498   5.525   5.123   6.803
10867SOL     OW33499   2.770   1.389   6.632
10867SOL    HW133500   2.673   1.386   6.655
10867SOL    HW233501   2.822   1.340   6.702
10868SOL     OW33502   2.565   2.470   3.302
10868SOL    HW133503   2.658   2.455   3.337
10868SOL    HW233504   2.534   2.387   3.255
10869NA      NA33505   6.245   2.432   5.721
10870NA      NA33506   4.333   4.665   5.202
10871NA      NA33507   2.222   3.599   1.736
10872NA      NA33508   4.934   3.649   5.242
10873NA      NA33509   4.070   2.401   5.337
10874NA      NA33510   3.837   4.737   1.715
10875NA      NA33511   6.646   5.976   4.625
10876NA      NA33512   3.443   3.450   4.767
10877NA      NA33513   4.675   6.650   6.256
10878NA      NA33514   2.658   0.501   5.077
10879NA      NA33515   0.486   4.672   2.505
10880NA      NA33516   2.645   0.458   2.832
10881NA      NA33517   3.466   4.271   1.398
10882NA      NA33518   3.328   3.120   2.846
   7.02216   7.02216   7.02216
