Generated by trjconv : CNT in water t= 536.00000
33518
    1C        C    1   2.848   2.768   4.747
    1C        C    2   2.903   2.721   4.868
    1C        C    3   2.847   2.775   4.984
    1C        C    4   2.844   2.771   4.262
    1C        C    5   2.898   2.721   4.382
    1C        C    6   2.848   2.773   4.504
    1C        C    7   3.011   2.634   4.626
    1C        C    8   2.900   2.722   4.624
    1C        C    9   3.076   2.600   4.747
    1C        C   10   3.012   2.631   4.869
    1C        C   11   3.185   2.496   4.979
    1C        C   12   3.062   2.564   4.981
    1C        C   13   2.848   2.766   3.774
    1C        C   14   2.900   2.720   3.897
    1C        C   15   2.847   2.768   4.019
    1C        C   16   3.016   2.643   4.140
    1C        C   17   2.901   2.724   4.142
    1C        C   18   3.080   2.610   4.262
    1C        C   19   3.019   2.647   4.384
    1C        C   20   3.212   2.561   4.505
    1C        C   21   3.077   2.602   4.505
    1C        C   22   3.279   2.532   4.626
    1C        C   23   3.207   2.544   4.747
    1C        C   24   3.413   2.482   4.867
    1C        C   25   3.271   2.500   4.865
    1C        C   26   3.494   2.480   4.981
    1C        C   27   2.848   2.764   3.284
    1C        C   28   2.903   2.721   3.407
    1C        C   29   2.852   2.766   3.531
    1C        C   30   3.020   2.636   3.651
    1C        C   31   2.906   2.721   3.653
    1C        C   32   3.080   2.603   3.775
    1C        C   33   3.017   2.642   3.895
    1C        C   34   3.209   2.554   4.018
    1C        C   35   3.079   2.609   4.018
    1C        C   36   3.279   2.537   4.139
    1C        C   37   3.212   2.561   4.262
    1C        C   38   3.418   2.510   4.381
    1C        C   39   3.280   2.537   4.383
    1C        C   40   3.490   2.504   4.503
    1C        C   41   3.418   2.509   4.625
    1C        C   42   3.630   2.489   4.746
    1C        C   43   3.488   2.491   4.746
    1C        C   44   3.708   2.484   4.864
    1C        C   45   3.633   2.474   4.982
    1C        C   46   2.842   2.756   2.795
    1C        C   47   2.898   2.716   2.918
    1C        C   48   2.847   2.765   3.041
    1C        C   49   3.017   2.635   3.163
    1C        C   50   2.902   2.717   3.162
    1C        C   51   3.081   2.605   3.286
    1C        C   52   3.018   2.639   3.408
    1C        C   53   3.212   2.549   3.526
    1C        C   54   3.082   2.604   3.529
    1C        C   55   3.278   2.529   3.649
    1C        C   56   3.210   2.549   3.772
    1C        C   57   3.415   2.507   3.897
    1C        C   58   3.276   2.532   3.896
    1C        C   59   3.488   2.507   4.018
    1C        C   60   3.418   2.511   4.140
    1C        C   61   3.632   2.504   4.262
    1C        C   62   3.491   2.500   4.260
    1C        C   63   3.703   2.512   4.384
    1C        C   64   3.631   2.506   4.505
    1C        C   65   3.840   2.539   4.626
    1C        C   66   3.704   2.503   4.626
    1C        C   67   3.908   2.562   4.748
    1C        C   68   3.843   2.522   4.867
    1C        C   69   4.054   2.582   4.982
    1C        C   70   3.926   2.525   4.981
    1C        C   71   2.831   2.740   2.311
    1C        C   72   2.887   2.696   2.433
    1C        C   73   2.830   2.745   2.552
    1C        C   74   3.006   2.622   2.672
    1C        C   75   2.891   2.704   2.673
    1C        C   76   3.069   2.594   2.795
    1C        C   77   3.014   2.636   2.918
    1C        C   78   3.208   2.549   3.036
    1C        C   79   3.076   2.598   3.040
    1C        C   80   3.277   2.529   3.158
    1C        C   81   3.212   2.553   3.282
    1C        C   82   3.417   2.498   3.404
    1C        C   83   3.279   2.527   3.403
    1C        C   84   3.488   2.495   3.527
    1C        C   85   3.418   2.506   3.648
    1C        C   86   3.625   2.502   3.771
    1C        C   87   3.484   2.501   3.773
    1C        C   88   3.697   2.511   3.893
    1C        C   89   3.629   2.507   4.017
    1C        C   90   3.837   2.544   4.139
    1C        C   91   3.701   2.509   4.139
    1C        C   92   3.905   2.568   4.261
    1C        C   93   3.842   2.541   4.384
    1C        C   94   4.035   2.631   4.503
    1C        C   95   3.910   2.564   4.506
    1C        C   96   4.095   2.668   4.625
    1C        C   97   4.037   2.621   4.745
    1C        C   98   4.194   2.762   4.865
    1C        C   99   4.103   2.652   4.867
    1C        C  100   4.213   2.840   4.979
    1C        C  101   2.823   2.726   2.071
    1C        C  102   2.992   2.592   2.193
    1C        C  103   2.881   2.683   2.191
    1C        C  104   3.064   2.570   2.314
    1C        C  105   3.004   2.618   2.433
    1C        C  106   3.205   2.537   2.554
    1C        C  107   3.073   2.587   2.553
    1C        C  108   3.275   2.523   2.676
    1C        C  109   3.200   2.541   2.794
    1C        C  110   3.413   2.501   2.917
    1C        C  111   3.274   2.526   2.914
    1C        C  112   3.486   2.493   3.037
    1C        C  113   3.416   2.507   3.159
    1C        C  114   3.627   2.497   3.281
    1C        C  115   3.486   2.496   3.281
    1C        C  116   3.699   2.507   3.403
    1C        C  117   3.629   2.501   3.526
    1C        C  118   3.834   2.542   3.647
    1C        C  119   3.697   2.510   3.650
    1C        C  120   3.899   2.567   3.771
    1C        C  121   3.832   2.552   3.894
    1C        C  122   4.026   2.638   4.014
    1C        C  123   3.900   2.576   4.016
    1C        C  124   4.087   2.674   4.137
    1C        C  125   4.030   2.633   4.260
    1C        C  126   4.201   2.761   4.379
    1C        C  127   4.093   2.670   4.381
    1C        C  128   4.246   2.818   4.500
    1C        C  129   4.199   2.765   4.622
    1C        C  130   4.331   2.931   4.743
    1C        C  131   4.247   2.816   4.744
    1C        C  132   4.360   3.000   4.862
    1C        C  133   4.295   2.953   4.977
    1C        C  134   3.172   2.467   2.084
    1C        C  135   3.039   2.508   2.087
    1C        C  136   3.260   2.484   2.192
    1C        C  137   3.197   2.520   2.313
    1C        C  138   3.408   2.477   2.429
    1C        C  139   3.269   2.502   2.433
    1C        C  140   3.481   2.487   2.549
    1C        C  141   3.414   2.499   2.673
    1C        C  142   3.626   2.495   2.792
    1C        C  143   3.485   2.494   2.795
    1C        C  144   3.697   2.502   2.914
    1C        C  145   3.628   2.499   3.037
    1C        C  146   3.834   2.538   3.158
    1C        C  147   3.698   2.502   3.159
    1C        C  148   3.903   2.565   3.279
    1C        C  149   3.836   2.542   3.402
    1C        C  150   4.029   2.625   3.524
    1C        C  151   3.901   2.564   3.525
    1C        C  152   4.084   2.668   3.646
    1C        C  153   4.024   2.633   3.769
    1C        C  154   4.195   2.762   3.889
    1C        C  155   4.082   2.678   3.891
    1C        C  156   4.248   2.809   4.011
    1C        C  157   4.197   2.762   4.134
    1C        C  158   4.335   2.924   4.254
    1C        C  159   4.248   2.811   4.256
    1C        C  160   4.375   2.984   4.375
    1C        C  161   4.327   2.934   4.498
    1C        C  162   4.440   3.112   4.617
    1C        C  163   4.368   2.991   4.620
    1C        C  164   4.470   3.180   4.737
    1C        C  165   4.436   3.119   4.859
    1C        C  166   4.507   3.324   4.976
    1C        C  167   4.476   3.189   4.974
    1C        C  168   3.480   2.432   2.077
    1C        C  169   3.399   2.458   2.188
    1C        C  170   3.618   2.462   2.307
    1C        C  171   3.476   2.459   2.307
    1C        C  172   3.693   2.492   2.423
    1C        C  173   3.623   2.491   2.546
    1C        C  174   3.828   2.543   2.669
    1C        C  175   3.693   2.503   2.668
    1C        C  176   3.895   2.570   2.791
    1C        C  177   3.833   2.541   2.914
    1C        C  178   4.031   2.620   3.035
    1C        C  179   3.902   2.561   3.036
    1C        C  180   4.092   2.657   3.156
    1C        C  181   4.031   2.624   3.279
    1C        C  182   4.200   2.750   3.400
    1C        C  183   4.092   2.659   3.402
    1C        C  184   4.248   2.804   3.522
    1C        C  185   4.197   2.753   3.644
    1C        C  186   4.335   2.917   3.764
    1C        C  187   4.246   2.807   3.765
    1C        C  188   4.372   2.978   3.885
    1C        C  189   4.335   2.920   4.009
    1C        C  190   4.443   3.104   4.129
    1C        C  191   4.374   2.980   4.131
    1C        C  192   4.470   3.173   4.249
    1C        C  193   4.440   3.110   4.372
    1C        C  194   4.504   3.313   4.492
    1C        C  195   4.463   3.178   4.494
    1C        C  196   4.514   3.386   4.613
    1C        C  197   4.506   3.318   4.736
    1C        C  198   4.547   3.535   4.850
    1C        C  199   4.523   3.394   4.855
    1C        C  200   4.587   3.621   4.958
    1C        C  201   3.618   2.412   2.074
    1C        C  202   3.829   2.507   2.183
    1C        C  203   3.694   2.459   2.186
    1C        C  204   3.902   2.534   2.302
    1C        C  205   3.830   2.523   2.423
    1C        C  206   4.022   2.617   2.543
    1C        C  207   3.893   2.559   2.544
    1C        C  208   4.086   2.653   2.664
    1C        C  209   4.025   2.626   2.789
    1C        C  210   4.196   2.748   2.911
    1C        C  211   4.088   2.658   2.911
    1C        C  212   4.255   2.795   3.030
    1C        C  213   4.205   2.742   3.152
    1C        C  214   4.336   2.906   3.272
    1C        C  215   4.249   2.795   3.275
    1C        C  216   4.374   2.968   3.393
    1C        C  217   4.337   2.913   3.518
    1C        C  218   4.433   3.102   3.639
    1C        C  219   4.375   2.973   3.640
    1C        C  220   4.456   3.170   3.760
    1C        C  221   4.435   3.105   3.884
    1C        C  222   4.500   3.307   4.003
    1C        C  223   4.466   3.170   4.006
    1C        C  224   4.510   3.379   4.124
    1C        C  225   4.502   3.310   4.247
    1C        C  226   4.513   3.523   4.367
    1C        C  227   4.515   3.381   4.369
    1C        C  228   4.516   3.598   4.486
    1C        C  229   4.525   3.527   4.607
    1C        C  230   4.497   3.741   4.728
    1C        C  231   4.530   3.603   4.726
    1C        C  232   4.488   3.818   4.846
    1C        C  233   4.547   3.756   4.957
    1C        C  234   4.020   2.604   2.067
    1C        C  235   3.895   2.544   2.066
    1C        C  236   4.090   2.647   2.181
    1C        C  237   4.025   2.606   2.300
    1C        C  238   4.199   2.733   2.421
    1C        C  239   4.086   2.647   2.421
    1C        C  240   4.252   2.785   2.541
    1C        C  241   4.196   2.741   2.663
    1C        C  242   4.336   2.900   2.785
    1C        C  243   4.245   2.792   2.786
    1C        C  244   4.378   2.962   2.905
    1C        C  245   4.344   2.904   3.029
    1C        C  246   4.436   3.095   3.150
    1C        C  247   4.380   2.965   3.152
    1C        C  248   4.455   3.163   3.272
    1C        C  249   4.428   3.099   3.395
    1C        C  250   4.493   3.303   3.514
    1C        C  251   4.456   3.167   3.516
    1C        C  252   4.508   3.372   3.636
    1C        C  253   4.495   3.306   3.760
    1C        C  254   4.520   3.517   3.877
    1C        C  255   4.512   3.376   3.881
    1C        C  256   4.515   3.588   3.999
    1C        C  257   4.511   3.520   4.123
    1C        C  258   4.489   3.733   4.243
    1C        C  259   4.507   3.593   4.244
    1C        C  260   4.464   3.803   4.363
    1C        C  261   4.488   3.737   4.485
    1C        C  262   4.430   3.943   4.604
    1C        C  263   4.476   3.809   4.606
    1C        C  264   4.403   4.012   4.723
    1C        C  265   4.428   3.945   4.845
    1C        C  266   4.313   4.133   4.961
    1C        C  267   4.387   4.015   4.959
    1C        C  268   4.264   2.773   2.060
    1C        C  269   4.203   2.731   2.179
    1C        C  270   4.346   2.891   2.300
    1C        C  271   4.255   2.782   2.300
    1C        C  272   4.386   2.953   2.421
    1C        C  273   4.340   2.895   2.541
    1C        C  274   4.447   3.081   2.661
    1C        C  275   4.376   2.959   2.662
    1C        C  276   4.474   3.150   2.781
    1C        C  277   4.447   3.085   2.903
    1C        C  278   4.497   3.291   3.025
    1C        C  279   4.468   3.153   3.026
    1C        C  280   4.507   3.366   3.145
    1C        C  281   4.494   3.299   3.268
    1C        C  282   4.511   3.511   3.389
    1C        C  283   4.506   3.370   3.390
    1C        C  284   4.511   3.583   3.511
    1C        C  285   4.511   3.513   3.634
    1C        C  286   4.488   3.727   3.754
    1C        C  287   4.511   3.587   3.754
    1C        C  288   4.473   3.796   3.876
    1C        C  289   4.491   3.727   3.999
    1C        C  290   4.426   3.932   4.116
    1C        C  291   4.475   3.800   4.119
    1C        C  292   4.398   4.003   4.235
    1C        C  293   4.420   3.937   4.358
    1C        C  294   4.324   4.125   4.479
    1C        C  295   4.397   4.003   4.481
    1C        C  296   4.284   4.188   4.599
    1C        C  297   4.330   4.135   4.721
    1C        C  298   4.205   4.318   4.838
    1C        C  299   4.284   4.199   4.840
    1C        C  300   4.177   4.410   4.944
    1C        C  301   4.352   2.881   2.062
    1C        C  302   4.470   3.068   2.179
    1C        C  303   4.395   2.946   2.178
    1C        C  304   4.479   3.143   2.299
    1C        C  305   4.455   3.076   2.421
    1C        C  306   4.510   3.285   2.538
    1C        C  307   4.482   3.147   2.541
    1C        C  308   4.514   3.359   2.658
    1C        C  309   4.495   3.290   2.780
    1C        C  310   4.514   3.501   2.901
    1C        C  311   4.505   3.360   2.902
    1C        C  312   4.512   3.576   3.021
    1C        C  313   4.510   3.507   3.144
    1C        C  314   4.489   3.720   3.268
    1C        C  315   4.505   3.579   3.266
    1C        C  316   4.466   3.789   3.388
    1C        C  317   4.492   3.723   3.511
    1C        C  318   4.430   3.928   3.627
    1C        C  319   4.479   3.796   3.631
    1C        C  320   4.400   3.993   3.749
    1C        C  321   4.427   3.929   3.872
    1C        C  322   4.318   4.113   3.991
    1C        C  323   4.393   3.993   3.993
    1C        C  324   4.281   4.176   4.111
    1C        C  325   4.330   4.128   4.234
    1C        C  326   4.193   4.289   4.354
    1C        C  327   4.288   4.185   4.356
    1C        C  328   4.143   4.343   4.475
    1C        C  329   4.197   4.299   4.598
    1C        C  330   4.029   4.439   4.714
    1C        C  331   4.144   4.356   4.715
    1C        C  332   3.969   4.492   4.830
    1C        C  333   4.055   4.478   4.941
    1C        C  334   4.559   3.267   2.065
    1C        C  335   4.535   3.129   2.067
    1C        C  336   4.537   3.348   2.177
    1C        C  337   4.513   3.281   2.299
    1C        C  338   4.526   3.498   2.412
    1C        C  339   4.525   3.357   2.417
    1C        C  340   4.517   3.570   2.533
    1C        C  341   4.516   3.500   2.656
    1C        C  342   4.489   3.710   2.775
    1C        C  343   4.510   3.571   2.778
    1C        C  344   4.477   3.782   2.896
    1C        C  345   4.492   3.716   3.020
    1C        C  346   4.428   3.918   3.139
    1C        C  347   4.471   3.784   3.143
    1C        C  348   4.397   3.986   3.259
    1C        C  349   4.423   3.923   3.383
    1C        C  350   4.327   4.113   3.503
    1C        C  351   4.400   3.992   3.504
    1C        C  352   4.280   4.168   3.624
    1C        C  353   4.325   4.113   3.746
    1C        C  354   4.182   4.272   3.868
    1C        C  355   4.278   4.169   3.867
    1C        C  356   4.128   4.327   3.987
    1C        C  357   4.183   4.278   4.108
    1C        C  358   4.021   4.410   4.232
    1C        C  359   4.137   4.329   4.231
    1C        C  360   3.958   4.451   4.352
    1C        C  361   4.024   4.419   4.473
    1C        C  362   3.833   4.520   4.592
    1C        C  363   3.964   4.467   4.591
    1C        C  364   3.764   4.551   4.711
    1C        C  365   3.839   4.547   4.830
    1C        C  366   3.628   4.586   4.951
    1C        C  367   3.767   4.577   4.947
    1C        C  368   4.508   3.565   2.056
    1C        C  369   4.530   3.489   2.172
    1C        C  370   4.507   3.707   2.288
    1C        C  371   4.525   3.567   2.289
    1C        C  372   4.484   3.778   2.408
    1C        C  373   4.500   3.710   2.531
    1C        C  374   4.435   3.914   2.651
    1C        C  375   4.480   3.780   2.653
    1C        C  376   4.404   3.980   2.772
    1C        C  377   4.433   3.916   2.895
    1C        C  378   4.326   4.101   3.012
    1C        C  379   4.403   3.983   3.016
    1C        C  380   4.281   4.158   3.134
    1C        C  381   4.321   4.105   3.258
    1C        C  382   4.179   4.263   3.378
    1C        C  383   4.280   4.165   3.380
    1C        C  384   4.126   4.311   3.500
    1C        C  385   4.182   4.270   3.624
    1C        C  386   4.012   4.397   3.743
    1C        C  387   4.130   4.320   3.746
    1C        C  388   3.949   4.434   3.864
    1C        C  389   4.011   4.405   3.988
    1C        C  390   3.821   4.490   4.110
    1C        C  391   3.954   4.443   4.112
    1C        C  392   3.754   4.513   4.232
    1C        C  393   3.828   4.506   4.352
    1C        C  394   3.619   4.549   4.475
    1C        C  395   3.759   4.532   4.473
    1C        C  396   3.549   4.559   4.597
    1C        C  397   3.623   4.560   4.718
    1C        C  398   3.409   4.545   4.840
    1C        C  399   3.549   4.565   4.838
    1C        C  400   3.344   4.508   4.958
    1C        C  401   4.498   3.703   2.051
    1C        C  402   4.457   3.917   2.167
    1C        C  403   4.494   3.781   2.168
    1C        C  404   4.416   3.979   2.287
    1C        C  405   4.440   3.912   2.409
    1C        C  406   4.328   4.096   2.526
    1C        C  407   4.405   3.978   2.529
    1C        C  408   4.286   4.156   2.647
    1C        C  409   4.323   4.096   2.769
    1C        C  410   4.181   4.256   2.890
    1C        C  411   4.275   4.150   2.890
    1C        C  412   4.127   4.301   3.013
    1C        C  413   4.180   4.256   3.136
    1C        C  414   4.006   4.384   3.252
    1C        C  415   4.124   4.307   3.256
    1C        C  416   3.944   4.414   3.375
    1C        C  417   4.006   4.385   3.499
    1C        C  418   3.815   4.475   3.620
    1C        C  419   3.947   4.424   3.621
    1C        C  420   3.750   4.501   3.742
    1C        C  421   3.816   4.483   3.866
    1C        C  422   3.611   4.530   3.988
    1C        C  423   3.749   4.501   3.989
    1C        C  424   3.543   4.537   4.112
    1C        C  425   3.614   4.533   4.234
    1C        C  426   3.402   4.541   4.358
    1C        C  427   3.543   4.544   4.356
    1C        C  428   3.332   4.544   4.480
    1C        C  429   3.408   4.553   4.599
    1C        C  430   3.195   4.517   4.722
    1C        C  431   3.335   4.540   4.720
    1C        C  432   3.127   4.493   4.844
    1C        C  433   3.207   4.486   4.959
    1C        C  434   4.382   4.122   2.051
    1C        C  435   4.447   3.998   2.053
    1C        C  436   4.305   4.165   2.164
    1C        C  437   4.340   4.099   2.285
    1C        C  438   4.184   4.251   2.405
    1C        C  439   4.287   4.154   2.404
    1C        C  440   4.128   4.296   2.526
    1C        C  441   4.189   4.258   2.648
    1C        C  442   4.009   4.379   2.766
    1C        C  443   4.127   4.301   2.768
    1C        C  444   3.943   4.411   2.886
    1C        C  445   4.006   4.374   3.007
    1C        C  446   3.814   4.467   3.131
    1C        C  447   3.943   4.410   3.128
    1C        C  448   3.747   4.490   3.253
    1C        C  449   3.812   4.464   3.376
    1C        C  450   3.608   4.521   3.499
    1C        C  451   3.746   4.493   3.498
    1C        C  452   3.541   4.536   3.622
    1C        C  453   3.612   4.532   3.744
    1C        C  454   3.400   4.542   3.867
    1C        C  455   3.541   4.543   3.866
    1C        C  456   3.333   4.531   3.991
    1C        C  457   3.402   4.530   4.114
    1C        C  458   3.192   4.501   4.236
    1C        C  459   3.331   4.526   4.236
    1C        C  460   3.128   4.482   4.360
    1C        C  461   3.195   4.510   4.482
    1C        C  462   2.995   4.434   4.603
    1C        C  463   3.123   4.493   4.602
    1C        C  464   2.931   4.404   4.725
    1C        C  465   2.991   4.447   4.847
    1C        C  466   2.801   4.339   4.961
    1C        C  467   2.907   4.431   4.961
    1C        C  468   4.120   4.284   2.044
    1C        C  469   4.193   4.254   2.160
    1C        C  470   4.012   4.372   2.282
    1C        C  471   4.133   4.296   2.281
    1C        C  472   3.944   4.405   2.401
    1C        C  473   4.008   4.370   2.522
    1C        C  474   3.814   4.461   2.643
    1C        C  475   3.945   4.408   2.643
    1C        C  476   3.745   4.483   2.764
    1C        C  477   3.813   4.465   2.887
    1C        C  478   3.607   4.513   3.009
    1C        C  479   3.747   4.491   3.009
    1C        C  480   3.538   4.527   3.131
    1C        C  481   3.610   4.525   3.252
    1C        C  482   3.399   4.533   3.378
    1C        C  483   3.541   4.532   3.375
    1C        C  484   3.330   4.526   3.501
    1C        C  485   3.400   4.538   3.623
    1C        C  486   3.191   4.501   3.746
    1C        C  487   3.328   4.534   3.745
    1C        C  488   3.126   4.476   3.869
    1C        C  489   3.195   4.499   3.990
    1C        C  490   3.003   4.411   4.116
    1C        C  491   3.128   4.477   4.113
    1C        C  492   2.940   4.381   4.239
    1C        C  493   3.001   4.420   4.360
    1C        C  494   2.826   4.302   4.484
    1C        C  495   2.936   4.390   4.482
    1C        C  496   2.776   4.257   4.608
    1C        C  497   2.818   4.319   4.728
    1C        C  498   2.663   4.167   4.846
    1C        C  499   2.753   4.276   4.846
    1C        C  500   2.601   4.118   4.962
    1C        C  501   4.000   4.355   2.044
    1C        C  502   3.814   4.461   2.161
    1C        C  503   3.943   4.404   2.163
    1C        C  504   3.741   4.478   2.280
    1C        C  505   3.810   4.448   2.400
    1C        C  506   3.605   4.500   2.522
    1C        C  507   3.743   4.472   2.522
    1C        C  508   3.535   4.514   2.644
    1C        C  509   3.606   4.511   2.766
    1C        C  510   3.394   4.522   2.888
    1C        C  511   3.535   4.519   2.888
    1C        C  512   3.324   4.514   3.011
    1C        C  513   3.396   4.528   3.131
    1C        C  514   3.192   4.490   3.259
    1C        C  515   3.330   4.521   3.256
    1C        C  516   3.125   4.464   3.380
    1C        C  517   3.193   4.491   3.501
    1C        C  518   2.999   4.412   3.625
    1C        C  519   3.125   4.476   3.624
    1C        C  520   2.943   4.372   3.748
    1C        C  521   3.004   4.406   3.871
    1C        C  522   2.832   4.286   3.999
    1C        C  523   2.945   4.370   3.994
    1C        C  524   2.781   4.239   4.122
    1C        C  525   2.829   4.294   4.243
    1C        C  526   2.689   4.136   4.367
    1C        C  527   2.772   4.250   4.365
    1C        C  528   2.650   4.080   4.490
    1C        C  529   2.686   4.147   4.609
    1C        C  530   2.579   3.963   4.734
    1C        C  531   2.634   4.094   4.729
    1C        C  532   2.543   3.902   4.857
    1C        C  533   2.533   3.995   4.965
    1C        C  534   3.619   4.561   2.046
    1C        C  535   3.752   4.517   2.049
    1C        C  536   3.533   4.537   2.158
    1C        C  537   3.602   4.508   2.279
    1C        C  538   3.391   4.517   2.403
    1C        C  539   3.532   4.509   2.401
    1C        C  540   3.321   4.508   2.525
    1C        C  541   3.394   4.509   2.647
    1C        C  542   3.182   4.486   2.768
    1C        C  543   3.321   4.515   2.768
    1C        C  544   3.119   4.460   2.892
    1C        C  545   3.187   4.478   3.015
    1C        C  546   2.996   4.401   3.136
    1C        C  547   3.121   4.466   3.139
    1C        C  548   2.936   4.369   3.260
    1C        C  549   2.996   4.407   3.383
    1C        C  550   2.829   4.279   3.507
    1C        C  551   2.935   4.372   3.505
    1C        C  552   2.778   4.232   3.631
    1C        C  553   2.832   4.284   3.750
    1C        C  554   2.700   4.124   3.878
    1C        C  555   2.787   4.235   3.875
    1C        C  556   2.661   4.065   4.000
    1C        C  557   2.698   4.125   4.123
    1C        C  558   2.594   3.944   4.247
    1C        C  559   2.653   4.072   4.246
    1C        C  560   2.566   3.883   4.372
    1C        C  561   2.593   3.951   4.493
    1C        C  562   2.530   3.750   4.619
    1C        C  563   2.562   3.888   4.616
    1C        C  564   2.511   3.682   4.741
    1C        C  565   2.516   3.761   4.860
    1C        C  566   2.539   3.546   4.979
    1C        C  567   2.527   3.685   4.976
    1C        C  568   3.325   4.481   2.042
    1C        C  569   3.392   4.517   2.159
    1C        C  570   3.182   4.478   2.280
    1C        C  571   3.319   4.514   2.281
    1C        C  572   3.115   4.460   2.403
    1C        C  573   3.182   4.482   2.525
    1C        C  574   2.988   4.399   2.648
    1C        C  575   3.113   4.464   2.647
    1C        C  576   2.927   4.367   2.771
    1C        C  577   2.989   4.407   2.892
    1C        C  578   2.825   4.273   3.018
    1C        C  579   2.934   4.363   3.015
    1C        C  580   2.776   4.228   3.142
    1C        C  581   2.827   4.280   3.263
    1C        C  582   2.697   4.114   3.387
    1C        C  583   2.777   4.231   3.385
    1C        C  584   2.658   4.059   3.511
    1C        C  585   2.689   4.122   3.634
    1C        C  586   2.594   3.937   3.758
    1C        C  587   2.657   4.063   3.758
    1C        C  588   2.571   3.873   3.882
    1C        C  589   2.598   3.939   4.004
    1C        C  590   2.534   3.738   4.130
    1C        C  591   2.572   3.874   4.127
    1C        C  592   2.525   3.674   4.255
    1C        C  593   2.531   3.746   4.376
    1C        C  594   2.519   3.535   4.501
    1C        C  595   2.523   3.676   4.499
    1C        C  596   2.522   3.465   4.623
    1C        C  597   2.518   3.540   4.742
    1C        C  598   2.530   3.327   4.862
    1C        C  599   2.532   3.469   4.863
    1C        C  600   2.527   3.250   4.978
    1C        C  601   3.194   4.439   2.042
    1C        C  602   2.982   4.393   2.160
    1C        C  603   3.115   4.444   2.158
    1C        C  604   2.924   4.358   2.285
    1C        C  605   2.987   4.402   2.404
    1C        C  606   2.817   4.275   2.529
    1C        C  607   2.925   4.365   2.526
    1C        C  608   2.772   4.222   2.653
    1C        C  609   2.820   4.274   2.775
    1C        C  610   2.680   4.115   2.897
    1C        C  611   2.770   4.225   2.897
    1C        C  612   2.646   4.058   3.021
    1C        C  613   2.684   4.120   3.142
    1C        C  614   2.588   3.932   3.266
    1C        C  615   2.652   4.058   3.265
    1C        C  616   2.563   3.868   3.389
    1C        C  617   2.594   3.932   3.511
    1C        C  618   2.528   3.736   3.639
    1C        C  619   2.563   3.873   3.635
    1C        C  620   2.523   3.666   3.762
    1C        C  621   2.536   3.736   3.884
    1C        C  622   2.512   3.527   4.011
    1C        C  623   2.523   3.668   4.007
    1C        C  624   2.517   3.459   4.135
    1C        C  625   2.519   3.533   4.255
    1C        C  626   2.543   3.325   4.379
    1C        C  627   2.521   3.464   4.378
    1C        C  628   2.565   3.256   4.500
    1C        C  629   2.549   3.326   4.622
    1C        C  630   2.595   3.119   4.748
    1C        C  631   2.552   3.254   4.743
    1C        C  632   2.619   3.050   4.870
    1C        C  633   2.568   3.116   4.987
    1C        C  634   2.781   4.303   2.053
    1C        C  635   2.893   4.387   2.048
    1C        C  636   2.742   4.234   2.169
    1C        C  637   2.808   4.276   2.286
    1C        C  638   2.680   4.109   2.407
    1C        C  639   2.764   4.223   2.409
    1C        C  640   2.643   4.051   2.531
    1C        C  641   2.684   4.112   2.651
    1C        C  642   2.589   3.924   2.775
    1C        C  643   2.648   4.053   2.775
    1C        C  644   2.562   3.860   2.898
    1C        C  645   2.587   3.929   3.019
    1C        C  646   2.530   3.729   3.148
    1C        C  647   2.565   3.866   3.144
    1C        C  648   2.517   3.660   3.271
    1C        C  649   2.527   3.731   3.392
    1C        C  650   2.514   3.523   3.520
    1C        C  651   2.519   3.665   3.517
    1C        C  652   2.516   3.455   3.643
    1C        C  653   2.512   3.526   3.765
    1C        C  654   2.546   3.320   3.891
    1C        C  655   2.510   3.457   3.889
    1C        C  656   2.560   3.252   4.014
    1C        C  657   2.542   3.320   4.137
    1C        C  658   2.610   3.119   4.260
    1C        C  659   2.563   3.252   4.259
    1C        C  660   2.635   3.054   4.384
    1C        C  661   2.608   3.121   4.505
    1C        C  662   2.714   2.940   4.628
    1C        C  663   2.633   3.055   4.628
    1C        C  664   2.756   2.877   4.747
    1C        C  665   2.697   2.930   4.865
    1C        C  666   2.743   2.866   4.981
    1C        C  667   2.679   4.025   2.052
    1C        C  668   2.682   4.106   2.166
    1C        C  669   2.586   3.915   2.291
    1C        C  670   2.641   4.047   2.287
    1C        C  671   2.564   3.849   2.414
    1C        C  672   2.585   3.922   2.532
    1C        C  673   2.522   3.720   2.662
    1C        C  674   2.559   3.856   2.655
    1C        C  675   2.510   3.650   2.784
    1C        C  676   2.529   3.723   2.904
    1C        C  677   2.512   3.515   3.030
    1C        C  678   2.518   3.656   3.027
    1C        C  679   2.507   3.446   3.153
    1C        C  680   2.511   3.519   3.274
    1C        C  681   2.535   3.312   3.402
    1C        C  682   2.517   3.452   3.398
    1C        C  683   2.558   3.247   3.526
    1C        C  684   2.542   3.316   3.648
    1C        C  685   2.604   3.114   3.773
    1C        C  686   2.561   3.248   3.771
    1C        C  687   2.641   3.054   3.895
    1C        C  688   2.610   3.120   4.016
    1C        C  689   2.715   2.935   4.137
    1C        C  690   2.638   3.054   4.138
    1C        C  691   2.754   2.880   4.261
    1C        C  692   2.712   2.936   4.384
    1C        C  693   2.758   2.882   4.507
    1C        C  694   2.626   3.895   2.056
    1C        C  695   2.526   3.706   2.174
    1C        C  696   2.578   3.837   2.174
    1C        C  697   2.503   3.640   2.297
    1C        C  698   2.525   3.713   2.416
    1C        C  699   2.495   3.507   2.541
    1C        C  700   2.512   3.648   2.541
    1C        C  701   2.504   3.438   2.664
    1C        C  702   2.507   3.509   2.786
    1C        C  703   2.538   3.301   2.912
    1C        C  704   2.516   3.440   2.910
    1C        C  705   2.554   3.237   3.037
    1C        C  706   2.533   3.307   3.158
    1C        C  707   2.611   3.112   3.281
    1C        C  708   2.555   3.242   3.281
    1C        C  709   2.642   3.052   3.406
    1C        C  710   2.612   3.116   3.528
    1C        C  711   2.719   2.935   3.650
    1C        C  712   2.639   3.051   3.650
    1C        C  713   2.761   2.877   3.772
    1C        C  714   2.715   2.933   3.893
    1C        C  715   2.754   2.875   4.015
    1C        C  716   2.451   3.497   2.064
    1C        C  717   2.490   3.631   2.061
    1C        C  718   2.475   3.421   2.184
    1C        C  719   2.479   3.500   2.302
    1C        C  720   2.526   3.293   2.423
    1C        C  721   2.488   3.429   2.424
    1C        C  722   2.543   3.228   2.547
    1C        C  723   2.525   3.299   2.668
    1C        C  724   2.597   3.099   2.794
    1C        C  725   2.543   3.230   2.790
    1C        C  726   2.628   3.036   2.916
    1C        C  727   2.601   3.104   3.038
    1C        C  728   2.707   2.922   3.164
    1C        C  729   2.634   3.042   3.161
    1C        C  730   2.758   2.873   3.287
    1C        C  731   2.720   2.934   3.408
    1C        C  732   2.762   2.875   3.530
    1C        C  733   2.495   3.195   2.072
    1C        C  734   2.493   3.279   2.184
    1C        C  735   2.588   3.086   2.306
    1C        C  736   2.531   3.216   2.305
    1C        C  737   2.618   3.024   2.430
    1C        C  738   2.591   3.095   2.549
    1C        C  739   2.705   2.917   2.673
    1C        C  740   2.627   3.034   2.672
    1C        C  741   2.748   2.862   2.795
    1C        C  742   2.705   2.918   2.918
    1C        C  743   2.746   2.864   3.042
    1C        C  744   2.550   3.067   2.069
    1C        C  745   2.684   2.896   2.187
    1C        C  746   2.613   3.018   2.185
    1C        C  747   2.731   2.841   2.308
    1C        C  748   2.689   2.902   2.429
    1C        C  749   2.742   2.855   2.551
    1C        C  750   2.735   2.834   2.072
    1C        C  751   3.658   2.317   1.968
    1C        O  752   3.710   2.209   2.006
    1C        O  753   3.699   2.354   1.839
    1C        C  754   4.625   3.047   1.983
    1C        O  755   4.594   3.022   1.863
    1C        O  756   4.749   3.008   2.035
    1C        C  757   4.409   4.217   1.941
    1C        O  758   4.512   4.289   1.949
    1C        O  759   4.401   4.170   1.809
    1C        C  760   3.585   4.640   1.925
    1C        O  761   3.655   4.737   1.886
    1C        O  762   3.559   4.571   1.806
    1C        C  763   2.879   4.505   1.959
    1C        O  764   2.905   4.496   1.836
    1C        O  765   2.798   4.614   1.995
    1C        C  766   2.326   3.465   1.990
    1C        O  767   2.318   3.398   1.884
    1C        O  768   2.201   3.469   2.054
    1C        C  769   4.710   3.605   5.038
    1C        O  770   4.710   3.593   5.163
    1C        O  771   4.842   3.584   4.997
    1C        C  772   4.282   4.464   5.033
    1C        O  773   4.259   4.454   5.157
    1C        O  774   4.376   4.562   5.000
    1C        C  775   4.153   2.508   5.063
    1C        O  776   4.146   2.382   5.066
    1C        O  777   4.211   2.558   5.180
    1C        C  778   2.884   4.548   5.048
    1C        O  779   2.841   4.660   5.009
    1C        O  780   2.885   4.537   5.188
    1C        C  781   2.514   3.048   5.106
    1C        O  782   2.414   2.971   5.106
    1C        O  783   2.555   3.075   5.236
    1C        C  784   2.404   3.998   5.037
    1C        O  785   2.317   4.081   5.000
    1C        O  786   2.397   3.966   5.173
    1C        C  787   2.943   2.413   2.026
    1C        O  788   2.925   2.410   1.901
    1C        O  789   2.924   2.281   2.064
    1C        C  790   3.173   2.366   5.049
    1C        O  791   3.115   2.276   4.982
    1C        O  792   3.190   2.351   5.187
    1C        H  793   4.342   2.968   5.072
    1C        H  794   4.152   2.820   5.065
    1C        H  795   4.526   3.131   5.049
    1C        H  796   4.513   3.371   5.072
    1C        H  797   4.590   3.818   5.033
    1C        H  798   4.401   3.974   5.057
    1C        H  799   4.305   4.189   5.052
    1C        H  800   4.053   4.566   5.002
    1C        H  801   3.822   4.623   5.026
    1C        H  802   3.582   4.647   5.026
    1C        H  803   3.401   4.460   5.035
    1C        H  804   3.168   4.447   5.051
    1C        H  805   3.886   2.502   5.077
    1C        H  806   3.680   2.496   5.076
    1C        H  807   2.995   2.533   5.059
    1C        H  808   3.446   2.473   5.077
    1C        H  809   2.904   2.773   5.075
    1C        H  810   2.677   2.867   5.066
    1C        H  811   2.470   3.289   5.060
    1C        H  812   2.496   3.500   5.066
    1C        H  813   2.530   3.733   5.072
    1C        H  814   2.630   4.157   5.057
    1C        H  815   2.795   4.282   5.051
    1C        H  816   2.713   2.874   1.976
    1C        H  817   2.811   2.655   1.991
    1C        H  818   3.207   2.419   1.995
    1C        H  819   3.442   2.483   1.990
    1C        H  820   3.855   2.513   1.972
    1C        H  821   4.072   2.605   1.973
    1C        H  822   4.281   2.699   1.984
    1C        H  823   4.349   2.942   1.974
    1C        H  824   4.610   3.303   1.978
    1C        H  825   4.541   3.523   1.963
    1C        H  826   4.496   3.751   1.955
    1C        H  827   3.821   4.570   1.986
    1C        H  828   3.963   4.396   1.952
    1C        H  829   4.121   4.209   1.968
    1C        H  830   4.520   3.979   1.977
    1C        H  831   2.632   3.843   1.963
    1C        H  832   2.699   4.066   1.955
    1C        H  833   2.704   4.318   1.980
    1C        H  834   3.378   4.444   1.957
    1C        H  835   3.148   4.428   1.946
    1C        H  836   2.523   3.000   1.991
    1C        H  837   2.440   3.229   1.987
    1C        H  838   2.533   3.663   1.969
    2V3OU   H29  839   2.800   3.546   5.966
    2V3OU   C27  840   2.780   3.508   6.070
    2V3OU   H27  841   2.731   3.575   6.145
    2V3OU   H28  842   2.726   3.410   6.071
    2V3OU   O11  843   2.904   3.484   6.137
    2V3OU   C15  844   2.920   3.395   6.242
    2V3OU   C13  845   3.049   3.373   6.293
    2V3OU   C14  846   3.074   3.263   6.375
    2V3OU   C16  847   2.967   3.185   6.419
    2V3OU    H6  848   2.992   3.094   6.475
    2V3OU   C12  849   3.211   3.233   6.423
    2V3OU    O2  850   3.235   3.122   6.475
    2V3OU   C10  851   3.325   3.313   6.376
    2V3OU    C8  852   3.457   3.274   6.394
    2V3OU   O10  853   3.492   3.158   6.455
    2V3OU   H26  854   3.409   3.114   6.480
    2V3OU    C6  855   3.568   3.353   6.350
    2V3OU    C5  856   3.541   3.470   6.279
    2V3OU    C4  857   3.704   3.293   6.353
    2V3OU    H4  858   3.729   3.225   6.440
    2V3OU    H5  859   3.714   3.230   6.260
    2V3OU    C2  860   3.815   3.398   6.354
    2V3OU    O6  861   3.803   3.479   6.471
    2V3OU   H21  862   3.755   3.559   6.446
    2V3OU    C3  863   3.787   3.500   6.243
    2V3OU    H2  864   3.867   3.578   6.242
    2V3OU    H3  865   3.787   3.439   6.149
    2V3OU   C25  866   3.950   3.325   6.358
    2V3OU    O7  867   4.005   3.300   6.251
    2V3OU   C26  868   4.029   3.291   6.483
    2V3OU   H22  869   4.075   3.383   6.528
    2V3OU   H23  870   4.118   3.228   6.456
    2V3OU    O8  871   3.957   3.210   6.573
    2V3OU   H24  872   3.929   3.269   6.645
    2V3OU    C1  873   3.651   3.568   6.252
    2V3OU    H1  874   3.631   3.623   6.155
    2V3OU    O3  875   3.667   3.659   6.361
    2V3OU   C19  876   3.621   3.794   6.350
    2V3OU    H9  877   3.522   3.810   6.297
    2V3OU    O4  878   3.716   3.856   6.266
    2V3OU   C20  879   3.844   3.878   6.324
    2V3OU   H10  880   3.894   3.778   6.343
    2V3OU   C24  881   3.612   3.856   6.489
    2V3OU   H16  882   3.542   3.791   6.546
    2V3OU   H17  883   3.564   3.956   6.479
    2V3OU   C23  884   3.752   3.876   6.549
    2V3OU   H15  885   3.794   3.771   6.565
    2V3OU    N1  886   3.740   3.954   6.671
    2V3OU   H19  887   3.814   3.922   6.729
    2V3OU   H20  888   3.646   3.940   6.704
    2V3OU   C21  889   3.856   3.949   6.459
    2V3OU   H11  890   3.959   3.928   6.499
    2V3OU    O5  891   3.840   4.090   6.460
    2V3OU   H18  892   3.785   4.110   6.538
    2V3OU   C22  893   3.915   3.951   6.211
    2V3OU   H12  894   3.865   4.048   6.183
    2V3OU   H13  895   3.907   3.889   6.118
    2V3OU   H14  896   4.024   3.956   6.235
    2V3OU   C11  897   3.159   3.468   6.271
    2V3OU    O1  898   3.144   3.581   6.219
    2V3OU    C9  899   3.299   3.430   6.300
    2V3OU    C7  900   3.405   3.505   6.250
    2V3OU    O9  901   3.389   3.622   6.179
    2V3OU   H25  902   3.292   3.631   6.182
    2V3OU   C17  903   2.816   3.312   6.288
    2V3OU    H7  904   2.712   3.342   6.271
    2V3OU   C18  905   2.836   3.210   6.380
    2V3OU    H8  906   2.749   3.151   6.413
    3SOL     OW  907   2.910   3.434   4.461
    3SOL    HW1  908   2.897   3.504   4.531
    3SOL    HW2  909   2.834   3.370   4.464
    4SOL     OW  910   6.911   6.049   0.973
    4SOL    HW1  911   7.004   6.080   0.990
    4SOL    HW2  912   6.911   5.978   0.903
    5SOL     OW  913   4.123   2.461   0.620
    5SOL    HW1  914   4.113   2.515   0.704
    5SOL    HW2  915   4.219   2.458   0.594
    6SOL     OW  916   3.754   1.643   2.015
    6SOL    HW1  917   3.831   1.655   1.952
    6SOL    HW2  918   3.681   1.705   1.989
    7SOL     OW  919   2.361   2.618   4.607
    7SOL    HW1  920   2.435   2.553   4.589
    7SOL    HW2  921   2.303   2.626   4.526
    8SOL     OW  922   1.290   2.539   5.581
    8SOL    HW1  923   1.365   2.477   5.605
    8SOL    HW2  924   1.210   2.486   5.552
    9SOL     OW  925   1.422   2.048   6.111
    9SOL    HW1  926   1.464   2.128   6.069
    9SOL    HW2  927   1.336   2.074   6.155
   10SOL     OW  928   5.453   5.327   1.447
   10SOL    HW1  929   5.376   5.323   1.511
   10SOL    HW2  930   5.507   5.242   1.455
   11SOL     OW  931   3.051   2.200   0.797
   11SOL    HW1  932   3.009   2.264   0.862
   11SOL    HW2  933   3.031   2.230   0.703
   12SOL     OW  934   5.364   5.049   1.967
   12SOL    HW1  935   5.348   4.964   2.017
   12SOL    HW2  936   5.452   5.088   1.994
   13SOL     OW  937   5.359   6.086   2.168
   13SOL    HW1  938   5.403   6.069   2.080
   13SOL    HW2  939   5.263   6.111   2.153
   14SOL     OW  940   4.482   6.615   0.282
   14SOL    HW1  941   4.579   6.634   0.296
   14SOL    HW2  942   4.468   6.516   0.278
   15SOL     OW  943   0.605   5.582   6.486
   15SOL    HW1  944   0.666   5.661   6.484
   15SOL    HW2  945   0.588   5.556   6.581
   16SOL     OW  946   2.114   5.843   4.600
   16SOL    HW1  947   2.161   5.907   4.540
   16SOL    HW2  948   2.068   5.773   4.545
   17SOL     OW  949   0.082   1.398   4.654
   17SOL    HW1  950   0.151   1.442   4.596
   17SOL    HW2  951   0.076   1.446   4.741
   18SOL     OW  952   3.070   0.811   5.521
   18SOL    HW1  953   3.034   0.865   5.445
   18SOL    HW2  954   3.109   0.873   5.590
   19SOL     OW  955   2.998   6.037   2.422
   19SOL    HW1  956   3.058   5.958   2.423
   19SOL    HW2  957   3.009   6.088   2.508
   20SOL     OW  958   6.762   2.047   5.931
   20SOL    HW1  959   6.722   1.986   5.863
   20SOL    HW2  960   6.814   2.119   5.885
   21SOL     OW  961   2.128   4.075   2.501
   21SOL    HW1  962   2.173   4.119   2.424
   21SOL    HW2  963   2.174   4.101   2.586
   22SOL     OW  964   0.815   1.428   0.191
   22SOL    HW1  965   0.889   1.405   0.127
   22SOL    HW2  966   0.747   1.483   0.143
   23SOL     OW  967   6.915   5.230   0.634
   23SOL    HW1  968   6.906   5.240   0.733
   23SOL    HW2  969   6.837   5.181   0.598
   24SOL     OW  970   5.252   1.412   0.193
   24SOL    HW1  971   5.203   1.387   0.277
   24SOL    HW2  972   5.244   1.337   0.127
   25SOL     OW  973   1.505   1.196   4.385
   25SOL    HW1  974   1.469   1.132   4.454
   25SOL    HW2  975   1.457   1.181   4.298
   26SOL     OW  976   1.740   0.741   6.349
   26SOL    HW1  977   1.810   0.755   6.279
   26SOL    HW2  978   1.694   0.828   6.368
   27SOL     OW  979   0.027   0.142   2.458
   27SOL    HW1  980   0.127   0.139   2.467
   27SOL    HW2  981   7.011   0.145   2.548
   28SOL     OW  982   1.223   0.455   5.465
   28SOL    HW1  983   1.295   0.445   5.396
   28SOL    HW2  984   1.264   0.469   5.555
   29SOL     OW  985   5.723   0.972   1.362
   29SOL    HW1  986   5.655   0.898   1.367
   29SOL    HW2  987   5.701   1.031   1.284
   30SOL     OW  988   4.759   0.352   5.096
   30SOL    HW1  989   4.675   0.306   5.127
   30SOL    HW2  990   4.775   0.331   5.000
   31SOL     OW  991   6.727   4.757   4.040
   31SOL    HW1  992   6.818   4.720   4.022
   31SOL    HW2  993   6.733   4.856   4.056
   32SOL     OW  994   2.636   1.022   1.233
   32SOL    HW1  995   2.576   0.991   1.307
   32SOL    HW2  996   2.633   0.957   1.157
   33SOL     OW  997   2.104   4.716   5.595
   33SOL    HW1  998   2.175   4.661   5.551
   33SOL    HW2  999   2.128   4.813   5.588
   34SOL     OW 1000   1.937   5.852   5.423
   34SOL    HW1 1001   2.007   5.801   5.474
   34SOL    HW2 1002   1.976   5.938   5.390
   35SOL     OW 1003   1.590   3.417   5.320
   35SOL    HW1 1004   1.506   3.457   5.356
   35SOL    HW2 1005   1.667   3.478   5.339
   36SOL     OW 1006   6.027   1.152   3.683
   36SOL    HW1 1007   5.939   1.126   3.643
   36SOL    HW2 1008   6.029   1.250   3.700
   37SOL     OW 1009   1.979   6.644   4.422
   37SOL    HW1 1010   1.974   6.723   4.361
   37SOL    HW2 1011   2.014   6.673   4.511
   38SOL     OW 1012   1.185   4.221   2.086
   38SOL    HW1 1013   1.253   4.260   2.023
   38SOL    HW2 1014   1.227   4.206   2.175
   39SOL     OW 1015   6.735   5.094   1.127
   39SOL    HW1 1016   6.794   5.029   1.079
   39SOL    HW2 1017   6.759   5.095   1.224
   40SOL     OW 1018   3.637   0.589   6.576
   40SOL    HW1 1019   3.730   0.581   6.612
   40SOL    HW2 1020   3.586   0.505   6.597
   41SOL     OW 1021   5.127   3.798   1.706
   41SOL    HW1 1022   5.063   3.875   1.694
   41SOL    HW2 1023   5.109   3.753   1.794
   42SOL     OW 1024   2.943   3.656   6.700
   42SOL    HW1 1025   2.899   3.691   6.617
   42SOL    HW2 1026   3.032   3.617   6.677
   43SOL     OW 1027   5.060   0.185   5.011
   43SOL    HW1 1028   5.016   0.192   4.921
   43SOL    HW2 1029   5.135   0.252   5.017
   44SOL     OW 1030   6.203   1.339   5.971
   44SOL    HW1 1031   6.142   1.273   6.015
   44SOL    HW2 1032   6.273   1.289   5.919
   45SOL     OW 1033   2.796   4.291   5.905
   45SOL    HW1 1034   2.754   4.235   5.977
   45SOL    HW2 1035   2.749   4.274   5.819
   46SOL     OW 1036   1.144   4.566   4.824
   46SOL    HW1 1037   1.160   4.611   4.736
   46SOL    HW2 1038   1.057   4.516   4.821
   47SOL     OW 1039   6.140   4.153   6.975
   47SOL    HW1 1040   6.215   4.087   6.967
   47SOL    HW2 1041   6.162   4.235   6.922
   48SOL     OW 1042   0.235   4.411   0.850
   48SOL    HW1 1043   0.165   4.474   0.885
   48SOL    HW2 1044   0.194   4.352   0.780
   49SOL     OW 1045   3.176   2.382   6.437
   49SOL    HW1 1046   3.133   2.466   6.467
   49SOL    HW2 1047   3.118   2.337   6.369
   50SOL     OW 1048   5.301   2.258   0.136
   50SOL    HW1 1049   5.312   2.182   0.072
   50SOL    HW2 1050   5.376   2.256   0.202
   51SOL     OW 1051   0.811   6.220   2.013
   51SOL    HW1 1052   0.752   6.148   1.977
   51SOL    HW2 1053   0.894   6.226   1.957
   52SOL     OW 1054   5.518   1.888   2.237
   52SOL    HW1 1055   5.494   1.792   2.254
   52SOL    HW2 1056   5.537   1.933   2.324
   53SOL     OW 1057   4.369   0.769   0.816
   53SOL    HW1 1058   4.441   0.834   0.842
   53SOL    HW2 1059   4.411   0.683   0.789
   54SOL     OW 1060   6.311   0.089   6.615
   54SOL    HW1 1061   6.275   0.043   6.534
   54SOL    HW2 1062   6.334   0.021   6.685
   55SOL     OW 1063   1.722   3.924   5.791
   55SOL    HW1 1064   1.701   3.830   5.765
   55SOL    HW2 1065   1.753   3.926   5.886
   56SOL     OW 1066   0.511   2.439   6.776
   56SOL    HW1 1067   0.488   2.523   6.727
   56SOL    HW2 1068   0.586   2.392   6.730
   57SOL     OW 1069   3.907   5.930   1.614
   57SOL    HW1 1070   3.854   6.008   1.580
   57SOL    HW2 1071   3.846   5.865   1.658
   58SOL     OW 1072   1.189   0.413   6.562
   58SOL    HW1 1073   1.144   0.501   6.555
   58SOL    HW2 1074   1.263   0.418   6.629
   59SOL     OW 1075   4.264   3.135   6.743
   59SOL    HW1 1076   4.301   3.227   6.739
   59SOL    HW2 1077   4.168   3.139   6.770
   60SOL     OW 1078   6.833   3.486   2.707
   60SOL    HW1 1079   6.785   3.513   2.624
   60SOL    HW2 1080   6.791   3.530   2.786
   61SOL     OW 1081   1.390   5.701   3.191
   61SOL    HW1 1082   1.472   5.712   3.134
   61SOL    HW2 1083   1.329   5.778   3.176
   62SOL     OW 1084   5.744   2.614   3.405
   62SOL    HW1 1085   5.747   2.714   3.400
   62SOL    HW2 1086   5.767   2.575   3.316
   63SOL     OW 1087   3.743   0.133   5.908
   63SOL    HW1 1088   3.837   0.157   5.932
   63SOL    HW2 1089   3.683   0.211   5.925
   64SOL     OW 1090   1.585   2.275   6.303
   64SOL    HW1 1091   1.604   2.360   6.353
   64SOL    HW2 1092   1.668   2.243   6.258
   65SOL     OW 1093   1.234   5.134   5.139
   65SOL    HW1 1094   1.329   5.148   5.112
   65SOL    HW2 1095   1.178   5.121   5.057
   66SOL     OW 1096   4.682   0.928   1.485
   66SOL    HW1 1097   4.594   0.973   1.471
   66SOL    HW2 1098   4.742   0.988   1.539
   67SOL     OW 1099   0.274   3.467   1.145
   67SOL    HW1 1100   0.344   3.464   1.075
   67SOL    HW2 1101   0.228   3.555   1.143
   68SOL     OW 1102   0.450   0.809   6.269
   68SOL    HW1 1103   0.444   0.873   6.193
   68SOL    HW2 1104   0.544   0.776   6.278
   69SOL     OW 1105   1.363   6.758   6.817
   69SOL    HW1 1106   1.417   6.795   6.892
   69SOL    HW2 1107   1.423   6.734   6.741
   70SOL     OW 1108   4.801   4.671   3.138
   70SOL    HW1 1109   4.717   4.623   3.111
   70SOL    HW2 1110   4.880   4.617   3.111
   71SOL     OW 1111   5.107   1.581   5.160
   71SOL    HW1 1112   5.071   1.592   5.068
   71SOL    HW2 1113   5.157   1.664   5.186
   72SOL     OW 1114   0.292   0.972   2.116
   72SOL    HW1 1115   0.219   1.031   2.083
   72SOL    HW2 1116   0.270   0.876   2.096
   73SOL     OW 1117   2.600   0.718   1.123
   73SOL    HW1 1118   2.596   0.783   1.047
   73SOL    HW2 1119   2.696   0.701   1.147
   74SOL     OW 1120   2.658   1.303   7.020
   74SOL    HW1 1121   2.680   1.400   7.019
   74SOL    HW2 1122   2.568   1.289   0.034
   75SOL     OW 1123   2.252   2.566   0.907
   75SOL    HW1 1124   2.299   2.653   0.893
   75SOL    HW2 1125   2.166   2.566   0.856
   76SOL     OW 1126   3.724   5.184   5.913
   76SOL    HW1 1127   3.769   5.269   5.941
   76SOL    HW2 1128   3.629   5.186   5.942
   77SOL     OW 1129   0.150   5.380   4.548
   77SOL    HW1 1130   0.099   5.406   4.630
   77SOL    HW2 1131   0.242   5.418   4.552
   78SOL     OW 1132   5.535   1.457   1.491
   78SOL    HW1 1133   5.628   1.468   1.457
   78SOL    HW2 1134   5.483   1.400   1.427
   79SOL     OW 1135   1.266   4.370   4.600
   79SOL    HW1 1136   1.233   4.459   4.569
   79SOL    HW2 1137   1.268   4.307   4.522
   80SOL     OW 1138   3.513   2.011   5.224
   80SOL    HW1 1139   3.426   2.060   5.221
   80SOL    HW2 1140   3.587   2.076   5.238
   81SOL     OW 1141   3.509   5.235   2.404
   81SOL    HW1 1142   3.460   5.188   2.478
   81SOL    HW2 1143   3.502   5.181   2.320
   82SOL     OW 1144   3.204   0.290   2.206
   82SOL    HW1 1145   3.240   0.252   2.121
   82SOL    HW2 1146   3.268   0.358   2.242
   83SOL     OW 1147   5.466   0.907   4.415
   83SOL    HW1 1148   5.557   0.889   4.453
   83SOL    HW2 1149   5.406   0.830   4.434
   84SOL     OW 1150   5.985   2.613   2.957
   84SOL    HW1 1151   5.961   2.537   2.896
   84SOL    HW2 1152   5.963   2.587   3.051
   85SOL     OW 1153   2.291   5.880   3.543
   85SOL    HW1 1154   2.226   5.895   3.618
   85SOL    HW2 1155   2.345   5.798   3.562
   86SOL     OW 1156   4.784   0.659   0.128
   86SOL    HW1 1157   4.725   0.691   0.054
   86SOL    HW2 1158   4.732   0.597   0.186
   87SOL     OW 1159   2.990   3.038   6.797
   87SOL    HW1 1160   3.007   2.995   6.887
   87SOL    HW2 1161   3.031   2.981   6.726
   88SOL     OW 1162   1.842   2.728   1.384
   88SOL    HW1 1163   1.939   2.708   1.376
   88SOL    HW2 1164   1.818   2.745   1.480
   89SOL     OW 1165   3.241   3.680   5.284
   89SOL    HW1 1166   3.188   3.638   5.210
   89SOL    HW2 1167   3.337   3.683   5.259
   90SOL     OW 1168   6.564   4.524   1.995
   90SOL    HW1 1169   6.548   4.543   2.092
   90SOL    HW2 1170   6.597   4.431   1.984
   91SOL     OW 1171   4.630   5.820   0.879
   91SOL    HW1 1172   4.707   5.805   0.942
   91SOL    HW2 1173   4.640   5.908   0.834
   92SOL     OW 1174   5.906   5.055   0.277
   92SOL    HW1 1175   5.974   5.004   0.224
   92SOL    HW2 1176   5.901   5.149   0.242
   93SOL     OW 1177   2.928   3.751   1.771
   93SOL    HW1 1178   3.016   3.753   1.819
   93SOL    HW2 1179   2.885   3.662   1.787
   94SOL     OW 1180   3.125   1.720   4.296
   94SOL    HW1 1181   3.183   1.776   4.355
   94SOL    HW2 1182   3.178   1.643   4.260
   95SOL     OW 1183   0.632   6.989   3.624
   95SOL    HW1 1184   0.639   0.011   3.712
   95SOL    HW2 1185   0.715   7.005   3.571
   96SOL     OW 1186   0.178   5.829   6.497
   96SOL    HW1 1187   0.237   5.906   6.521
   96SOL    HW2 1188   0.231   5.744   6.502
   97SOL     OW 1189   3.563   4.577   5.439
   97SOL    HW1 1190   3.472   4.609   5.411
   97SOL    HW2 1191   3.622   4.655   5.460
   98SOL     OW 1192   0.602   3.024   4.806
   98SOL    HW1 1193   0.557   2.938   4.783
   98SOL    HW2 1194   0.677   3.040   4.743
   99SOL     OW 1195   4.236   4.848   5.051
   99SOL    HW1 1196   4.248   4.759   5.006
   99SOL    HW2 1197   4.316   4.905   5.034
  100SOL     OW 1198   1.415   0.495   5.262
  100SOL    HW1 1199   1.441   0.454   5.174
  100SOL    HW2 1200   1.363   0.578   5.246
  101SOL     OW 1201   5.338   3.320   2.638
  101SOL    HW1 1202   5.301   3.253   2.702
  101SOL    HW2 1203   5.397   3.384   2.688
  102SOL     OW 1204   3.697   0.322   6.816
  102SOL    HW1 1205   3.750   0.261   6.875
  102SOL    HW2 1206   3.746   0.407   6.803
  103SOL     OW 1207   1.142   1.880   1.726
  103SOL    HW1 1208   1.102   1.922   1.808
  103SOL    HW2 1209   1.240   1.865   1.740
  104SOL     OW 1210   6.942   4.715   1.709
  104SOL    HW1 1211   6.867   4.779   1.726
  104SOL    HW2 1212   6.930   4.633   1.765
  105SOL     OW 1213   6.945   0.598   5.073
  105SOL    HW1 1214   7.009   0.654   5.021
  105SOL    HW2 1215   6.960   0.502   5.053
  106SOL     OW 1216   4.401   2.876   1.716
  106SOL    HW1 1217   4.369   2.963   1.753
  106SOL    HW2 1218   4.498   2.863   1.738
  107SOL     OW 1219   4.699   6.759   2.208
  107SOL    HW1 1220   4.642   6.836   2.238
  107SOL    HW2 1221   4.692   6.684   2.273
  108SOL     OW 1222   3.636   1.686   4.897
  108SOL    HW1 1223   3.595   1.774   4.919
  108SOL    HW2 1224   3.656   1.682   4.799
  109SOL     OW 1225   1.822   1.113   5.486
  109SOL    HW1 1226   1.865   1.135   5.573
  109SOL    HW2 1227   1.867   1.034   5.445
  110SOL     OW 1228   4.102   4.508   5.650
  110SOL    HW1 1229   4.011   4.494   5.611
  110SOL    HW2 1230   4.096   4.570   5.728
  111SOL     OW 1231   6.309   3.355   1.938
  111SOL    HW1 1232   6.379   3.369   1.867
  111SOL    HW2 1233   6.271   3.443   1.965
  112SOL     OW 1234   4.696   0.014   4.866
  112SOL    HW1 1235   4.617   7.019   4.808
  112SOL    HW2 1236   4.672   0.002   4.962
  113SOL     OW 1237   0.459   4.994   2.423
  113SOL    HW1 1238   0.474   4.899   2.397
  113SOL    HW2 1239   0.544   5.034   2.457
  114SOL     OW 1240   6.851   2.264   1.684
  114SOL    HW1 1241   6.913   2.196   1.647
  114SOL    HW2 1242   6.782   2.220   1.742
  115SOL     OW 1243   4.183   1.042   2.869
  115SOL    HW1 1244   4.230   1.025   2.955
  115SOL    HW2 1245   4.109   0.975   2.858
  116SOL     OW 1246   6.760   5.471   1.172
  116SOL    HW1 1247   6.774   5.445   1.268
  116SOL    HW2 1248   6.691   5.544   1.167
  117SOL     OW 1249   3.027   1.910   0.221
  117SOL    HW1 1250   3.080   1.894   0.304
  117SOL    HW2 1251   2.977   1.996   0.229
  118SOL     OW 1252   6.973   2.251   2.114
  118SOL    HW1 1253   6.893   2.191   2.116
  118SOL    HW2 1254   6.983   2.298   2.201
  119SOL     OW 1255   6.277   6.663   4.876
  119SOL    HW1 1256   6.247   6.568   4.877
  119SOL    HW2 1257   6.355   6.674   4.938
  120SOL     OW 1258   4.394   2.058   4.637
  120SOL    HW1 1259   4.340   1.976   4.616
  120SOL    HW2 1260   4.332   2.135   4.653
  121SOL     OW 1261   0.197   5.673   6.146
  121SOL    HW1 1262   0.118   5.624   6.182
  121SOL    HW2 1263   0.279   5.647   6.197
  122SOL     OW 1264   6.735   4.991   5.982
  122SOL    HW1 1265   6.806   4.974   6.050
  122SOL    HW2 1266   6.671   4.914   5.982
  123SOL     OW 1267   0.807   3.024   1.349
  123SOL    HW1 1268   0.750   3.099   1.316
  123SOL    HW2 1269   0.868   2.993   1.276
  124SOL     OW 1270   1.786   3.506   6.795
  124SOL    HW1 1271   1.882   3.534   6.796
  124SOL    HW2 1272   1.743   3.536   6.710
  125SOL     OW 1273   4.518   2.169   0.435
  125SOL    HW1 1274   4.466   2.162   0.520
  125SOL    HW2 1275   4.474   2.235   0.374
  126SOL     OW 1276   3.636   3.851   4.862
  126SOL    HW1 1277   3.685   3.934   4.888
  126SOL    HW2 1278   3.577   3.870   4.783
  127SOL     OW 1279   0.433   5.170   5.997
  127SOL    HW1 1280   0.385   5.254   5.971
  127SOL    HW2 1281   0.366   5.097   6.011
  128SOL     OW 1282   4.218   4.079   6.166
  128SOL    HW1 1283   4.289   4.015   6.137
  128SOL    HW2 1284   4.152   4.091   6.091
  129SOL     OW 1285   0.949   4.499   1.472
  129SOL    HW1 1286   1.025   4.443   1.440
  129SOL    HW2 1287   0.895   4.530   1.394
  130SOL     OW 1288   5.935   3.566   5.074
  130SOL    HW1 1289   6.016   3.516   5.042
  130SOL    HW2 1290   5.903   3.627   5.002
  131SOL     OW 1291   1.004   3.548   3.214
  131SOL    HW1 1292   1.098   3.551   3.250
  131SOL    HW2 1293   1.005   3.509   3.122
  132SOL     OW 1294   4.751   2.940   1.516
  132SOL    HW1 1295   4.729   3.003   1.591
  132SOL    HW2 1296   4.764   2.848   1.553
  133SOL     OW 1297   4.323   4.826   6.279
  133SOL    HW1 1298   4.331   4.794   6.184
  133SOL    HW2 1299   4.250   4.775   6.324
  134SOL     OW 1300   6.487   1.985   0.744
  134SOL    HW1 1301   6.516   2.015   0.653
  134SOL    HW2 1302   6.426   1.907   0.735
  135SOL     OW 1303   4.396   4.639   3.767
  135SOL    HW1 1304   4.372   4.670   3.859
  135SOL    HW2 1305   4.314   4.641   3.709
  136SOL     OW 1306   4.023   6.483   6.379
  136SOL    HW1 1307   4.035   6.580   6.399
  136SOL    HW2 1308   4.109   6.445   6.345
  137SOL     OW 1309   2.167   4.106   6.947
  137SOL    HW1 1310   2.083   4.059   6.971
  137SOL    HW2 1311   2.239   4.040   6.929
  138SOL     OW 1312   0.914   5.926   6.969
  138SOL    HW1 1313   0.858   5.894   0.021
  138SOL    HW2 1314   0.964   6.008   6.996
  139SOL     OW 1315   0.348   0.923   0.910
  139SOL    HW1 1316   0.276   0.883   0.968
  139SOL    HW2 1317   0.345   0.879   0.820
  140SOL     OW 1318   3.875   0.377   1.698
  140SOL    HW1 1319   3.853   0.437   1.775
  140SOL    HW2 1320   3.808   0.302   1.694
  141SOL     OW 1321   0.904   1.493   6.802
  141SOL    HW1 1322   0.820   1.441   6.791
  141SOL    HW2 1323   0.940   1.481   6.895
  142SOL     OW 1324   1.753   3.752   6.897
  142SOL    HW1 1325   1.786   3.664   6.863
  142SOL    HW2 1326   1.681   3.786   6.837
  143SOL     OW 1327   4.956   5.558   1.714
  143SOL    HW1 1328   4.995   5.647   1.687
  143SOL    HW2 1329   4.987   5.535   1.806
  144SOL     OW 1330   2.833   5.701   2.903
  144SOL    HW1 1331   2.792   5.624   2.953
  144SOL    HW2 1332   2.921   5.724   2.945
  145SOL     OW 1333   0.322   5.392   3.451
  145SOL    HW1 1334   0.405   5.355   3.408
  145SOL    HW2 1335   0.296   5.334   3.528
  146SOL     OW 1336   6.712   0.720   5.853
  146SOL    HW1 1337   6.718   0.807   5.804
  146SOL    HW2 1338   6.725   0.736   5.951
  147SOL     OW 1339   5.862   1.034   5.316
  147SOL    HW1 1340   5.899   0.961   5.259
  147SOL    HW2 1341   5.937   1.082   5.362
  148SOL     OW 1342   1.767   6.544   1.172
  148SOL    HW1 1343   1.736   6.631   1.208
  148SOL    HW2 1344   1.693   6.476   1.179
  149SOL     OW 1345   1.716   3.058   4.814
  149SOL    HW1 1346   1.697   3.142   4.762
  149SOL    HW2 1347   1.757   2.990   4.753
  150SOL     OW 1348   4.845   2.586   5.775
  150SOL    HW1 1349   4.802   2.513   5.721
  150SOL    HW2 1350   4.944   2.577   5.770
  151SOL     OW 1351   5.980   3.081   1.142
  151SOL    HW1 1352   6.035   3.025   1.080
  151SOL    HW2 1353   5.985   3.043   1.235
  152SOL     OW 1354   0.119   2.749   0.783
  152SOL    HW1 1355   0.200   2.794   0.748
  152SOL    HW2 1356   0.099   2.668   0.727
  153SOL     OW 1357   1.344   2.060   3.701
  153SOL    HW1 1358   1.281   2.034   3.628
  153SOL    HW2 1359   1.429   2.094   3.662
  154SOL     OW 1360   0.099   1.359   3.770
  154SOL    HW1 1361   0.046   1.385   3.850
  154SOL    HW2 1362   0.070   1.414   3.692
  155SOL     OW 1363   5.617   4.741   3.404
  155SOL    HW1 1364   5.685   4.725   3.475
  155SOL    HW2 1365   5.637   4.683   3.325
  156SOL     OW 1366   4.749   0.684   1.645
  156SOL    HW1 1367   4.785   0.749   1.578
  156SOL    HW2 1368   4.710   0.605   1.597
  157SOL     OW 1369   5.050   0.443   1.212
  157SOL    HW1 1370   4.992   0.508   1.164
  157SOL    HW2 1371   4.993   0.383   1.269
  158SOL     OW 1372   0.889   3.478   4.043
  158SOL    HW1 1373   0.894   3.387   4.001
  158SOL    HW2 1374   0.821   3.478   4.116
  159SOL     OW 1375   6.440   5.284   0.064
  159SOL    HW1 1376   6.365   5.277   0.130
  159SOL    HW2 1377   6.521   5.238   0.100
  160SOL     OW 1378   4.080   0.465   0.991
  160SOL    HW1 1379   3.981   0.461   1.002
  160SOL    HW2 1380   4.110   0.561   0.997
  161SOL     OW 1381   7.004   6.528   0.224
  161SOL    HW1 1382   0.004   6.624   0.238
  161SOL    HW2 1383   7.001   6.508   0.127
  162SOL     OW 1384   4.580   6.857   5.814
  162SOL    HW1 1385   4.483   6.867   5.789
  162SOL    HW2 1386   4.598   6.761   5.835
  163SOL     OW 1387   0.806   3.724   2.681
  163SOL    HW1 1388   0.841   3.726   2.774
  163SOL    HW2 1389   0.754   3.808   2.663
  164SOL     OW 1390   1.766   1.921   2.548
  164SOL    HW1 1391   1.693   1.915   2.617
  164SOL    HW2 1392   1.727   1.909   2.457
  165SOL     OW 1393   0.249   6.681   3.926
  165SOL    HW1 1394   0.157   6.721   3.924
  165SOL    HW2 1395   0.295   6.699   3.839
  166SOL     OW 1396   0.621   4.474   3.955
  166SOL    HW1 1397   0.654   4.394   4.003
  166SOL    HW2 1398   0.600   4.547   4.021
  167SOL     OW 1399   1.242   1.512   3.372
  167SOL    HW1 1400   1.271   1.474   3.460
  167SOL    HW2 1401   1.149   1.547   3.380
  168SOL     OW 1402   2.901   3.624   2.862
  168SOL    HW1 1403   2.980   3.585   2.908
  168SOL    HW2 1404   2.890   3.582   2.773
  169SOL     OW 1405   5.353   2.396   6.908
  169SOL    HW1 1406   5.284   2.389   6.980
  169SOL    HW2 1407   5.386   2.490   6.901
  170SOL     OW 1408   6.832   5.429   1.646
  170SOL    HW1 1409   6.792   5.504   1.593
  170SOL    HW2 1410   6.932   5.433   1.639
  171SOL     OW 1411   2.996   2.494   0.863
  171SOL    HW1 1412   2.914   2.499   0.806
  171SOL    HW2 1413   2.985   2.555   0.942
  172SOL     OW 1414   1.444   1.160   6.953
  172SOL    HW1 1415   1.452   1.111   6.866
  172SOL    HW2 1416   1.504   1.118   7.021
  173SOL     OW 1417   6.014   1.112   4.836
  173SOL    HW1 1418   6.018   1.071   4.927
  173SOL    HW2 1419   6.089   1.178   4.825
  174SOL     OW 1420   6.151   4.207   5.552
  174SOL    HW1 1421   6.064   4.245   5.581
  174SOL    HW2 1422   6.142   4.108   5.540
  175SOL     OW 1423   0.390   6.558   2.720
  175SOL    HW1 1424   0.353   6.637   2.670
  175SOL    HW2 1425   0.406   6.584   2.816
  176SOL     OW 1426   6.967   3.572   0.963
  176SOL    HW1 1427   6.955   3.530   1.053
  176SOL    HW2 1428   0.021   3.532   0.918
  177SOL     OW 1429   6.743   2.384   3.803
  177SOL    HW1 1430   6.829   2.362   3.849
  177SOL    HW2 1431   6.671   2.321   3.834
  178SOL     OW 1432   2.149   5.810   4.873
  178SOL    HW1 1433   2.247   5.827   4.875
  178SOL    HW2 1434   2.119   5.802   4.778
  179SOL     OW 1435   3.819   4.064   1.863
  179SOL    HW1 1436   3.738   4.007   1.854
  179SOL    HW2 1437   3.803   4.135   1.932
  180SOL     OW 1438   4.626   1.635   6.493
  180SOL    HW1 1439   4.559   1.631   6.567
  180SOL    HW2 1440   4.612   1.720   6.441
  181SOL     OW 1441   3.948   0.369   5.198
  181SOL    HW1 1442   4.021   0.398   5.136
  181SOL    HW2 1443   3.884   0.444   5.211
  182SOL     OW 1444   3.030   3.178   5.542
  182SOL    HW1 1445   2.983   3.249   5.595
  182SOL    HW2 1446   3.118   3.212   5.511
  183SOL     OW 1447   2.908   1.078   3.448
  183SOL    HW1 1448   2.937   1.151   3.510
  183SOL    HW2 1449   2.819   1.100   3.409
  184SOL     OW 1450   4.810   5.324   3.421
  184SOL    HW1 1451   4.717   5.318   3.456
  184SOL    HW2 1452   4.871   5.268   3.477
  185SOL     OW 1453   6.944   6.676   4.848
  185SOL    HW1 1454   7.022   6.735   4.832
  185SOL    HW2 1455   6.954   6.630   4.936
  186SOL     OW 1456   2.913   5.848   5.793
  186SOL    HW1 1457   2.823   5.873   5.757
  186SOL    HW2 1458   2.929   5.750   5.779
  187SOL     OW 1459   4.057   5.735   1.165
  187SOL    HW1 1460   3.982   5.703   1.108
  187SOL    HW2 1461   4.090   5.824   1.131
  188SOL     OW 1462   1.478   3.756   3.423
  188SOL    HW1 1463   1.529   3.671   3.409
  188SOL    HW2 1464   1.477   3.808   3.338
  189SOL     OW 1465   5.308   4.476   5.911
  189SOL    HW1 1466   5.248   4.553   5.933
  189SOL    HW2 1467   5.334   4.430   5.996
  190SOL     OW 1468   6.149   6.895   0.749
  190SOL    HW1 1469   6.086   6.890   0.827
  190SOL    HW2 1470   6.125   6.823   0.683
  191SOL     OW 1471   1.897   2.643   5.456
  191SOL    HW1 1472   1.956   2.713   5.416
  191SOL    HW2 1473   1.932   2.552   5.433
  192SOL     OW 1474   0.173   6.473   1.845
  192SOL    HW1 1475   0.079   6.500   1.827
  192SOL    HW2 1476   0.219   6.546   1.897
  193SOL     OW 1477   3.373   0.574   1.998
  193SOL    HW1 1478   3.315   0.595   1.919
  193SOL    HW2 1479   3.342   0.628   2.076
  194SOL     OW 1480   4.344   6.194   2.874
  194SOL    HW1 1481   4.362   6.204   2.971
  194SOL    HW2 1482   4.246   6.208   2.857
  195SOL     OW 1483   3.396   0.434   1.082
  195SOL    HW1 1484   3.378   0.336   1.087
  195SOL    HW2 1485   3.463   0.452   1.009
  196SOL     OW 1486   4.355   2.562   1.237
  196SOL    HW1 1487   4.383   2.618   1.315
  196SOL    HW2 1488   4.353   2.465   1.264
  197SOL     OW 1489   1.945   6.266   0.577
  197SOL    HW1 1490   2.005   6.329   0.625
  197SOL    HW2 1491   1.985   6.174   0.578
  198SOL     OW 1492   4.854   6.868   6.639
  198SOL    HW1 1493   4.874   6.965   6.649
  198SOL    HW2 1494   4.832   6.829   6.728
  199SOL     OW 1495   1.888   0.432   3.151
  199SOL    HW1 1496   1.857   0.489   3.074
  199SOL    HW2 1497   1.988   0.433   3.154
  200SOL     OW 1498   1.365   3.757   4.328
  200SOL    HW1 1499   1.302   3.831   4.303
  200SOL    HW2 1500   1.441   3.794   4.381
  201SOL     OW 1501   4.547   1.581   6.808
  201SOL    HW1 1502   4.456   1.602   6.774
  201SOL    HW2 1503   4.568   1.639   6.887
  202SOL     OW 1504   4.322   0.572   2.979
  202SOL    HW1 1505   4.225   0.550   2.970
  202SOL    HW2 1506   4.377   0.500   2.937
  203SOL     OW 1507   5.772   2.583   0.398
  203SOL    HW1 1508   5.787   2.546   0.490
  203SOL    HW2 1509   5.764   2.508   0.333
  204SOL     OW 1510   1.687   6.236   1.096
  204SOL    HW1 1511   1.621   6.269   1.163
  204SOL    HW2 1512   1.673   6.139   1.080
  205SOL     OW 1513   5.705   0.589   1.106
  205SOL    HW1 1514   5.742   0.574   1.198
  205SOL    HW2 1515   5.606   0.575   1.107
  206SOL     OW 1516   6.581   5.952   1.321
  206SOL    HW1 1517   6.485   5.926   1.323
  206SOL    HW2 1518   6.627   5.905   1.246
  207SOL     OW 1519   6.295   2.071   6.212
  207SOL    HW1 1520   6.238   2.075   6.294
  207SOL    HW2 1521   6.257   2.003   6.148
  208SOL     OW 1522   3.916   4.350   0.024
  208SOL    HW1 1523   3.987   4.291   7.011
  208SOL    HW2 1524   3.888   4.418   6.982
  209SOL     OW 1525   6.996   6.367   4.008
  209SOL    HW1 1526   6.991   6.270   4.032
  209SOL    HW2 1527   0.023   6.377   3.923
  210SOL     OW 1528   4.099   2.118   0.515
  210SOL    HW1 1529   4.094   2.056   0.437
  210SOL    HW2 1530   4.017   2.176   0.516
  211SOL     OW 1531   1.117   3.417   1.603
  211SOL    HW1 1532   1.059   3.473   1.543
  211SOL    HW2 1533   1.182   3.476   1.651
  212SOL     OW 1534   1.009   5.408   5.023
  212SOL    HW1 1535   1.056   5.359   4.949
  212SOL    HW2 1536   1.065   5.405   5.106
  213SOL     OW 1537   3.651   2.443   0.112
  213SOL    HW1 1538   3.683   2.471   0.021
  213SOL    HW2 1539   3.712   2.479   0.182
  214SOL     OW 1540   1.570   6.227   3.382
  214SOL    HW1 1541   1.624   6.143   3.375
  214SOL    HW2 1542   1.631   6.303   3.407
  215SOL     OW 1543   3.137   3.988   3.016
  215SOL    HW1 1544   3.111   4.018   2.924
  215SOL    HW2 1545   3.074   3.915   3.045
  216SOL     OW 1546   2.866   0.285   5.605
  216SOL    HW1 1547   2.872   0.213   5.535
  216SOL    HW2 1548   2.832   0.245   5.690
  217SOL     OW 1549   6.696   2.372   5.055
  217SOL    HW1 1550   6.635   2.322   4.994
  217SOL    HW2 1551   6.651   2.454   5.087
  218SOL     OW 1552   2.690   3.785   5.629
  218SOL    HW1 1553   2.781   3.744   5.627
  218SOL    HW2 1554   2.657   3.788   5.724
  219SOL     OW 1555   3.575   5.230   0.317
  219SOL    HW1 1556   3.540   5.195   0.229
  219SOL    HW2 1557   3.520   5.308   0.345
  220SOL     OW 1558   1.562   4.390   0.010
  220SOL    HW1 1559   1.557   4.324   0.085
  220SOL    HW2 1560   1.496   4.463   0.026
  221SOL     OW 1561   5.808   2.490   4.809
  221SOL    HW1 1562   5.762   2.404   4.834
  221SOL    HW2 1563   5.856   2.526   4.889
  222SOL     OW 1564   1.886   6.517   4.797
  222SOL    HW1 1565   1.803   6.509   4.741
  222SOL    HW2 1566   1.860   6.531   4.893
  223SOL     OW 1567   5.925   5.055   2.559
  223SOL    HW1 1568   5.936   5.104   2.646
  223SOL    HW2 1569   6.010   5.061   2.507
  224SOL     OW 1570   4.320   2.304   2.450
  224SOL    HW1 1571   4.316   2.322   2.548
  224SOL    HW2 1572   4.390   2.363   2.408
  225SOL     OW 1573   5.141   6.593   1.368
  225SOL    HW1 1574   5.080   6.567   1.443
  225SOL    HW2 1575   5.196   6.672   1.396
  226SOL     OW 1576   0.690   5.489   2.715
  226SOL    HW1 1577   0.647   5.576   2.693
  226SOL    HW2 1578   0.753   5.500   2.792
  227SOL     OW 1579   1.281   3.952   3.118
  227SOL    HW1 1580   1.251   3.936   3.024
  227SOL    HW2 1581   1.374   3.917   3.130
  228SOL     OW 1582   4.043   6.544   2.786
  228SOL    HW1 1583   4.011   6.599   2.709
  228SOL    HW2 1584   4.143   6.545   2.788
  229SOL     OW 1585   6.456   5.150   2.986
  229SOL    HW1 1586   6.422   5.105   2.903
  229SOL    HW2 1587   6.506   5.083   3.042
  230SOL     OW 1588   1.007   4.660   6.200
  230SOL    HW1 1589   0.932   4.717   6.166
  230SOL    HW2 1590   0.980   4.618   6.287
  231SOL     OW 1591   0.344   2.011   6.493
  231SOL    HW1 1592   0.268   1.998   6.557
  231SOL    HW2 1593   0.315   2.071   6.419
  232SOL     OW 1594   1.137   4.020   6.189
  232SOL    HW1 1595   1.146   4.115   6.216
  232SOL    HW2 1596   1.224   3.987   6.152
  233SOL     OW 1597   3.221   6.875   0.004
  233SOL    HW1 1598   3.135   6.924   0.020
  233SOL    HW2 1599   3.202   6.792   6.978
  234SOL     OW 1600   2.606   4.719   6.321
  234SOL    HW1 1601   2.664   4.741   6.399
  234SOL    HW2 1602   2.609   4.620   6.304
  235SOL     OW 1603   3.239   3.268   5.775
  235SOL    HW1 1604   3.265   3.309   5.688
  235SOL    HW2 1605   3.151   3.305   5.804
  236SOL     OW 1606   0.369   2.091   5.984
  236SOL    HW1 1607   0.305   2.052   5.918
  236SOL    HW2 1608   0.453   2.038   5.984
  237SOL     OW 1609   6.920   6.586   1.824
  237SOL    HW1 1610   6.842   6.538   1.784
  237SOL    HW2 1611   6.932   6.674   1.778
  238SOL     OW 1612   0.008   1.863   2.673
  238SOL    HW1 1613   7.023   1.786   2.736
  238SOL    HW2 1614   7.015   1.948   2.721
  239SOL     OW 1615   6.547   5.480   0.705
  239SOL    HW1 1616   6.601   5.426   0.770
  239SOL    HW2 1617   6.498   5.552   0.755
  240SOL     OW 1618   0.099   2.667   5.506
  240SOL    HW1 1619   0.067   2.573   5.499
  240SOL    HW2 1620   0.184   2.670   5.557
  241SOL     OW 1621   5.524   2.532   4.796
  241SOL    HW1 1622   5.620   2.545   4.773
  241SOL    HW2 1623   5.517   2.481   4.882
  242SOL     OW 1624   2.576   2.504   4.493
  242SOL    HW1 1625   2.653   2.461   4.540
  242SOL    HW2 1626   2.519   2.434   4.451
  243SOL     OW 1627   4.926   1.120   6.909
  243SOL    HW1 1628   4.865   1.140   6.832
  243SOL    HW2 1629   4.951   1.206   6.954
  244SOL     OW 1630   0.848   1.867   6.335
  244SOL    HW1 1631   0.862   1.853   6.433
  244SOL    HW2 1632   0.928   1.836   6.285
  245SOL     OW 1633   5.061   2.895   3.581
  245SOL    HW1 1634   5.078   2.947   3.665
  245SOL    HW2 1635   5.136   2.910   3.517
  246SOL     OW 1636   4.807   3.044   4.025
  246SOL    HW1 1637   4.831   3.140   4.041
  246SOL    HW2 1638   4.709   3.032   4.036
  247SOL     OW 1639   3.059   0.659   2.986
  247SOL    HW1 1640   3.096   0.568   2.965
  247SOL    HW2 1641   3.135   0.724   2.995
  248SOL     OW 1642   0.173   1.817   2.478
  248SOL    HW1 1643   0.109   1.819   2.555
  248SOL    HW2 1644   0.227   1.901   2.477
  249SOL     OW 1645   2.087   5.436   5.284
  249SOL    HW1 1646   1.991   5.462   5.276
  249SOL    HW2 1647   2.096   5.338   5.264
  250SOL     OW 1648   5.488   2.525   0.440
  250SOL    HW1 1649   5.438   2.591   0.496
  250SOL    HW2 1650   5.586   2.532   0.460
  251SOL     OW 1651   1.967   0.830   0.597
  251SOL    HW1 1652   1.903   0.862   0.666
  251SOL    HW2 1653   2.060   0.857   0.622
  252SOL     OW 1654   0.561   2.069   7.005
  252SOL    HW1 1655   0.536   1.998   0.045
  252SOL    HW2 1656   0.659   2.088   7.011
  253SOL     OW 1657   2.044   4.575   6.428
  253SOL    HW1 1658   2.097   4.579   6.343
  253SOL    HW2 1659   1.948   4.593   6.407
  254SOL     OW 1660   4.641   3.647   6.099
  254SOL    HW1 1661   4.581   3.705   6.043
  254SOL    HW2 1662   4.679   3.702   6.173
  255SOL     OW 1663   4.140   2.224   2.254
  255SOL    HW1 1664   4.191   2.267   2.329
  255SOL    HW2 1665   4.188   2.240   2.168
  256SOL     OW 1666   6.595   5.669   1.176
  256SOL    HW1 1667   6.514   5.695   1.228
  256SOL    HW2 1668   6.615   5.739   1.107
  257SOL     OW 1669   2.542   5.891   5.940
  257SOL    HW1 1670   2.554   5.866   6.036
  257SOL    HW2 1671   2.446   5.879   5.914
  258SOL     OW 1672   4.309   4.730   4.430
  258SOL    HW1 1673   4.257   4.696   4.352
  258SOL    HW2 1674   4.246   4.754   4.504
  259SOL     OW 1675   0.773   2.014   2.879
  259SOL    HW1 1676   0.715   2.094   2.866
  259SOL    HW2 1677   0.794   1.972   2.791
  260SOL     OW 1678   6.794   6.508   5.820
  260SOL    HW1 1679   6.850   6.425   5.823
  260SOL    HW2 1680   6.730   6.508   5.896
  261SOL     OW 1681   0.552   1.265   3.969
  261SOL    HW1 1682   0.549   1.318   4.053
  261SOL    HW2 1683   0.559   1.327   3.891
  262SOL     OW 1684   0.955   4.946   1.613
  262SOL    HW1 1685   0.897   4.872   1.581
  262SOL    HW2 1686   0.962   4.943   1.712
  263SOL     OW 1687   0.593   4.313   4.279
  263SOL    HW1 1688   0.633   4.287   4.191
  263SOL    HW2 1689   0.512   4.257   4.297
  264SOL     OW 1690   2.859   4.190   0.178
  264SOL    HW1 1691   2.812   4.102   0.169
  264SOL    HW2 1692   2.954   4.174   0.206
  265SOL     OW 1693   4.124   5.460   3.479
  265SOL    HW1 1694   4.098   5.555   3.496
  265SOL    HW2 1695   4.069   5.424   3.404
  266SOL     OW 1696   4.166   3.613   0.073
  266SOL    HW1 1697   4.244   3.675   0.060
  266SOL    HW2 1698   4.199   3.524   0.103
  267SOL     OW 1699   2.067   2.558   5.773
  267SOL    HW1 1700   1.968   2.550   5.779
  267SOL    HW2 1701   2.092   2.650   5.742
  268SOL     OW 1702   2.255   4.469   3.626
  268SOL    HW1 1703   2.289   4.399   3.689
  268SOL    HW2 1704   2.326   4.537   3.611
  269SOL     OW 1705   2.346   2.097   5.326
  269SOL    HW1 1706   2.340   2.166   5.254
  269SOL    HW2 1707   2.270   2.033   5.318
  270SOL     OW 1708   4.977   6.230   4.778
  270SOL    HW1 1709   4.999   6.230   4.875
  270SOL    HW2 1710   4.920   6.151   4.756
  271SOL     OW 1711   2.289   1.834   0.449
  271SOL    HW1 1712   2.206   1.845   0.394
  271SOL    HW2 1713   2.283   1.749   0.502
  272SOL     OW 1714   4.533   5.144   0.324
  272SOL    HW1 1715   4.544   5.068   0.260
  272SOL    HW2 1716   4.437   5.153   0.349
  273SOL     OW 1717   1.743   5.994   4.206
  273SOL    HW1 1718   1.732   5.949   4.117
  273SOL    HW2 1719   1.662   5.977   4.262
  274SOL     OW 1720   6.023   2.163   1.725
  274SOL    HW1 1721   6.054   2.071   1.704
  274SOL    HW2 1722   5.957   2.161   1.800
  275SOL     OW 1723   5.638   5.741   5.882
  275SOL    HW1 1724   5.703   5.665   5.888
  275SOL    HW2 1725   5.674   5.820   5.932
  276SOL     OW 1726   0.495   0.356   4.236
  276SOL    HW1 1727   0.427   0.285   4.216
  276SOL    HW2 1728   0.450   0.444   4.247
  277SOL     OW 1729   4.147   2.770   5.323
  277SOL    HW1 1730   4.169   2.700   5.255
  277SOL    HW2 1731   4.123   2.726   5.409
  278SOL     OW 1732   5.838   4.071   3.278
  278SOL    HW1 1733   5.831   4.023   3.365
  278SOL    HW2 1734   5.815   4.008   3.203
  279SOL     OW 1735   0.305   3.873   3.812
  279SOL    HW1 1736   0.349   3.901   3.727
  279SOL    HW2 1737   0.256   3.950   3.852
  280SOL     OW 1738   4.220   1.850   3.543
  280SOL    HW1 1739   4.214   1.948   3.563
  280SOL    HW2 1740   4.129   1.809   3.550
  281SOL     OW 1741   4.730   6.014   5.318
  281SOL    HW1 1742   4.688   6.092   5.271
  281SOL    HW2 1743   4.660   5.962   5.367
  282SOL     OW 1744   0.901   2.495   0.267
  282SOL    HW1 1745   0.981   2.514   0.324
  282SOL    HW2 1746   0.893   2.396   0.253
  283SOL     OW 1747   6.214   3.895   3.560
  283SOL    HW1 1748   6.125   3.939   3.550
  283SOL    HW2 1749   6.245   3.863   3.470
  284SOL     OW 1750   5.370   6.873   2.406
  284SOL    HW1 1751   5.332   6.782   2.419
  284SOL    HW2 1752   5.355   6.928   2.488
  285SOL     OW 1753   3.912   6.422   6.118
  285SOL    HW1 1754   3.974   6.440   6.195
  285SOL    HW2 1755   3.820   6.408   6.153
  286SOL     OW 1756   3.094   4.995   5.550
  286SOL    HW1 1757   3.147   5.029   5.628
  286SOL    HW2 1758   3.062   4.902   5.568
  287SOL     OW 1759   3.364   5.418   0.314
  287SOL    HW1 1760   3.360   5.518   0.305
  287SOL    HW2 1761   3.308   5.376   0.243
  288SOL     OW 1762   4.377   1.511   0.262
  288SOL    HW1 1763   4.474   1.511   0.237
  288SOL    HW2 1764   4.364   1.461   0.347
  289SOL     OW 1765   5.369   5.077   4.965
  289SOL    HW1 1766   5.271   5.092   4.959
  289SOL    HW2 1767   5.390   4.982   4.942
  290SOL     OW 1768   3.603   0.730   5.689
  290SOL    HW1 1769   3.543   0.760   5.615
  290SOL    HW2 1770   3.698   0.735   5.659
  291SOL     OW 1771   5.186   1.112   5.198
  291SOL    HW1 1772   5.212   1.184   5.262
  291SOL    HW2 1773   5.241   1.121   5.114
  292SOL     OW 1774   3.372   0.154   3.882
  292SOL    HW1 1775   3.398   0.114   3.970
  292SOL    HW2 1776   3.393   0.252   3.883
  293SOL     OW 1777   5.317   0.463   2.768
  293SOL    HW1 1778   5.369   0.522   2.830
  293SOL    HW2 1779   5.220   0.487   2.773
  294SOL     OW 1780   6.714   1.739   6.453
  294SOL    HW1 1781   6.624   1.727   6.496
  294SOL    HW2 1782   6.757   1.649   6.442
  295SOL     OW 1783   0.380   0.717   4.789
  295SOL    HW1 1784   0.410   0.777   4.715
  295SOL    HW2 1785   0.368   0.624   4.755
  296SOL     OW 1786   0.792   1.831   1.573
  296SOL    HW1 1787   0.720   1.766   1.597
  296SOL    HW2 1788   0.840   1.797   1.491
  297SOL     OW 1789   5.183   3.184   3.214
  297SOL    HW1 1790   5.236   3.143   3.140
  297SOL    HW2 1791   5.230   3.169   3.301
  298SOL     OW 1792   4.000   0.928   5.830
  298SOL    HW1 1793   3.969   0.900   5.740
  298SOL    HW2 1794   4.050   1.015   5.822
  299SOL     OW 1795   0.629   1.296   6.143
  299SOL    HW1 1796   0.718   1.334   6.169
  299SOL    HW2 1797   0.581   1.265   6.225
  300SOL     OW 1798   4.510   6.344   3.460
  300SOL    HW1 1799   4.600   6.332   3.502
  300SOL    HW2 1800   4.447   6.275   3.497
  301SOL     OW 1801   0.152   5.948   5.721
  301SOL    HW1 1802   0.061   5.955   5.679
  301SOL    HW2 1803   0.170   6.032   5.772
  302SOL     OW 1804   0.023   6.850   2.187
  302SOL    HW1 1805   0.070   6.762   2.197
  302SOL    HW2 1806   7.002   6.874   2.272
  303SOL     OW 1807   5.532   5.891   2.462
  303SOL    HW1 1808   5.499   5.811   2.411
  303SOL    HW2 1809   5.455   5.940   2.501
  304SOL     OW 1810   1.887   0.148   4.581
  304SOL    HW1 1811   1.812   0.213   4.570
  304SOL    HW2 1812   1.923   0.154   4.674
  305SOL     OW 1813   1.278   1.980   1.289
  305SOL    HW1 1814   1.329   2.066   1.280
  305SOL    HW2 1815   1.244   1.952   1.199
  306SOL     OW 1816   0.279   0.158   2.465
  306SOL    HW1 1817   0.366   0.134   2.424
  306SOL    HW2 1818   0.281   0.254   2.495
  307SOL     OW 1819   3.912   3.238   3.600
  307SOL    HW1 1820   3.831   3.295   3.615
  307SOL    HW2 1821   3.977   3.287   3.543
  308SOL     OW 1822   6.564   1.527   2.228
  308SOL    HW1 1823   6.564   1.465   2.306
  308SOL    HW2 1824   6.472   1.562   2.212
  309SOL     OW 1825   1.732   4.668   6.968
  309SOL    HW1 1826   1.758   4.760   6.999
  309SOL    HW2 1827   1.788   4.600   7.015
  310SOL     OW 1828   5.240   6.639   4.904
  310SOL    HW1 1829   5.178   6.581   4.852
  310SOL    HW2 1830   5.199   6.730   4.916
  311SOL     OW 1831   1.368   6.476   1.709
  311SOL    HW1 1832   1.423   6.408   1.661
  311SOL    HW2 1833   1.302   6.517   1.646
  312SOL     OW 1834   3.513   0.443   4.349
  312SOL    HW1 1835   3.490   0.374   4.418
  312SOL    HW2 1836   3.447   0.439   4.275
  313SOL     OW 1837   3.001   3.122   2.673
  313SOL    HW1 1838   3.028   3.111   2.578
  313SOL    HW2 1839   2.908   3.086   2.686
  314SOL     OW 1840   2.976   5.687   6.436
  314SOL    HW1 1841   3.029   5.750   6.493
  314SOL    HW2 1842   3.034   5.612   6.406
  315SOL     OW 1843   5.961   0.552   4.322
  315SOL    HW1 1844   6.003   0.567   4.412
  315SOL    HW2 1845   5.887   0.485   4.331
  316SOL     OW 1846   3.372   0.941   6.004
  316SOL    HW1 1847   3.458   0.968   6.047
  316SOL    HW2 1848   3.296   0.989   6.047
  317SOL     OW 1849   0.555   2.303   1.198
  317SOL    HW1 1850   0.455   2.302   1.210
  317SOL    HW2 1851   0.587   2.211   1.175
  318SOL     OW 1852   0.925   0.300   3.396
  318SOL    HW1 1853   0.930   0.393   3.434
  318SOL    HW2 1854   0.860   0.299   3.320
  319SOL     OW 1855   0.233   0.733   3.131
  319SOL    HW1 1856   0.155   0.732   3.068
  319SOL    HW2 1857   0.243   0.643   3.174
  320SOL     OW 1858   4.915   1.538   0.253
  320SOL    HW1 1859   4.960   1.467   0.307
  320SOL    HW2 1860   4.983   1.590   0.202
  321SOL     OW 1861   4.609   2.924   0.835
  321SOL    HW1 1862   4.583   2.907   0.930
  321SOL    HW2 1863   4.706   2.946   0.831
  322SOL     OW 1864   3.506   2.633   6.702
  322SOL    HW1 1865   3.494   2.599   6.795
  322SOL    HW2 1866   3.564   2.714   6.703
  323SOL     OW 1867   1.449   3.479   2.416
  323SOL    HW1 1868   1.540   3.458   2.381
  323SOL    HW2 1869   1.438   3.442   2.508
  324SOL     OW 1870   0.037   0.288   3.535
  324SOL    HW1 1871   0.076   0.200   3.561
  324SOL    HW2 1872   0.099   0.361   3.562
  325SOL     OW 1873   6.500   3.672   0.918
  325SOL    HW1 1874   6.584   3.726   0.907
  325SOL    HW2 1875   6.520   3.590   0.971
  326SOL     OW 1876   0.105   5.785   6.929
  326SOL    HW1 1877   0.051   5.837   6.863
  326SOL    HW2 1878   0.139   5.847   7.000
  327SOL     OW 1879   4.032   6.248   6.550
  327SOL    HW1 1880   4.029   6.313   6.474
  327SOL    HW2 1881   4.010   6.156   6.517
  328SOL     OW 1882   1.248   4.818   3.711
  328SOL    HW1 1883   1.249   4.726   3.671
  328SOL    HW2 1884   1.338   4.859   3.703
  329SOL     OW 1885   3.504   3.085   1.913
  329SOL    HW1 1886   3.599   3.096   1.940
  329SOL    HW2 1887   3.491   3.121   1.821
  330SOL     OW 1888   2.591   3.164   0.163
  330SOL    HW1 1889   2.632   3.094   0.104
  330SOL    HW2 1890   2.657   3.238   0.178
  331SOL     OW 1891   5.146   4.736   4.775
  331SOL    HW1 1892   5.232   4.724   4.726
  331SOL    HW2 1893   5.104   4.822   4.748
  332SOL     OW 1894   6.106   2.367   3.056
  332SOL    HW1 1895   6.080   2.371   3.153
  332SOL    HW2 1896   6.091   2.456   3.014
  333SOL     OW 1897   3.863   6.698   4.149
  333SOL    HW1 1898   3.786   6.657   4.198
  333SOL    HW2 1899   3.948   6.679   4.198
  334SOL     OW 1900   3.178   3.501   4.091
  334SOL    HW1 1901   3.161   3.536   4.183
  334SOL    HW2 1902   3.126   3.417   4.077
  335SOL     OW 1903   3.275   0.706   1.463
  335SOL    HW1 1904   3.282   0.804   1.448
  335SOL    HW2 1905   3.182   0.682   1.490
  336SOL     OW 1906   4.295   1.970   4.912
  336SOL    HW1 1907   4.356   1.946   4.837
  336SOL    HW2 1908   4.264   1.887   4.959
  337SOL     OW 1909   7.022   1.114   5.280
  337SOL    HW1 1910   6.996   1.024   5.245
  337SOL    HW2 1911   7.022   1.113   5.380
  338SOL     OW 1912   4.410   1.403   1.299
  338SOL    HW1 1913   4.496   1.429   1.256
  338SOL    HW2 1914   4.404   1.448   1.388
  339SOL     OW 1915   4.246   4.972   5.935
  339SOL    HW1 1916   4.203   5.004   6.020
  339SOL    HW2 1917   4.176   4.952   5.867
  340SOL     OW 1918   5.069   3.222   5.068
  340SOL    HW1 1919   5.059   3.125   5.092
  340SOL    HW2 1920   4.991   3.251   5.013
  341SOL     OW 1921   6.918   0.202   2.196
  341SOL    HW1 1922   6.870   0.134   2.253
  341SOL    HW2 1923   7.011   0.171   2.179
  342SOL     OW 1924   4.602   1.486   2.430
  342SOL    HW1 1925   4.544   1.477   2.349
  342SOL    HW2 1926   4.640   1.578   2.434
  343SOL     OW 1927   5.439   0.426   0.760
  343SOL    HW1 1928   5.499   0.500   0.730
  343SOL    HW2 1929   5.368   0.463   0.821
  344SOL     OW 1930   6.865   3.221   1.605
  344SOL    HW1 1931   6.938   3.209   1.537
  344SOL    HW2 1932   6.903   3.263   1.687
  345SOL     OW 1933   6.805   2.494   4.097
  345SOL    HW1 1934   6.826   2.576   4.044
  345SOL    HW2 1935   6.708   2.472   4.087
  346SOL     OW 1936   2.063   6.052   2.812
  346SOL    HW1 1937   1.963   6.047   2.809
  346SOL    HW2 1938   2.099   5.965   2.844
  347SOL     OW 1939   2.615   4.631   1.382
  347SOL    HW1 1940   2.524   4.660   1.351
  347SOL    HW2 1941   2.642   4.687   1.460
  348SOL     OW 1942   4.915   4.694   1.938
  348SOL    HW1 1943   4.955   4.684   1.847
  348SOL    HW2 1944   4.859   4.613   1.958
  349SOL     OW 1945   5.417   4.532   0.790
  349SOL    HW1 1946   5.516   4.531   0.778
  349SOL    HW2 1947   5.390   4.459   0.852
  350SOL     OW 1948   2.436   1.595   0.128
  350SOL    HW1 1949   2.384   1.666   0.080
  350SOL    HW2 1950   2.527   1.587   0.085
  351SOL     OW 1951   3.278   3.938   0.913
  351SOL    HW1 1952   3.206   3.955   0.980
  351SOL    HW2 1953   3.236   3.918   0.824
  352SOL     OW 1954   4.595   6.575   2.390
  352SOL    HW1 1955   4.549   6.539   2.471
  352SOL    HW2 1956   4.531   6.577   2.313
  353SOL     OW 1957   2.203   6.760   0.709
  353SOL    HW1 1958   2.155   6.805   0.634
  353SOL    HW2 1959   2.171   6.666   0.718
  354SOL     OW 1960   1.338   2.367   0.329
  354SOL    HW1 1961   1.426   2.340   0.368
  354SOL    HW2 1962   1.333   2.337   0.234
  355SOL     OW 1963   0.546   2.998   3.599
  355SOL    HW1 1964   0.622   3.043   3.553
  355SOL    HW2 1965   0.581   2.923   3.655
  356SOL     OW 1966   2.698   0.330   5.253
  356SOL    HW1 1967   2.744   0.412   5.284
  356SOL    HW2 1968   2.669   0.275   5.331
  357SOL     OW 1969   5.946   6.091   4.358
  357SOL    HW1 1970   5.997   6.106   4.443
  357SOL    HW2 1971   6.006   6.048   4.291
  358SOL     OW 1972   3.410   5.587   6.545
  358SOL    HW1 1973   3.344   5.586   6.470
  358SOL    HW2 1974   3.365   5.561   6.630
  359SOL     OW 1975   1.288   2.004   2.233
  359SOL    HW1 1976   1.236   1.926   2.200
  359SOL    HW2 1977   1.331   2.051   2.156
  360SOL     OW 1978   2.186   4.013   3.746
  360SOL    HW1 1979   2.188   3.965   3.833
  360SOL    HW2 1980   2.156   3.950   3.674
  361SOL     OW 1981   0.160   1.933   1.770
  361SOL    HW1 1982   0.139   1.996   1.845
  361SOL    HW2 1983   0.099   1.952   1.693
  362SOL     OW 1984   3.867   3.952   2.453
  362SOL    HW1 1985   3.812   3.972   2.534
  362SOL    HW2 1986   3.958   3.923   2.481
  363SOL     OW 1987   4.688   5.218   1.052
  363SOL    HW1 1988   4.690   5.286   0.979
  363SOL    HW2 1989   4.627   5.249   1.125
  364SOL     OW 1990   0.849   1.024   0.389
  364SOL    HW1 1991   0.838   0.927   0.409
  364SOL    HW2 1992   0.915   1.036   0.315
  365SOL     OW 1993   5.952   0.760   4.109
  365SOL    HW1 1994   5.980   0.698   4.182
  365SOL    HW2 1995   5.890   0.830   4.146
  366SOL     OW 1996   5.226   1.882   0.133
  366SOL    HW1 1997   5.197   1.961   0.080
  366SOL    HW2 1998   5.177   1.800   0.102
  367SOL     OW 1999   5.460   0.815   6.660
  367SOL    HW1 2000   5.482   0.726   6.622
  367SOL    HW2 2001   5.455   0.883   6.587
  368SOL     OW 2002   1.837   2.122   5.578
  368SOL    HW1 2003   1.825   2.087   5.485
  368SOL    HW2 2004   1.839   2.046   5.642
  369SOL     OW 2005   5.888   4.639   0.388
  369SOL    HW1 2006   5.952   4.580   0.339
  369SOL    HW2 2007   5.916   4.646   0.484
  370SOL     OW 2008   2.258   2.678   3.254
  370SOL    HW1 2009   2.192   2.624   3.306
  370SOL    HW2 2010   2.334   2.705   3.314
  371SOL     OW 2011   1.917   6.116   0.296
  371SOL    HW1 2012   1.869   6.190   0.342
  371SOL    HW2 2013   2.012   6.142   0.280
  372SOL     OW 2014   2.165   5.616   5.820
  372SOL    HW1 2015   2.256   5.610   5.861
  372SOL    HW2 2016   2.120   5.527   5.823
  373SOL     OW 2017   6.278   4.709   2.936
  373SOL    HW1 2018   6.249   4.804   2.942
  373SOL    HW2 2019   6.284   4.670   3.029
  374SOL     OW 2020   3.057   1.620   2.268
  374SOL    HW1 2021   3.048   1.562   2.349
  374SOL    HW2 2022   3.152   1.646   2.256
  375SOL     OW 2023   1.013   5.855   4.298
  375SOL    HW1 2024   1.066   5.802   4.232
  375SOL    HW2 2025   1.041   5.951   4.294
  376SOL     OW 2026   3.990   0.515   3.000
  376SOL    HW1 2027   3.930   0.471   3.066
  376SOL    HW2 2028   4.004   0.611   3.026
  377SOL     OW 2029   2.817   1.999   6.437
  377SOL    HW1 2030   2.835   1.917   6.491
  377SOL    HW2 2031   2.748   1.978   6.367
  378SOL     OW 2032   4.014   1.037   1.961
  378SOL    HW1 2033   4.078   1.065   1.890
  378SOL    HW2 2034   3.929   1.007   1.919
  379SOL     OW 2035   4.264   2.709   6.340
  379SOL    HW1 2036   4.349   2.760   6.355
  379SOL    HW2 2037   4.218   2.694   6.428
  380SOL     OW 2038   4.350   2.209   0.651
  380SOL    HW1 2039   4.360   2.147   0.729
  380SOL    HW2 2040   4.260   2.197   0.610
  381SOL     OW 2041   2.026   4.010   3.085
  381SOL    HW1 2042   2.044   4.090   3.141
  381SOL    HW2 2043   1.935   3.974   3.106
  382SOL     OW 2044   5.718   6.781   6.937
  382SOL    HW1 2045   5.702   6.839   7.017
  382SOL    HW2 2046   5.788   6.821   6.879
  383SOL     OW 2047   4.161   2.968   0.721
  383SOL    HW1 2048   4.175   2.948   0.818
  383SOL    HW2 2049   4.214   2.905   0.665
  384SOL     OW 2050   0.356   3.789   5.033
  384SOL    HW1 2051   0.340   3.760   4.939
  384SOL    HW2 2052   0.440   3.746   5.067
  385SOL     OW 2053   4.430   2.684   0.797
  385SOL    HW1 2054   4.467   2.773   0.824
  385SOL    HW2 2055   4.471   2.655   0.711
  386SOL     OW 2056   4.287   6.435   5.101
  386SOL    HW1 2057   4.216   6.496   5.137
  386SOL    HW2 2058   4.280   6.433   5.001
  387SOL     OW 2059   2.718   5.932   4.286
  387SOL    HW1 2060   2.749   5.985   4.365
  387SOL    HW2 2061   2.792   5.871   4.256
  388SOL     OW 2062   1.533   5.231   5.894
  388SOL    HW1 2063   1.585   5.186   5.967
  388SOL    HW2 2064   1.550   5.186   5.807
  389SOL     OW 2065   2.748   2.813   1.574
  389SOL    HW1 2066   2.676   2.811   1.504
  389SOL    HW2 2067   2.723   2.880   1.645
  390SOL     OW 2068   2.521   1.071   4.788
  390SOL    HW1 2069   2.468   1.101   4.709
  390SOL    HW2 2070   2.618   1.067   4.763
  391SOL     OW 2071   1.535   2.257   6.747
  391SOL    HW1 2072   1.522   2.177   6.807
  391SOL    HW2 2073   1.447   2.298   6.726
  392SOL     OW 2074   3.564   5.928   4.421
  392SOL    HW1 2075   3.513   5.920   4.506
  392SOL    HW2 2076   3.660   5.947   4.441
  393SOL     OW 2077   5.755   4.090   5.775
  393SOL    HW1 2078   5.767   3.991   5.790
  393SOL    HW2 2079   5.833   4.139   5.812
  394SOL     OW 2080   2.150   0.637   6.388
  394SOL    HW1 2081   2.132   0.569   6.459
  394SOL    HW2 2082   2.095   0.617   6.307
  395SOL     OW 2083   6.979   3.197   0.957
  395SOL    HW1 2084   6.931   3.227   0.874
  395SOL    HW2 2085   0.041   3.156   0.932
  396SOL     OW 2086   3.566   3.288   5.206
  396SOL    HW1 2087   3.472   3.284   5.172
  396SOL    HW2 2088   3.565   3.277   5.306
  397SOL     OW 2089   4.048   1.382   6.679
  397SOL    HW1 2090   4.056   1.347   6.773
  397SOL    HW2 2091   3.999   1.315   6.623
  398SOL     OW 2092   0.996   4.829   2.640
  398SOL    HW1 2093   1.021   4.798   2.548
  398SOL    HW2 2094   0.966   4.751   2.695
  399SOL     OW 2095   4.979   4.548   2.349
  399SOL    HW1 2096   4.953   4.452   2.358
  399SOL    HW2 2097   4.897   4.605   2.354
  400SOL     OW 2098   2.789   5.187   4.445
  400SOL    HW1 2099   2.815   5.093   4.464
  400SOL    HW2 2100   2.726   5.190   4.367
  401SOL     OW 2101   5.631   1.192   0.319
  401SOL    HW1 2102   5.647   1.187   0.418
  401SOL    HW2 2103   5.575   1.273   0.298
  402SOL     OW 2104   6.745   4.523   0.840
  402SOL    HW1 2105   6.690   4.441   0.827
  402SOL    HW2 2106   6.718   4.592   0.773
  403SOL     OW 2107   5.165   4.542   0.607
  403SOL    HW1 2108   5.120   4.571   0.691
  403SOL    HW2 2109   5.262   4.525   0.625
  404SOL     OW 2110   0.656   6.646   4.401
  404SOL    HW1 2111   0.725   6.694   4.345
  404SOL    HW2 2112   0.661   6.548   4.382
  405SOL     OW 2113   0.787   2.710   1.314
  405SOL    HW1 2114   0.800   2.780   1.384
  405SOL    HW2 2115   0.874   2.665   1.295
  406SOL     OW 2116   0.846   2.243   3.227
  406SOL    HW1 2117   0.885   2.156   3.195
  406SOL    HW2 2118   0.894   2.319   3.184
  407SOL     OW 2119   3.025   1.798   3.551
  407SOL    HW1 2120   3.019   1.847   3.638
  407SOL    HW2 2121   2.975   1.711   3.558
  408SOL     OW 2122   2.215   0.538   3.436
  408SOL    HW1 2123   2.277   0.537   3.515
  408SOL    HW2 2124   2.124   0.508   3.466
  409SOL     OW 2125   6.658   2.962   4.152
  409SOL    HW1 2126   6.666   3.049   4.105
  409SOL    HW2 2127   6.749   2.922   4.164
  410SOL     OW 2128   3.038   6.801   6.482
  410SOL    HW1 2129   3.100   6.858   6.535
  410SOL    HW2 2130   2.984   6.858   6.420
  411SOL     OW 2131   0.446   3.258   4.775
  411SOL    HW1 2132   0.514   3.186   4.760
  411SOL    HW2 2133   0.356   3.224   4.747
  412SOL     OW 2134   4.496   0.177   2.308
  412SOL    HW1 2135   4.427   0.220   2.366
  412SOL    HW2 2136   4.575   0.237   2.299
  413SOL     OW 2137   2.419   0.387   2.492
  413SOL    HW1 2138   2.421   0.487   2.487
  413SOL    HW2 2139   2.513   0.352   2.495
  414SOL     OW 2140   4.951   4.062   0.595
  414SOL    HW1 2141   4.867   4.007   0.601
  414SOL    HW2 2142   5.012   4.023   0.527
  415SOL     OW 2143   3.802   6.640   2.327
  415SOL    HW1 2144   3.876   6.584   2.363
  415SOL    HW2 2145   3.788   6.720   2.385
  416SOL     OW 2146   3.636   5.706   6.838
  416SOL    HW1 2147   3.638   5.786   6.779
  416SOL    HW2 2148   3.565   5.717   6.907
  417SOL     OW 2149   5.167   4.647   1.335
  417SOL    HW1 2150   5.249   4.679   1.286
  417SOL    HW2 2151   5.162   4.693   1.424
  418SOL     OW 2152   6.590   5.075   0.394
  418SOL    HW1 2153   6.522   5.136   0.434
  418SOL    HW2 2154   6.655   5.046   0.464
  419SOL     OW 2155   5.535   6.022   1.099
  419SOL    HW1 2156   5.501   6.086   1.030
  419SOL    HW2 2157   5.458   5.983   1.149
  420SOL     OW 2158   4.792   4.554   0.098
  420SOL    HW1 2159   4.788   4.633   0.160
  420SOL    HW2 2160   4.779   4.585   0.004
  421SOL     OW 2161   1.284   6.576   6.526
  421SOL    HW1 2162   1.273   6.477   6.530
  421SOL    HW2 2163   1.220   6.620   6.590
  422SOL     OW 2164   5.438   4.408   6.740
  422SOL    HW1 2165   5.514   4.461   6.702
  422SOL    HW2 2166   5.352   4.438   6.699
  423SOL     OW 2167   1.130   3.410   5.822
  423SOL    HW1 2168   1.053   3.437   5.879
  423SOL    HW2 2169   1.160   3.489   5.766
  424SOL     OW 2170   1.686   3.710   0.142
  424SOL    HW1 2171   1.713   3.768   0.219
  424SOL    HW2 2172   1.704   3.757   0.056
  425SOL     OW 2173   2.887   6.714   0.445
  425SOL    HW1 2174   2.804   6.734   0.392
  425SOL    HW2 2175   2.862   6.668   0.530
  426SOL     OW 2176   6.487   4.208   5.939
  426SOL    HW1 2177   6.407   4.262   5.912
  426SOL    HW2 2178   6.569   4.249   5.900
  427SOL     OW 2179   4.803   3.256   0.472
  427SOL    HW1 2180   4.891   3.231   0.511
  427SOL    HW2 2181   4.732   3.245   0.542
  428SOL     OW 2182   3.633   1.710   5.593
  428SOL    HW1 2183   3.656   1.788   5.536
  428SOL    HW2 2184   3.703   1.698   5.663
  429SOL     OW 2185   3.064   5.601   6.863
  429SOL    HW1 2186   3.014   5.679   6.900
  429SOL    HW2 2187   3.006   5.520   6.865
  430SOL     OW 2188   2.641   6.950   4.729
  430SOL    HW1 2189   2.598   0.006   4.688
  430SOL    HW2 2190   2.613   6.869   4.677
  431SOL     OW 2191   3.224   1.544   6.532
  431SOL    HW1 2192   3.198   1.639   6.518
  431SOL    HW2 2193   3.148   1.494   6.572
  432SOL     OW 2194   0.281   1.498   1.228
  432SOL    HW1 2195   0.255   1.437   1.303
  432SOL    HW2 2196   0.359   1.460   1.180
  433SOL     OW 2197   2.786   6.190   4.669
  433SOL    HW1 2198   2.819   6.284   4.676
  433SOL    HW2 2199   2.860   6.132   4.633
  434SOL     OW 2200   6.144   3.437   1.227
  434SOL    HW1 2201   6.055   3.419   1.270
  434SOL    HW2 2202   6.213   3.451   1.298
  435SOL     OW 2203   4.001   3.134   1.136
  435SOL    HW1 2204   4.078   3.152   1.198
  435SOL    HW2 2205   3.939   3.069   1.179
  436SOL     OW 2206   2.796   0.106   0.464
  436SOL    HW1 2207   2.817   0.200   0.491
  436SOL    HW2 2208   2.864   0.044   0.504
  437SOL     OW 2209   6.712   0.038   5.701
  437SOL    HW1 2210   6.797   0.049   5.650
  437SOL    HW2 2211   6.635   0.031   5.637
  438SOL     OW 2212   2.000   3.158   1.763
  438SOL    HW1 2213   2.045   3.165   1.851
  438SOL    HW2 2214   1.912   3.112   1.773
  439SOL     OW 2215   6.106   4.420   2.185
  439SOL    HW1 2216   6.170   4.343   2.178
  439SOL    HW2 2217   6.154   4.505   2.167
  440SOL     OW 2218   1.381   3.293   3.000
  440SOL    HW1 2219   1.342   3.384   3.013
  440SOL    HW2 2220   1.310   3.229   2.973
  441SOL     OW 2221   1.228   1.413   3.092
  441SOL    HW1 2222   1.298   1.342   3.107
  441SOL    HW2 2223   1.168   1.418   3.172
  442SOL     OW 2224   7.023   4.555   6.959
  442SOL    HW1 2225   6.995   4.602   6.876
  442SOL    HW2 2226   6.976   4.466   6.965
  443SOL     OW 2227   1.085   4.599   5.395
  443SOL    HW1 2228   1.106   4.695   5.378
  443SOL    HW2 2229   1.022   4.564   5.325
  444SOL     OW 2230   4.835   3.246   6.479
  444SOL    HW1 2231   4.851   3.317   6.409
  444SOL    HW2 2232   4.747   3.262   6.523
  445SOL     OW 2233   1.895   4.639   3.103
  445SOL    HW1 2234   1.972   4.688   3.064
  445SOL    HW2 2235   1.833   4.610   3.030
  446SOL     OW 2236   3.874   5.308   4.214
  446SOL    HW1 2237   3.814   5.386   4.231
  446SOL    HW2 2238   3.863   5.279   4.119
  447SOL     OW 2239   0.513   6.069   0.232
  447SOL    HW1 2240   0.568   6.063   0.315
  447SOL    HW2 2241   0.489   5.977   0.201
  448SOL     OW 2242   4.214   0.649   6.110
  448SOL    HW1 2243   4.122   0.685   6.097
  448SOL    HW2 2244   4.280   0.725   6.107
  449SOL     OW 2245   5.963   6.552   4.132
  449SOL    HW1 2246   5.942   6.485   4.061
  449SOL    HW2 2247   5.932   6.518   4.220
  450SOL     OW 2248   6.882   5.759   3.528
  450SOL    HW1 2249   6.975   5.725   3.510
  450SOL    HW2 2250   6.824   5.683   3.556
  451SOL     OW 2251   6.008   2.591   3.750
  451SOL    HW1 2252   6.103   2.586   3.781
  451SOL    HW2 2253   6.006   2.607   3.651
  452SOL     OW 2254   6.880   5.062   6.421
  452SOL    HW1 2255   6.861   5.151   6.463
  452SOL    HW2 2256   6.800   5.003   6.429
  453SOL     OW 2257   3.057   0.461   5.665
  453SOL    HW1 2258   3.079   0.515   5.584
  453SOL    HW2 2259   2.974   0.408   5.648
  454SOL     OW 2260   0.955   6.406   0.286
  454SOL    HW1 2261   1.038   6.462   0.288
  454SOL    HW2 2262   0.979   6.311   0.270
  455SOL     OW 2263   4.553   1.040   4.846
  455SOL    HW1 2264   4.623   1.052   4.916
  455SOL    HW2 2265   4.596   1.013   4.760
  456SOL     OW 2266   4.775   5.673   6.957
  456SOL    HW1 2267   4.871   5.671   6.930
  456SOL    HW2 2268   4.765   5.726   0.016
  457SOL     OW 2269   0.760   4.786   1.494
  457SOL    HW1 2270   0.795   4.715   1.433
  457SOL    HW2 2271   0.681   4.751   1.544
  458SOL     OW 2272   6.640   6.529   6.034
  458SOL    HW1 2273   6.667   6.496   6.124
  458SOL    HW2 2274   6.570   6.600   6.044
  459SOL     OW 2275   1.798   0.591   3.622
  459SOL    HW1 2276   1.854   0.599   3.539
  459SOL    HW2 2277   1.704   0.617   3.601
  460SOL     OW 2278   6.962   1.498   3.945
  460SOL    HW1 2279   6.921   1.588   3.936
  460SOL    HW2 2280   6.894   1.428   3.925
  461SOL     OW 2281   5.356   6.043   5.684
  461SOL    HW1 2282   5.393   6.057   5.592
  461SOL    HW2 2283   5.419   6.081   5.751
  462SOL     OW 2284   3.054   2.584   6.922
  462SOL    HW1 2285   3.058   2.645   7.002
  462SOL    HW2 2286   3.088   2.493   6.948
  463SOL     OW 2287   0.028   5.965   1.636
  463SOL    HW1 2288   6.968   5.995   1.592
  463SOL    HW2 2289   0.075   6.045   1.674
  464SOL     OW 2290   1.617   1.254   5.838
  464SOL    HW1 2291   1.678   1.303   5.776
  464SOL    HW2 2292   1.655   1.256   5.931
  465SOL     OW 2293   6.638   3.211   5.307
  465SOL    HW1 2294   6.581   3.145   5.257
  465SOL    HW2 2295   6.627   3.196   5.405
  466SOL     OW 2296   2.474   0.456   3.164
  466SOL    HW1 2297   2.376   0.442   3.174
  466SOL    HW2 2298   2.519   0.438   3.252
  467SOL     OW 2299   1.367   1.332   4.972
  467SOL    HW1 2300   1.425   1.265   4.926
  467SOL    HW2 2301   1.271   1.304   4.967
  468SOL     OW 2302   3.564   4.106   1.984
  468SOL    HW1 2303   3.560   4.161   2.067
  468SOL    HW2 2304   3.607   4.159   1.911
  469SOL     OW 2305   2.719   4.789   6.838
  469SOL    HW1 2306   2.636   4.841   6.817
  469SOL    HW2 2307   2.779   4.843   6.898
  470SOL     OW 2308   3.579   0.829   2.607
  470SOL    HW1 2309   3.571   0.855   2.703
  470SOL    HW2 2310   3.669   0.856   2.573
  471SOL     OW 2311   2.781   1.812   4.712
  471SOL    HW1 2312   2.842   1.834   4.636
  471SOL    HW2 2313   2.829   1.753   4.777
  472SOL     OW 2314   4.151   4.264   5.309
  472SOL    HW1 2315   4.076   4.308   5.358
  472SOL    HW2 2316   4.196   4.330   5.249
  473SOL     OW 2317   1.195   4.230   3.706
  473SOL    HW1 2318   1.148   4.175   3.637
  473SOL    HW2 2319   1.197   4.180   3.793
  474SOL     OW 2320   4.817   4.645   4.782
  474SOL    HW1 2321   4.843   4.695   4.699
  474SOL    HW2 2322   4.861   4.687   4.861
  475SOL     OW 2323   1.054   6.377   6.271
  475SOL    HW1 2324   1.056   6.468   6.229
  475SOL    HW2 2325   1.032   6.310   6.201
  476SOL     OW 2326   0.075   5.055   2.309
  476SOL    HW1 2327   7.010   5.083   2.278
  476SOL    HW2 2328   0.143   5.081   2.240
  477SOL     OW 2329   1.380   5.564   4.248
  477SOL    HW1 2330   1.462   5.557   4.191
  477SOL    HW2 2331   1.402   5.535   4.341
  478SOL     OW 2332   1.653   5.257   3.287
  478SOL    HW1 2333   1.588   5.333   3.279
  478SOL    HW2 2334   1.628   5.201   3.366
  479SOL     OW 2335   3.430   1.546   1.318
  479SOL    HW1 2336   3.357   1.479   1.307
  479SOL    HW2 2337   3.398   1.622   1.375
  480SOL     OW 2338   1.334   6.404   2.535
  480SOL    HW1 2339   1.346   6.450   2.623
  480SOL    HW2 2340   1.421   6.365   2.506
  481SOL     OW 2341   3.020   6.665   1.456
  481SOL    HW1 2342   2.929   6.624   1.446
  481SOL    HW2 2343   3.014   6.742   1.519
  482SOL     OW 2344   5.572   5.077   1.474
  482SOL    HW1 2345   5.514   4.999   1.499
  482SOL    HW2 2346   5.661   5.043   1.443
  483SOL     OW 2347   6.002   1.922   1.099
  483SOL    HW1 2348   5.974   2.000   1.155
  483SOL    HW2 2349   6.022   1.953   1.006
  484SOL     OW 2350   6.866   2.365   5.437
  484SOL    HW1 2351   6.838   2.448   5.389
  484SOL    HW2 2352   6.923   2.309   5.377
  485SOL     OW 2353   4.042   5.440   2.004
  485SOL    HW1 2354   3.965   5.378   2.018
  485SOL    HW2 2355   4.074   5.432   1.909
  486SOL     OW 2356   0.472   0.746   6.601
  486SOL    HW1 2357   0.436   0.664   6.645
  486SOL    HW2 2358   0.408   0.775   6.529
  487SOL     OW 2359   6.399   3.105   6.795
  487SOL    HW1 2360   6.390   3.023   6.851
  487SOL    HW2 2361   6.349   3.180   6.837
  488SOL     OW 2362   0.366   3.320   2.353
  488SOL    HW1 2363   0.456   3.282   2.329
  488SOL    HW2 2364   0.294   3.258   2.323
  489SOL     OW 2365   3.149   6.043   5.863
  489SOL    HW1 2366   3.124   6.072   5.771
  489SOL    HW2 2367   3.069   6.003   5.908
  490SOL     OW 2368   4.998   6.281   4.405
  490SOL    HW1 2369   4.975   6.376   4.427
  490SOL    HW2 2370   4.966   6.222   4.479
  491SOL     OW 2371   0.192   2.329   3.166
  491SOL    HW1 2372   0.171   2.236   3.136
  491SOL    HW2 2373   0.108   2.373   3.197
  492SOL     OW 2374   1.713   1.049   4.945
  492SOL    HW1 2375   1.776   1.126   4.954
  492SOL    HW2 2376   1.683   1.020   5.036
  493SOL     OW 2377   6.269   3.923   3.939
  493SOL    HW1 2378   6.228   3.835   3.964
  493SOL    HW2 2379   6.197   3.984   3.904
  494SOL     OW 2380   6.572   1.646   6.730
  494SOL    HW1 2381   6.657   1.607   6.766
  494SOL    HW2 2382   6.518   1.573   6.687
  495SOL     OW 2383   3.837   4.662   1.080
  495SOL    HW1 2384   3.745   4.632   1.055
  495SOL    HW2 2385   3.860   4.744   1.027
  496SOL     OW 2386   6.346   3.260   3.575
  496SOL    HW1 2387   6.392   3.174   3.554
  496SOL    HW2 2388   6.413   3.329   3.600
  497SOL     OW 2389   4.240   0.243   3.987
  497SOL    HW1 2390   4.261   0.155   3.945
  497SOL    HW2 2391   4.324   0.297   3.998
  498SOL     OW 2392   1.030   3.416   2.963
  498SOL    HW1 2393   1.025   3.342   2.896
  498SOL    HW2 2394   1.125   3.444   2.976
  499SOL     OW 2395   3.415   1.619   5.203
  499SOL    HW1 2396   3.347   1.671   5.151
  499SOL    HW2 2397   3.392   1.623   5.301
  500SOL     OW 2398   1.167   3.913   2.601
  500SOL    HW1 2399   1.116   3.966   2.534
  500SOL    HW2 2400   1.264   3.914   2.579
  501SOL     OW 2401   0.789   4.885   6.450
  501SOL    HW1 2402   0.722   4.911   6.519
  501SOL    HW2 2403   0.744   4.836   6.376
  502SOL     OW 2404   3.001   5.235   6.449
  502SOL    HW1 2405   3.013   5.265   6.354
  502SOL    HW2 2406   3.088   5.245   6.498
  503SOL     OW 2407   5.609   5.750   4.905
  503SOL    HW1 2408   5.612   5.659   4.945
  503SOL    HW2 2409   5.531   5.755   4.842
  504SOL     OW 2410   1.858   5.511   4.247
  504SOL    HW1 2411   1.916   5.464   4.315
  504SOL    HW2 2412   1.911   5.584   4.204
  505SOL     OW 2413   4.341   6.891   5.650
  505SOL    HW1 2414   4.285   6.973   5.632
  505SOL    HW2 2415   4.282   6.810   5.648
  506SOL     OW 2416   2.337   3.587   6.905
  506SOL    HW1 2417   2.370   3.645   6.830
  506SOL    HW2 2418   2.416   3.547   6.952
  507SOL     OW 2419   3.637   1.578   4.166
  507SOL    HW1 2420   3.634   1.659   4.107
  507SOL    HW2 2421   3.583   1.505   4.125
  508SOL     OW 2422   6.222   4.485   4.042
  508SOL    HW1 2423   6.132   4.446   4.059
  508SOL    HW2 2424   6.230   4.572   4.091
  509SOL     OW 2425   4.641   2.249   1.880
  509SOL    HW1 2426   4.602   2.341   1.877
  509SOL    HW2 2427   4.741   2.255   1.875
  510SOL     OW 2428   6.961   3.950   4.109
  510SOL    HW1 2429   6.962   3.855   4.078
  510SOL    HW2 2430   6.889   4.000   4.061
  511SOL     OW 2431   0.312   6.398   1.133
  511SOL    HW1 2432   0.305   6.417   1.231
  511SOL    HW2 2433   0.273   6.473   1.081
  512SOL     OW 2434   0.492   3.860   6.600
  512SOL    HW1 2435   0.479   3.776   6.653
  512SOL    HW2 2436   0.568   3.847   6.537
  513SOL     OW 2437   6.821   5.695   4.427
  513SOL    HW1 2438   6.919   5.675   4.425
  513SOL    HW2 2439   6.779   5.664   4.342
  514SOL     OW 2440   5.885   1.594   3.771
  514SOL    HW1 2441   5.803   1.553   3.811
  514SOL    HW2 2442   5.964   1.535   3.788
  515SOL     OW 2443   1.826   6.400   0.353
  515SOL    HW1 2444   1.758   6.472   0.362
  515SOL    HW2 2445   1.848   6.363   0.444
  516SOL     OW 2446   1.219   5.050   2.462
  516SOL    HW1 2447   1.255   4.957   2.451
  516SOL    HW2 2448   1.251   5.089   2.548
  517SOL     OW 2449   4.944   0.700   6.783
  517SOL    HW1 2450   4.860   0.649   6.796
  517SOL    HW2 2451   4.975   0.690   6.688
  518SOL     OW 2452   2.691   1.998   0.526
  518SOL    HW1 2453   2.643   1.934   0.466
  518SOL    HW2 2454   2.747   1.948   0.591
  519SOL     OW 2455   0.396   6.779   0.859
  519SOL    HW1 2456   0.423   6.683   0.866
  519SOL    HW2 2457   0.300   6.785   0.832
  520SOL     OW 2458   6.268   4.121   5.275
  520SOL    HW1 2459   6.227   4.213   5.277
  520SOL    HW2 2460   6.367   4.130   5.264
  521SOL     OW 2461   6.628   0.871   0.994
  521SOL    HW1 2462   6.637   0.913   0.903
  521SOL    HW2 2463   6.582   0.936   1.055
  522SOL     OW 2464   3.639   3.561   5.352
  522SOL    HW1 2465   3.613   3.467   5.375
  522SOL    HW2 2466   3.705   3.559   5.277
  523SOL     OW 2467   6.689   6.430   5.064
  523SOL    HW1 2468   6.609   6.375   5.041
  523SOL    HW2 2469   6.753   6.429   4.987
  524SOL     OW 2470   4.217   1.542   5.644
  524SOL    HW1 2471   4.177   1.634   5.634
  524SOL    HW2 2472   4.147   1.473   5.625
  525SOL     OW 2473   2.570   2.994   6.554
  525SOL    HW1 2474   2.603   3.078   6.595
  525SOL    HW2 2475   2.645   2.928   6.547
  526SOL     OW 2476   4.502   5.963   4.829
  526SOL    HW1 2477   4.449   6.020   4.892
  526SOL    HW2 2478   4.549   6.021   4.763
  527SOL     OW 2479   1.087   2.101   6.878
  527SOL    HW1 2480   1.000   2.099   6.927
  527SOL    HW2 2481   1.072   2.132   6.784
  528SOL     OW 2482   2.341   0.552   5.402
  528SOL    HW1 2483   2.427   0.538   5.452
  528SOL    HW2 2484   2.264   0.554   5.465
  529SOL     OW 2485   6.903   4.572   4.298
  529SOL    HW1 2486   6.906   4.551   4.395
  529SOL    HW2 2487   6.813   4.608   4.273
  530SOL     OW 2488   1.457   2.817   5.151
  530SOL    HW1 2489   1.470   2.726   5.112
  530SOL    HW2 2490   1.403   2.873   5.088
  531SOL     OW 2491   0.214   0.641   0.299
  531SOL    HW1 2492   0.173   0.570   0.241
  531SOL    HW2 2493   0.159   0.724   0.292
  532SOL     OW 2494   2.204   0.274   5.305
  532SOL    HW1 2495   2.276   0.240   5.244
  532SOL    HW2 2496   2.234   0.267   5.400
  533SOL     OW 2497   5.605   0.113   4.504
  533SOL    HW1 2498   5.573   0.192   4.556
  533SOL    HW2 2499   5.684   0.073   4.550
  534SOL     OW 2500   3.955   5.736   2.116
  534SOL    HW1 2501   4.046   5.702   2.091
  534SOL    HW2 2502   3.955   5.765   2.211
  535SOL     OW 2503   6.783   4.182   2.985
  535SOL    HW1 2504   6.852   4.125   3.030
  535SOL    HW2 2505   6.715   4.211   3.052
  536SOL     OW 2506   1.294   5.706   0.632
  536SOL    HW1 2507   1.252   5.797   0.626
  536SOL    HW2 2508   1.345   5.698   0.717
  537SOL     OW 2509   2.222   0.395   2.694
  537SOL    HW1 2510   2.141   0.344   2.663
  537SOL    HW2 2511   2.291   0.394   2.621
  538SOL     OW 2512   1.435   4.299   3.574
  538SOL    HW1 2513   1.488   4.270   3.653
  538SOL    HW2 2514   1.338   4.282   3.590
  539SOL     OW 2515   1.372   5.274   1.170
  539SOL    HW1 2516   1.307   5.232   1.107
  539SOL    HW2 2517   1.324   5.308   1.251
  540SOL     OW 2518   1.564   2.510   1.416
  540SOL    HW1 2519   1.530   2.576   1.349
  540SOL    HW2 2520   1.664   2.507   1.411
  541SOL     OW 2521   4.002   5.406   5.168
  541SOL    HW1 2522   3.907   5.376   5.182
  541SOL    HW2 2523   4.050   5.339   5.111
  542SOL     OW 2524   5.936   6.073   0.066
  542SOL    HW1 2525   6.024   6.085   0.020
  542SOL    HW2 2526   5.865   6.123   0.016
  543SOL     OW 2527   0.144   6.120   6.978
  543SOL    HW1 2528   0.243   6.133   6.978
  543SOL    HW2 2529   0.114   6.087   0.043
  544SOL     OW 2530   1.274   5.720   6.938
  544SOL    HW1 2531   1.312   5.805   6.900
  544SOL    HW2 2532   1.299   5.643   6.879
  545SOL     OW 2533   3.394   2.116   3.979
  545SOL    HW1 2534   3.342   2.073   4.054
  545SOL    HW2 2535   3.330   2.148   3.909
  546SOL     OW 2536   1.232   3.150   6.844
  546SOL    HW1 2537   1.208   3.111   6.755
  546SOL    HW2 2538   1.250   3.248   6.833
  547SOL     OW 2539   3.157   2.350   0.027
  547SOL    HW1 2540   3.198   2.267   7.016
  547SOL    HW2 2541   3.064   2.331   0.058
  548SOL     OW 2542   3.305   3.283   5.143
  548SOL    HW1 2543   3.222   3.339   5.135
  548SOL    HW2 2544   3.322   3.236   5.057
  549SOL     OW 2545   0.541   3.949   1.467
  549SOL    HW1 2546   0.449   3.919   1.494
  549SOL    HW2 2547   0.578   3.886   1.399
  550SOL     OW 2548   6.904   3.830   1.634
  550SOL    HW1 2549   6.935   3.762   1.701
  550SOL    HW2 2550   6.932   3.802   1.543
  551SOL     OW 2551   6.889   1.999   6.842
  551SOL    HW1 2552   6.843   1.948   6.914
  551SOL    HW2 2553   6.965   2.051   6.881
  552SOL     OW 2554   4.988   5.742   0.569
  552SOL    HW1 2555   5.074   5.763   0.522
  552SOL    HW2 2556   4.993   5.650   0.606
  553SOL     OW 2557   1.399   1.818   1.480
  553SOL    HW1 2558   1.376   1.843   1.574
  553SOL    HW2 2559   1.370   1.890   1.418
  554SOL     OW 2560   4.935   5.661   5.001
  554SOL    HW1 2561   4.960   5.585   5.062
  554SOL    HW2 2562   4.966   5.640   4.908
  555SOL     OW 2563   1.894   4.342   4.610
  555SOL    HW1 2564   1.831   4.273   4.646
  555SOL    HW2 2565   1.863   4.372   4.520
  556SOL     OW 2566   5.858   3.214   2.999
  556SOL    HW1 2567   5.844   3.232   3.097
  556SOL    HW2 2568   5.956   3.207   2.981
  557SOL     OW 2569   6.847   5.288   6.225
  557SOL    HW1 2570   6.789   5.207   6.237
  557SOL    HW2 2571   6.943   5.262   6.237
  558SOL     OW 2572   4.346   3.727   5.602
  558SOL    HW1 2573   4.343   3.650   5.538
  558SOL    HW2 2574   4.439   3.738   5.636
  559SOL     OW 2575   6.068   5.816   5.965
  559SOL    HW1 2576   6.122   5.861   5.894
  559SOL    HW2 2577   6.129   5.779   6.035
  560SOL     OW 2578   3.979   6.410   0.110
  560SOL    HW1 2579   3.900   6.455   0.067
  560SOL    HW2 2580   4.054   6.475   0.118
  561SOL     OW 2581   5.444   6.339   1.300
  561SOL    HW1 2582   5.462   6.417   1.359
  561SOL    HW2 2583   5.367   6.360   1.239
  562SOL     OW 2584   6.501   0.807   6.797
  562SOL    HW1 2585   6.505   0.758   6.710
  562SOL    HW2 2586   6.410   0.796   6.837
  563SOL     OW 2587   3.320   0.086   4.825
  563SOL    HW1 2588   3.234   0.034   4.826
  563SOL    HW2 2589   3.332   0.129   4.735
  564SOL     OW 2590   6.968   1.858   6.584
  564SOL    HW1 2591   6.898   1.819   6.524
  564SOL    HW2 2592   6.925   1.896   6.666
  565SOL     OW 2593   4.533   4.354   5.339
  565SOL    HW1 2594   4.498   4.288   5.406
  565SOL    HW2 2595   4.617   4.318   5.297
  566SOL     OW 2596   5.550   5.141   2.239
  566SOL    HW1 2597   5.531   5.199   2.319
  566SOL    HW2 2598   5.567   5.047   2.269
  567SOL     OW 2599   4.027   3.828   4.225
  567SOL    HW1 2600   3.968   3.752   4.198
  567SOL    HW2 2601   4.013   3.850   4.321
  568SOL     OW 2602   1.912   1.239   6.001
  568SOL    HW1 2603   1.913   1.339   5.994
  568SOL    HW2 2604   1.917   1.212   6.097
  569SOL     OW 2605   2.490   3.501   0.102
  569SOL    HW1 2606   2.434   3.533   0.178
  569SOL    HW2 2607   2.579   3.472   0.136
  570SOL     OW 2608   0.205   6.044   1.248
  570SOL    HW1 2609   0.186   5.971   1.313
  570SOL    HW2 2610   0.267   6.009   1.176
  571SOL     OW 2611   4.397   5.367   2.905
  571SOL    HW1 2612   4.467   5.315   2.857
  571SOL    HW2 2613   4.321   5.307   2.928
  572SOL     OW 2614   2.147   4.336   4.725
  572SOL    HW1 2615   2.153   4.242   4.759
  572SOL    HW2 2616   2.065   4.346   4.669
  573SOL     OW 2617   3.825   2.518   6.331
  573SOL    HW1 2618   3.861   2.610   6.316
  573SOL    HW2 2619   3.901   2.455   6.349
  574SOL     OW 2620   2.767   1.350   4.319
  574SOL    HW1 2621   2.775   1.429   4.259
  574SOL    HW2 2622   2.822   1.365   4.402
  575SOL     OW 2623   5.554   2.108   6.371
  575SOL    HW1 2624   5.562   2.075   6.466
  575SOL    HW2 2625   5.612   2.189   6.359
  576SOL     OW 2626   0.889   2.248   2.643
  576SOL    HW1 2627   0.895   2.282   2.737
  576SOL    HW2 2628   0.952   2.299   2.585
  577SOL     OW 2629   2.713   2.351   4.188
  577SOL    HW1 2630   2.755   2.423   4.243
  577SOL    HW2 2631   2.698   2.270   4.246
  578SOL     OW 2632   0.082   3.490   4.677
  578SOL    HW1 2633   0.111   3.414   4.736
  578SOL    HW2 2634   7.015   3.471   4.643
  579SOL     OW 2635   3.707   3.560   0.550
  579SOL    HW1 2636   3.749   3.491   0.609
  579SOL    HW2 2637   3.769   3.638   0.540
  580SOL     OW 2638   0.598   5.937   6.913
  580SOL    HW1 2639   0.585   5.862   6.849
  580SOL    HW2 2640   0.663   5.910   6.984
  581SOL     OW 2641   3.903   3.329   2.277
  581SOL    HW1 2642   3.833   3.376   2.224
  581SOL    HW2 2643   3.990   3.333   2.228
  582SOL     OW 2644   6.239   4.291   1.731
  582SOL    HW1 2645   6.155   4.313   1.781
  582SOL    HW2 2646   6.299   4.371   1.732
  583SOL     OW 2647   2.426   5.688   6.808
  583SOL    HW1 2648   2.338   5.706   6.763
  583SOL    HW2 2649   2.497   5.745   6.766
  584SOL     OW 2650   0.769   5.245   4.971
  584SOL    HW1 2651   0.715   5.302   5.033
  584SOL    HW2 2652   0.864   5.274   4.973
  585SOL     OW 2653   6.179   1.509   5.654
  585SOL    HW1 2654   6.187   1.564   5.571
  585SOL    HW2 2655   6.261   1.454   5.665
  586SOL     OW 2656   2.528   5.863   0.929
  586SOL    HW1 2657   2.611   5.917   0.922
  586SOL    HW2 2658   2.551   5.766   0.930
  587SOL     OW 2659   1.178   3.794   5.957
  587SOL    HW1 2660   1.120   3.755   5.885
  587SOL    HW2 2661   1.155   3.752   6.045
  588SOL     OW 2662   2.401   0.009   1.612
  588SOL    HW1 2663   2.321   0.030   1.556
  588SOL    HW2 2664   2.390   6.944   1.653
  589SOL     OW 2665   4.499   5.205   2.288
  589SOL    HW1 2666   4.509   5.135   2.359
  589SOL    HW2 2667   4.405   5.239   2.287
  590SOL     OW 2668   6.564   2.145   1.599
  590SOL    HW1 2669   6.476   2.168   1.558
  590SOL    HW2 2670   6.592   2.053   1.570
  591SOL     OW 2671   2.860   6.458   2.707
  591SOL    HW1 2672   2.934   6.405   2.747
  591SOL    HW2 2673   2.774   6.407   2.716
  592SOL     OW 2674   5.512   0.558   6.569
  592SOL    HW1 2675   5.502   0.484   6.636
  592SOL    HW2 2676   5.591   0.539   6.510
  593SOL     OW 2677   6.095   1.307   4.129
  593SOL    HW1 2678   6.026   1.258   4.075
  593SOL    HW2 2679   6.186   1.287   4.093
  594SOL     OW 2680   5.214   2.911   1.928
  594SOL    HW1 2681   5.115   2.912   1.913
  594SOL    HW2 2682   5.260   2.871   1.849
  595SOL     OW 2683   4.752   6.807   3.980
  595SOL    HW1 2684   4.681   6.869   3.946
  595SOL    HW2 2685   4.747   6.802   4.080
  596SOL     OW 2686   0.907   4.120   2.485
  596SOL    HW1 2687   0.911   4.028   2.447
  596SOL    HW2 2688   0.953   4.184   2.423
  597SOL     OW 2689   4.366   2.346   6.071
  597SOL    HW1 2690   4.405   2.267   6.023
  597SOL    HW2 2691   4.305   2.396   6.009
  598SOL     OW 2692   3.000   3.949   1.099
  598SOL    HW1 2693   3.028   4.016   1.167
  598SOL    HW2 2694   2.963   3.868   1.144
  599SOL     OW 2695   0.060   6.691   3.285
  599SOL    HW1 2696   0.084   6.626   3.357
  599SOL    HW2 2697   0.041   6.641   3.200
  600SOL     OW 2698   2.389   1.104   1.691
  600SOL    HW1 2699   2.437   1.058   1.616
  600SOL    HW2 2700   2.455   1.145   1.754
  601SOL     OW 2701   2.388   4.923   3.347
  601SOL    HW1 2702   2.485   4.903   3.361
  601SOL    HW2 2703   2.357   4.878   3.263
  602SOL     OW 2704   0.448   0.657   1.652
  602SOL    HW1 2705   0.417   0.727   1.716
  602SOL    HW2 2706   0.493   0.583   1.703
  603SOL     OW 2707   3.753   2.012   3.067
  603SOL    HW1 2708   3.718   2.031   2.976
  603SOL    HW2 2709   3.811   1.931   3.065
  604SOL     OW 2710   0.757   4.312   5.542
  604SOL    HW1 2711   0.772   4.237   5.605
  604SOL    HW2 2712   0.798   4.290   5.453
  605SOL     OW 2713   5.966   6.803   4.791
  605SOL    HW1 2714   6.057   6.816   4.751
  605SOL    HW2 2715   5.952   6.706   4.811
  606SOL     OW 2716   3.700   6.885   2.666
  606SOL    HW1 2717   3.781   6.914   2.615
  606SOL    HW2 2718   3.711   6.907   2.763
  607SOL     OW 2719   4.220   0.735   3.933
  607SOL    HW1 2720   4.130   0.774   3.916
  607SOL    HW2 2721   4.241   0.739   4.030
  608SOL     OW 2722   5.010   1.941   1.832
  608SOL    HW1 2723   5.012   1.970   1.927
  608SOL    HW2 2724   5.086   1.879   1.814
  609SOL     OW 2725   2.969   3.372   4.808
  609SOL    HW1 2726   2.966   3.407   4.901
  609SOL    HW2 2727   3.044   3.307   4.799
  610SOL     OW 2728   6.058   1.572   4.742
  610SOL    HW1 2729   6.150   1.606   4.719
  610SOL    HW2 2730   6.018   1.630   4.812
  611SOL     OW 2731   5.956   0.039   0.136
  611SOL    HW1 2732   5.856   0.046   0.131
  611SOL    HW2 2733   5.998   0.107   0.075
  612SOL     OW 2734   2.655   5.225   5.889
  612SOL    HW1 2735   2.580   5.250   5.828
  612SOL    HW2 2736   2.691   5.135   5.862
  613SOL     OW 2737   3.783   1.580   6.675
  613SOL    HW1 2738   3.821   1.654   6.730
  613SOL    HW2 2739   3.698   1.610   6.631
  614SOL     OW 2740   5.495   3.393   1.184
  614SOL    HW1 2741   5.557   3.332   1.233
  614SOL    HW2 2742   5.450   3.454   1.250
  615SOL     OW 2743   5.097   0.171   0.942
  615SOL    HW1 2744   5.140   0.207   1.026
  615SOL    HW2 2745   5.100   0.071   0.944
  616SOL     OW 2746   5.587   0.586   4.729
  616SOL    HW1 2747   5.539   0.659   4.778
  616SOL    HW2 2748   5.679   0.617   4.703
  617SOL     OW 2749   6.960   5.970   5.552
  617SOL    HW1 2750   6.995   5.905   5.484
  617SOL    HW2 2751   6.860   5.964   5.555
  618SOL     OW 2752   5.790   4.836   0.218
  618SOL    HW1 2753   5.843   4.914   0.250
  618SOL    HW2 2754   5.795   4.762   0.285
  619SOL     OW 2755   2.681   6.682   5.873
  619SOL    HW1 2756   2.748   6.608   5.884
  619SOL    HW2 2757   2.590   6.642   5.861
  620SOL     OW 2758   5.089   1.762   2.741
  620SOL    HW1 2759   5.051   1.806   2.660
  620SOL    HW2 2760   5.047   1.800   2.823
  621SOL     OW 2761   2.999   0.507   6.549
  621SOL    HW1 2762   2.985   0.505   6.450
  621SOL    HW2 2763   2.992   0.414   6.586
  622SOL     OW 2764   0.229   3.137   5.548
  622SOL    HW1 2765   0.168   3.180   5.481
  622SOL    HW2 2766   0.175   3.082   5.612
  623SOL     OW 2767   6.701   0.248   3.161
  623SOL    HW1 2768   6.698   0.174   3.094
  623SOL    HW2 2769   6.633   0.230   3.233
  624SOL     OW 2770   6.774   1.445   5.860
  624SOL    HW1 2771   6.773   1.540   5.889
  624SOL    HW2 2772   6.719   1.390   5.924
  625SOL     OW 2773   3.561   1.092   1.049
  625SOL    HW1 2774   3.552   1.000   1.087
  625SOL    HW2 2775   3.621   1.146   1.108
  626SOL     OW 2776   0.037   6.019   3.285
  626SOL    HW1 2777   7.009   6.037   3.368
  626SOL    HW2 2778   0.132   6.000   3.310
  627SOL     OW 2779   6.482   5.897   0.535
  627SOL    HW1 2780   6.487   5.850   0.624
  627SOL    HW2 2781   6.501   5.832   0.462
  628SOL     OW 2782   3.649   4.891   5.991
  628SOL    HW1 2783   3.744   4.891   6.022
  628SOL    HW2 2784   3.642   4.941   5.905
  629SOL     OW 2785   1.142   6.726   6.986
  629SOL    HW1 2786   1.225   6.710   6.933
  629SOL    HW2 2787   1.149   6.678   0.048
  630SOL     OW 2788   7.010   1.724   1.028
  630SOL    HW1 2789   6.990   1.821   1.018
  630SOL    HW2 2790   0.075   1.704   0.989
  631SOL     OW 2791   1.628   2.905   3.501
  631SOL    HW1 2792   1.672   2.935   3.586
  631SOL    HW2 2793   1.690   2.844   3.452
  632SOL     OW 2794   2.592   4.006   0.572
  632SOL    HW1 2795   2.601   4.034   0.477
  632SOL    HW2 2796   2.637   4.072   0.632
  633SOL     OW 2797   1.695   5.641   0.507
  633SOL    HW1 2798   1.785   5.597   0.503
  633SOL    HW2 2799   1.641   5.613   0.427
  634SOL     OW 2800   3.102   3.110   4.849
  634SOL    HW1 2801   3.047   3.157   4.918
  634SOL    HW2 2802   3.044   3.051   4.794
  635SOL     OW 2803   5.625   6.984   6.286
  635SOL    HW1 2804   5.695   6.991   6.357
  635SOL    HW2 2805   5.566   6.905   6.305
  636SOL     OW 2806   2.795   0.967   5.062
  636SOL    HW1 2807   2.712   1.005   5.103
  636SOL    HW2 2808   2.821   1.020   4.982
  637SOL     OW 2809   0.228   1.366   2.859
  637SOL    HW1 2810   0.255   1.341   2.765
  637SOL    HW2 2811   0.132   1.393   2.860
  638SOL     OW 2812   6.441   3.090   5.142
  638SOL    HW1 2813   6.349   3.061   5.165
  638SOL    HW2 2814   6.445   3.115   5.045
  639SOL     OW 2815   5.854   4.299   2.164
  639SOL    HW1 2816   5.788   4.312   2.238
  639SOL    HW2 2817   5.929   4.364   2.175
  640SOL     OW 2818   0.164   3.196   2.190
  640SOL    HW1 2819   0.065   3.209   2.187
  640SOL    HW2 2820   0.195   3.151   2.107
  641SOL     OW 2821   2.729   5.553   4.766
  641SOL    HW1 2822   2.688   5.470   4.728
  641SOL    HW2 2823   2.828   5.541   4.771
  642SOL     OW 2824   0.096   5.478   4.795
  642SOL    HW1 2825   0.102   5.543   4.871
  642SOL    HW2 2826   0.174   5.416   4.798
  643SOL     OW 2827   4.393   5.081   0.731
  643SOL    HW1 2828   4.368   5.147   0.660
  643SOL    HW2 2829   4.310   5.035   0.764
  644SOL     OW 2830   6.616   6.332   5.372
  644SOL    HW1 2831   6.668   6.407   5.332
  644SOL    HW2 2832   6.617   6.340   5.471
  645SOL     OW 2833   4.079   5.842   2.347
  645SOL    HW1 2834   4.122   5.758   2.379
  645SOL    HW2 2835   4.135   5.920   2.374
  646SOL     OW 2836   3.647   2.065   4.700
  646SOL    HW1 2837   3.580   2.127   4.741
  646SOL    HW2 2838   3.603   1.978   4.677
  647SOL     OW 2839   3.642   2.470   6.542
  647SOL    HW1 2840   3.690   2.517   6.467
  647SOL    HW2 2841   3.607   2.538   6.607
  648SOL     OW 2842   6.315   1.257   3.646
  648SOL    HW1 2843   6.377   1.280   3.571
  648SOL    HW2 2844   6.233   1.214   3.610
  649SOL     OW 2845   2.692   5.264   0.428
  649SOL    HW1 2846   2.748   5.318   0.366
  649SOL    HW2 2847   2.730   5.171   0.436
  650SOL     OW 2848   0.426   3.427   0.902
  650SOL    HW1 2849   0.491   3.425   0.826
  650SOL    HW2 2850   0.421   3.336   0.943
  651SOL     OW 2851   0.488   0.354   3.535
  651SOL    HW1 2852   0.488   0.263   3.494
  651SOL    HW2 2853   0.576   0.399   3.520
  652SOL     OW 2854   4.231   5.279   1.072
  652SOL    HW1 2855   4.277   5.216   1.134
  652SOL    HW2 2856   4.298   5.321   1.011
  653SOL     OW 2857   1.220   6.108   2.576
  653SOL    HW1 2858   1.277   6.102   2.494
  653SOL    HW2 2859   1.214   6.204   2.605
  654SOL     OW 2860   0.576   0.081   5.703
  654SOL    HW1 2861   0.645   0.138   5.659
  654SOL    HW2 2862   0.491   0.132   5.713
  655SOL     OW 2863   0.771   4.012   1.304
  655SOL    HW1 2864   0.816   4.005   1.394
  655SOL    HW2 2865   0.699   4.081   1.308
  656SOL     OW 2866   2.981   6.266   6.906
  656SOL    HW1 2867   3.010   6.185   6.856
  656SOL    HW2 2868   2.894   6.298   6.870
  657SOL     OW 2869   3.735   3.200   3.320
  657SOL    HW1 2870   3.782   3.117   3.349
  657SOL    HW2 2871   3.716   3.257   3.400
  658SOL     OW 2872   1.003   1.378   4.154
  658SOL    HW1 2873   1.021   1.452   4.090
  658SOL    HW2 2874   0.966   1.299   4.104
  659SOL     OW 2875   2.046   5.532   6.591
  659SOL    HW1 2876   2.058   5.503   6.686
  659SOL    HW2 2877   1.951   5.519   6.564
  660SOL     OW 2878   5.695   4.458   2.717
  660SOL    HW1 2879   5.768   4.391   2.732
  660SOL    HW2 2880   5.653   4.482   2.805
  661SOL     OW 2881   4.298   5.290   3.817
  661SOL    HW1 2882   4.210   5.285   3.770
  661SOL    HW2 2883   4.297   5.367   3.881
  662SOL     OW 2884   4.799   3.634   0.135
  662SOL    HW1 2885   4.756   3.723   0.121
  662SOL    HW2 2886   4.772   3.597   0.224
  663SOL     OW 2887   6.986   4.272   0.197
  663SOL    HW1 2888   0.057   4.245   0.197
  663SOL    HW2 2889   6.940   4.234   0.277
  664SOL     OW 2890   1.707   6.893   6.187
  664SOL    HW1 2891   1.785   6.938   6.144
  664SOL    HW2 2892   1.665   6.830   6.121
  665SOL     OW 2893   2.809   4.978   2.921
  665SOL    HW1 2894   2.904   4.975   2.890
  665SOL    HW2 2895   2.759   5.046   2.867
  666SOL     OW 2896   3.228   1.180   6.770
  666SOL    HW1 2897   3.298   1.221   6.712
  666SOL    HW2 2898   3.260   1.178   6.865
  667SOL     OW 2899   1.669   3.375   2.242
  667SOL    HW1 2900   1.691   3.469   2.215
  667SOL    HW2 2901   1.680   3.314   2.163
  668SOL     OW 2902   4.886   0.275   0.765
  668SOL    HW1 2903   4.956   0.232   0.823
  668SOL    HW2 2904   4.828   0.334   0.821
  669SOL     OW 2905   0.920   5.889   2.790
  669SOL    HW1 2906   0.984   5.852   2.723
  669SOL    HW2 2907   0.834   5.913   2.746
  670SOL     OW 2908   3.710   3.447   3.115
  670SOL    HW1 2909   3.727   3.541   3.146
  670SOL    HW2 2910   3.751   3.383   3.179
  671SOL     OW 2911   1.810   0.661   6.632
  671SOL    HW1 2912   1.868   0.692   6.556
  671SOL    HW2 2913   1.724   0.713   6.632
  672SOL     OW 2914   0.861   2.431   2.842
  672SOL    HW1 2915   0.807   2.436   2.926
  672SOL    HW2 2916   0.921   2.511   2.835
  673SOL     OW 2917   4.948   0.440   0.210
  673SOL    HW1 2918   5.022   0.450   0.276
  673SOL    HW2 2919   4.947   0.519   0.149
  674SOL     OW 2920   0.004   2.200   4.847
  674SOL    HW1 2921   6.944   2.147   4.844
  674SOL    HW2 2922   0.041   2.198   4.940
  675SOL     OW 2923   6.297   6.578   3.820
  675SOL    HW1 2924   6.343   6.605   3.905
  675SOL    HW2 2925   6.256   6.658   3.777
  676SOL     OW 2926   2.838   5.388   4.222
  676SOL    HW1 2927   2.897   5.418   4.298
  676SOL    HW2 2928   2.743   5.390   4.251
  677SOL     OW 2929   4.590   6.595   0.700
  677SOL    HW1 2930   4.686   6.596   0.728
  677SOL    HW2 2931   4.551   6.686   0.716
  678SOL     OW 2932   2.361   1.189   5.514
  678SOL    HW1 2933   2.345   1.094   5.486
  678SOL    HW2 2934   2.273   1.236   5.524
  679SOL     OW 2935   6.223   0.759   2.172
  679SOL    HW1 2936   6.229   0.855   2.145
  679SOL    HW2 2937   6.233   0.753   2.272
  680SOL     OW 2938   5.836   4.480   4.467
  680SOL    HW1 2939   5.843   4.472   4.566
  680SOL    HW2 2940   5.900   4.551   4.435
  681SOL     OW 2941   1.172   6.674   2.057
  681SOL    HW1 2942   1.208   6.585   2.030
  681SOL    HW2 2943   1.101   6.661   2.127
  682SOL     OW 2944   0.013   0.279   6.147
  682SOL    HW1 2945   6.973   0.352   6.126
  682SOL    HW2 2946   7.005   0.193   6.107
  683SOL     OW 2947   5.068   1.687   1.198
  683SOL    HW1 2948   5.013   1.660   1.277
  683SOL    HW2 2949   5.057   1.620   1.125
  684SOL     OW 2950   0.337   5.897   6.056
  684SOL    HW1 2951   0.396   5.862   5.983
  684SOL    HW2 2952   0.282   5.821   6.093
  685SOL     OW 2953   6.304   0.487   6.485
  685SOL    HW1 2954   6.247   0.447   6.556
  685SOL    HW2 2955   6.377   0.422   6.461
  686SOL     OW 2956   5.825   4.923   2.947
  686SOL    HW1 2957   5.869   4.881   3.026
  686SOL    HW2 2958   5.895   4.950   2.880
  687SOL     OW 2959   5.861   2.339   5.770
  687SOL    HW1 2960   5.863   2.368   5.674
  687SOL    HW2 2961   5.873   2.419   5.829
  688SOL     OW 2962   6.804   3.233   5.031
  688SOL    HW1 2963   6.808   3.326   4.995
  688SOL    HW2 2964   6.743   3.232   5.111
  689SOL     OW 2965   5.934   4.177   4.950
  689SOL    HW1 2966   5.857   4.113   4.954
  689SOL    HW2 2967   6.014   4.136   4.996
  690SOL     OW 2968   0.273   3.395   3.878
  690SOL    HW1 2969   0.362   3.436   3.895
  690SOL    HW2 2970   0.279   3.334   3.798
  691SOL     OW 2971   7.012   3.340   6.858
  691SOL    HW1 2972   7.012   3.283   6.776
  691SOL    HW2 2973   7.015   3.282   6.939
  692SOL     OW 2974   2.658   0.082   2.945
  692SOL    HW1 2975   2.584   0.042   2.999
  692SOL    HW2 2976   2.630   0.090   2.850
  693SOL     OW 2977   6.122   1.773   2.831
  693SOL    HW1 2978   6.169   1.690   2.801
  693SOL    HW2 2979   6.172   1.853   2.799
  694SOL     OW 2980   1.473   0.015   2.281
  694SOL    HW1 2981   1.453   6.943   2.285
  694SOL    HW2 2982   1.451   0.058   2.369
  695SOL     OW 2983   4.727   5.584   6.265
  695SOL    HW1 2984   4.635   5.547   6.252
  695SOL    HW2 2985   4.721   5.680   6.291
  696SOL     OW 2986   5.364   6.705   2.713
  696SOL    HW1 2987   5.360   6.804   2.694
  696SOL    HW2 2988   5.454   6.670   2.689
  697SOL     OW 2989   1.702   3.899   4.095
  697SOL    HW1 2990   1.763   3.977   4.115
  697SOL    HW2 2991   1.609   3.932   4.082
  698SOL     OW 2992   5.218   5.868   4.164
  698SOL    HW1 2993   5.316   5.880   4.150
  698SOL    HW2 2994   5.177   5.827   4.083
  699SOL     OW 2995   0.964   4.392   6.687
  699SOL    HW1 2996   0.919   4.336   6.757
  699SOL    HW2 2997   0.943   4.488   6.703
  700SOL     OW 2998   2.207   1.591   4.265
  700SOL    HW1 2999   2.202   1.522   4.193
  700SOL    HW2 3000   2.184   1.548   4.353
  701SOL     OW 3001   0.969   4.932   5.861
  701SOL    HW1 3002   0.945   4.835   5.871
  701SOL    HW2 3003   0.888   4.988   5.876
  702SOL     OW 3004   5.450   6.024   4.893
  702SOL    HW1 3005   5.513   6.099   4.915
  702SOL    HW2 3006   5.483   5.976   4.812
  703SOL     OW 3007   4.841   4.143   6.309
  703SOL    HW1 3008   4.790   4.206   6.367
  703SOL    HW2 3009   4.782   4.110   6.235
  704SOL     OW 3010   2.383   0.278   1.712
  704SOL    HW1 3011   2.441   0.336   1.654
  704SOL    HW2 3012   2.392   0.183   1.684
  705SOL     OW 3013   6.963   2.185   3.512
  705SOL    HW1 3014   6.875   2.152   3.545
  705SOL    HW2 3015   6.971   2.165   3.414
  706SOL     OW 3016   5.115   2.781   3.912
  706SOL    HW1 3017   5.089   2.689   3.939
  706SOL    HW2 3018   5.174   2.776   3.831
  707SOL     OW 3019   4.558   2.167   2.572
  707SOL    HW1 3020   4.553   2.259   2.612
  707SOL    HW2 3021   4.623   2.112   2.625
  708SOL     OW 3022   4.561   0.354   1.996
  708SOL    HW1 3023   4.567   0.448   1.961
  708SOL    HW2 3024   4.627   0.341   2.070
  709SOL     OW 3025   0.935   5.386   0.155
  709SOL    HW1 3026   0.852   5.422   0.113
  709SOL    HW2 3027   0.928   5.286   0.161
  710SOL     OW 3028   2.861   3.328   2.353
  710SOL    HW1 3029   2.953   3.364   2.340
  710SOL    HW2 3030   2.863   3.228   2.347
  711SOL     OW 3031   1.106   1.347   4.923
  711SOL    HW1 3032   1.115   1.434   4.970
  711SOL    HW2 3033   1.031   1.353   4.857
  712SOL     OW 3034   1.152   3.785   2.184
  712SOL    HW1 3035   1.247   3.812   2.175
  712SOL    HW2 3036   1.126   3.727   2.107
  713SOL     OW 3037   3.236   3.878   3.786
  713SOL    HW1 3038   3.168   3.839   3.847
  713SOL    HW2 3039   3.328   3.857   3.820
  714SOL     OW 3040   5.122   5.154   5.620
  714SOL    HW1 3041   5.102   5.166   5.718
  714SOL    HW2 3042   5.114   5.242   5.573
  715SOL     OW 3043   5.035   0.769   6.393
  715SOL    HW1 3044   4.984   0.842   6.439
  715SOL    HW2 3045   5.132   0.796   6.386
  716SOL     OW 3046   6.699   5.211   1.761
  716SOL    HW1 3047   6.732   5.296   1.719
  716SOL    HW2 3048   6.777   5.155   1.790
  717SOL     OW 3049   5.995   3.140   0.236
  717SOL    HW1 3050   6.052   3.099   0.307
  717SOL    HW2 3051   6.048   3.207   0.184
  718SOL     OW 3052   2.487   2.943   6.876
  718SOL    HW1 3053   2.393   2.975   6.890
  718SOL    HW2 3054   2.536   3.007   6.817
  719SOL     OW 3055   4.911   5.252   0.491
  719SOL    HW1 3056   4.920   5.333   0.548
  719SOL    HW2 3057   4.837   5.195   0.524
  720SOL     OW 3058   2.917   1.085   6.019
  720SOL    HW1 3059   2.825   1.099   5.983
  720SOL    HW2 3060   2.957   1.003   5.978
  721SOL     OW 3061   1.283   6.332   5.534
  721SOL    HW1 3062   1.313   6.247   5.491
  721SOL    HW2 3063   1.242   6.392   5.465
  722SOL     OW 3064   4.398   6.612   5.536
  722SOL    HW1 3065   4.489   6.614   5.494
  722SOL    HW2 3066   4.386   6.525   5.585
  723SOL     OW 3067   1.671   3.468   1.775
  723SOL    HW1 3068   1.626   3.512   1.853
  723SOL    HW2 3069   1.685   3.371   1.796
  724SOL     OW 3070   6.543   0.273   4.537
  724SOL    HW1 3071   6.463   0.216   4.518
  724SOL    HW2 3072   6.524   0.330   4.618
  725SOL     OW 3073   2.683   4.814   1.598
  725SOL    HW1 3074   2.755   4.881   1.615
  725SOL    HW2 3075   2.654   4.773   1.684
  726SOL     OW 3076   4.562   6.580   5.931
  726SOL    HW1 3077   4.639   6.567   5.992
  726SOL    HW2 3078   4.572   6.521   5.851
  727SOL     OW 3079   2.314   4.255   3.779
  727SOL    HW1 3080   2.267   4.173   3.746
  727SOL    HW2 3081   2.377   4.231   3.853
  728SOL     OW 3082   0.065   3.170   5.326
  728SOL    HW1 3083   7.013   3.118   5.289
  728SOL    HW2 3084   0.087   3.246   5.264
  729SOL     OW 3085   3.285   0.832   0.773
  729SOL    HW1 3086   3.348   0.908   0.754
  729SOL    HW2 3087   3.198   0.848   0.726
  730SOL     OW 3088   5.375   1.387   5.113
  730SOL    HW1 3089   5.420   1.413   5.028
  730SOL    HW2 3090   5.287   1.435   5.120
  731SOL     OW 3091   6.857   2.816   4.312
  731SOL    HW1 3092   6.926   2.775   4.253
  731SOL    HW2 3093   6.781   2.752   4.324
  732SOL     OW 3094   6.759   3.290   3.535
  732SOL    HW1 3095   6.812   3.372   3.511
  732SOL    HW2 3096   6.791   3.213   3.479
  733SOL     OW 3097   4.498   4.915   4.458
  733SOL    HW1 3098   4.488   4.945   4.553
  733SOL    HW2 3099   4.430   4.844   4.438
  734SOL     OW 3100   0.902   5.126   0.112
  734SOL    HW1 3101   0.996   5.092   0.113
  734SOL    HW2 3102   0.860   5.100   0.025
  735SOL     OW 3103   2.483   4.927   6.843
  735SOL    HW1 3104   2.481   4.998   6.913
  735SOL    HW2 3105   2.401   4.869   6.853
  736SOL     OW 3106   5.745   1.235   2.732
  736SOL    HW1 3107   5.800   1.152   2.744
  736SOL    HW2 3108   5.710   1.239   2.639
  737SOL     OW 3109   5.840   3.944   0.611
  737SOL    HW1 3110   5.923   3.983   0.572
  737SOL    HW2 3111   5.760   3.985   0.567
  738SOL     OW 3112   0.828   4.478   2.991
  738SOL    HW1 3113   0.740   4.429   2.988
  738SOL    HW2 3114   0.820   4.557   3.051
  739SOL     OW 3115   4.405   6.130   6.370
  739SOL    HW1 3116   4.487   6.125   6.313
  739SOL    HW2 3117   4.432   6.142   6.466
  740SOL     OW 3118   5.484   0.332   0.458
  740SOL    HW1 3119   5.549   0.340   0.383
  740SOL    HW2 3120   5.528   0.359   0.544
  741SOL     OW 3121   2.709   0.380   3.994
  741SOL    HW1 3122   2.733   0.288   3.964
  741SOL    HW2 3123   2.677   0.434   3.916
  742SOL     OW 3124   1.354   6.791   2.303
  742SOL    HW1 3125   1.289   6.756   2.236
  742SOL    HW2 3126   1.443   6.746   2.290
  743SOL     OW 3127   1.788   3.013   4.488
  743SOL    HW1 3128   1.794   2.923   4.531
  743SOL    HW2 3129   1.880   3.045   4.464
  744SOL     OW 3130   0.433   5.501   0.869
  744SOL    HW1 3131   0.470   5.524   0.779
  744SOL    HW2 3132   0.360   5.564   0.892
  745SOL     OW 3133   1.898   5.701   3.129
  745SOL    HW1 3134   1.918   5.605   3.109
  745SOL    HW2 3135   1.983   5.749   3.151
  746SOL     OW 3136   3.013   0.782   4.074
  746SOL    HW1 3137   2.959   0.831   4.142
  746SOL    HW2 3138   3.105   0.767   4.109
  747SOL     OW 3139   6.119   4.292   1.385
  747SOL    HW1 3140   6.140   4.366   1.448
  747SOL    HW2 3141   6.194   4.280   1.320
  748SOL     OW 3142   3.989   3.040   2.115
  748SOL    HW1 3143   3.994   3.139   2.131
  748SOL    HW2 3144   3.995   3.022   2.017
  749SOL     OW 3145   6.571   1.614   5.012
  749SOL    HW1 3146   6.489   1.659   4.975
  749SOL    HW2 3147   6.555   1.591   5.108
  750SOL     OW 3148   2.876   3.505   1.335
  750SOL    HW1 3149   2.790   3.479   1.379
  750SOL    HW2 3150   2.933   3.423   1.326
  751SOL     OW 3151   5.080   1.395   0.647
  751SOL    HW1 3152   5.142   1.328   0.688
  751SOL    HW2 3153   5.089   1.482   0.695
  752SOL     OW 3154   4.543   1.191   1.907
  752SOL    HW1 3155   4.637   1.160   1.924
  752SOL    HW2 3156   4.480   1.139   1.964
  753SOL     OW 3157   2.700   1.238   2.426
  753SOL    HW1 3158   2.756   1.155   2.419
  753SOL    HW2 3159   2.625   1.222   2.490
  754SOL     OW 3160   5.286   5.831   7.006
  754SOL    HW1 3161   5.275   5.815   6.908
  754SOL    HW2 3162   5.247   5.754   0.031
  755SOL     OW 3163   6.854   5.907   3.127
  755SOL    HW1 3164   6.930   5.863   3.079
  755SOL    HW2 3165   6.890   5.957   3.206
  756SOL     OW 3166   3.380   6.470   3.669
  756SOL    HW1 3167   3.379   6.479   3.569
  756SOL    HW2 3168   3.458   6.521   3.706
  757SOL     OW 3169   6.548   1.034   4.972
  757SOL    HW1 3170   6.519   1.129   4.980
  757SOL    HW2 3171   6.513   0.995   4.886
  758SOL     OW 3172   4.527   2.033   1.991
  758SOL    HW1 3173   4.447   2.022   1.931
  758SOL    HW2 3174   4.588   2.102   1.951
  759SOL     OW 3175   1.702   0.490   0.630
  759SOL    HW1 3176   1.646   0.408   0.620
  759SOL    HW2 3177   1.735   0.497   0.725
  760SOL     OW 3178   4.654   2.294   5.807
  760SOL    HW1 3179   4.721   2.227   5.777
  760SOL    HW2 3180   4.565   2.251   5.816
  761SOL     OW 3181   5.701   1.515   0.123
  761SOL    HW1 3182   5.785   1.555   0.158
  761SOL    HW2 3183   5.636   1.503   0.198
  762SOL     OW 3184   2.101   5.216   4.185
  762SOL    HW1 3185   2.004   5.215   4.159
  762SOL    HW2 3186   2.153   5.267   4.117
  763SOL     OW 3187   5.848   5.258   6.533
  763SOL    HW1 3188   5.779   5.211   6.588
  763SOL    HW2 3189   5.833   5.356   6.537
  764SOL     OW 3190   4.832   1.156   2.989
  764SOL    HW1 3191   4.906   1.172   2.923
  764SOL    HW2 3192   4.819   1.058   3.001
  765SOL     OW 3193   6.589   6.602   3.420
  765SOL    HW1 3194   6.657   6.665   3.383
  765SOL    HW2 3195   6.567   6.628   3.514
  766SOL     OW 3196   0.296   6.470   7.020
  766SOL    HW1 3197   0.335   6.410   0.065
  766SOL    HW2 3198   0.320   6.435   6.929
  767SOL     OW 3199   5.768   6.934   1.324
  767SOL    HW1 3200   5.749   7.019   1.276
  767SOL    HW2 3201   5.866   6.916   1.323
  768SOL     OW 3202   3.092   6.787   3.742
  768SOL    HW1 3203   3.113   6.882   3.764
  768SOL    HW2 3204   3.051   6.743   3.822
  769SOL     OW 3205   2.971   0.711   6.731
  769SOL    HW1 3206   3.015   0.687   6.817
  769SOL    HW2 3207   2.970   0.632   6.670
  770SOL     OW 3208   2.953   5.156   3.369
  770SOL    HW1 3209   2.868   5.192   3.332
  770SOL    HW2 3210   2.964   5.061   3.342
  771SOL     OW 3211   0.071   5.634   4.409
  771SOL    HW1 3212   0.149   5.672   4.458
  771SOL    HW2 3213   0.101   5.558   4.351
  772SOL     OW 3214   6.722   4.351   5.019
  772SOL    HW1 3215   6.745   4.347   4.922
  772SOL    HW2 3216   6.693   4.444   5.042
  773SOL     OW 3217   0.262   3.714   1.908
  773SOL    HW1 3218   0.298   3.741   1.819
  773SOL    HW2 3219   0.255   3.614   1.912
  774SOL     OW 3220   1.537   1.398   1.560
  774SOL    HW1 3221   1.475   1.356   1.627
  774SOL    HW2 3222   1.625   1.352   1.563
  775SOL     OW 3223   1.089   2.207   4.423
  775SOL    HW1 3224   1.176   2.160   4.405
  775SOL    HW2 3225   1.096   2.259   4.508
  776SOL     OW 3226   2.248   0.324   5.610
  776SOL    HW1 3227   2.158   0.282   5.596
  776SOL    HW2 3228   2.315   0.252   5.628
  777SOL     OW 3229   4.238   0.497   0.289
  777SOL    HW1 3230   4.216   0.438   0.210
  777SOL    HW2 3231   4.176   0.575   0.290
  778SOL     OW 3232   4.240   5.621   4.211
  778SOL    HW1 3233   4.310   5.659   4.272
  778SOL    HW2 3234   4.201   5.539   4.253
  779SOL     OW 3235   1.010   0.920   2.758
  779SOL    HW1 3236   1.083   0.987   2.769
  779SOL    HW2 3237   1.028   0.863   2.678
  780SOL     OW 3238   5.015   3.400   5.265
  780SOL    HW1 3239   5.095   3.396   5.325
  780SOL    HW2 3240   5.023   3.331   5.193
  781SOL     OW 3241   0.898   2.090   6.520
  781SOL    HW1 3242   0.806   2.079   6.482
  781SOL    HW2 3243   0.953   2.008   6.500
  782SOL     OW 3244   0.399   4.078   0.749
  782SOL    HW1 3245   0.485   4.091   0.699
  782SOL    HW2 3246   0.411   4.111   0.843
  783SOL     OW 3247   2.178   4.044   0.427
  783SOL    HW1 3248   2.125   3.960   0.440
  783SOL    HW2 3249   2.224   4.040   0.338
  784SOL     OW 3250   5.084   6.304   3.698
  784SOL    HW1 3251   5.124   6.227   3.748
  784SOL    HW2 3252   4.988   6.285   3.679
  785SOL     OW 3253   5.924   2.302   4.077
  785SOL    HW1 3254   5.899   2.209   4.102
  785SOL    HW2 3255   5.934   2.357   4.160
  786SOL     OW 3256   6.404   0.124   0.056
  786SOL    HW1 3257   6.467   0.116   0.133
  786SOL    HW2 3258   6.351   0.039   0.047
  787SOL     OW 3259   4.315   1.235   6.764
  787SOL    HW1 3260   4.233   1.291   6.752
  787SOL    HW2 3261   4.298   1.166   6.834
  788SOL     OW 3262   0.760   4.939   3.795
  788SOL    HW1 3263   0.719   4.853   3.764
  788SOL    HW2 3264   0.721   4.964   3.884
  789SOL     OW 3265   6.077   3.682   1.105
  789SOL    HW1 3266   6.091   3.605   1.167
  789SOL    HW2 3267   6.006   3.659   1.038
  790SOL     OW 3268   3.509   0.872   4.026
  790SOL    HW1 3269   3.449   0.860   3.948
  790SOL    HW2 3270   3.532   0.782   4.064
  791SOL     OW 3271   3.788   2.069   4.443
  791SOL    HW1 3272   3.753   2.091   4.534
  791SOL    HW2 3273   3.744   2.127   4.375
  792SOL     OW 3274   5.759   6.980   3.600
  792SOL    HW1 3275   5.768   6.983   3.500
  792SOL    HW2 3276   5.846   6.954   3.641
  793SOL     OW 3277   6.733   6.930   5.950
  793SOL    HW1 3278   6.664   6.858   5.959
  793SOL    HW2 3279   6.721   6.976   5.861
  794SOL     OW 3280   3.666   5.190   4.928
  794SOL    HW1 3281   3.681   5.091   4.933
  794SOL    HW2 3282   3.568   5.209   4.925
  795SOL     OW 3283   4.863   4.956   6.143
  795SOL    HW1 3284   4.807   5.023   6.191
  795SOL    HW2 3285   4.943   4.933   6.200
  796SOL     OW 3286   0.617   1.972   5.958
  796SOL    HW1 3287   0.593   1.876   5.944
  796SOL    HW2 3288   0.648   2.011   5.871
  797SOL     OW 3289   6.000   2.643   5.426
  797SOL    HW1 3290   6.035   2.666   5.336
  797SOL    HW2 3291   6.065   2.672   5.496
  798SOL     OW 3292   6.330   0.999   5.207
  798SOL    HW1 3293   6.345   1.044   5.295
  798SOL    HW2 3294   6.405   0.936   5.187
  799SOL     OW 3295   6.744   3.864   3.702
  799SOL    HW1 3296   6.822   3.861   3.764
  799SOL    HW2 3297   6.765   3.811   3.619
  800SOL     OW 3298   6.589   1.461   1.706
  800SOL    HW1 3299   6.580   1.472   1.805
  800SOL    HW2 3300   6.578   1.364   1.682
  801SOL     OW 3301   0.438   1.966   3.965
  801SOL    HW1 3302   0.459   1.930   3.874
  801SOL    HW2 3303   0.342   1.946   3.987
  802SOL     OW 3304   5.649   1.222   0.987
  802SOL    HW1 3305   5.567   1.279   0.984
  802SOL    HW2 3306   5.719   1.266   1.043
  803SOL     OW 3307   1.669   0.343   4.625
  803SOL    HW1 3308   1.644   0.313   4.533
  803SOL    HW2 3309   1.618   0.289   4.692
  804SOL     OW 3310   6.321   6.806   1.257
  804SOL    HW1 3311   6.383   6.733   1.288
  804SOL    HW2 3312   6.329   6.817   1.158
  805SOL     OW 3313   1.287   3.599   5.567
  805SOL    HW1 3314   1.378   3.559   5.574
  805SOL    HW2 3315   1.291   3.678   5.505
  806SOL     OW 3316   4.929   0.752   0.861
  806SOL    HW1 3317   4.976   0.674   0.820
  806SOL    HW2 3318   4.866   0.792   0.794
  807SOL     OW 3319   1.242   0.245   2.767
  807SOL    HW1 3320   1.235   0.236   2.866
  807SOL    HW2 3321   1.262   0.340   2.743
  808SOL     OW 3322   6.132   3.391   5.346
  808SOL    HW1 3323   6.039   3.364   5.369
  808SOL    HW2 3324   6.148   3.380   5.248
  809SOL     OW 3325   0.619   5.304   6.478
  809SOL    HW1 3326   0.608   5.394   6.437
  809SOL    HW2 3327   0.711   5.270   6.461
  810SOL     OW 3328   6.422   5.019   6.891
  810SOL    HW1 3329   6.484   5.097   6.896
  810SOL    HW2 3330   6.424   4.969   6.977
  811SOL     OW 3331   4.371   4.959   3.669
  811SOL    HW1 3332   4.308   4.935   3.743
  811SOL    HW2 3333   4.440   5.022   3.704
  812SOL     OW 3334   0.629   0.562   2.646
  812SOL    HW1 3335   0.708   0.515   2.686
  812SOL    HW2 3336   0.546   0.537   2.697
  813SOL     OW 3337   5.923   5.719   1.934
  813SOL    HW1 3338   5.956   5.643   1.877
  813SOL    HW2 3339   5.848   5.765   1.887
  814SOL     OW 3340   5.570   5.606   1.354
  814SOL    HW1 3341   5.559   5.548   1.435
  814SOL    HW2 3342   5.486   5.603   1.300
  815SOL     OW 3343   0.587   1.548   0.047
  815SOL    HW1 3344   0.538   1.589   0.124
  815SOL    HW2 3345   0.526   1.486   7.023
  816SOL     OW 3346   6.201   0.839   1.235
  816SOL    HW1 3347   6.274   0.805   1.175
  816SOL    HW2 3348   6.223   0.818   1.330
  817SOL     OW 3349   0.483   2.079   1.810
  817SOL    HW1 3350   0.428   2.006   1.770
  817SOL    HW2 3351   0.536   2.124   1.738
  818SOL     OW 3352   6.306   1.616   2.159
  818SOL    HW1 3353   6.227   1.617   2.097
  818SOL    HW2 3354   6.375   1.680   2.125
  819SOL     OW 3355   0.364   4.859   3.229
  819SOL    HW1 3356   0.425   4.849   3.150
  819SOL    HW2 3357   0.294   4.788   3.226
  820SOL     OW 3358   1.523   2.857   4.852
  820SOL    HW1 3359   1.575   2.940   4.832
  820SOL    HW2 3360   1.586   2.783   4.878
  821SOL     OW 3361   1.407   3.979   0.363
  821SOL    HW1 3362   1.465   3.933   0.430
  821SOL    HW2 3363   1.342   3.914   0.324
  822SOL     OW 3364   1.547   3.730   4.939
  822SOL    HW1 3365   1.644   3.756   4.933
  822SOL    HW2 3366   1.534   3.669   5.017
  823SOL     OW 3367   2.965   3.359   0.946
  823SOL    HW1 3368   3.016   3.433   0.991
  823SOL    HW2 3369   3.030   3.290   0.914
  824SOL     OW 3370   6.200   2.172   5.948
  824SOL    HW1 3371   6.258   2.132   5.877
  824SOL    HW2 3372   6.247   2.250   5.990
  825SOL     OW 3373   1.605   4.326   1.772
  825SOL    HW1 3374   1.635   4.247   1.825
  825SOL    HW2 3375   1.684   4.380   1.744
  826SOL     OW 3376   0.864   4.687   5.910
  826SOL    HW1 3377   0.890   4.622   5.981
  826SOL    HW2 3378   0.827   4.637   5.832
  827SOL     OW 3379   3.978   5.366   1.093
  827SOL    HW1 3380   4.072   5.334   1.081
  827SOL    HW2 3381   3.966   5.454   1.048
  828SOL     OW 3382   6.508   6.859   5.334
  828SOL    HW1 3383   6.461   6.939   5.298
  828SOL    HW2 3384   6.532   6.798   5.258
  829SOL     OW 3385   3.865   3.067   4.983
  829SOL    HW1 3386   3.770   3.097   4.994
  829SOL    HW2 3387   3.904   3.046   5.073
  830SOL     OW 3388   4.548   3.829   5.862
  830SOL    HW1 3389   4.586   3.771   5.789
  830SOL    HW2 3390   4.550   3.925   5.833
  831SOL     OW 3391   6.475   0.110   4.856
  831SOL    HW1 3392   6.505   0.034   4.799
  831SOL    HW2 3393   6.381   0.133   4.834
  832SOL     OW 3394   2.121   1.329   5.654
  832SOL    HW1 3395   2.038   1.275   5.672
  832SOL    HW2 3396   2.094   1.419   5.619
  833SOL     OW 3397   0.890   6.750   5.598
  833SOL    HW1 3398   0.954   6.767   5.522
  833SOL    HW2 3399   0.873   6.836   5.646
  834SOL     OW 3400   3.294   4.561   5.812
  834SOL    HW1 3401   3.252   4.548   5.722
  834SOL    HW2 3402   3.304   4.659   5.830
  835SOL     OW 3403   4.526   0.814   3.293
  835SOL    HW1 3404   4.515   0.911   3.269
  835SOL    HW2 3405   4.608   0.803   3.349
  836SOL     OW 3406   2.776   0.451   6.887
  836SOL    HW1 3407   2.760   0.365   6.935
  836SOL    HW2 3408   2.709   0.519   6.917
  837SOL     OW 3409   3.835   0.825   4.987
  837SOL    HW1 3410   3.819   0.735   4.947
  837SOL    HW2 3411   3.792   0.829   5.077
  838SOL     OW 3412   1.261   4.577   2.326
  838SOL    HW1 3413   1.336   4.518   2.356
  838SOL    HW2 3414   1.222   4.541   2.241
  839SOL     OW 3415   3.319   0.940   1.825
  839SOL    HW1 3416   3.243   1.003   1.807
  839SOL    HW2 3417   3.345   0.946   1.921
  840SOL     OW 3418   0.626   1.680   6.257
  840SOL    HW1 3419   0.687   1.741   6.308
  840SOL    HW2 3420   0.657   1.673   6.162
  841SOL     OW 3421   0.380   3.625   0.516
  841SOL    HW1 3422   0.469   3.662   0.543
  841SOL    HW2 3423   0.312   3.646   0.586
  842SOL     OW 3424   3.444   5.503   3.462
  842SOL    HW1 3425   3.368   5.567   3.450
  842SOL    HW2 3426   3.434   5.455   3.549
  843SOL     OW 3427   6.599   4.173   2.345
  843SOL    HW1 3428   6.625   4.255   2.293
  843SOL    HW2 3429   6.589   4.196   2.442
  844SOL     OW 3430   5.378   5.527   0.255
  844SOL    HW1 3431   5.344   5.475   0.333
  844SOL    HW2 3432   5.310   5.525   0.182
  845SOL     OW 3433   1.834   5.392   4.610
  845SOL    HW1 3434   1.921   5.344   4.599
  845SOL    HW2 3435   1.772   5.335   4.664
  846SOL     OW 3436   5.100   3.238   6.856
  846SOL    HW1 3437   5.127   3.195   6.942
  846SOL    HW2 3438   5.153   3.321   6.842
  847SOL     OW 3439   5.296   4.121   2.036
  847SOL    HW1 3440   5.249   4.195   1.987
  847SOL    HW2 3441   5.305   4.145   2.132
  848SOL     OW 3442   6.494   0.168   5.493
  848SOL    HW1 3443   6.452   0.166   5.584
  848SOL    HW2 3444   6.458   0.246   5.442
  849SOL     OW 3445   0.592   5.570   4.255
  849SOL    HW1 3446   0.557   5.546   4.165
  849SOL    HW2 3447   0.647   5.653   4.249
  850SOL     OW 3448   3.697   0.639   3.474
  850SOL    HW1 3449   3.617   0.605   3.425
  850SOL    HW2 3450   3.668   0.698   3.549
  851SOL     OW 3451   0.324   0.697   5.141
  851SOL    HW1 3452   0.403   0.657   5.187
  851SOL    HW2 3453   0.248   0.705   5.206
  852SOL     OW 3454   2.830   4.547   5.908
  852SOL    HW1 3455   2.830   4.447   5.910
  852SOL    HW2 3456   2.736   4.580   5.897
  853SOL     OW 3457   1.372   3.797   0.996
  853SOL    HW1 3458   1.365   3.699   0.978
  853SOL    HW2 3459   1.463   3.829   0.968
  854SOL     OW 3460   6.500   5.199   1.974
  854SOL    HW1 3461   6.567   5.190   1.900
  854SOL    HW2 3462   6.442   5.279   1.956
  855SOL     OW 3463   5.229   0.484   0.942
  855SOL    HW1 3464   5.153   0.494   0.878
  855SOL    HW2 3465   5.237   0.389   0.971
  856SOL     OW 3466   0.978   1.473   5.300
  856SOL    HW1 3467   0.979   1.382   5.260
  856SOL    HW2 3468   0.934   1.470   5.390
  857SOL     OW 3469   6.392   3.832   1.714
  857SOL    HW1 3470   6.326   3.779   1.661
  857SOL    HW2 3471   6.401   3.923   1.673
  858SOL     OW 3472   3.387   3.538   1.276
  858SOL    HW1 3473   3.408   3.522   1.179
  858SOL    HW2 3474   3.358   3.633   1.288
  859SOL     OW 3475   0.098   4.988   0.580
  859SOL    HW1 3476   0.139   4.905   0.542
  859SOL    HW2 3477   0.149   5.015   0.662
  860SOL     OW 3478   2.209   4.594   0.741
  860SOL    HW1 3479   2.272   4.661   0.701
  860SOL    HW2 3480   2.261   4.528   0.796
  861SOL     OW 3481   3.525   4.642   6.114
  861SOL    HW1 3482   3.560   4.719   6.062
  861SOL    HW2 3483   3.425   4.648   6.119
  862SOL     OW 3484   4.786   3.988   3.754
  862SOL    HW1 3485   4.700   4.032   3.782
  862SOL    HW2 3486   4.848   4.057   3.716
  863SOL     OW 3487   5.870   2.153   1.283
  863SOL    HW1 3488   5.782   2.162   1.329
  863SOL    HW2 3489   5.910   2.244   1.270
  864SOL     OW 3490   6.684   4.498   2.634
  864SOL    HW1 3491   6.715   4.509   2.539
  864SOL    HW2 3492   6.592   4.535   2.643
  865SOL     OW 3493   1.748   0.854   3.730
  865SOL    HW1 3494   1.830   0.819   3.776
  865SOL    HW2 3495   1.710   0.783   3.670
  866SOL     OW 3496   3.948   1.186   0.770
  866SOL    HW1 3497   3.912   1.108   0.822
  866SOL    HW2 3498   4.027   1.156   0.715
  867SOL     OW 3499   2.129   1.631   6.206
  867SOL    HW1 3500   2.052   1.632   6.143
  867SOL    HW2 3501   2.107   1.687   6.286
  868SOL     OW 3502   5.973   2.919   3.355
  868SOL    HW1 3503   5.979   2.920   3.455
  868SOL    HW2 3504   6.035   2.988   3.318
  869SOL     OW 3505   6.764   4.365   1.278
  869SOL    HW1 3506   6.679   4.379   1.228
  869SOL    HW2 3507   6.746   4.310   1.360
  870SOL     OW 3508   6.872   2.611   0.526
  870SOL    HW1 3509   6.821   2.689   0.563
  870SOL    HW2 3510   6.879   2.540   0.596
  871SOL     OW 3511   6.279   4.092   0.661
  871SOL    HW1 3512   6.245   4.075   0.753
  871SOL    HW2 3513   6.211   4.062   0.594
  872SOL     OW 3514   6.224   2.124   1.942
  872SOL    HW1 3515   6.209   2.210   1.893
  872SOL    HW2 3516   6.183   2.131   2.033
  873SOL     OW 3517   4.072   6.820   4.885
  873SOL    HW1 3518   4.164   6.820   4.926
  873SOL    HW2 3519   4.080   6.800   4.788
  874SOL     OW 3520   0.093   3.948   6.411
  874SOL    HW1 3521   0.008   4.001   6.409
  874SOL    HW2 3522   0.094   3.882   6.335
  875SOL     OW 3523   6.074   5.075   6.562
  875SOL    HW1 3524   6.058   5.016   6.641
  875SOL    HW2 3525   5.999   5.141   6.554
  876SOL     OW 3526   1.022   2.145   0.718
  876SOL    HW1 3527   0.926   2.132   0.740
  876SOL    HW2 3528   1.077   2.073   0.760
  877SOL     OW 3529   5.837   5.664   0.627
  877SOL    HW1 3530   5.832   5.627   0.534
  877SOL    HW2 3531   5.758   5.723   0.644
  878SOL     OW 3532   3.524   2.440   0.427
  878SOL    HW1 3533   3.601   2.495   0.396
  878SOL    HW2 3534   3.556   2.348   0.450
  879SOL     OW 3535   4.293   2.018   2.618
  879SOL    HW1 3536   4.366   2.082   2.595
  879SOL    HW2 3537   4.240   1.997   2.536
  880SOL     OW 3538   4.484   5.361   1.724
  880SOL    HW1 3539   4.443   5.388   1.811
  880SOL    HW2 3540   4.503   5.263   1.725
  881SOL     OW 3541   4.758   4.971   3.693
  881SOL    HW1 3542   4.806   4.920   3.763
  881SOL    HW2 3543   4.699   5.040   3.736
  882SOL     OW 3544   0.753   2.228   4.465
  882SOL    HW1 3545   0.751   2.155   4.534
  882SOL    HW2 3546   0.807   2.305   4.500
  883SOL     OW 3547   3.620   4.316   6.985
  883SOL    HW1 3548   3.578   4.230   7.014
  883SOL    HW2 3549   3.598   4.333   6.889
  884SOL     OW 3550   4.019   3.889   1.882
  884SOL    HW1 3551   3.939   3.946   1.865
  884SOL    HW2 3552   4.032   3.877   1.980
  885SOL     OW 3553   4.548   6.440   6.192
  885SOL    HW1 3554   4.492   6.445   6.109
  885SOL    HW2 3555   4.508   6.500   6.262
  886SOL     OW 3556   3.896   1.794   6.816
  886SOL    HW1 3557   3.947   1.819   6.899
  886SOL    HW2 3558   3.832   1.867   6.793
  887SOL     OW 3559   5.575   6.732   5.776
  887SOL    HW1 3560   5.510   6.718   5.701
  887SOL    HW2 3561   5.539   6.800   5.839
  888SOL     OW 3562   6.365   6.507   2.886
  888SOL    HW1 3563   6.329   6.598   2.866
  888SOL    HW2 3564   6.452   6.515   2.935
  889SOL     OW 3565   1.044   0.148   4.444
  889SOL    HW1 3566   1.014   0.076   4.381
  889SOL    HW2 3567   1.030   0.237   4.402
  890SOL     OW 3568   1.933   4.371   2.352
  890SOL    HW1 3569   1.966   4.364   2.446
  890SOL    HW2 3570   1.995   4.429   2.299
  891SOL     OW 3571   5.573   3.800   6.374
  891SOL    HW1 3572   5.487   3.768   6.413
  891SOL    HW2 3573   5.600   3.887   6.416
  892SOL     OW 3574   2.475   5.078   1.369
  892SOL    HW1 3575   2.430   5.054   1.455
  892SOL    HW2 3576   2.553   5.017   1.354
  893SOL     OW 3577   1.719   6.780   1.640
  893SOL    HW1 3578   1.684   6.874   1.630
  893SOL    HW2 3579   1.817   6.779   1.618
  894SOL     OW 3580   0.929   5.532   4.263
  894SOL    HW1 3581   0.991   5.563   4.335
  894SOL    HW2 3582   0.845   5.495   4.303
  895SOL     OW 3583   2.436   0.961   4.410
  895SOL    HW1 3584   2.386   1.022   4.471
  895SOL    HW2 3585   2.432   0.867   4.446
  896SOL     OW 3586   5.042   6.915   3.560
  896SOL    HW1 3587   5.007   6.893   3.651
  896SOL    HW2 3588   5.002   7.001   3.529
  897SOL     OW 3589   5.085   1.747   6.295
  897SOL    HW1 3590   5.084   1.846   6.308
  897SOL    HW2 3591   5.024   1.704   6.361
  898SOL     OW 3592   5.804   5.935   4.013
  898SOL    HW1 3593   5.734   6.000   3.983
  898SOL    HW2 3594   5.784   5.904   4.105
  899SOL     OW 3595   1.289   4.252   0.111
  899SOL    HW1 3596   1.316   4.348   0.124
  899SOL    HW2 3597   1.345   4.193   0.168
  900SOL     OW 3598   0.467   5.942   3.705
  900SOL    HW1 3599   0.547   5.948   3.645
  900SOL    HW2 3600   0.384   5.953   3.650
  901SOL     OW 3601   5.454   1.822   3.473
  901SOL    HW1 3602   5.492   1.866   3.554
  901SOL    HW2 3603   5.488   1.867   3.391
  902SOL     OW 3604   1.034   6.163   0.077
  902SOL    HW1 3605   1.082   6.239   0.032
  902SOL    HW2 3606   1.101   6.100   0.115
  903SOL     OW 3607   0.611   4.962   6.661
  903SOL    HW1 3608   0.523   5.008   6.650
  903SOL    HW2 3609   0.668   5.014   6.726
  904SOL     OW 3610   1.645   1.084   3.614
  904SOL    HW1 3611   1.673   1.005   3.668
  904SOL    HW2 3612   1.591   1.053   3.535
  905SOL     OW 3613   6.143   2.255   5.135
  905SOL    HW1 3614   6.090   2.235   5.053
  905SOL    HW2 3615   6.223   2.196   5.138
  906SOL     OW 3616   6.339   3.886   5.573
  906SOL    HW1 3617   6.343   3.930   5.663
  906SOL    HW2 3618   6.245   3.857   5.554
  907SOL     OW 3619   0.243   3.059   1.971
  907SOL    HW1 3620   0.162   3.012   2.006
  907SOL    HW2 3621   0.226   3.088   1.876
  908SOL     OW 3622   2.663   0.785   3.427
  908SOL    HW1 3623   2.605   0.741   3.359
  908SOL    HW2 3624   2.750   0.812   3.386
  909SOL     OW 3625   4.380   6.781   1.032
  909SOL    HW1 3626   4.352   6.844   1.104
  909SOL    HW2 3627   4.343   6.811   0.944
  910SOL     OW 3628   1.875   1.627   2.281
  910SOL    HW1 3629   1.798   1.682   2.315
  910SOL    HW2 3630   1.870   1.621   2.182
  911SOL     OW 3631   0.658   3.895   0.886
  911SOL    HW1 3632   0.721   3.870   0.959
  911SOL    HW2 3633   0.653   3.995   0.879
  912SOL     OW 3634   0.819   0.981   6.254
  912SOL    HW1 3635   0.791   0.940   6.341
  912SOL    HW2 3636   0.737   1.010   6.204
  913SOL     OW 3637   2.160   1.246   2.153
  913SOL    HW1 3638   2.073   1.270   2.195
  913SOL    HW2 3639   2.198   1.326   2.107
  914SOL     OW 3640   3.020   5.850   2.042
  914SOL    HW1 3641   2.965   5.770   2.062
  914SOL    HW2 3642   3.117   5.827   2.050
  915SOL     OW 3643   1.546   2.630   0.318
  915SOL    HW1 3644   1.576   2.725   0.308
  915SOL    HW2 3645   1.574   2.578   0.238
  916SOL     OW 3646   1.509   3.083   2.304
  916SOL    HW1 3647   1.549   3.013   2.245
  916SOL    HW2 3648   1.572   3.160   2.312
  917SOL     OW 3649   3.705   1.607   6.407
  917SOL    HW1 3650   3.735   1.699   6.384
  917SOL    HW2 3651   3.769   1.565   6.471
  918SOL     OW 3652   0.546   2.006   5.105
  918SOL    HW1 3653   0.460   1.957   5.119
  918SOL    HW2 3654   0.551   2.040   5.011
  919SOL     OW 3655   1.361   0.091   1.012
  919SOL    HW1 3656   1.333   0.113   0.919
  919SOL    HW2 3657   1.296   0.026   1.052
  920SOL     OW 3658   1.607   1.202   3.209
  920SOL    HW1 3659   1.572   1.296   3.208
  920SOL    HW2 3660   1.699   1.202   3.250
  921SOL     OW 3661   3.800   4.098   0.556
  921SOL    HW1 3662   3.855   4.181   0.571
  921SOL    HW2 3663   3.738   4.113   0.479
  922SOL     OW 3664   2.013   5.202   6.518
  922SOL    HW1 3665   2.111   5.208   6.503
  922SOL    HW2 3666   1.969   5.289   6.494
  923SOL     OW 3667   3.845   1.135   6.900
  923SOL    HW1 3668   3.855   1.079   6.818
  923SOL    HW2 3669   3.757   1.183   6.896
  924SOL     OW 3670   6.636   4.903   2.698
  924SOL    HW1 3671   6.599   4.810   2.695
  924SOL    HW2 3672   6.561   4.969   2.704
  925SOL     OW 3673   6.822   2.128   3.059
  925SOL    HW1 3674   6.776   2.040   3.055
  925SOL    HW2 3675   6.776   2.193   2.999
  926SOL     OW 3676   4.686   6.078   0.808
  926SOL    HW1 3677   4.757   6.054   0.875
  926SOL    HW2 3678   4.673   6.177   0.806
  927SOL     OW 3679   4.640   5.718   4.943
  927SOL    HW1 3680   4.711   5.654   4.915
  927SOL    HW2 3681   4.635   5.793   4.877
  928SOL     OW 3682   0.416   1.266   1.027
  928SOL    HW1 3683   0.328   1.237   1.066
  928SOL    HW2 3684   0.468   1.186   0.999
  929SOL     OW 3685   6.889   2.683   2.137
  929SOL    HW1 3686   6.942   2.698   2.221
  929SOL    HW2 3687   6.952   2.667   2.061
  930SOL     OW 3688   5.718   5.431   2.281
  930SOL    HW1 3689   5.754   5.514   2.238
  930SOL    HW2 3690   5.633   5.452   2.329
  931SOL     OW 3691   1.539   2.832   1.743
  931SOL    HW1 3692   1.482   2.807   1.665
  931SOL    HW2 3693   1.516   2.925   1.773
  932SOL     OW 3694   4.156   6.264   1.417
  932SOL    HW1 3695   4.179   6.173   1.383
  932SOL    HW2 3696   4.240   6.317   1.428
  933SOL     OW 3697   1.110   6.803   3.610
  933SOL    HW1 3698   1.100   6.813   3.511
  933SOL    HW2 3699   1.177   6.869   3.644
  934SOL     OW 3700   3.420   0.726   5.322
  934SOL    HW1 3701   3.445   0.744   5.417
  934SOL    HW2 3702   3.364   0.801   5.287
  935SOL     OW 3703   1.357   3.895   5.434
  935SOL    HW1 3704   1.394   3.929   5.520
  935SOL    HW2 3705   1.373   3.961   5.361
  936SOL     OW 3706   0.534   2.320   1.560
  936SOL    HW1 3707   0.536   2.415   1.528
  936SOL    HW2 3708   0.613   2.271   1.524
  937SOL     OW 3709   5.439   2.169   3.783
  937SOL    HW1 3710   5.444   2.163   3.683
  937SOL    HW2 3711   5.406   2.260   3.809
  938SOL     OW 3712   0.245   1.086   6.759
  938SOL    HW1 3713   0.207   1.130   6.678
  938SOL    HW2 3714   0.343   1.071   6.747
  939SOL     OW 3715   6.462   1.078   5.518
  939SOL    HW1 3716   6.562   1.076   5.512
  939SOL    HW2 3717   6.428   0.987   5.541
  940SOL     OW 3718   0.071   0.561   4.327
  940SOL    HW1 3719   7.018   0.612   4.291
  940SOL    HW2 3720   0.041   0.501   4.401
  941SOL     OW 3721   5.559   2.440   5.373
  941SOL    HW1 3722   5.568   2.534   5.406
  941SOL    HW2 3723   5.483   2.395   5.421
  942SOL     OW 3724   4.751   0.338   4.814
  942SOL    HW1 3725   4.674   0.277   4.827
  942SOL    HW2 3726   4.723   0.433   4.830
  943SOL     OW 3727   5.575   2.052   0.365
  943SOL    HW1 3728   5.646   2.054   0.294
  943SOL    HW2 3729   5.525   1.966   0.360
  944SOL     OW 3730   4.923   4.106   4.910
  944SOL    HW1 3731   4.832   4.144   4.891
  944SOL    HW2 3732   4.920   4.007   4.896
  945SOL     OW 3733   5.308   3.331   5.991
  945SOL    HW1 3734   5.264   3.243   5.974
  945SOL    HW2 3735   5.399   3.317   6.029
  946SOL     OW 3736   5.912   3.791   6.790
  946SOL    HW1 3737   5.968   3.853   6.735
  946SOL    HW2 3738   5.835   3.759   6.736
  947SOL     OW 3739   0.941   3.019   5.554
  947SOL    HW1 3740   0.900   3.014   5.463
  947SOL    HW2 3741   0.874   2.989   5.623
  948SOL     OW 3742   3.946   1.657   0.392
  948SOL    HW1 3743   3.879   1.664   0.318
  948SOL    HW2 3744   3.944   1.564   0.430
  949SOL     OW 3745   5.651   6.153   0.031
  949SOL    HW1 3746   5.661   6.158   0.130
  949SOL    HW2 3747   5.646   6.058   0.002
  950SOL     OW 3748   4.097   5.139   0.837
  950SOL    HW1 3749   4.121   5.235   0.824
  950SOL    HW2 3750   4.066   5.125   0.931
  951SOL     OW 3751   0.863   2.989   4.107
  951SOL    HW1 3752   0.770   2.993   4.069
  951SOL    HW2 3753   0.858   2.966   4.204
  952SOL     OW 3754   5.197   1.806   1.424
  952SOL    HW1 3755   5.184   1.775   1.330
  952SOL    HW2 3756   5.240   1.896   1.424
  953SOL     OW 3757   3.799   6.651   5.941
  953SOL    HW1 3758   3.765   6.734   5.986
  953SOL    HW2 3759   3.751   6.571   5.978
  954SOL     OW 3760   6.691   0.472   1.478
  954SOL    HW1 3761   6.661   0.498   1.570
  954SOL    HW2 3762   6.776   0.419   1.485
  955SOL     OW 3763   0.473   6.833   2.353
  955SOL    HW1 3764   0.456   6.750   2.300
  955SOL    HW2 3765   0.558   6.875   2.322
  956SOL     OW 3766   1.438   2.610   0.560
  956SOL    HW1 3767   1.451   2.612   0.461
  956SOL    HW2 3768   1.495   2.681   0.603
  957SOL     OW 3769   2.041   6.784   4.934
  957SOL    HW1 3770   2.073   6.730   5.012
  957SOL    HW2 3771   1.942   6.798   4.942
  958SOL     OW 3772   4.948   2.984   0.036
  958SOL    HW1 3773   4.906   3.028   0.115
  958SOL    HW2 3774   5.040   3.022   0.023
  959SOL     OW 3775   1.654   3.180   1.532
  959SOL    HW1 3776   1.736   3.233   1.513
  959SOL    HW2 3777   1.575   3.222   1.487
  960SOL     OW 3778   1.794   5.195   5.386
  960SOL    HW1 3779   1.854   5.135   5.334
  960SOL    HW2 3780   1.839   5.223   5.471
  961SOL     OW 3781   3.559   0.102   0.102
  961SOL    HW1 3782   3.490   0.173   0.114
  961SOL    HW2 3783   3.650   0.143   0.106
  962SOL     OW 3784   1.190   6.380   3.812
  962SOL    HW1 3785   1.105   6.432   3.822
  962SOL    HW2 3786   1.173   6.301   3.753
  963SOL     OW 3787   6.150   0.118   2.156
  963SOL    HW1 3788   6.108   0.088   2.071
  963SOL    HW2 3789   6.147   0.217   2.163
  964SOL     OW 3790   5.436   3.480   1.760
  964SOL    HW1 3791   5.361   3.503   1.698
  964SOL    HW2 3792   5.441   3.381   1.772
  965SOL     OW 3793   1.577   1.644   6.907
  965SOL    HW1 3794   1.591   1.693   6.821
  965SOL    HW2 3795   1.480   1.647   6.932
  966SOL     OW 3796   6.799   2.691   1.880
  966SOL    HW1 3797   6.808   2.737   1.968
  966SOL    HW2 3798   6.825   2.595   1.890
  967SOL     OW 3799   0.961   5.933   2.482
  967SOL    HW1 3800   1.009   6.014   2.449
  967SOL    HW2 3801   0.875   5.960   2.525
  968SOL     OW 3802   6.914   4.121   0.994
  968SOL    HW1 3803   6.846   4.129   0.922
  968SOL    HW2 3804   6.940   4.212   1.026
  969SOL     OW 3805   4.109   6.717   6.871
  969SOL    HW1 3806   4.142   6.666   6.951
  969SOL    HW2 3807   4.028   6.672   6.834
  970SOL     OW 3808   4.660   2.799   5.724
  970SOL    HW1 3809   4.711   2.720   5.759
  970SOL    HW2 3810   4.569   2.770   5.694
  971SOL     OW 3811   0.042   2.792   0.191
  971SOL    HW1 3812   0.073   2.818   0.100
  971SOL    HW2 3813   6.981   2.742   0.184
  972SOL     OW 3814   5.636   6.782   0.630
  972SOL    HW1 3815   5.658   6.870   0.673
  972SOL    HW2 3816   5.563   6.737   0.681
  973SOL     OW 3817   5.686   3.459   5.583
  973SOL    HW1 3818   5.640   3.417   5.662
  973SOL    HW2 3819   5.734   3.542   5.613
  974SOL     OW 3820   2.872   0.784   4.667
  974SOL    HW1 3821   2.823   0.777   4.754
  974SOL    HW2 3822   2.807   0.803   4.594
  975SOL     OW 3823   3.037   6.995   5.458
  975SOL    HW1 3824   3.037   6.946   5.371
  975SOL    HW2 3825   3.116   6.965   5.512
  976SOL     OW 3826   0.237   5.244   3.692
  976SOL    HW1 3827   0.328   5.202   3.693
  976SOL    HW2 3828   0.167   5.173   3.699
  977SOL     OW 3829   1.159   2.980   1.419
  977SOL    HW1 3830   1.132   2.960   1.325
  977SOL    HW2 3831   1.079   2.972   1.479
  978SOL     OW 3832   5.448   3.543   5.260
  978SOL    HW1 3833   5.503   3.617   5.224
  978SOL    HW2 3834   5.352   3.557   5.235
  979SOL     OW 3835   5.860   1.487   3.509
  979SOL    HW1 3836   5.777   1.533   3.478
  979SOL    HW2 3837   5.889   1.528   3.596
  980SOL     OW 3838   6.840   0.321   4.847
  980SOL    HW1 3839   6.911   0.340   4.914
  980SOL    HW2 3840   6.765   0.270   4.890
  981SOL     OW 3841   6.683   3.092   5.740
  981SOL    HW1 3842   6.775   3.098   5.700
  981SOL    HW2 3843   6.682   3.022   5.811
  982SOL     OW 3844   1.496   3.676   1.355
  982SOL    HW1 3845   1.543   3.617   1.289
  982SOL    HW2 3846   1.559   3.746   1.388
  983SOL     OW 3847   5.640   2.024   3.353
  983SOL    HW1 3848   5.721   1.972   3.380
  983SOL    HW2 3849   5.666   2.118   3.331
  984SOL     OW 3850   5.095   2.513   5.694
  984SOL    HW1 3851   5.017   2.482   5.639
  984SOL    HW2 3852   5.137   2.434   5.740
  985SOL     OW 3853   2.583   4.951   0.691
  985SOL    HW1 3854   2.536   5.010   0.625
  985SOL    HW2 3855   2.604   4.863   0.648
  986SOL     OW 3856   4.209   4.548   0.066
  986SOL    HW1 3857   4.155   4.585   0.141
  986SOL    HW2 3858   4.303   4.582   0.071
  987SOL     OW 3859   3.371   6.637   2.310
  987SOL    HW1 3860   3.423   6.553   2.326
  987SOL    HW2 3861   3.303   6.648   2.383
  988SOL     OW 3862   3.521   3.174   1.648
  988SOL    HW1 3863   3.457   3.182   1.572
  988SOL    HW2 3864   3.596   3.239   1.635
  989SOL     OW 3865   0.368   0.470   4.671
  989SOL    HW1 3866   0.329   0.533   4.604
  989SOL    HW2 3867   0.304   0.394   4.685
  990SOL     OW 3868   4.701   5.960   2.553
  990SOL    HW1 3869   4.683   6.058   2.540
  990SOL    HW2 3870   4.760   5.947   2.632
  991SOL     OW 3871   6.241   1.518   5.143
  991SOL    HW1 3872   6.256   1.592   5.077
  991SOL    HW2 3873   6.241   1.430   5.096
  992SOL     OW 3874   0.012   3.019   1.465
  992SOL    HW1 3875   6.973   3.018   1.388
  992SOL    HW2 3876   0.098   2.977   1.437
  993SOL     OW 3877   4.018   5.818   4.622
  993SOL    HW1 3878   3.987   5.724   4.615
  993SOL    HW2 3879   4.068   5.843   4.538
  994SOL     OW 3880   3.096   3.186   2.179
  994SOL    HW1 3881   3.100   3.279   2.216
  994SOL    HW2 3882   3.187   3.157   2.151
  995SOL     OW 3883   0.335   1.235   4.700
  995SOL    HW1 3884   0.403   1.302   4.671
  995SOL    HW2 3885   0.243   1.274   4.691
  996SOL     OW 3886   0.872   3.507   0.795
  996SOL    HW1 3887   0.875   3.587   0.735
  996SOL    HW2 3888   0.935   3.520   0.871
  997SOL     OW 3889   0.203   1.264   0.794
  997SOL    HW1 3890   0.170   1.170   0.792
  997SOL    HW2 3891   0.265   1.276   0.872
  998SOL     OW 3892   4.964   6.847   3.831
  998SOL    HW1 3893   5.016   6.762   3.827
  998SOL    HW2 3894   4.876   6.830   3.875
  999SOL     OW 3895   6.530   5.410   1.461
  999SOL    HW1 3896   6.474   5.386   1.540
  999SOL    HW2 3897   6.591   5.486   1.485
 1000SOL     OW 3898   4.580   2.246   4.281
 1000SOL    HW1 3899   4.524   2.232   4.200
 1000SOL    HW2 3900   4.531   2.305   4.346
 1001SOL     OW 3901   4.033   1.346   5.941
 1001SOL    HW1 3902   4.098   1.284   5.899
 1001SOL    HW2 3903   3.955   1.360   5.879
 1002SOL     OW 3904   0.260   1.192   0.089
 1002SOL    HW1 3905   0.256   1.107   0.142
 1002SOL    HW2 3906   0.175   1.243   0.102
 1003SOL     OW 3907   4.814   4.606   3.430
 1003SOL    HW1 3908   4.757   4.657   3.494
 1003SOL    HW2 3909   4.796   4.636   3.337
 1004SOL     OW 3910   6.270   5.699   0.478
 1004SOL    HW1 3911   6.192   5.759   0.498
 1004SOL    HW2 3912   6.266   5.670   0.382
 1005SOL     OW 3913   6.871   5.475   3.556
 1005SOL    HW1 3914   6.820   5.389   3.568
 1005SOL    HW2 3915   6.857   5.509   3.463
 1006SOL     OW 3916   2.040   3.832   0.540
 1006SOL    HW1 3917   2.106   3.768   0.578
 1006SOL    HW2 3918   1.957   3.783   0.513
 1007SOL     OW 3919   1.191   1.133   3.336
 1007SOL    HW1 3920   1.194   1.184   3.421
 1007SOL    HW2 3921   1.200   1.035   3.355
 1008SOL     OW 3922   2.518   1.999   4.427
 1008SOL    HW1 3923   2.492   2.046   4.511
 1008SOL    HW2 3924   2.473   1.910   4.423
 1009SOL     OW 3925   2.661   5.780   5.495
 1009SOL    HW1 3926   2.647   5.852   5.563
 1009SOL    HW2 3927   2.744   5.800   5.442
 1010SOL     OW 3928   4.704   0.515   6.375
 1010SOL    HW1 3929   4.775   0.540   6.308
 1010SOL    HW2 3930   4.638   0.590   6.382
 1011SOL     OW 3931   3.417   5.963   3.484
 1011SOL    HW1 3932   3.443   6.027   3.411
 1011SOL    HW2 3933   3.399   6.014   3.568
 1012SOL     OW 3934   3.852   5.598   0.579
 1012SOL    HW1 3935   3.895   5.678   0.536
 1012SOL    HW2 3936   3.816   5.624   0.669
 1013SOL     OW 3937   0.550   1.076   0.169
 1013SOL    HW1 3938   0.552   0.977   0.187
 1013SOL    HW2 3939   0.508   1.122   0.247
 1014SOL     OW 3940   4.900   0.420   6.549
 1014SOL    HW1 3941   4.822   0.467   6.508
 1014SOL    HW2 3942   4.959   0.384   6.477
 1015SOL     OW 3943   3.575   0.128   4.458
 1015SOL    HW1 3944   3.580   0.054   4.525
 1015SOL    HW2 3945   3.594   0.091   4.367
 1016SOL     OW 3946   4.378   2.380   2.088
 1016SOL    HW1 3947   4.350   2.426   2.003
 1016SOL    HW2 3948   4.444   2.308   2.067
 1017SOL     OW 3949   4.916   0.977   6.549
 1017SOL    HW1 3950   4.827   0.988   6.593
 1017SOL    HW2 3951   4.985   1.027   6.600
 1018SOL     OW 3952   1.383   2.519   1.676
 1018SOL    HW1 3953   1.338   2.438   1.637
 1018SOL    HW2 3954   1.466   2.539   1.624
 1019SOL     OW 3955   5.979   1.196   0.505
 1019SOL    HW1 3956   5.951   1.211   0.410
 1019SOL    HW2 3957   5.901   1.209   0.565
 1020SOL     OW 3958   3.340   1.756   1.454
 1020SOL    HW1 3959   3.246   1.731   1.477
 1020SOL    HW2 3960   3.369   1.833   1.511
 1021SOL     OW 3961   6.380   0.993   0.686
 1021SOL    HW1 3962   6.350   1.086   0.709
 1021SOL    HW2 3963   6.393   0.987   0.587
 1022SOL     OW 3964   3.390   2.601   6.961
 1022SOL    HW1 3965   3.389   2.501   6.959
 1022SOL    HW2 3966   3.351   2.633   0.022
 1023SOL     OW 3967   6.379   0.630   4.587
 1023SOL    HW1 3968   6.450   0.672   4.531
 1023SOL    HW2 3969   6.417   0.550   4.634
 1024SOL     OW 3970   6.590   1.402   4.400
 1024SOL    HW1 3971   6.494   1.429   4.400
 1024SOL    HW2 3972   6.606   1.332   4.331
 1025SOL     OW 3973   3.401   4.156   1.600
 1025SOL    HW1 3974   3.421   4.254   1.599
 1025SOL    HW2 3975   3.313   4.140   1.643
 1026SOL     OW 3976   0.841   2.861   6.418
 1026SOL    HW1 3977   0.810   2.953   6.441
 1026SOL    HW2 3978   0.791   2.794   6.473
 1027SOL     OW 3979   2.484   4.427   1.736
 1027SOL    HW1 3980   2.477   4.417   1.637
 1027SOL    HW2 3981   2.540   4.353   1.774
 1028SOL     OW 3982   0.804   5.818   0.775
 1028SOL    HW1 3983   0.804   5.808   0.874
 1028SOL    HW2 3984   0.855   5.900   0.749
 1029SOL     OW 3985   3.398   1.236   5.432
 1029SOL    HW1 3986   3.436   1.303   5.368
 1029SOL    HW2 3987   3.425   1.144   5.403
 1030SOL     OW 3988   3.901   4.381   5.395
 1030SOL    HW1 3989   3.867   4.406   5.486
 1030SOL    HW2 3990   3.826   4.388   5.329
 1031SOL     OW 3991   1.992   5.077   1.082
 1031SOL    HW1 3992   2.012   5.032   1.169
 1031SOL    HW2 3993   2.078   5.101   1.037
 1032SOL     OW 3994   1.316   1.603   4.984
 1032SOL    HW1 3995   1.349   1.657   4.906
 1032SOL    HW2 3996   1.336   1.506   4.968
 1033SOL     OW 3997   2.337   6.198   3.176
 1033SOL    HW1 3998   2.334   6.230   3.271
 1033SOL    HW2 3999   2.255   6.229   3.128
 1034SOL     OW 4000   1.004   0.117   1.885
 1034SOL    HW1 4001   0.942   0.179   1.837
 1034SOL    HW2 4002   1.094   0.159   1.895
 1035SOL     OW 4003   3.207   0.607   3.689
 1035SOL    HW1 4004   3.122   0.608   3.742
 1035SOL    HW2 4005   3.185   0.593   3.592
 1036SOL     OW 4006   4.489   6.703   6.630
 1036SOL    HW1 4007   4.433   6.628   6.596
 1036SOL    HW2 4008   4.565   6.719   6.568
 1037SOL     OW 4009   2.869   1.759   6.557
 1037SOL    HW1 4010   2.968   1.752   6.544
 1037SOL    HW2 4011   2.840   1.689   6.623
 1038SOL     OW 4012   2.622   1.410   4.917
 1038SOL    HW1 4013   2.615   1.377   4.822
 1038SOL    HW2 4014   2.530   1.423   4.954
 1039SOL     OW 4015   4.038   2.090   3.431
 1039SOL    HW1 4016   3.961   2.101   3.494
 1039SOL    HW2 4017   4.012   2.025   3.359
 1040SOL     OW 4018   5.605   3.462   4.576
 1040SOL    HW1 4019   5.524   3.467   4.634
 1040SOL    HW2 4020   5.585   3.504   4.487
 1041SOL     OW 4021   1.634   6.731   4.353
 1041SOL    HW1 4022   1.697   6.657   4.328
 1041SOL    HW2 4023   1.614   6.726   4.451
 1042SOL     OW 4024   4.593   3.884   0.933
 1042SOL    HW1 4025   4.679   3.920   0.970
 1042SOL    HW2 4026   4.528   3.870   1.007
 1043SOL     OW 4027   3.551   6.918   6.594
 1043SOL    HW1 4028   3.533   6.856   6.518
 1043SOL    HW2 4029   3.515   6.880   6.678
 1044SOL     OW 4030   3.750   4.044   2.213
 1044SOL    HW1 4031   3.789   4.038   2.305
 1044SOL    HW2 4032   3.652   4.065   2.220
 1045SOL     OW 4033   3.867   1.070   2.995
 1045SOL    HW1 4034   3.778   1.049   3.035
 1045SOL    HW2 4035   3.929   1.103   3.066
 1046SOL     OW 4036   3.851   0.883   2.497
 1046SOL    HW1 4037   3.823   0.979   2.485
 1046SOL    HW2 4038   3.948   0.874   2.476
 1047SOL     OW 4039   0.658   5.519   1.874
 1047SOL    HW1 4040   0.743   5.562   1.906
 1047SOL    HW2 4041   0.582   5.548   1.932
 1048SOL     OW 4042   6.414   4.964   5.294
 1048SOL    HW1 4043   6.338   4.954   5.358
 1048SOL    HW2 4044   6.473   4.884   5.298
 1049SOL     OW 4045   0.629   3.441   4.854
 1049SOL    HW1 4046   0.566   3.364   4.843
 1049SOL    HW2 4047   0.704   3.432   4.788
 1050SOL     OW 4048   2.705   0.574   0.201
 1050SOL    HW1 4049   2.674   0.649   0.260
 1050SOL    HW2 4050   2.644   0.568   0.122
 1051SOL     OW 4051   4.896   4.432   2.648
 1051SOL    HW1 4052   4.990   4.453   2.674
 1051SOL    HW2 4053   4.896   4.385   2.560
 1052SOL     OW 4054   4.228   0.161   4.529
 1052SOL    HW1 4055   4.191   0.247   4.563
 1052SOL    HW2 4056   4.165   0.123   4.460
 1053SOL     OW 4057   3.731   5.216   3.385
 1053SOL    HW1 4058   3.679   5.215   3.471
 1053SOL    HW2 4059   3.809   5.155   3.392
 1054SOL     OW 4060   4.182   5.928   4.423
 1054SOL    HW1 4061   4.148   5.954   4.332
 1054SOL    HW2 4062   4.280   5.946   4.428
 1055SOL     OW 4063   3.688   5.526   3.982
 1055SOL    HW1 4064   3.599   5.555   3.946
 1055SOL    HW2 4065   3.738   5.476   3.911
 1056SOL     OW 4066   2.061   5.804   6.004
 1056SOL    HW1 4067   2.083   5.724   5.949
 1056SOL    HW2 4068   1.971   5.793   6.046
 1057SOL     OW 4069   3.658   3.777   1.138
 1057SOL    HW1 4070   3.684   3.724   1.218
 1057SOL    HW2 4071   3.736   3.784   1.075
 1058SOL     OW 4072   2.847   6.634   1.961
 1058SOL    HW1 4073   2.779   6.629   1.887
 1058SOL    HW2 4074   2.799   6.642   2.049
 1059SOL     OW 4075   3.420   0.329   0.232
 1059SOL    HW1 4076   3.346   0.329   0.164
 1059SOL    HW2 4077   3.422   0.418   0.279
 1060SOL     OW 4078   2.318   1.120   4.576
 1060SOL    HW1 4079   2.358   1.206   4.544
 1060SOL    HW2 4080   2.253   1.139   4.650
 1061SOL     OW 4081   3.100   5.823   1.570
 1061SOL    HW1 4082   3.155   5.889   1.620
 1061SOL    HW2 4083   3.063   5.865   1.487
 1062SOL     OW 4084   4.974   4.836   5.290
 1062SOL    HW1 4085   5.052   4.850   5.229
 1062SOL    HW2 4086   4.913   4.914   5.285
 1063SOL     OW 4087   2.610   2.968   6.090
 1063SOL    HW1 4088   2.539   2.997   6.154
 1063SOL    HW2 4089   2.587   3.000   5.998
 1064SOL     OW 4090   0.225   3.450   1.951
 1064SOL    HW1 4091   0.189   3.437   2.043
 1064SOL    HW2 4092   0.194   3.376   1.892
 1065SOL     OW 4093   4.142   4.916   5.654
 1065SOL    HW1 4094   4.061   4.858   5.654
 1065SOL    HW2 4095   4.216   4.870   5.605
 1066SOL     OW 4096   4.098   6.544   3.269
 1066SOL    HW1 4097   4.030   6.532   3.197
 1066SOL    HW2 4098   4.057   6.594   3.345
 1067SOL     OW 4099   2.453   3.009   0.845
 1067SOL    HW1 4100   2.484   2.915   0.826
 1067SOL    HW2 4101   2.532   3.070   0.844
 1068SOL     OW 4102   0.497   4.455   0.746
 1068SOL    HW1 4103   0.509   4.527   0.678
 1068SOL    HW2 4104   0.400   4.445   0.767
 1069SOL     OW 4105   3.697   3.410   2.106
 1069SOL    HW1 4106   3.734   3.470   2.036
 1069SOL    HW2 4107   3.678   3.320   2.067
 1070SOL     OW 4108   2.498   6.485   0.888
 1070SOL    HW1 4109   2.451   6.453   0.970
 1070SOL    HW2 4110   2.564   6.416   0.858
 1071SOL     OW 4111   4.748   5.811   3.734
 1071SOL    HW1 4112   4.725   5.719   3.765
 1071SOL    HW2 4113   4.793   5.806   3.645
 1072SOL     OW 4114   3.583   5.463   2.712
 1072SOL    HW1 4115   3.495   5.476   2.666
 1072SOL    HW2 4116   3.623   5.376   2.682
 1073SOL     OW 4117   2.427   5.502   3.131
 1073SOL    HW1 4118   2.443   5.512   3.033
 1073SOL    HW2 4119   2.514   5.486   3.177
 1074SOL     OW 4120   1.272   5.477   2.547
 1074SOL    HW1 4121   1.300   5.572   2.559
 1074SOL    HW2 4122   1.344   5.416   2.582
 1075SOL     OW 4123   1.091   4.383   2.943
 1075SOL    HW1 4124   1.150   4.378   3.024
 1075SOL    HW2 4125   0.998   4.404   2.972
 1076SOL     OW 4126   6.981   4.101   2.798
 1076SOL    HW1 4127   0.024   4.113   2.871
 1076SOL    HW2 4128   6.931   4.186   2.785
 1077SOL     OW 4129   5.493   1.057   1.580
 1077SOL    HW1 4130   5.397   1.076   1.599
 1077SOL    HW2 4131   5.500   0.975   1.523
 1078SOL     OW 4132   0.514   3.439   1.903
 1078SOL    HW1 4133   0.418   3.448   1.930
 1078SOL    HW2 4134   0.553   3.530   1.886
 1079SOL     OW 4135   2.182   5.489   2.999
 1079SOL    HW1 4136   2.261   5.510   3.056
 1079SOL    HW2 4137   2.103   5.472   3.057
 1080SOL     OW 4138   1.727   5.675   3.891
 1080SOL    HW1 4139   1.667   5.755   3.891
 1080SOL    HW2 4140   1.809   5.695   3.838
 1081SOL     OW 4141   1.902   0.871   0.240
 1081SOL    HW1 4142   1.829   0.814   0.278
 1081SOL    HW2 4143   1.878   0.900   0.147
 1082SOL     OW 4144   2.070   6.908   0.515
 1082SOL    HW1 4145   2.076   6.988   0.455
 1082SOL    HW2 4146   1.995   6.849   0.483
 1083SOL     OW 4147   3.366   2.363   1.723
 1083SOL    HW1 4148   3.449   2.319   1.687
 1083SOL    HW2 4149   3.303   2.292   1.755
 1084SOL     OW 4150   6.548   3.431   1.051
 1084SOL    HW1 4151   6.587   3.411   1.141
 1084SOL    HW2 4152   6.581   3.364   0.985
 1085SOL     OW 4153   1.566   5.121   3.497
 1085SOL    HW1 4154   1.635   5.059   3.535
 1085SOL    HW2 4155   1.534   5.183   3.568
 1086SOL     OW 4156   3.717   4.964   2.275
 1086SOL    HW1 4157   3.795   4.942   2.333
 1086SOL    HW2 4158   3.744   4.959   2.179
 1087SOL     OW 4159   3.828   3.759   4.593
 1087SOL    HW1 4160   3.837   3.662   4.619
 1087SOL    HW2 4161   3.732   3.780   4.575
 1088SOL     OW 4162   6.063   4.364   2.485
 1088SOL    HW1 4163   6.074   4.349   2.387
 1088SOL    HW2 4164   6.075   4.278   2.534
 1089SOL     OW 4165   6.626   6.533   3.026
 1089SOL    HW1 4166   6.715   6.505   3.062
 1089SOL    HW2 4167   6.558   6.529   3.100
 1090SOL     OW 4168   1.700   1.710   6.133
 1090SOL    HW1 4169   1.656   1.668   6.212
 1090SOL    HW2 4170   1.647   1.692   6.051
 1091SOL     OW 4171   1.170   2.910   5.663
 1091SOL    HW1 4172   1.092   2.932   5.605
 1091SOL    HW2 4173   1.254   2.916   5.609
 1092SOL     OW 4174   2.203   4.685   1.132
 1092SOL    HW1 4175   2.136   4.686   1.057
 1092SOL    HW2 4176   2.169   4.629   1.207
 1093SOL     OW 4177   0.051   2.417   1.493
 1093SOL    HW1 4178   0.005   2.439   1.579
 1093SOL    HW2 4179   0.117   2.344   1.509
 1094SOL     OW 4180   0.713   6.894   1.953
 1094SOL    HW1 4181   0.694   6.917   1.858
 1094SOL    HW2 4182   0.738   6.977   2.003
 1095SOL     OW 4183   6.682   3.504   5.558
 1095SOL    HW1 4184   6.694   3.596   5.520
 1095SOL    HW2 4185   6.754   3.444   5.521
 1096SOL     OW 4186   3.785   3.610   1.812
 1096SOL    HW1 4187   3.739   3.699   1.814
 1096SOL    HW2 4188   3.734   3.548   1.753
 1097SOL     OW 4189   2.633   4.232   5.677
 1097SOL    HW1 4190   2.547   4.181   5.667
 1097SOL    HW2 4191   2.639   4.302   5.605
 1098SOL     OW 4192   4.059   0.475   2.743
 1098SOL    HW1 4193   4.099   0.557   2.701
 1098SOL    HW2 4194   4.042   0.492   2.840
 1099SOL     OW 4195   3.360   0.544   2.661
 1099SOL    HW1 4196   3.413   0.496   2.732
 1099SOL    HW2 4197   3.412   0.623   2.628
 1100SOL     OW 4198   6.846   0.964   6.947
 1100SOL    HW1 4199   6.827   0.870   6.975
 1100SOL    HW2 4200   6.799   0.984   6.861
 1101SOL     OW 4201   5.588   3.188   1.396
 1101SOL    HW1 4202   5.613   3.185   1.493
 1101SOL    HW2 4203   5.497   3.149   1.385
 1102SOL     OW 4204   0.122   4.456   3.888
 1102SOL    HW1 4205   0.213   4.417   3.874
 1102SOL    HW2 4206   0.053   4.396   3.848
 1103SOL     OW 4207   0.262   3.364   0.414
 1103SOL    HW1 4208   0.299   3.448   0.454
 1103SOL    HW2 4209   0.162   3.370   0.410
 1104SOL     OW 4210   2.808   5.355   6.598
 1104SOL    HW1 4211   2.726   5.298   6.590
 1104SOL    HW2 4212   2.872   5.331   6.525
 1105SOL     OW 4213   3.768   5.352   1.248
 1105SOL    HW1 4214   3.838   5.348   1.177
 1105SOL    HW2 4215   3.772   5.441   1.293
 1106SOL     OW 4216   1.196   1.012   6.190
 1106SOL    HW1 4217   1.203   0.935   6.253
 1106SOL    HW2 4218   1.137   1.083   6.230
 1107SOL     OW 4219   6.629   0.372   0.802
 1107SOL    HW1 4220   6.727   0.385   0.819
 1107SOL    HW2 4221   6.576   0.425   0.868
 1108SOL     OW 4222   1.061   0.792   0.140
 1108SOL    HW1 4223   1.063   0.764   0.236
 1108SOL    HW2 4224   0.970   0.772   0.102
 1109SOL     OW 4225   5.277   0.973   3.665
 1109SOL    HW1 4226   5.335   0.891   3.657
 1109SOL    HW2 4227   5.220   0.965   3.747
 1110SOL     OW 4228   3.751   2.860   2.131
 1110SOL    HW1 4229   3.826   2.927   2.127
 1110SOL    HW2 4230   3.778   2.784   2.190
 1111SOL     OW 4231   4.642   0.142   6.590
 1111SOL    HW1 4232   4.742   0.140   6.585
 1111SOL    HW2 4233   4.609   0.060   6.638
 1112SOL     OW 4234   0.733   1.231   2.407
 1112SOL    HW1 4235   0.745   1.279   2.320
 1112SOL    HW2 4236   0.800   1.156   2.413
 1113SOL     OW 4237   5.994   4.079   1.487
 1113SOL    HW1 4238   6.034   4.169   1.469
 1113SOL    HW2 4239   6.034   4.012   1.424
 1114SOL     OW 4240   5.674   1.075   5.506
 1114SOL    HW1 4241   5.714   1.045   5.419
 1114SOL    HW2 4242   5.576   1.053   5.507
 1115SOL     OW 4243   2.556   4.170   0.963
 1115SOL    HW1 4244   2.527   4.212   1.049
 1115SOL    HW2 4245   2.542   4.071   0.967
 1116SOL     OW 4246   3.736   6.546   6.489
 1116SOL    HW1 4247   3.778   6.471   6.439
 1116SOL    HW2 4248   3.638   6.548   6.470
 1117SOL     OW 4249   2.488   2.458   1.016
 1117SOL    HW1 4250   2.400   2.467   0.969
 1117SOL    HW2 4251   2.512   2.546   1.058
 1118SOL     OW 4252   1.627   2.871   2.192
 1118SOL    HW1 4253   1.725   2.891   2.183
 1118SOL    HW2 4254   1.602   2.801   2.125
 1119SOL     OW 4255   3.076   3.814   2.760
 1119SOL    HW1 4256   3.014   3.771   2.826
 1119SOL    HW2 4257   3.129   3.743   2.713
 1120SOL     OW 4258   4.897   1.088   4.215
 1120SOL    HW1 4259   4.800   1.070   4.200
 1120SOL    HW2 4260   4.908   1.178   4.258
 1121SOL     OW 4261   5.263   3.156   2.821
 1121SOL    HW1 4262   5.267   3.077   2.759
 1121SOL    HW2 4263   5.282   3.127   2.914
 1122SOL     OW 4264   4.502   5.081   6.889
 1122SOL    HW1 4265   4.507   5.118   6.796
 1122SOL    HW2 4266   4.586   5.101   6.938
 1123SOL     OW 4267   3.712   1.443   1.708
 1123SOL    HW1 4268   3.702   1.529   1.658
 1123SOL    HW2 4269   3.805   1.436   1.744
 1124SOL     OW 4270   1.876   5.083   4.453
 1124SOL    HW1 4271   1.887   5.067   4.551
 1124SOL    HW2 4272   1.905   5.176   4.430
 1125SOL     OW 4273   2.960   3.192   5.053
 1125SOL    HW1 4274   2.922   3.278   5.084
 1125SOL    HW2 4275   2.940   3.120   5.119
 1126SOL     OW 4276   6.480   0.404   2.404
 1126SOL    HW1 4277   6.567   0.420   2.358
 1126SOL    HW2 4278   6.467   0.305   2.417
 1127SOL     OW 4279   1.803   5.706   6.371
 1127SOL    HW1 4280   1.771   5.709   6.276
 1127SOL    HW2 4281   1.880   5.768   6.383
 1128SOL     OW 4282   2.461   1.742   4.182
 1128SOL    HW1 4283   2.431   1.724   4.276
 1128SOL    HW2 4284   2.389   1.717   4.118
 1129SOL     OW 4285   4.499   0.066   6.224
 1129SOL    HW1 4286   4.522   0.067   6.127
 1129SOL    HW2 4287   4.517   0.157   6.263
 1130SOL     OW 4288   0.465   5.617   6.223
 1130SOL    HW1 4289   0.501   5.707   6.199
 1130SOL    HW2 4290   0.541   5.552   6.230
 1131SOL     OW 4291   0.499   4.943   5.437
 1131SOL    HW1 4292   0.443   4.908   5.362
 1131SOL    HW2 4293   0.589   4.968   5.403
 1132SOL     OW 4294   5.367   0.176   5.246
 1132SOL    HW1 4295   5.451   0.221   5.217
 1132SOL    HW2 4296   5.352   0.093   5.192
 1133SOL     OW 4297   0.170   2.671   6.706
 1133SOL    HW1 4298   0.114   2.691   6.787
 1133SOL    HW2 4299   0.155   2.743   6.638
 1134SOL     OW 4300   6.606   2.643   6.051
 1134SOL    HW1 4301   6.551   2.670   6.129
 1134SOL    HW2 4302   6.702   2.664   6.069
 1135SOL     OW 4303   6.470   1.688   3.997
 1135SOL    HW1 4304   6.444   1.682   4.093
 1135SOL    HW2 4305   6.524   1.771   3.982
 1136SOL     OW 4306   3.514   5.242   4.128
 1136SOL    HW1 4307   3.557   5.316   4.179
 1136SOL    HW2 4308   3.416   5.238   4.149
 1137SOL     OW 4309   1.635   0.919   5.985
 1137SOL    HW1 4310   1.592   0.998   5.942
 1137SOL    HW2 4311   1.675   0.860   5.914
 1138SOL     OW 4312   0.715   4.211   6.003
 1138SOL    HW1 4313   0.711   4.219   5.903
 1138SOL    HW2 4314   0.671   4.126   6.031
 1139SOL     OW 4315   0.861   6.698   1.326
 1139SOL    HW1 4316   0.839   6.778   1.382
 1139SOL    HW2 4317   0.871   6.617   1.385
 1140SOL     OW 4318   3.491   1.582   3.556
 1140SOL    HW1 4319   3.408   1.635   3.541
 1140SOL    HW2 4320   3.499   1.511   3.486
 1141SOL     OW 4321   0.009   6.218   5.613
 1141SOL    HW1 4322   7.023   6.131   5.565
 1141SOL    HW2 4323   6.969   6.223   5.689
 1142SOL     OW 4324   6.321   0.866   4.261
 1142SOL    HW1 4325   6.234   0.878   4.310
 1142SOL    HW2 4326   6.382   0.809   4.316
 1143SOL     OW 4327   4.371   1.654   1.925
 1143SOL    HW1 4328   4.397   1.685   1.834
 1143SOL    HW2 4329   4.432   1.580   1.954
 1144SOL     OW 4330   1.105   6.872   5.431
 1144SOL    HW1 4331   1.152   6.905   5.513
 1144SOL    HW2 4332   1.063   6.948   5.383
 1145SOL     OW 4333   2.213   4.821   4.849
 1145SOL    HW1 4334   2.116   4.810   4.869
 1145SOL    HW2 4335   2.246   4.741   4.798
 1146SOL     OW 4336   6.520   1.578   1.079
 1146SOL    HW1 4337   6.477   1.557   0.990
 1146SOL    HW2 4338   6.508   1.675   1.099
 1147SOL     OW 4339   6.377   3.567   2.350
 1147SOL    HW1 4340   6.305   3.497   2.353
 1147SOL    HW2 4341   6.339   3.654   2.380
 1148SOL     OW 4342   5.095   1.224   6.627
 1148SOL    HW1 4343   5.164   1.285   6.667
 1148SOL    HW2 4344   5.126   1.193   6.537
 1149SOL     OW 4345   6.239   2.736   3.515
 1149SOL    HW1 4346   6.170   2.664   3.507
 1149SOL    HW2 4347   6.240   2.771   3.608
 1150SOL     OW 4348   1.322   5.357   5.606
 1150SOL    HW1 4349   1.397   5.291   5.611
 1150SOL    HW2 4350   1.310   5.389   5.512
 1151SOL     OW 4351   3.347   5.267   6.908
 1151SOL    HW1 4352   3.307   5.175   6.901
 1151SOL    HW2 4353   3.428   5.263   6.967
 1152SOL     OW 4354   0.567   1.422   4.212
 1152SOL    HW1 4355   0.623   1.505   4.218
 1152SOL    HW2 4356   0.471   1.447   4.216
 1153SOL     OW 4357   2.518   4.931   2.883
 1153SOL    HW1 4358   2.588   4.860   2.896
 1153SOL    HW2 4359   2.540   4.985   2.802
 1154SOL     OW 4360   1.794   4.241   2.129
 1154SOL    HW1 4361   1.863   4.203   2.068
 1154SOL    HW2 4362   1.838   4.280   2.210
 1155SOL     OW 4363   4.024   6.727   2.590
 1155SOL    HW1 4364   4.107   6.700   2.541
 1155SOL    HW2 4365   3.979   6.801   2.541
 1156SOL     OW 4366   1.234   1.766   3.757
 1156SOL    HW1 4367   1.304   1.717   3.809
 1156SOL    HW2 4368   1.245   1.864   3.771
 1157SOL     OW 4369   1.131   3.633   4.368
 1157SOL    HW1 4370   1.224   3.669   4.366
 1157SOL    HW2 4371   1.092   3.636   4.276
 1158SOL     OW 4372   4.210   5.961   6.482
 1158SOL    HW1 4373   4.117   5.943   6.449
 1158SOL    HW2 4374   4.260   6.014   6.413
 1159SOL     OW 4375   5.786   4.804   2.523
 1159SOL    HW1 4376   5.853   4.876   2.542
 1159SOL    HW2 4377   5.831   4.715   2.526
 1160SOL     OW 4378   2.538   2.696   1.132
 1160SOL    HW1 4379   2.480   2.774   1.155
 1160SOL    HW2 4380   2.622   2.701   1.186
 1161SOL     OW 4381   4.091   0.871   4.299
 1161SOL    HW1 4382   4.077   0.958   4.252
 1161SOL    HW2 4383   4.175   0.828   4.264
 1162SOL     OW 4384   4.209   4.799   1.376
 1162SOL    HW1 4385   4.217   4.818   1.474
 1162SOL    HW2 4386   4.217   4.700   1.360
 1163SOL     OW 4387   5.371   1.093   2.181
 1163SOL    HW1 4388   5.381   1.084   2.082
 1163SOL    HW2 4389   5.369   1.002   2.223
 1164SOL     OW 4390   6.310   3.345   4.186
 1164SOL    HW1 4391   6.363   3.426   4.164
 1164SOL    HW2 4392   6.316   3.280   4.110
 1165SOL     OW 4393   1.783   4.779   2.488
 1165SOL    HW1 4394   1.689   4.806   2.507
 1165SOL    HW2 4395   1.787   4.680   2.477
 1166SOL     OW 4396   3.416   2.292   6.542
 1166SOL    HW1 4397   3.348   2.357   6.508
 1166SOL    HW2 4398   3.506   2.336   6.544
 1167SOL     OW 4399   4.015   1.829   5.201
 1167SOL    HW1 4400   3.925   1.803   5.236
 1167SOL    HW2 4401   4.006   1.857   5.105
 1168SOL     OW 4402   6.047   6.666   3.038
 1168SOL    HW1 4403   6.099   6.717   2.969
 1168SOL    HW2 4404   6.095   6.581   3.061
 1169SOL     OW 4405   0.811   3.792   1.098
 1169SOL    HW1 4406   0.906   3.784   1.068
 1169SOL    HW2 4407   0.808   3.809   1.196
 1170SOL     OW 4408   2.993   0.297   1.263
 1170SOL    HW1 4409   3.049   0.251   1.332
 1170SOL    HW2 4410   3.053   0.339   1.194
 1171SOL     OW 4411   2.975   0.379   0.268
 1171SOL    HW1 4412   2.896   0.399   0.326
 1171SOL    HW2 4413   2.981   0.448   0.196
 1172SOL     OW 4414   3.065   3.691   4.897
 1172SOL    HW1 4415   3.007   3.765   4.931
 1172SOL    HW2 4416   3.128   3.726   4.829
 1173SOL     OW 4417   4.906   0.621   6.218
 1173SOL    HW1 4418   4.874   0.677   6.142
 1173SOL    HW2 4419   4.960   0.677   6.281
 1174SOL     OW 4420   3.505   5.949   6.932
 1174SOL    HW1 4421   3.563   6.001   6.995
 1174SOL    HW2 4422   3.434   5.901   6.984
 1175SOL     OW 4423   0.176   5.065   4.860
 1175SOL    HW1 4424   0.080   5.069   4.890
 1175SOL    HW2 4425   0.214   5.158   4.857
 1176SOL     OW 4426   6.312   3.283   1.068
 1176SOL    HW1 4427   6.389   3.346   1.075
 1176SOL    HW2 4428   6.227   3.331   1.090
 1177SOL     OW 4429   5.759   3.455   0.041
 1177SOL    HW1 4430   5.719   3.392   0.108
 1177SOL    HW2 4431   5.782   3.541   0.086
 1178SOL     OW 4432   5.224   4.167   2.319
 1178SOL    HW1 4433   5.184   4.258   2.310
 1178SOL    HW2 4434   5.248   4.151   2.415
 1179SOL     OW 4435   2.157   5.752   5.557
 1179SOL    HW1 4436   2.171   5.769   5.654
 1179SOL    HW2 4437   2.245   5.747   5.511
 1180SOL     OW 4438   1.765   1.442   3.908
 1180SOL    HW1 4439   1.858   1.418   3.879
 1180SOL    HW2 4440   1.743   1.394   3.993
 1181SOL     OW 4441   2.060   4.337   2.925
 1181SOL    HW1 4442   1.961   4.334   2.938
 1181SOL    HW2 4443   2.104   4.377   3.006
 1182SOL     OW 4444   1.357   3.781   3.972
 1182SOL    HW1 4445   1.374   3.802   3.876
 1182SOL    HW2 4446   1.383   3.687   3.991
 1183SOL     OW 4447   4.770   6.011   0.443
 1183SOL    HW1 4448   4.848   6.072   0.457
 1183SOL    HW2 4449   4.796   5.918   0.469
 1184SOL     OW 4450   3.715   3.180   6.023
 1184SOL    HW1 4451   3.621   3.212   6.040
 1184SOL    HW2 4452   3.714   3.111   5.952
 1185SOL     OW 4453   2.652   1.437   6.678
 1185SOL    HW1 4454   2.621   1.423   6.584
 1185SOL    HW2 4455   2.636   1.354   6.731
 1186SOL     OW 4456   3.110   0.581   4.867
 1186SOL    HW1 4457   3.159   0.665   4.891
 1186SOL    HW2 4458   3.172   0.520   4.817
 1187SOL     OW 4459   0.710   1.826   5.488
 1187SOL    HW1 4460   0.624   1.813   5.440
 1187SOL    HW2 4461   0.729   1.924   5.496
 1188SOL     OW 4462   1.385   0.696   4.813
 1188SOL    HW1 4463   1.471   0.741   4.835
 1188SOL    HW2 4464   1.388   0.601   4.844
 1189SOL     OW 4465   0.597   0.951   1.022
 1189SOL    HW1 4466   0.655   0.873   1.000
 1189SOL    HW2 4467   0.510   0.942   0.973
 1190SOL     OW 4468   4.338   4.856   2.466
 1190SOL    HW1 4469   4.368   4.871   2.371
 1190SOL    HW2 4470   4.417   4.831   2.522
 1191SOL     OW 4471   3.262   4.552   1.056
 1191SOL    HW1 4472   3.269   4.514   1.149
 1191SOL    HW2 4473   3.290   4.482   0.990
 1192SOL     OW 4474   4.553   4.791   2.626
 1192SOL    HW1 4475   4.502   4.705   2.632
 1192SOL    HW2 4476   4.649   4.774   2.648
 1193SOL     OW 4477   4.305   7.025   3.849
 1193SOL    HW1 4478   4.330   6.934   3.817
 1193SOL    HW2 4479   4.248   0.045   3.780
 1194SOL     OW 4480   5.923   1.306   1.343
 1194SOL    HW1 4481   5.908   1.318   1.245
 1194SOL    HW2 4482   5.949   1.212   1.362
 1195SOL     OW 4483   3.590   6.475   0.087
 1195SOL    HW1 4484   3.671   6.501   0.036
 1195SOL    HW2 4485   3.512   6.530   0.058
 1196SOL     OW 4486   1.096   5.068   3.294
 1196SOL    HW1 4487   1.090   5.159   3.252
 1196SOL    HW2 4488   1.191   5.037   3.290
 1197SOL     OW 4489   3.296   5.025   6.611
 1197SOL    HW1 4490   3.271   4.981   6.525
 1197SOL    HW2 4491   3.356   4.965   6.663
 1198SOL     OW 4492   3.723   1.088   2.359
 1198SOL    HW1 4493   3.630   1.106   2.327
 1198SOL    HW2 4494   3.787   1.106   2.284
 1199SOL     OW 4495   3.031   3.874   4.206
 1199SOL    HW1 4496   2.989   3.900   4.293
 1199SOL    HW2 4497   3.097   3.944   4.180
 1200SOL     OW 4498   4.226   3.157   1.316
 1200SOL    HW1 4499   4.249   3.179   1.221
 1200SOL    HW2 4500   4.201   3.060   1.323
 1201SOL     OW 4501   1.126   0.950   4.930
 1201SOL    HW1 4502   1.162   0.937   4.838
 1201SOL    HW2 4503   1.029   0.974   4.924
 1202SOL     OW 4504   6.200   0.097   4.772
 1202SOL    HW1 4505   6.187   0.027   4.702
 1202SOL    HW2 4506   6.164   0.065   4.859
 1203SOL     OW 4507   6.382   6.429   1.609
 1203SOL    HW1 4508   6.458   6.400   1.550
 1203SOL    HW2 4509   6.397   6.523   1.638
 1204SOL     OW 4510   1.570   6.919   6.944
 1204SOL    HW1 4511   1.661   6.908   6.903
 1204SOL    HW2 4512   1.518   6.987   6.893
 1205SOL     OW 4513   0.718   3.321   5.158
 1205SOL    HW1 4514   0.723   3.378   5.239
 1205SOL    HW2 4515   0.626   3.326   5.119
 1206SOL     OW 4516   0.202   2.160   4.470
 1206SOL    HW1 4517   0.246   2.222   4.536
 1206SOL    HW2 4518   0.264   2.084   4.449
 1207SOL     OW 4519   5.950   6.605   6.986
 1207SOL    HW1 4520   5.861   6.647   6.969
 1207SOL    HW2 4521   5.986   6.568   6.901
 1208SOL     OW 4522   3.376   3.506   3.092
 1208SOL    HW1 4523   3.416   3.597   3.096
 1208SOL    HW2 4524   3.282   3.513   3.058
 1209SOL     OW 4525   6.537   4.234   4.800
 1209SOL    HW1 4526   6.549   4.227   4.899
 1209SOL    HW2 4527   6.525   4.143   4.761
 1210SOL     OW 4528   2.749   6.861   2.751
 1210SOL    HW1 4529   2.841   6.892   2.725
 1210SOL    HW2 4530   2.690   6.941   2.765
 1211SOL     OW 4531   1.265   3.109   3.389
 1211SOL    HW1 4532   1.318   3.193   3.382
 1211SOL    HW2 4533   1.184   3.116   3.331
 1212SOL     OW 4534   1.028   4.026   3.597
 1212SOL    HW1 4535   1.030   3.972   3.681
 1212SOL    HW2 4536   1.020   3.965   3.518
 1213SOL     OW 4537   5.512   3.344   5.410
 1213SOL    HW1 4538   5.466   3.396   5.338
 1213SOL    HW2 4539   5.574   3.405   5.460
 1214SOL     OW 4540   1.389   2.148   2.051
 1214SOL    HW1 4541   1.351   2.188   1.967
 1214SOL    HW2 4542   1.479   2.187   2.069
 1215SOL     OW 4543   6.856   5.156   2.146
 1215SOL    HW1 4544   6.887   5.249   2.165
 1215SOL    HW2 4545   6.878   5.133   2.051
 1216SOL     OW 4546   2.803   0.128   1.767
 1216SOL    HW1 4547   2.722   0.179   1.795
 1216SOL    HW2 4548   2.783   0.075   1.684
 1217SOL     OW 4549   2.107   2.010   2.522
 1217SOL    HW1 4550   2.098   1.918   2.561
 1217SOL    HW2 4551   2.017   2.046   2.499
 1218SOL     OW 4552   0.193   3.514   3.454
 1218SOL    HW1 4553   0.280   3.539   3.496
 1218SOL    HW2 4554   0.195   3.417   3.430
 1219SOL     OW 4555   2.667   5.841   3.813
 1219SOL    HW1 4556   2.580   5.813   3.771
 1219SOL    HW2 4557   2.731   5.765   3.809
 1220SOL     OW 4558   5.935   4.569   2.583
 1220SOL    HW1 4559   5.848   4.535   2.618
 1220SOL    HW2 4560   5.980   4.497   2.530
 1221SOL     OW 4561   5.061   4.293   6.302
 1221SOL    HW1 4562   4.982   4.233   6.315
 1221SOL    HW2 4563   5.035   4.372   6.247
 1222SOL     OW 4564   6.310   5.093   1.246
 1222SOL    HW1 4565   6.308   5.147   1.330
 1222SOL    HW2 4566   6.386   5.028   1.250
 1223SOL     OW 4567   6.765   4.856   5.210
 1223SOL    HW1 4568   6.705   4.876   5.287
 1223SOL    HW2 4569   6.856   4.833   5.243
 1224SOL     OW 4570   4.401   4.507   1.127
 1224SOL    HW1 4571   4.396   4.500   1.027
 1224SOL    HW2 4572   4.497   4.514   1.155
 1225SOL     OW 4573   3.705   1.992   6.893
 1225SOL    HW1 4574   3.637   2.041   6.840
 1225SOL    HW2 4575   3.675   1.898   6.908
 1226SOL     OW 4576   5.468   5.566   0.587
 1226SOL    HW1 4577   5.535   5.494   0.567
 1226SOL    HW2 4578   5.387   5.525   0.630
 1227SOL     OW 4579   5.128   4.855   6.895
 1227SOL    HW1 4580   5.104   4.768   6.937
 1227SOL    HW2 4581   5.047   4.896   6.853
 1228SOL     OW 4582   3.974   3.975   3.963
 1228SOL    HW1 4583   4.056   4.031   3.973
 1228SOL    HW2 4584   3.960   3.919   4.045
 1229SOL     OW 4585   2.326   5.948   3.119
 1229SOL    HW1 4586   2.348   6.044   3.134
 1229SOL    HW2 4587   2.379   5.891   3.182
 1230SOL     OW 4588   5.420   5.616   0.968
 1230SOL    HW1 4589   5.417   5.561   0.885
 1230SOL    HW2 4590   5.511   5.612   1.009
 1231SOL     OW 4591   2.206   1.542   6.896
 1231SOL    HW1 4592   2.182   1.471   6.963
 1231SOL    HW2 4593   2.225   1.627   6.944
 1232SOL     OW 4594   3.048   1.432   5.271
 1232SOL    HW1 4595   2.949   1.428   5.259
 1232SOL    HW2 4596   3.073   1.514   5.323
 1233SOL     OW 4597   6.693   5.455   4.920
 1233SOL    HW1 4598   6.630   5.513   4.868
 1233SOL    HW2 4599   6.764   5.420   4.859
 1234SOL     OW 4600   6.274   4.795   0.026
 1234SOL    HW1 4601   6.280   4.702   7.016
 1234SOL    HW2 4602   6.350   4.813   0.088
 1235SOL     OW 4603   6.013   5.112   1.196
 1235SOL    HW1 4604   5.977   5.075   1.110
 1235SOL    HW2 4605   6.113   5.108   1.194
 1236SOL     OW 4606   1.761   0.960   2.511
 1236SOL    HW1 4607   1.732   0.893   2.579
 1236SOL    HW2 4608   1.842   1.008   2.544
 1237SOL     OW 4609   1.027   0.390   4.294
 1237SOL    HW1 4610   0.949   0.379   4.232
 1237SOL    HW2 4611   1.012   0.471   4.351
 1238SOL     OW 4612   0.646   0.328   4.665
 1238SOL    HW1 4613   0.647   0.271   4.747
 1238SOL    HW2 4614   0.567   0.389   4.668
 1239SOL     OW 4615   4.675   4.800   4.056
 1239SOL    HW1 4616   4.750   4.825   3.994
 1239SOL    HW2 4617   4.701   4.819   4.150
 1240SOL     OW 4618   0.483   3.716   1.029
 1240SOL    HW1 4619   0.480   3.637   0.967
 1240SOL    HW2 4620   0.539   3.788   0.988
 1241SOL     OW 4621   3.917   4.851   6.053
 1241SOL    HW1 4622   3.952   4.862   6.147
 1241SOL    HW2 4623   3.940   4.932   5.999
 1242SOL     OW 4624   2.241   5.120   0.888
 1242SOL    HW1 4625   2.274   5.201   0.840
 1242SOL    HW2 4626   2.199   5.057   0.823
 1243SOL     OW 4627   1.237   3.343   3.603
 1243SOL    HW1 4628   1.161   3.365   3.664
 1243SOL    HW2 4629   1.212   3.264   3.546
 1244SOL     OW 4630   6.179   6.971   5.047
 1244SOL    HW1 4631   6.272   6.995   5.074
 1244SOL    HW2 4632   6.113   7.020   5.104
 1245SOL     OW 4633   4.566   6.545   1.285
 1245SOL    HW1 4634   4.580   6.602   1.366
 1245SOL    HW2 4635   4.636   6.565   1.217
 1246SOL     OW 4636   5.457   1.855   1.217
 1246SOL    HW1 4637   5.462   1.827   1.313
 1246SOL    HW2 4638   5.468   1.954   1.210
 1247SOL     OW 4639   6.065   6.703   2.350
 1247SOL    HW1 4640   5.974   6.737   2.329
 1247SOL    HW2 4641   6.107   6.665   2.268
 1248SOL     OW 4642   0.891   6.753   4.296
 1248SOL    HW1 4643   0.838   6.838   4.288
 1248SOL    HW2 4644   0.962   6.765   4.365
 1249SOL     OW 4645   5.817   6.284   6.567
 1249SOL    HW1 4646   5.755   6.354   6.531
 1249SOL    HW2 4647   5.800   6.198   6.520
 1250SOL     OW 4648   0.752   4.680   4.776
 1250SOL    HW1 4649   0.811   4.604   4.749
 1250SOL    HW2 4650   0.659   4.663   4.743
 1251SOL     OW 4651   2.980   0.255   2.767
 1251SOL    HW1 4652   2.952   0.242   2.672
 1251SOL    HW2 4653   3.015   0.169   2.803
 1252SOL     OW 4654   2.279   5.217   6.525
 1252SOL    HW1 4655   2.363   5.168   6.500
 1252SOL    HW2 4656   2.249   5.187   6.615
 1253SOL     OW 4657   2.915   6.548   0.067
 1253SOL    HW1 4658   2.863   6.482   0.120
 1253SOL    HW2 4659   2.972   6.603   0.129
 1254SOL     OW 4660   6.523   1.832   3.294
 1254SOL    HW1 4661   6.540   1.733   3.296
 1254SOL    HW2 4662   6.441   1.850   3.240
 1255SOL     OW 4663   5.770   1.872   5.951
 1255SOL    HW1 4664   5.833   1.935   5.906
 1255SOL    HW2 4665   5.795   1.865   6.048
 1256SOL     OW 4666   0.259   5.745   4.572
 1256SOL    HW1 4667   0.250   5.844   4.582
 1256SOL    HW2 4668   0.248   5.701   4.661
 1257SOL     OW 4669   6.676   6.342   3.505
 1257SOL    HW1 4670   6.647   6.436   3.487
 1257SOL    HW2 4671   6.738   6.312   3.433
 1258SOL     OW 4672   4.451   5.737   6.321
 1258SOL    HW1 4673   4.433   5.730   6.419
 1258SOL    HW2 4674   4.458   5.833   6.296
 1259SOL     OW 4675   5.500   0.017   5.482
 1259SOL    HW1 4676   5.431   6.970   5.475
 1259SOL    HW2 4677   5.494   0.076   5.401
 1260SOL     OW 4678   3.018   1.133   1.001
 1260SOL    HW1 4679   3.109   1.171   1.013
 1260SOL    HW2 4680   2.951   1.192   1.045
 1261SOL     OW 4681   0.161   4.330   5.094
 1261SOL    HW1 4682   0.132   4.270   5.019
 1261SOL    HW2 4683   0.226   4.282   5.152
 1262SOL     OW 4684   4.277   5.688   1.759
 1262SOL    HW1 4685   4.371   5.723   1.761
 1262SOL    HW2 4686   4.214   5.762   1.735
 1263SOL     OW 4687   6.836   1.972   0.563
 1263SOL    HW1 4688   6.869   1.878   0.555
 1263SOL    HW2 4689   6.909   2.031   0.596
 1264SOL     OW 4690   6.421   2.356   4.626
 1264SOL    HW1 4691   6.360   2.311   4.561
 1264SOL    HW2 4692   6.484   2.416   4.577
 1265SOL     OW 4693   6.389   5.951   4.809
 1265SOL    HW1 4694   6.338   5.868   4.832
 1265SOL    HW2 4695   6.367   5.980   4.716
 1266SOL     OW 4696   2.878   0.917   3.847
 1266SOL    HW1 4697   2.921   0.902   3.936
 1266SOL    HW2 4698   2.858   1.015   3.836
 1267SOL     OW 4699   0.268   4.507   3.031
 1267SOL    HW1 4700   0.198   4.478   2.967
 1267SOL    HW2 4701   0.231   4.580   3.090
 1268SOL     OW 4702   6.042   4.539   6.916
 1268SOL    HW1 4703   6.014   4.631   6.944
 1268SOL    HW2 4704   6.114   4.545   6.847
 1269SOL     OW 4705   6.935   4.977   6.161
 1269SOL    HW1 4706   6.930   5.019   6.252
 1269SOL    HW2 4707   7.016   4.918   6.156
 1270SOL     OW 4708   1.526   2.175   4.660
 1270SOL    HW1 4709   1.581   2.091   4.660
 1270SOL    HW2 4710   1.440   2.158   4.613
 1271SOL     OW 4711   5.297   2.626   3.443
 1271SOL    HW1 4712   5.229   2.558   3.417
 1271SOL    HW2 4713   5.383   2.580   3.464
 1272SOL     OW 4714   6.249   0.090   1.479
 1272SOL    HW1 4715   6.190   0.014   1.505
 1272SOL    HW2 4716   6.260   0.092   1.380
 1273SOL     OW 4717   2.835   6.213   5.487
 1273SOL    HW1 4718   2.823   6.126   5.440
 1273SOL    HW2 4719   2.745   6.252   5.508
 1274SOL     OW 4720   5.768   1.880   2.117
 1274SOL    HW1 4721   5.851   1.916   2.161
 1274SOL    HW2 4722   5.690   1.894   2.177
 1275SOL     OW 4723   3.861   1.800   3.945
 1275SOL    HW1 4724   3.903   1.739   3.878
 1275SOL    HW2 4725   3.771   1.829   3.913
 1276SOL     OW 4726   6.327   0.254   2.679
 1276SOL    HW1 4727   6.278   0.253   2.765
 1276SOL    HW2 4728   6.262   0.247   2.603
 1277SOL     OW 4729   0.388   2.068   4.868
 1277SOL    HW1 4730   0.362   2.144   4.928
 1277SOL    HW2 4731   0.428   2.105   4.784
 1278SOL     OW 4732   2.784   1.278   5.746
 1278SOL    HW1 4733   2.737   1.203   5.700
 1278SOL    HW2 4734   2.739   1.296   5.833
 1279SOL     OW 4735   2.210   4.978   0.667
 1279SOL    HW1 4736   2.294   4.962   0.615
 1279SOL    HW2 4737   2.143   5.025   0.609
 1280SOL     OW 4738   1.758   5.836   2.543
 1280SOL    HW1 4739   1.772   5.883   2.631
 1280SOL    HW2 4740   1.667   5.858   2.507
 1281SOL     OW 4741   1.059   6.843   4.012
 1281SOL    HW1 4742   0.998   6.769   3.983
 1281SOL    HW2 4743   1.154   6.819   3.988
 1282SOL     OW 4744   1.075   0.132   2.540
 1282SOL    HW1 4745   0.989   0.096   2.504
 1282SOL    HW2 4746   1.070   0.137   2.639
 1283SOL     OW 4747   4.705   4.024   5.158
 1283SOL    HW1 4748   4.644   3.962   5.208
 1283SOL    HW2 4749   4.696   4.116   5.195
 1284SOL     OW 4750   2.859   1.898   2.518
 1284SOL    HW1 4751   2.938   1.953   2.546
 1284SOL    HW2 4752   2.776   1.953   2.525
 1285SOL     OW 4753   5.677   2.712   6.414
 1285SOL    HW1 4754   5.767   2.677   6.438
 1285SOL    HW2 4755   5.608   2.640   6.427
 1286SOL     OW 4756   6.143   6.189   1.724
 1286SOL    HW1 4757   6.080   6.264   1.739
 1286SOL    HW2 4758   6.179   6.156   1.811
 1287SOL     OW 4759   6.115   4.679   6.081
 1287SOL    HW1 4760   6.148   4.732   6.158
 1287SOL    HW2 4761   6.146   4.584   6.090
 1288SOL     OW 4762   6.672   2.760   3.518
 1288SOL    HW1 4763   6.762   2.732   3.549
 1288SOL    HW2 4764   6.603   2.726   3.582
 1289SOL     OW 4765   6.828   5.286   2.756
 1289SOL    HW1 4766   6.760   5.231   2.805
 1289SOL    HW2 4767   6.841   5.248   2.664
 1290SOL     OW 4768   0.120   7.023   1.274
 1290SOL    HW1 4769   0.154   0.079   1.227
 1290SOL    HW2 4770   0.182   6.946   1.256
 1291SOL     OW 4771   1.479   6.793   0.551
 1291SOL    HW1 4772   1.522   6.723   0.494
 1291SOL    HW2 4773   1.549   6.854   0.587
 1292SOL     OW 4774   0.795   5.780   6.480
 1292SOL    HW1 4775   0.894   5.764   6.477
 1292SOL    HW2 4776   0.774   5.839   6.558
 1293SOL     OW 4777   6.301   2.930   5.926
 1293SOL    HW1 4778   6.315   3.010   5.984
 1293SOL    HW2 4779   6.389   2.896   5.895
 1294SOL     OW 4780   0.366   1.794   3.367
 1294SOL    HW1 4781   0.446   1.823   3.418
 1294SOL    HW2 4782   0.320   1.720   3.417
 1295SOL     OW 4783   4.685   3.425   1.641
 1295SOL    HW1 4784   4.763   3.485   1.662
 1295SOL    HW2 4785   4.605   3.455   1.691
 1296SOL     OW 4786   3.701   2.491   6.868
 1296SOL    HW1 4787   3.633   2.442   6.813
 1296SOL    HW2 4788   3.789   2.491   6.819
 1297SOL     OW 4789   6.402   1.132   6.728
 1297SOL    HW1 4790   6.395   1.049   6.784
 1297SOL    HW2 4791   6.428   1.209   6.787
 1298SOL     OW 4792   6.482   2.990   3.535
 1298SOL    HW1 4793   6.562   2.931   3.527
 1298SOL    HW2 4794   6.426   2.980   3.452
 1299SOL     OW 4795   1.266   3.338   4.322
 1299SOL    HW1 4796   1.342   3.277   4.303
 1299SOL    HW2 4797   1.180   3.291   4.303
 1300SOL     OW 4798   3.279   3.553   1.628
 1300SOL    HW1 4799   3.211   3.483   1.608
 1300SOL    HW2 4800   3.364   3.532   1.580
 1301SOL     OW 4801   0.451   0.560   2.832
 1301SOL    HW1 4802   0.385   0.627   2.800
 1301SOL    HW2 4803   0.514   0.602   2.897
 1302SOL     OW 4804   2.620   5.581   5.666
 1302SOL    HW1 4805   2.599   5.653   5.599
 1302SOL    HW2 4806   2.719   5.578   5.680
 1303SOL     OW 4807   3.386   0.172   1.155
 1303SOL    HW1 4808   3.423   0.221   1.233
 1303SOL    HW2 4809   3.323   0.101   1.186
 1304SOL     OW 4810   3.482   0.710   6.320
 1304SOL    HW1 4811   3.497   0.686   6.416
 1304SOL    HW2 4812   3.449   0.804   6.314
 1305SOL     OW 4813   6.098   6.390   3.712
 1305SOL    HW1 4814   6.185   6.436   3.730
 1305SOL    HW2 4815   6.112   6.291   3.709
 1306SOL     OW 4816   1.671   4.952   4.676
 1306SOL    HW1 4817   1.636   4.932   4.767
 1306SOL    HW2 4818   1.663   4.870   4.618
 1307SOL     OW 4819   1.331   2.054   4.487
 1307SOL    HW1 4820   1.379   1.999   4.419
 1307SOL    HW2 4821   1.258   2.000   4.528
 1308SOL     OW 4822   4.564   6.364   2.837
 1308SOL    HW1 4823   4.483   6.417   2.812
 1308SOL    HW2 4824   4.535   6.277   2.878
 1309SOL     OW 4825   5.921   2.951   4.928
 1309SOL    HW1 4826   5.969   2.898   4.858
 1309SOL    HW2 4827   5.833   2.982   4.892
 1310SOL     OW 4828   4.727   3.886   5.472
 1310SOL    HW1 4829   4.752   3.975   5.509
 1310SOL    HW2 4830   4.663   3.898   5.396
 1311SOL     OW 4831   5.291   5.194   5.364
 1311SOL    HW1 4832   5.372   5.234   5.408
 1311SOL    HW2 4833   5.282   5.098   5.393
 1312SOL     OW 4834   6.148   0.226   2.481
 1312SOL    HW1 4835   6.167   0.129   2.468
 1312SOL    HW2 4836   6.153   0.273   2.393
 1313SOL     OW 4837   3.209   4.970   5.209
 1313SOL    HW1 4838   3.139   5.032   5.174
 1313SOL    HW2 4839   3.172   4.878   5.216
 1314SOL     OW 4840   5.738   1.927   5.462
 1314SOL    HW1 4841   5.734   2.019   5.423
 1314SOL    HW2 4842   5.662   1.915   5.526
 1315SOL     OW 4843   2.257   6.950   3.475
 1315SOL    HW1 4844   2.345   6.971   3.518
 1315SOL    HW2 4845   2.255   6.989   3.383
 1316SOL     OW 4846   3.159   6.317   2.755
 1316SOL    HW1 4847   3.106   6.235   2.733
 1316SOL    HW2 4848   3.251   6.308   2.716
 1317SOL     OW 4849   0.141   4.098   3.931
 1317SOL    HW1 4850   0.117   4.078   4.026
 1317SOL    HW2 4851   0.084   4.174   3.898
 1318SOL     OW 4852   0.535   6.236   1.422
 1318SOL    HW1 4853   0.546   6.210   1.326
 1318SOL    HW2 4854   0.541   6.335   1.431
 1319SOL     OW 4855   6.272   0.714   6.923
 1319SOL    HW1 4856   6.289   0.624   6.882
 1319SOL    HW2 4857   6.175   0.724   6.944
 1320SOL     OW 4858   5.640   6.099   5.568
 1320SOL    HW1 4859   5.714   6.121   5.631
 1320SOL    HW2 4860   5.636   6.000   5.554
 1321SOL     OW 4861   3.067   1.401   6.786
 1321SOL    HW1 4862   3.012   1.353   6.854
 1321SOL    HW2 4863   3.131   1.338   6.743
 1322SOL     OW 4864   5.338   1.444   6.036
 1322SOL    HW1 4865   5.298   1.497   5.961
 1322SOL    HW2 4866   5.345   1.502   6.117
 1323SOL     OW 4867   6.123   0.961   3.855
 1323SOL    HW1 4868   6.056   1.029   3.826
 1323SOL    HW2 4869   6.080   0.897   3.919
 1324SOL     OW 4870   0.960   3.377   0.127
 1324SOL    HW1 4871   1.007   3.295   0.097
 1324SOL    HW2 4872   0.928   3.365   0.221
 1325SOL     OW 4873   3.538   5.371   3.260
 1325SOL    HW1 4874   3.498   5.417   3.339
 1325SOL    HW2 4875   3.549   5.274   3.280
 1326SOL     OW 4876   5.161   4.043   4.509
 1326SOL    HW1 4877   5.191   4.077   4.598
 1326SOL    HW2 4878   5.132   4.120   4.452
 1327SOL     OW 4879   2.999   5.767   3.521
 1327SOL    HW1 4880   2.968   5.859   3.494
 1327SOL    HW2 4881   2.921   5.705   3.522
 1328SOL     OW 4882   1.616   1.666   0.260
 1328SOL    HW1 4883   1.657   1.591   0.312
 1328SOL    HW2 4884   1.622   1.750   0.314
 1329SOL     OW 4885   0.689   0.401   1.531
 1329SOL    HW1 4886   0.656   0.482   1.482
 1329SOL    HW2 4887   0.789   0.401   1.533
 1330SOL     OW 4888   4.879   6.608   0.734
 1330SOL    HW1 4889   4.932   6.539   0.783
 1330SOL    HW2 4890   4.910   6.699   0.760
 1331SOL     OW 4891   6.888   1.523   2.218
 1331SOL    HW1 4892   6.965   1.585   2.206
 1331SOL    HW2 4893   6.836   1.518   2.133
 1332SOL     OW 4894   4.123   1.742   0.887
 1332SOL    HW1 4895   4.033   1.778   0.862
 1332SOL    HW2 4896   4.146   1.665   0.828
 1333SOL     OW 4897   3.877   3.523   4.753
 1333SOL    HW1 4898   3.885   3.437   4.702
 1333SOL    HW2 4899   3.958   3.535   4.809
 1334SOL     OW 4900   0.585   4.280   3.628
 1334SOL    HW1 4901   0.566   4.363   3.575
 1334SOL    HW2 4902   0.684   4.262   3.626
 1335SOL     OW 4903   2.643   5.599   1.844
 1335SOL    HW1 4904   2.631   5.500   1.834
 1335SOL    HW2 4905   2.572   5.636   1.904
 1336SOL     OW 4906   0.072   0.491   4.807
 1336SOL    HW1 4907   0.011   0.484   4.729
 1336SOL    HW2 4908   0.093   0.587   4.824
 1337SOL     OW 4909   3.270   0.576   6.659
 1337SOL    HW1 4910   3.334   0.508   6.624
 1337SOL    HW2 4911   3.187   0.576   6.604
 1338SOL     OW 4912   3.730   5.607   1.345
 1338SOL    HW1 4913   3.799   5.657   1.397
 1338SOL    HW2 4914   3.721   5.647   1.254
 1339SOL     OW 4915   0.296   4.897   6.090
 1339SOL    HW1 4916   0.340   4.974   6.136
 1339SOL    HW2 4917   0.352   4.815   6.101
 1340SOL     OW 4918   1.832   1.131   6.273
 1340SOL    HW1 4919   1.872   1.156   6.361
 1340SOL    HW2 4920   1.879   1.050   6.237
 1341SOL     OW 4921   6.193   2.296   4.037
 1341SOL    HW1 4922   6.235   2.342   4.115
 1341SOL    HW2 4923   6.095   2.316   4.035
 1342SOL     OW 4924   0.357   6.128   1.971
 1342SOL    HW1 4925   0.412   6.089   1.897
 1342SOL    HW2 4926   0.372   6.227   1.975
 1343SOL     OW 4927   3.556   5.187   3.592
 1343SOL    HW1 4928   3.497   5.253   3.640
 1343SOL    HW2 4929   3.590   5.120   3.657
 1344SOL     OW 4930   5.297   1.355   2.968
 1344SOL    HW1 4931   5.213   1.394   2.929
 1344SOL    HW2 4932   5.369   1.425   2.967
 1345SOL     OW 4933   0.841   7.002   3.098
 1345SOL    HW1 4934   0.861   7.023   3.194
 1345SOL    HW2 4935   0.925   7.009   3.044
 1346SOL     OW 4936   0.244   0.851   3.790
 1346SOL    HW1 4937   0.305   0.927   3.813
 1346SOL    HW2 4938   0.218   0.802   3.873
 1347SOL     OW 4939   5.249   0.605   3.453
 1347SOL    HW1 4940   5.295   0.683   3.496
 1347SOL    HW2 4941   5.150   0.621   3.454
 1348SOL     OW 4942   4.743   6.059   4.646
 1348SOL    HW1 4943   4.785   6.007   4.720
 1348SOL    HW2 4944   4.726   5.999   4.568
 1349SOL     OW 4945   4.857   2.536   0.163
 1349SOL    HW1 4946   4.882   2.590   0.243
 1349SOL    HW2 4947   4.855   2.595   0.082
 1350SOL     OW 4948   3.622   0.151   4.855
 1350SOL    HW1 4949   3.634   0.076   4.790
 1350SOL    HW2 4950   3.704   0.210   4.854
 1351SOL     OW 4951   0.982   1.550   4.485
 1351SOL    HW1 4952   1.060   1.521   4.540
 1351SOL    HW2 4953   1.014   1.587   4.398
 1352SOL     OW 4954   0.795   6.662   3.940
 1352SOL    HW1 4955   0.740   6.581   3.920
 1352SOL    HW2 4956   0.742   6.726   3.995
 1353SOL     OW 4957   1.928   2.540   4.608
 1353SOL    HW1 4958   1.978   2.501   4.685
 1353SOL    HW2 4959   1.845   2.487   4.591
 1354SOL     OW 4960   0.537   6.867   0.439
 1354SOL    HW1 4961   0.499   6.906   0.355
 1354SOL    HW2 4962   0.505   6.918   0.518
 1355SOL     OW 4963   3.940   3.308   0.115
 1355SOL    HW1 4964   3.934   3.290   0.017
 1355SOL    HW2 4965   3.866   3.261   0.163
 1356SOL     OW 4966   3.256   2.786   1.589
 1356SOL    HW1 4967   3.289   2.870   1.632
 1356SOL    HW2 4968   3.219   2.806   1.498
 1357SOL     OW 4969   2.866   3.129   6.016
 1357SOL    HW1 4970   2.890   3.069   5.940
 1357SOL    HW2 4971   2.802   3.083   6.077
 1358SOL     OW 4972   2.135   3.702   5.857
 1358SOL    HW1 4973   2.087   3.628   5.811
 1358SOL    HW2 4974   2.126   3.787   5.804
 1359SOL     OW 4975   6.954   0.856   0.242
 1359SOL    HW1 4976   6.918   0.935   0.193
 1359SOL    HW2 4977   6.879   0.796   0.269
 1360SOL     OW 4978   3.468   3.053   4.484
 1360SOL    HW1 4979   3.421   3.053   4.395
 1360SOL    HW2 4980   3.438   3.132   4.537
 1361SOL     OW 4981   0.651   6.211   1.165
 1361SOL    HW1 4982   0.620   6.235   1.073
 1361SOL    HW2 4983   0.737   6.258   1.185
 1362SOL     OW 4984   3.079   1.971   6.296
 1362SOL    HW1 4985   2.986   1.996   6.269
 1362SOL    HW2 4986   3.123   2.050   6.339
 1363SOL     OW 4987   6.679   6.899   1.111
 1363SOL    HW1 4988   6.662   6.996   1.092
 1363SOL    HW2 4989   6.722   6.857   1.031
 1364SOL     OW 4990   1.102   3.808   1.103
 1364SOL    HW1 4991   1.064   3.894   1.137
 1364SOL    HW2 4992   1.174   3.827   1.036
 1365SOL     OW 4993   0.620   3.654   5.446
 1365SOL    HW1 4994   0.560   3.708   5.505
 1365SOL    HW2 4995   0.578   3.565   5.428
 1366SOL     OW 4996   4.256   0.306   1.097
 1366SOL    HW1 4997   4.191   0.370   1.057
 1366SOL    HW2 4998   4.324   0.356   1.150
 1367SOL     OW 4999   1.634   6.985   4.258
 1367SOL    HW1 5000   1.694   7.006   4.180
 1367SOL    HW2 5001   1.649   6.891   4.288
 1368SOL     OW 5002   1.433   6.871   4.530
 1368SOL    HW1 5003   1.395   6.796   4.585
 1368SOL    HW2 5004   1.437   6.843   4.434
 1369SOL     OW 5005   2.817   5.615   3.764
 1369SOL    HW1 5006   2.917   5.612   3.765
 1369SOL    HW2 5007   2.783   5.564   3.685
 1370SOL     OW 5008   0.050   2.529   2.968
 1370SOL    HW1 5009   7.004   2.486   3.023
 1370SOL    HW2 5010   0.075   2.617   3.009
 1371SOL     OW 5011   6.198   2.429   5.698
 1371SOL    HW1 5012   6.157   2.372   5.628
 1371SOL    HW2 5013   6.127   2.464   5.759
 1372SOL     OW 5014   5.519   2.848   1.344
 1372SOL    HW1 5015   5.503   2.905   1.264
 1372SOL    HW2 5016   5.432   2.815   1.381
 1373SOL     OW 5017   5.799   2.947   2.014
 1373SOL    HW1 5018   5.879   2.899   1.977
 1373SOL    HW2 5019   5.728   2.953   1.943
 1374SOL     OW 5020   3.935   3.616   1.560
 1374SOL    HW1 5021   3.916   3.611   1.658
 1374SOL    HW2 5022   4.001   3.688   1.542
 1375SOL     OW 5023   5.436   4.754   4.896
 1375SOL    HW1 5024   5.418   4.696   4.816
 1375SOL    HW2 5025   5.451   4.697   4.976
 1376SOL     OW 5026   3.010   4.645   6.084
 1376SOL    HW1 5027   2.931   4.626   6.027
 1376SOL    HW2 5028   3.037   4.562   6.134
 1377SOL     OW 5029   2.230   1.722   2.791
 1377SOL    HW1 5030   2.145   1.741   2.742
 1377SOL    HW2 5031   2.292   1.672   2.731
 1378SOL     OW 5032   5.446   2.801   4.205
 1378SOL    HW1 5033   5.528   2.766   4.250
 1378SOL    HW2 5034   5.462   2.808   4.107
 1379SOL     OW 5035   4.770   5.621   0.315
 1379SOL    HW1 5036   4.719   5.691   0.365
 1379SOL    HW2 5037   4.720   5.534   0.318
 1380SOL     OW 5038   0.312   5.860   2.810
 1380SOL    HW1 5039   0.335   5.806   2.891
 1380SOL    HW2 5040   0.314   5.957   2.833
 1381SOL     OW 5041   6.308   2.384   6.132
 1381SOL    HW1 5042   6.378   2.330   6.087
 1381SOL    HW2 5043   6.339   2.409   6.224
 1382SOL     OW 5044   5.055   2.399   0.010
 1382SOL    HW1 5045   5.086   2.308   0.039
 1382SOL    HW2 5046   5.062   2.463   0.086
 1383SOL     OW 5047   6.921   0.579   0.694
 1383SOL    HW1 5048   6.888   0.538   0.779
 1383SOL    HW2 5049   6.848   0.635   0.654
 1384SOL     OW 5050   5.791   1.987   1.864
 1384SOL    HW1 5051   5.696   2.000   1.836
 1384SOL    HW2 5052   5.793   1.951   1.958
 1385SOL     OW 5053   0.222   5.830   1.418
 1385SOL    HW1 5054   0.154   5.859   1.486
 1385SOL    HW2 5055   0.312   5.829   1.461
 1386SOL     OW 5056   2.092   5.743   4.221
 1386SOL    HW1 5057   2.105   5.734   4.122
 1386SOL    HW2 5058   2.054   5.833   4.241
 1387SOL     OW 5059   2.420   6.076   1.578
 1387SOL    HW1 5060   2.378   6.016   1.645
 1387SOL    HW2 5061   2.472   6.022   1.512
 1388SOL     OW 5062   6.798   0.243   1.946
 1388SOL    HW1 5063   6.712   0.203   1.977
 1388SOL    HW2 5064   6.868   0.232   2.016
 1389SOL     OW 5065   6.398   1.146   2.294
 1389SOL    HW1 5066   6.485   1.098   2.284
 1389SOL    HW2 5067   6.362   1.131   2.387
 1390SOL     OW 5068   1.551   1.887   4.954
 1390SOL    HW1 5069   1.492   1.841   4.887
 1390SOL    HW2 5070   1.494   1.930   5.024
 1391SOL     OW 5071   0.349   2.972   3.240
 1391SOL    HW1 5072   0.264   3.013   3.274
 1391SOL    HW2 5073   0.367   3.004   3.147
 1392SOL     OW 5074   4.890   4.427   4.446
 1392SOL    HW1 5075   4.893   4.411   4.545
 1392SOL    HW2 5076   4.821   4.497   4.427
 1393SOL     OW 5077   3.402   5.831   6.173
 1393SOL    HW1 5078   3.387   5.924   6.142
 1393SOL    HW2 5079   3.449   5.832   6.261
 1394SOL     OW 5080   1.415   5.846   6.385
 1394SOL    HW1 5081   1.410   5.822   6.288
 1394SOL    HW2 5082   1.372   5.936   6.399
 1395SOL     OW 5083   3.587   4.432   5.925
 1395SOL    HW1 5084   3.594   4.462   5.830
 1395SOL    HW2 5085   3.570   4.512   5.984
 1396SOL     OW 5086   6.188   6.129   3.708
 1396SOL    HW1 5087   6.235   6.153   3.623
 1396SOL    HW2 5088   6.141   6.041   3.697
 1397SOL     OW 5089   4.590   6.181   5.658
 1397SOL    HW1 5090   4.645   6.153   5.737
 1397SOL    HW2 5091   4.499   6.139   5.665
 1398SOL     OW 5092   2.077   1.039   4.345
 1398SOL    HW1 5093   2.148   1.104   4.373
 1398SOL    HW2 5094   1.996   1.050   4.403
 1399SOL     OW 5095   3.448   5.976   1.807
 1399SOL    HW1 5096   3.394   6.001   1.726
 1399SOL    HW2 5097   3.417   6.029   1.886
 1400SOL     OW 5098   2.015   6.467   2.234
 1400SOL    HW1 5099   1.992   6.460   2.331
 1400SOL    HW2 5100   2.046   6.378   2.201
 1401SOL     OW 5101   6.692   1.188   4.637
 1401SOL    HW1 5102   6.623   1.195   4.709
 1401SOL    HW2 5103   6.705   1.278   4.595
 1402SOL     OW 5104   6.581   3.172   0.326
 1402SOL    HW1 5105   6.650   3.233   0.364
 1402SOL    HW2 5106   6.608   3.077   0.341
 1403SOL     OW 5107   3.593   0.203   2.569
 1403SOL    HW1 5108   3.525   0.140   2.607
 1403SOL    HW2 5109   3.572   0.296   2.599
 1404SOL     OW 5110   5.626   1.733   0.732
 1404SOL    HW1 5111   5.544   1.775   0.694
 1404SOL    HW2 5112   5.643   1.768   0.824
 1405SOL     OW 5113   3.159   2.836   1.164
 1405SOL    HW1 5114   3.250   2.797   1.175
 1405SOL    HW2 5115   3.120   2.857   1.254
 1406SOL     OW 5116   1.575   4.278   1.359
 1406SOL    HW1 5117   1.589   4.199   1.299
 1406SOL    HW2 5118   1.523   4.250   1.440
 1407SOL     OW 5119   6.272   2.638   3.058
 1407SOL    HW1 5120   6.173   2.642   3.069
 1407SOL    HW2 5121   6.308   2.729   3.038
 1408SOL     OW 5122   6.333   0.218   6.216
 1408SOL    HW1 5123   6.367   0.127   6.240
 1408SOL    HW2 5124   6.238   0.212   6.187
 1409SOL     OW 5125   0.445   1.804   4.739
 1409SOL    HW1 5126   0.429   1.878   4.804
 1409SOL    HW2 5127   0.383   1.813   4.662
 1410SOL     OW 5128   0.246   3.137   0.024
 1410SOL    HW1 5129   0.301   3.194   0.084
 1410SOL    HW2 5130   0.149   3.153   0.042
 1411SOL     OW 5131   1.595   7.006   1.538
 1411SOL    HW1 5132   1.513   6.957   1.507
 1411SOL    HW2 5133   1.569   0.073   1.567
 1412SOL     OW 5134   1.131   3.189   0.051
 1412SOL    HW1 5135   1.089   3.101   0.072
 1412SOL    HW2 5136   1.161   3.189   6.981
 1413SOL     OW 5137   3.018   0.334   3.960
 1413SOL    HW1 5138   3.033   0.349   4.057
 1413SOL    HW2 5139   2.933   0.284   3.946
 1414SOL     OW 5140   2.975   0.837   1.541
 1414SOL    HW1 5141   3.004   0.846   1.636
 1414SOL    HW2 5142   2.986   0.925   1.494
 1415SOL     OW 5143   4.336   6.100   5.998
 1415SOL    HW1 5144   4.393   6.038   6.053
 1415SOL    HW2 5145   4.349   6.079   5.901
 1416SOL     OW 5146   4.566   5.748   3.260
 1416SOL    HW1 5147   4.516   5.798   3.189
 1416SOL    HW2 5148   4.570   5.804   3.343
 1417SOL     OW 5149   3.254   2.603   6.102
 1417SOL    HW1 5150   3.313   2.681   6.122
 1417SOL    HW2 5151   3.189   2.629   6.030
 1418SOL     OW 5152   3.277   3.989   2.756
 1418SOL    HW1 5153   3.199   3.927   2.757
 1418SOL    HW2 5154   3.302   4.011   2.662
 1419SOL     OW 5155   4.687   6.367   4.669
 1419SOL    HW1 5156   4.708   6.270   4.679
 1419SOL    HW2 5157   4.676   6.409   4.759
 1420SOL     OW 5158   7.008   5.376   2.146
 1420SOL    HW1 5159   0.043   5.404   2.221
 1420SOL    HW2 5160   6.978   5.457   2.096
 1421SOL     OW 5161   3.541   1.119   2.733
 1421SOL    HW1 5162   3.497   1.159   2.653
 1421SOL    HW2 5163   3.641   1.124   2.723
 1422SOL     OW 5164   2.960   6.189   0.149
 1422SOL    HW1 5165   2.977   6.239   0.064
 1422SOL    HW2 5166   2.934   6.253   0.221
 1423SOL     OW 5167   4.995   0.682   2.600
 1423SOL    HW1 5168   5.084   0.668   2.557
 1423SOL    HW2 5169   4.990   0.631   2.686
 1424SOL     OW 5170   6.175   4.957   2.985
 1424SOL    HW1 5171   6.169   5.025   3.058
 1424SOL    HW2 5172   6.159   5.001   2.896
 1425SOL     OW 5173   1.998   0.015   4.795
 1425SOL    HW1 5174   1.988   0.049   4.889
 1425SOL    HW2 5175   2.013   6.941   4.798
 1426SOL     OW 5176   1.362   1.433   5.657
 1426SOL    HW1 5177   1.455   1.466   5.677
 1426SOL    HW2 5178   1.357   1.405   5.562
 1427SOL     OW 5179   6.012   0.935   4.634
 1427SOL    HW1 5180   6.026   0.837   4.643
 1427SOL    HW2 5181   6.003   0.976   4.725
 1428SOL     OW 5182   5.426   1.011   0.185
 1428SOL    HW1 5183   5.372   1.070   0.125
 1428SOL    HW2 5184   5.511   1.058   0.210
 1429SOL     OW 5185   5.742   0.242   0.282
 1429SOL    HW1 5186   5.730   0.155   0.331
 1429SOL    HW2 5187   5.840   0.260   0.270
 1430SOL     OW 5188   1.989   4.675   3.923
 1430SOL    HW1 5189   2.043   4.722   3.853
 1430SOL    HW2 5190   2.029   4.695   4.013
 1431SOL     OW 5191   1.355   0.490   1.079
 1431SOL    HW1 5192   1.426   0.421   1.095
 1431SOL    HW2 5193   1.364   0.526   0.987
 1432SOL     OW 5194   2.638   0.339   1.917
 1432SOL    HW1 5195   2.548   0.373   1.889
 1432SOL    HW2 5196   2.646   0.345   2.017
 1433SOL     OW 5197   4.719   0.942   3.883
 1433SOL    HW1 5198   4.666   0.957   3.966
 1433SOL    HW2 5199   4.739   1.030   3.840
 1434SOL     OW 5200   0.986   0.730   5.175
 1434SOL    HW1 5201   0.920   0.740   5.100
 1434SOL    HW2 5202   0.948   0.669   5.244
 1435SOL     OW 5203   6.934   1.759   3.143
 1435SOL    HW1 5204   0.007   1.748   3.129
 1435SOL    HW2 5205   6.888   1.766   3.055
 1436SOL     OW 5206   4.148   3.822   0.646
 1436SOL    HW1 5207   4.201   3.835   0.562
 1436SOL    HW2 5208   4.140   3.724   0.666
 1437SOL     OW 5209   4.040   1.018   2.266
 1437SOL    HW1 5210   4.121   0.966   2.293
 1437SOL    HW2 5211   4.031   1.016   2.166
 1438SOL     OW 5212   2.353   0.466   1.008
 1438SOL    HW1 5213   2.267   0.458   0.958
 1438SOL    HW2 5214   2.413   0.390   0.984
 1439SOL     OW 5215   0.796   5.567   2.938
 1439SOL    HW1 5216   0.768   5.566   3.034
 1439SOL    HW2 5217   0.896   5.558   2.933
 1440SOL     OW 5218   2.443   3.215   1.711
 1440SOL    HW1 5219   2.397   3.247   1.794
 1440SOL    HW2 5220   2.393   3.138   1.673
 1441SOL     OW 5221   5.176   6.172   0.738
 1441SOL    HW1 5222   5.239   6.094   0.735
 1441SOL    HW2 5223   5.166   6.210   0.646
 1442SOL     OW 5224   5.288   5.795   0.523
 1442SOL    HW1 5225   5.248   5.797   0.432
 1442SOL    HW2 5226   5.349   5.716   0.531
 1443SOL     OW 5227   0.283   2.987   2.904
 1443SOL    HW1 5228   0.349   2.914   2.916
 1443SOL    HW2 5229   0.196   2.961   2.946
 1444SOL     OW 5230   7.020   4.916   6.911
 1444SOL    HW1 5231   0.067   4.925   6.980
 1444SOL    HW2 5232   6.942   4.972   6.939
 1445SOL     OW 5233   0.909   3.931   1.565
 1445SOL    HW1 5234   0.996   3.882   1.557
 1445SOL    HW2 5235   0.863   3.903   1.649
 1446SOL     OW 5236   6.331   6.891   0.985
 1446SOL    HW1 5237   6.426   6.912   0.962
 1446SOL    HW2 5238   6.304   6.805   0.942
 1447SOL     OW 5239   5.561   5.364   4.328
 1447SOL    HW1 5240   5.573   5.416   4.412
 1447SOL    HW2 5241   5.542   5.268   4.350
 1448SOL     OW 5242   1.028   3.296   5.566
 1448SOL    HW1 5243   1.019   3.199   5.587
 1448SOL    HW2 5244   1.051   3.347   5.649
 1449SOL     OW 5245   2.235   3.057   3.265
 1449SOL    HW1 5246   2.242   3.002   3.181
 1449SOL    HW2 5247   2.219   3.153   3.240
 1450SOL     OW 5248   2.620   2.501   3.823
 1450SOL    HW1 5249   2.576   2.488   3.734
 1450SOL    HW2 5250   2.569   2.569   3.875
 1451SOL     OW 5251   2.778   1.044   2.657
 1451SOL    HW1 5252   2.804   0.959   2.612
 1451SOL    HW2 5253   2.846   1.115   2.637
 1452SOL     OW 5254   5.239   3.058   6.668
 1452SOL    HW1 5255   5.191   3.111   6.738
 1452SOL    HW2 5256   5.172   3.020   6.604
 1453SOL     OW 5257   6.828   4.364   5.568
 1453SOL    HW1 5258   6.911   4.418   5.554
 1453SOL    HW2 5259   6.838   4.275   5.524
 1454SOL     OW 5260   3.246   2.182   3.771
 1454SOL    HW1 5261   3.149   2.158   3.768
 1454SOL    HW2 5262   3.264   2.253   3.703
 1455SOL     OW 5263   0.392   5.896   1.809
 1455SOL    HW1 5264   0.380   5.951   1.726
 1455SOL    HW2 5265   0.302   5.876   1.847
 1456SOL     OW 5266   6.428   5.070   4.279
 1456SOL    HW1 5267   6.377   5.146   4.320
 1456SOL    HW2 5268   6.455   5.006   4.351
 1457SOL     OW 5269   1.103   5.536   6.115
 1457SOL    HW1 5270   1.157   5.511   6.035
 1457SOL    HW2 5271   1.069   5.453   6.159
 1458SOL     OW 5272   5.113   5.181   5.126
 1458SOL    HW1 5273   5.102   5.270   5.082
 1458SOL    HW2 5274   5.173   5.190   5.206
 1459SOL     OW 5275   5.790   6.757   5.155
 1459SOL    HW1 5276   5.733   6.675   5.148
 1459SOL    HW2 5277   5.766   6.807   5.238
 1460SOL     OW 5278   1.233   6.586   4.913
 1460SOL    HW1 5279   1.174   6.510   4.887
 1460SOL    HW2 5280   1.178   6.656   4.958
 1461SOL     OW 5281   6.647   3.193   4.017
 1461SOL    HW1 5282   6.661   3.187   3.918
 1461SOL    HW2 5283   6.646   3.290   4.044
 1462SOL     OW 5284   0.222   0.991   1.505
 1462SOL    HW1 5285   0.311   0.945   1.498
 1462SOL    HW2 5286   0.202   1.010   1.600
 1463SOL     OW 5287   2.236   5.522   6.977
 1463SOL    HW1 5288   2.309   5.575   6.934
 1463SOL    HW2 5289   2.249   5.425   6.957
 1464SOL     OW 5290   1.153   4.130   3.962
 1464SOL    HW1 5291   1.173   4.188   4.041
 1464SOL    HW2 5292   1.111   4.045   3.992
 1465SOL     OW 5293   0.867   3.168   3.876
 1465SOL    HW1 5294   0.886   3.083   3.926
 1465SOL    HW2 5295   0.773   3.197   3.895
 1466SOL     OW 5296   5.420   2.212   2.555
 1466SOL    HW1 5297   5.447   2.271   2.479
 1466SOL    HW2 5298   5.339   2.160   2.529
 1467SOL     OW 5299   0.528   0.815   3.963
 1467SOL    HW1 5300   0.534   0.855   4.054
 1467SOL    HW2 5301   0.472   0.873   3.904
 1468SOL     OW 5302   2.947   5.387   2.663
 1468SOL    HW1 5303   3.033   5.348   2.630
 1468SOL    HW2 5304   2.937   5.369   2.761
 1469SOL     OW 5305   6.029   3.703   3.280
 1469SOL    HW1 5306   6.016   3.609   3.247
 1469SOL    HW2 5307   5.941   3.743   3.303
 1470SOL     OW 5308   6.145   1.693   1.949
 1470SOL    HW1 5309   6.125   1.638   1.868
 1470SOL    HW2 5310   6.199   1.772   1.923
 1471SOL     OW 5311   4.614   6.919   1.421
 1471SOL    HW1 5312   4.707   6.919   1.383
 1471SOL    HW2 5313   4.548   6.922   1.346
 1472SOL     OW 5314   1.823   0.152   6.061
 1472SOL    HW1 5315   1.894   0.210   6.101
 1472SOL    HW2 5316   1.742   0.207   6.040
 1473SOL     OW 5317   1.507   5.691   3.664
 1473SOL    HW1 5318   1.599   5.658   3.689
 1473SOL    HW2 5319   1.439   5.642   3.719
 1474SOL     OW 5320   2.711   4.957   1.041
 1474SOL    HW1 5321   2.624   4.969   0.994
 1474SOL    HW2 5322   2.694   4.945   1.139
 1475SOL     OW 5323   5.525   0.330   6.106
 1475SOL    HW1 5324   5.481   0.368   6.187
 1475SOL    HW2 5325   5.624   0.340   6.112
 1476SOL     OW 5326   5.045   0.660   0.529
 1476SOL    HW1 5327   5.085   0.746   0.497
 1476SOL    HW2 5328   4.945   0.667   0.525
 1477SOL     OW 5329   3.498   4.699   1.518
 1477SOL    HW1 5330   3.473   4.706   1.421
 1477SOL    HW2 5331   3.418   4.721   1.574
 1478SOL     OW 5332   4.661   5.438   6.991
 1478SOL    HW1 5333   4.716   5.520   6.977
 1478SOL    HW2 5334   4.638   5.430   0.063
 1479SOL     OW 5335   4.106   3.394   1.376
 1479SOL    HW1 5336   4.127   3.467   1.441
 1479SOL    HW2 5337   4.174   3.321   1.386
 1480SOL     OW 5338   3.031   0.399   4.235
 1480SOL    HW1 5339   2.933   0.398   4.216
 1480SOL    HW2 5340   3.048   0.454   4.316
 1481SOL     OW 5341   5.192   2.980   6.270
 1481SOL    HW1 5342   5.196   2.881   6.255
 1481SOL    HW2 5343   5.136   2.999   6.351
 1482SOL     OW 5344   5.426   1.322   1.290
 1482SOL    HW1 5345   5.459   1.234   1.257
 1482SOL    HW2 5346   5.327   1.325   1.286
 1483SOL     OW 5347   5.831   0.947   7.002
 1483SOL    HW1 5348   5.819   1.046   6.997
 1483SOL    HW2 5349   5.792   0.905   6.921
 1484SOL     OW 5350   3.677   5.561   5.425
 1484SOL    HW1 5351   3.679   5.568   5.325
 1484SOL    HW2 5352   3.673   5.464   5.451
 1485SOL     OW 5353   5.268   2.887   3.422
 1485SOL    HW1 5354   5.257   2.788   3.430
 1485SOL    HW2 5355   5.365   2.909   3.415
 1486SOL     OW 5356   4.751   6.351   3.601
 1486SOL    HW1 5357   4.780   6.443   3.627
 1486SOL    HW2 5358   4.740   6.295   3.683
 1487SOL     OW 5359   6.716   0.757   0.225
 1487SOL    HW1 5360   6.700   0.851   0.252
 1487SOL    HW2 5361   6.713   0.750   0.125
 1488SOL     OW 5362   6.608   2.238   2.588
 1488SOL    HW1 5363   6.704   2.227   2.565
 1488SOL    HW2 5364   6.576   2.157   2.636
 1489SOL     OW 5365   2.976   4.162   0.516
 1489SOL    HW1 5366   2.901   4.162   0.583
 1489SOL    HW2 5367   2.982   4.251   0.472
 1490SOL     OW 5368   6.480   2.477   1.904
 1490SOL    HW1 5369   6.470   2.466   2.003
 1490SOL    HW2 5370   6.476   2.574   1.882
 1491SOL     OW 5371   5.949   2.466   4.284
 1491SOL    HW1 5372   5.896   2.478   4.367
 1491SOL    HW2 5373   5.964   2.555   4.240
 1492SOL     OW 5374   6.288   1.504   3.398
 1492SOL    HW1 5375   6.244   1.565   3.332
 1492SOL    HW2 5376   6.387   1.502   3.380
 1493SOL     OW 5377   5.619   1.637   6.145
 1493SOL    HW1 5378   5.609   1.564   6.078
 1493SOL    HW2 5379   5.532   1.652   6.191
 1494SOL     OW 5380   6.620   4.956   6.338
 1494SOL    HW1 5381   6.607   4.859   6.353
 1494SOL    HW2 5382   6.577   4.983   6.252
 1495SOL     OW 5383   6.694   4.065   4.318
 1495SOL    HW1 5384   6.786   4.097   4.341
 1495SOL    HW2 5385   6.629   4.140   4.331
 1496SOL     OW 5386   6.437   6.395   5.884
 1496SOL    HW1 5387   6.439   6.300   5.854
 1496SOL    HW2 5388   6.519   6.415   5.937
 1497SOL     OW 5389   6.465   2.515   2.173
 1497SOL    HW1 5390   6.496   2.601   2.215
 1497SOL    HW2 5391   6.377   2.488   2.212
 1498SOL     OW 5392   3.205   3.377   0.572
 1498SOL    HW1 5393   3.163   3.460   0.537
 1498SOL    HW2 5394   3.134   3.310   0.594
 1499SOL     OW 5395   0.191   4.529   4.579
 1499SOL    HW1 5396   0.197   4.488   4.670
 1499SOL    HW2 5397   0.272   4.504   4.526
 1500SOL     OW 5398   0.490   5.897   2.367
 1500SOL    HW1 5399   0.514   5.988   2.332
 1500SOL    HW2 5400   0.518   5.828   2.300
 1501SOL     OW 5401   5.942   1.523   0.583
 1501SOL    HW1 5402   5.897   1.476   0.659
 1501SOL    HW2 5403   6.022   1.470   0.555
 1502SOL     OW 5404   6.410   0.350   5.987
 1502SOL    HW1 5405   6.388   0.294   6.067
 1502SOL    HW2 5406   6.505   0.333   5.960
 1503SOL     OW 5407   0.606   4.757   1.164
 1503SOL    HW1 5408   0.586   4.804   1.250
 1503SOL    HW2 5409   0.671   4.812   1.111
 1504SOL     OW 5410   2.076   6.798   2.333
 1504SOL    HW1 5411   2.096   6.704   2.305
 1504SOL    HW2 5412   2.067   6.855   2.251
 1505SOL     OW 5413   6.291   5.130   5.071
 1505SOL    HW1 5414   6.335   5.076   5.143
 1505SOL    HW2 5415   6.341   5.215   5.058
 1506SOL     OW 5416   0.576   1.520   0.640
 1506SOL    HW1 5417   0.633   1.437   0.638
 1506SOL    HW2 5418   0.556   1.544   0.735
 1507SOL     OW 5419   1.645   2.667   3.924
 1507SOL    HW1 5420   1.723   2.724   3.949
 1507SOL    HW2 5421   1.676   2.593   3.865
 1508SOL     OW 5422   1.802   0.956   1.448
 1508SOL    HW1 5423   1.808   1.041   1.397
 1508SOL    HW2 5424   1.852   0.884   1.399
 1509SOL     OW 5425   5.073   1.272   4.373
 1509SOL    HW1 5426   5.170   1.250   4.388
 1509SOL    HW2 5427   5.031   1.299   4.459
 1510SOL     OW 5428   3.538   6.169   4.592
 1510SOL    HW1 5429   3.440   6.156   4.578
 1510SOL    HW2 5430   3.574   6.094   4.648
 1511SOL     OW 5431   3.094   3.476   5.076
 1511SOL    HW1 5432   3.005   3.441   5.107
 1511SOL    HW2 5433   3.080   3.553   5.014
 1512SOL     OW 5434   5.632   6.789   1.114
 1512SOL    HW1 5435   5.710   6.756   1.061
 1512SOL    HW2 5436   5.666   6.844   1.191
 1513SOL     OW 5437   2.492   0.213   5.917
 1513SOL    HW1 5438   2.497   0.229   5.818
 1513SOL    HW2 5439   2.444   0.289   5.961
 1514SOL     OW 5440   3.048   2.833   6.329
 1514SOL    HW1 5441   3.117   2.891   6.286
 1514SOL    HW2 5442   2.962   2.839   6.278
 1515SOL     OW 5443   4.539   0.609   2.277
 1515SOL    HW1 5444   4.493   0.689   2.240
 1515SOL    HW2 5445   4.587   0.634   2.361
 1516SOL     OW 5446   5.898   0.081   5.436
 1516SOL    HW1 5447   5.872   7.015   5.466
 1516SOL    HW2 5448   5.985   0.107   5.478
 1517SOL     OW 5449   3.390   6.290   4.122
 1517SOL    HW1 5450   3.369   6.277   4.025
 1517SOL    HW2 5451   3.397   6.201   4.167
 1518SOL     OW 5452   0.774   3.117   6.468
 1518SOL    HW1 5453   0.745   3.125   6.563
 1518SOL    HW2 5454   0.754   3.202   6.419
 1519SOL     OW 5455   6.643   5.278   6.870
 1519SOL    HW1 5456   6.641   5.353   6.804
 1519SOL    HW2 5457   6.580   5.297   6.945
 1520SOL     OW 5458   0.516   6.192   3.203
 1520SOL    HW1 5459   0.600   6.246   3.201
 1520SOL    HW2 5460   0.473   6.194   3.113
 1521SOL     OW 5461   2.328   5.228   5.951
 1521SOL    HW1 5462   2.348   5.143   5.902
 1521SOL    HW2 5463   2.351   5.217   6.047
 1522SOL     OW 5464   6.109   5.952   3.926
 1522SOL    HW1 5465   6.166   6.026   3.890
 1522SOL    HW2 5466   6.012   5.974   3.912
 1523SOL     OW 5467   3.463   6.371   0.886
 1523SOL    HW1 5468   3.496   6.463   0.904
 1523SOL    HW2 5469   3.412   6.338   0.965
 1524SOL     OW 5470   2.522   1.612   2.750
 1524SOL    HW1 5471   2.559   1.586   2.661
 1524SOL    HW2 5472   2.582   1.679   2.793
 1525SOL     OW 5473   5.647   4.184   6.947
 1525SOL    HW1 5474   5.565   4.130   6.928
 1525SOL    HW2 5475   5.725   4.144   6.899
 1526SOL     OW 5476   1.074   1.866   0.756
 1526SOL    HW1 5477   0.994   1.806   0.750
 1526SOL    HW2 5478   1.135   1.834   0.828
 1527SOL     OW 5479   4.523   1.961   3.391
 1527SOL    HW1 5480   4.584   2.029   3.434
 1527SOL    HW2 5481   4.444   2.008   3.351
 1528SOL     OW 5482   3.516   4.153   2.282
 1528SOL    HW1 5483   3.502   4.246   2.316
 1528SOL    HW2 5484   3.432   4.101   2.292
 1529SOL     OW 5485   4.230   1.569   6.011
 1529SOL    HW1 5486   4.176   1.606   6.087
 1529SOL    HW2 5487   4.173   1.507   5.957
 1530SOL     OW 5488   2.875   6.447   1.080
 1530SOL    HW1 5489   2.859   6.398   0.995
 1530SOL    HW2 5490   2.923   6.533   1.061
 1531SOL     OW 5491   4.634   6.598   4.451
 1531SOL    HW1 5492   4.609   6.546   4.370
 1531SOL    HW2 5493   4.677   6.538   4.518
 1532SOL     OW 5494   3.676   5.432   6.872
 1532SOL    HW1 5495   3.646   5.363   6.807
 1532SOL    HW2 5496   3.629   5.518   6.853
 1533SOL     OW 5497   5.696   5.835   0.971
 1533SOL    HW1 5498   5.661   5.919   1.012
 1533SOL    HW2 5499   5.647   5.815   0.886
 1534SOL     OW 5500   3.205   4.297   6.654
 1534SOL    HW1 5501   3.153   4.286   6.570
 1534SOL    HW2 5502   3.152   4.350   6.720
 1535SOL     OW 5503   5.437   4.758   4.035
 1535SOL    HW1 5504   5.447   4.737   3.938
 1535SOL    HW2 5505   5.451   4.674   4.088
 1536SOL     OW 5506   4.767   3.524   6.872
 1536SOL    HW1 5507   4.745   3.541   6.968
 1536SOL    HW2 5508   4.840   3.586   6.844
 1537SOL     OW 5509   2.625   5.209   2.903
 1537SOL    HW1 5510   2.556   5.205   2.831
 1537SOL    HW2 5511   2.579   5.205   2.993
 1538SOL     OW 5512   2.799   1.341   0.678
 1538SOL    HW1 5513   2.768   1.373   0.589
 1538SOL    HW2 5514   2.723   1.298   0.727
 1539SOL     OW 5515   5.975   3.299   0.800
 1539SOL    HW1 5516   5.945   3.342   0.885
 1539SOL    HW2 5517   6.070   3.271   0.809
 1540SOL     OW 5518   3.444   0.047   3.646
 1540SOL    HW1 5519   3.415   0.087   3.733
 1540SOL    HW2 5520   3.366   0.044   3.583
 1541SOL     OW 5521   3.960   3.300   5.978
 1541SOL    HW1 5522   4.000   3.335   6.063
 1541SOL    HW2 5523   3.862   3.283   5.992
 1542SOL     OW 5524   0.334   6.317   2.297
 1542SOL    HW1 5525   0.342   6.338   2.394
 1542SOL    HW2 5526   0.394   6.241   2.274
 1543SOL     OW 5527   2.986   4.410   0.423
 1543SOL    HW1 5528   3.045   4.481   0.385
 1543SOL    HW2 5529   2.948   4.440   0.510
 1544SOL     OW 5530   3.734   3.535   3.914
 1544SOL    HW1 5531   3.677   3.574   3.841
 1544SOL    HW2 5532   3.829   3.563   3.900
 1545SOL     OW 5533   5.712   6.093   1.746
 1545SOL    HW1 5534   5.683   5.997   1.748
 1545SOL    HW2 5535   5.704   6.131   1.838
 1546SOL     OW 5536   5.624   6.369   6.164
 1546SOL    HW1 5537   5.649   6.316   6.083
 1546SOL    HW2 5538   5.557   6.439   6.138
 1547SOL     OW 5539   2.039   3.343   6.694
 1547SOL    HW1 5540   1.947   3.306   6.685
 1547SOL    HW2 5541   2.100   3.296   6.630
 1548SOL     OW 5542   6.490   1.935   0.230
 1548SOL    HW1 5543   6.438   1.865   0.280
 1548SOL    HW2 5544   6.428   1.984   0.168
 1549SOL     OW 5545   5.137   0.935   4.510
 1549SOL    HW1 5546   5.192   1.017   4.495
 1549SOL    HW2 5547   5.191   0.854   4.487
 1550SOL     OW 5548   3.886   2.992   4.459
 1550SOL    HW1 5549   3.982   2.979   4.434
 1550SOL    HW2 5550   3.830   2.997   4.376
 1551SOL     OW 5551   6.657   4.905   5.463
 1551SOL    HW1 5552   6.594   4.837   5.499
 1551SOL    HW2 5553   6.719   4.935   5.536
 1552SOL     OW 5554   2.087   4.271   1.279
 1552SOL    HW1 5555   2.141   4.212   1.338
 1552SOL    HW2 5556   2.122   4.266   1.186
 1553SOL     OW 5557   1.914   1.546   6.023
 1553SOL    HW1 5558   1.937   1.593   5.938
 1553SOL    HW2 5559   1.833   1.588   6.064
 1554SOL     OW 5560   3.515   1.771   3.985
 1554SOL    HW1 5561   3.468   1.702   3.931
 1554SOL    HW2 5562   3.528   1.854   3.930
 1555SOL     OW 5563   6.195   4.413   6.089
 1555SOL    HW1 5564   6.177   4.360   6.172
 1555SOL    HW2 5565   6.212   4.350   6.013
 1556SOL     OW 5566   2.054   0.909   5.678
 1556SOL    HW1 5567   2.089   0.824   5.637
 1556SOL    HW2 5568   2.098   0.923   5.766
 1557SOL     OW 5569   0.316   2.809   5.863
 1557SOL    HW1 5570   0.370   2.869   5.923
 1557SOL    HW2 5571   0.373   2.732   5.834
 1558SOL     OW 5572   0.196   6.940   4.591
 1558SOL    HW1 5573   0.194   6.846   4.557
 1558SOL    HW2 5574   0.104   6.969   4.616
 1559SOL     OW 5575   1.491   1.843   6.395
 1559SOL    HW1 5576   1.426   1.877   6.463
 1559SOL    HW2 5577   1.441   1.820   6.311
 1560SOL     OW 5578   6.937   0.441   6.561
 1560SOL    HW1 5579   6.872   0.508   6.526
 1560SOL    HW2 5580   0.002   0.457   6.521
 1561SOL     OW 5581   5.717   5.765   1.768
 1561SOL    HW1 5582   5.677   5.798   1.853
 1561SOL    HW2 5583   5.669   5.683   1.737
 1562SOL     OW 5584   6.259   0.458   3.707
 1562SOL    HW1 5585   6.192   0.406   3.654
 1562SOL    HW2 5586   6.221   0.479   3.797
 1563SOL     OW 5587   3.880   6.868   5.148
 1563SOL    HW1 5588   3.870   6.843   5.245
 1563SOL    HW2 5589   3.972   6.902   5.132
 1564SOL     OW 5590   0.830   2.477   2.251
 1564SOL    HW1 5591   0.756   2.419   2.284
 1564SOL    HW2 5592   0.812   2.572   2.277
 1565SOL     OW 5593   5.845   4.748   1.478
 1565SOL    HW1 5594   5.942   4.772   1.475
 1565SOL    HW2 5595   5.802   4.797   1.554
 1566SOL     OW 5596   6.292   4.601   3.174
 1566SOL    HW1 5597   6.328   4.509   3.185
 1566SOL    HW2 5598   6.291   4.647   3.262
 1567SOL     OW 5599   6.300   6.060   5.140
 1567SOL    HW1 5600   6.280   6.101   5.229
 1567SOL    HW2 5601   6.369   5.989   5.149
 1568SOL     OW 5602   0.659   0.081   0.111
 1568SOL    HW1 5603   0.683   0.109   0.018
 1568SOL    HW2 5604   0.563   0.104   0.129
 1569SOL     OW 5605   3.621   6.432   4.896
 1569SOL    HW1 5606   3.523   6.428   4.878
 1569SOL    HW2 5607   3.641   6.513   4.951
 1570SOL     OW 5608   3.321   1.960   1.890
 1570SOL    HW1 5609   3.247   2.024   1.871
 1570SOL    HW2 5610   3.392   2.006   1.943
 1571SOL     OW 5611   6.797   3.785   0.962
 1571SOL    HW1 5612   6.881   3.731   0.957
 1571SOL    HW2 5613   6.764   3.787   1.056
 1572SOL     OW 5614   1.382   5.742   2.543
 1572SOL    HW1 5615   1.433   5.806   2.486
 1572SOL    HW2 5616   1.411   5.750   2.638
 1573SOL     OW 5617   3.778   0.382   0.785
 1573SOL    HW1 5618   3.782   0.306   0.851
 1573SOL    HW2 5619   3.752   0.466   0.833
 1574SOL     OW 5620   6.066   2.746   2.528
 1574SOL    HW1 5621   6.011   2.821   2.492
 1574SOL    HW2 5622   6.161   2.775   2.538
 1575SOL     OW 5623   3.280   2.341   0.293
 1575SOL    HW1 5624   3.370   2.372   0.324
 1575SOL    HW2 5625   3.242   2.409   0.230
 1576SOL     OW 5626   6.555   5.792   3.392
 1576SOL    HW1 5627   6.541   5.882   3.434
 1576SOL    HW2 5628   6.622   5.740   3.445
 1577SOL     OW 5629   1.430   0.614   0.224
 1577SOL    HW1 5630   1.364   0.575   0.160
 1577SOL    HW2 5631   1.498   0.667   0.173
 1578SOL     OW 5632   5.416   5.613   4.434
 1578SOL    HW1 5633   5.420   5.566   4.346
 1578SOL    HW2 5634   5.507   5.618   4.474
 1579SOL     OW 5635   0.358   0.006   3.230
 1579SOL    HW1 5636   0.330   0.094   3.192
 1579SOL    HW2 5637   0.283   6.993   3.284
 1580SOL     OW 5638   3.300   3.836   5.939
 1580SOL    HW1 5639   3.338   3.774   5.871
 1580SOL    HW2 5640   3.247   3.907   5.894
 1581SOL     OW 5641   6.466   4.102   3.872
 1581SOL    HW1 5642   6.419   4.025   3.914
 1581SOL    HW2 5643   6.450   4.185   3.926
 1582SOL     OW 5644   6.159   5.690   4.719
 1582SOL    HW1 5645   6.116   5.700   4.809
 1582SOL    HW2 5646   6.196   5.598   4.710
 1583SOL     OW 5647   2.432   1.834   2.492
 1583SOL    HW1 5648   2.454   1.851   2.396
 1583SOL    HW2 5649   2.456   1.915   2.545
 1584SOL     OW 5650   2.019   0.565   6.119
 1584SOL    HW1 5651   1.994   0.469   6.134
 1584SOL    HW2 5652   1.945   0.624   6.151
 1585SOL     OW 5653   6.017   1.233   5.433
 1585SOL    HW1 5654   6.113   1.243   5.458
 1585SOL    HW2 5655   5.962   1.218   5.515
 1586SOL     OW 5656   3.646   4.023   3.052
 1586SOL    HW1 5657   3.619   4.026   3.148
 1586SOL    HW2 5658   3.628   4.111   3.009
 1587SOL     OW 5659   2.374   6.423   6.291
 1587SOL    HW1 5660   2.462   6.410   6.247
 1587SOL    HW2 5661   2.385   6.480   6.372
 1588SOL     OW 5662   5.884   3.778   1.359
 1588SOL    HW1 5663   5.809   3.772   1.293
 1588SOL    HW2 5664   5.954   3.841   1.324
 1589SOL     OW 5665   5.203   4.157   3.553
 1589SOL    HW1 5666   5.120   4.166   3.608
 1589SOL    HW2 5667   5.269   4.100   3.602
 1590SOL     OW 5668   1.975   6.940   5.261
 1590SOL    HW1 5669   1.907   6.974   5.196
 1590SOL    HW2 5670   1.963   6.987   5.349
 1591SOL     OW 5671   0.507   4.188   1.260
 1591SOL    HW1 5672   0.446   4.151   1.330
 1591SOL    HW2 5673   0.531   4.282   1.283
 1592SOL     OW 5674   2.900   3.569   3.808
 1592SOL    HW1 5675   2.907   3.645   3.874
 1592SOL    HW2 5676   2.914   3.483   3.856
 1593SOL     OW 5677   1.081   5.030   4.927
 1593SOL    HW1 5678   0.993   4.988   4.947
 1593SOL    HW2 5679   1.152   4.960   4.923
 1594SOL     OW 5680   1.023   4.804   3.242
 1594SOL    HW1 5681   1.037   4.902   3.257
 1594SOL    HW2 5682   1.086   4.752   3.298
 1595SOL     OW 5683   0.158   5.030   5.681
 1595SOL    HW1 5684   0.105   5.049   5.763
 1595SOL    HW2 5685   0.254   5.054   5.697
 1596SOL     OW 5686   2.882   4.929   0.037
 1596SOL    HW1 5687   2.915   5.023   0.047
 1596SOL    HW2 5688   2.828   4.905   0.117
 1597SOL     OW 5689   2.482   6.704   0.734
 1597SOL    HW1 5690   2.484   6.615   0.779
 1597SOL    HW2 5691   2.387   6.730   0.717
 1598SOL     OW 5692   6.721   5.828   1.796
 1598SOL    HW1 5693   6.809   5.780   1.793
 1598SOL    HW2 5694   6.651   5.768   1.835
 1599SOL     OW 5695   3.201   4.622   0.352
 1599SOL    HW1 5696   3.186   4.651   0.446
 1599SOL    HW2 5697   3.243   4.698   0.301
 1600SOL     OW 5698   3.237   1.223   5.103
 1600SOL    HW1 5699   3.185   1.289   5.157
 1600SOL    HW2 5700   3.283   1.270   5.028
 1601SOL     OW 5701   0.846   4.849   4.953
 1601SOL    HW1 5702   0.777   4.861   5.025
 1601SOL    HW2 5703   0.822   4.770   4.897
 1602SOL     OW 5704   0.295   4.384   2.283
 1602SOL    HW1 5705   0.248   4.297   2.273
 1602SOL    HW2 5706   0.387   4.369   2.319
 1603SOL     OW 5707   6.023   6.560   1.126
 1603SOL    HW1 5708   5.985   6.477   1.168
 1603SOL    HW2 5709   6.122   6.555   1.126
 1604SOL     OW 5710   0.218   5.664   5.036
 1604SOL    HW1 5711   0.217   5.568   5.065
 1604SOL    HW2 5712   0.233   5.723   5.116
 1605SOL     OW 5713   5.158   6.503   2.938
 1605SOL    HW1 5714   5.101   6.522   2.859
 1605SOL    HW2 5715   5.165   6.585   2.995
 1606SOL     OW 5716   5.036   6.955   5.607
 1606SOL    HW1 5717   5.063   6.958   5.511
 1606SOL    HW2 5718   4.941   6.925   5.614
 1607SOL     OW 5719   4.669   3.156   0.733
 1607SOL    HW1 5720   4.617   3.072   0.747
 1607SOL    HW2 5721   4.664   3.213   0.815
 1608SOL     OW 5722   2.198   0.261   0.572
 1608SOL    HW1 5723   2.206   0.237   0.476
 1608SOL    HW2 5724   2.157   0.185   0.623
 1609SOL     OW 5725   5.444   1.320   5.375
 1609SOL    HW1 5726   5.430   1.352   5.281
 1609SOL    HW2 5727   5.432   1.220   5.379
 1610SOL     OW 5728   5.850   6.261   4.032
 1610SOL    HW1 5729   5.817   6.298   3.945
 1610SOL    HW2 5730   5.778   6.266   4.100
 1611SOL     OW 5731   3.909   3.247   1.489
 1611SOL    HW1 5732   3.833   3.197   1.450
 1611SOL    HW2 5733   3.974   3.273   1.417
 1612SOL     OW 5734   3.417   1.218   4.254
 1612SOL    HW1 5735   3.451   1.280   4.324
 1612SOL    HW2 5736   3.456   1.127   4.268
 1613SOL     OW 5737   1.523   6.578   0.851
 1613SOL    HW1 5738   1.516   6.678   0.853
 1613SOL    HW2 5739   1.612   6.550   0.887
 1614SOL     OW 5740   0.587   3.079   6.220
 1614SOL    HW1 5741   0.656   3.150   6.211
 1614SOL    HW2 5742   0.564   3.067   6.317
 1615SOL     OW 5743   6.083   5.151   6.216
 1615SOL    HW1 5744   6.112   5.082   6.149
 1615SOL    HW2 5745   6.143   5.146   6.297
 1616SOL     OW 5746   2.201   1.761   5.596
 1616SOL    HW1 5747   2.232   1.855   5.583
 1616SOL    HW2 5748   2.279   1.704   5.624
 1617SOL     OW 5749   4.732   0.651   4.042
 1617SOL    HW1 5750   4.781   0.701   3.971
 1617SOL    HW2 5751   4.747   0.553   4.031
 1618SOL     OW 5752   5.649   2.159   1.498
 1618SOL    HW1 5753   5.631   2.146   1.401
 1618SOL    HW2 5754   5.644   2.071   1.545
 1619SOL     OW 5755   2.079   2.876   4.706
 1619SOL    HW1 5756   2.099   2.931   4.625
 1619SOL    HW2 5757   2.124   2.917   4.786
 1620SOL     OW 5758   3.784   5.633   1.945
 1620SOL    HW1 5759   3.834   5.600   1.865
 1620SOL    HW2 5760   3.848   5.667   2.013
 1621SOL     OW 5761   2.137   1.490   1.988
 1621SOL    HW1 5762   2.081   1.444   1.920
 1621SOL    HW2 5763   2.129   1.589   1.977
 1622SOL     OW 5764   2.128   2.028   4.781
 1622SOL    HW1 5765   2.174   2.085   4.714
 1622SOL    HW2 5766   2.155   2.056   4.873
 1623SOL     OW 5767   2.731   2.300   4.755
 1623SOL    HW1 5768   2.645   2.340   4.786
 1623SOL    HW2 5769   2.726   2.200   4.762
 1624SOL     OW 5770   2.433   0.642   0.439
 1624SOL    HW1 5771   2.410   0.546   0.425
 1624SOL    HW2 5772   2.374   0.680   0.510
 1625SOL     OW 5773   0.105   5.458   2.367
 1625SOL    HW1 5774   0.126   5.382   2.429
 1625SOL    HW2 5775   0.189   5.494   2.328
 1626SOL     OW 5776   2.025   3.310   5.937
 1626SOL    HW1 5777   2.083   3.324   6.017
 1626SOL    HW2 5778   2.076   3.260   5.867
 1627SOL     OW 5779   5.156   3.352   4.119
 1627SOL    HW1 5780   5.213   3.272   4.138
 1627SOL    HW2 5781   5.059   3.326   4.122
 1628SOL     OW 5782   2.980   3.097   0.355
 1628SOL    HW1 5783   2.966   3.028   0.285
 1628SOL    HW2 5784   3.057   3.156   0.329
 1629SOL     OW 5785   4.210   1.979   3.070
 1629SOL    HW1 5786   4.169   2.043   3.005
 1629SOL    HW2 5787   4.291   2.021   3.111
 1630SOL     OW 5788   0.132   4.848   4.690
 1630SOL    HW1 5789   0.152   4.934   4.737
 1630SOL    HW2 5790   0.130   4.774   4.756
 1631SOL     OW 5791   0.565   6.766   5.865
 1631SOL    HW1 5792   0.644   6.710   5.890
 1631SOL    HW2 5793   0.575   6.857   5.905
 1632SOL     OW 5794   5.283   6.856   1.282
 1632SOL    HW1 5795   5.201   6.912   1.289
 1632SOL    HW2 5796   5.316   6.857   1.188
 1633SOL     OW 5797   5.519   2.936   3.457
 1633SOL    HW1 5798   5.552   2.938   3.551
 1633SOL    HW2 5799   5.592   2.901   3.397
 1634SOL     OW 5800   3.848   0.832   0.168
 1634SOL    HW1 5801   3.782   0.905   0.185
 1634SOL    HW2 5802   3.806   0.743   0.186
 1635SOL     OW 5803   1.177   5.310   4.424
 1635SOL    HW1 5804   1.093   5.255   4.431
 1635SOL    HW2 5805   1.216   5.299   4.333
 1636SOL     OW 5806   2.667   6.553   1.227
 1636SOL    HW1 5807   2.728   6.495   1.171
 1636SOL    HW2 5808   2.614   6.613   1.166
 1637SOL     OW 5809   0.321   3.071   2.655
 1637SOL    HW1 5810   0.409   3.120   2.655
 1637SOL    HW2 5811   0.303   3.036   2.747
 1638SOL     OW 5812   1.387   2.907   5.453
 1638SOL    HW1 5813   1.353   2.917   5.360
 1638SOL    HW2 5814   1.421   2.995   5.486
 1639SOL     OW 5815   4.812   4.721   2.689
 1639SOL    HW1 5816   4.809   4.624   2.666
 1639SOL    HW2 5817   4.899   4.742   2.735
 1640SOL     OW 5818   5.476   0.378   1.173
 1640SOL    HW1 5819   5.528   0.340   1.250
 1640SOL    HW2 5820   5.497   0.327   1.090
 1641SOL     OW 5821   6.768   2.937   5.405
 1641SOL    HW1 5822   6.820   2.947   5.321
 1641SOL    HW2 5823   6.818   2.879   5.469
 1642SOL     OW 5824   0.282   2.276   1.218
 1642SOL    HW1 5825   0.232   2.320   1.292
 1642SOL    HW2 5826   0.245   2.307   1.130
 1643SOL     OW 5827   3.749   0.588   6.274
 1643SOL    HW1 5828   3.669   0.610   6.329
 1643SOL    HW2 5829   3.815   0.662   6.279
 1644SOL     OW 5830   3.023   0.361   0.810
 1644SOL    HW1 5831   2.946   0.373   0.747
 1644SOL    HW2 5832   3.087   0.293   0.773
 1645SOL     OW 5833   2.178   6.528   5.729
 1645SOL    HW1 5834   2.169   6.439   5.683
 1645SOL    HW2 5835   2.187   6.600   5.660
 1646SOL     OW 5836   1.253   3.789   0.245
 1646SOL    HW1 5837   1.165   3.805   0.200
 1646SOL    HW2 5838   1.238   3.736   0.329
 1647SOL     OW 5839   5.983   2.893   3.641
 1647SOL    HW1 5840   6.003   2.964   3.709
 1647SOL    HW2 5841   5.980   2.804   3.686
 1648SOL     OW 5842   4.190   0.147   2.390
 1648SOL    HW1 5843   4.107   0.126   2.339
 1648SOL    HW2 5844   4.183   0.239   2.428
 1649SOL     OW 5845   3.027   6.910   2.663
 1649SOL    HW1 5846   3.018   6.983   2.731
 1649SOL    HW2 5847   3.088   6.839   2.698
 1650SOL     OW 5848   3.564   6.850   3.555
 1650SOL    HW1 5849   3.538   6.931   3.608
 1650SOL    HW2 5850   3.488   6.785   3.554
 1651SOL     OW 5851   1.396   6.848   1.427
 1651SOL    HW1 5852   1.347   6.788   1.364
 1651SOL    HW2 5853   1.366   6.830   1.521
 1652SOL     OW 5854   2.857   3.082   1.503
 1652SOL    HW1 5855   2.859   3.165   1.447
 1652SOL    HW2 5856   2.800   3.097   1.584
 1653SOL     OW 5857   1.091   5.051   0.680
 1653SOL    HW1 5858   1.165   4.983   0.680
 1653SOL    HW2 5859   1.071   5.077   0.775
 1654SOL     OW 5860   0.403   2.346   3.382
 1654SOL    HW1 5861   0.363   2.323   3.293
 1654SOL    HW2 5862   0.477   2.411   3.368
 1655SOL     OW 5863   4.798   4.871   5.606
 1655SOL    HW1 5864   4.883   4.908   5.569
 1655SOL    HW2 5865   4.727   4.941   5.603
 1656SOL     OW 5866   0.545   4.408   3.023
 1656SOL    HW1 5867   0.521   4.315   3.053
 1656SOL    HW2 5868   0.465   4.467   3.030
 1657SOL     OW 5869   0.790   0.426   4.967
 1657SOL    HW1 5870   0.692   0.431   4.949
 1657SOL    HW2 5871   0.806   0.426   5.066
 1658SOL     OW 5872   6.264   6.398   2.338
 1658SOL    HW1 5873   6.238   6.435   2.427
 1658SOL    HW2 5874   6.299   6.305   2.349
 1659SOL     OW 5875   4.719   1.939   6.135
 1659SOL    HW1 5876   4.699   1.946   6.233
 1659SOL    HW2 5877   4.758   2.026   6.103
 1660SOL     OW 5878   2.138   5.782   3.283
 1660SOL    HW1 5879   2.159   5.807   3.378
 1660SOL    HW2 5880   2.190   5.840   3.221
 1661SOL     OW 5881   3.322   0.169   2.704
 1661SOL    HW1 5882   3.249   0.181   2.637
 1661SOL    HW2 5883   3.358   0.076   2.698
 1662SOL     OW 5884   0.017   0.462   3.012
 1662SOL    HW1 5885   6.944   0.474   2.999
 1662SOL    HW2 5886   0.062   0.453   2.923
 1663SOL     OW 5887   2.524   7.023   3.611
 1663SOL    HW1 5888   2.571   7.003   3.524
 1663SOL    HW2 5889   2.556   0.086   3.646
 1664SOL     OW 5890   2.635   5.346   4.612
 1664SOL    HW1 5891   2.552   5.373   4.564
 1664SOL    HW2 5892   2.693   5.292   4.551
 1665SOL     OW 5893   1.067   0.503   4.897
 1665SOL    HW1 5894   1.057   0.603   4.892
 1665SOL    HW2 5895   0.976   0.461   4.908
 1666SOL     OW 5896   5.560   3.765   6.925
 1666SOL    HW1 5897   5.635   3.762   6.859
 1666SOL    HW2 5898   5.526   3.673   6.941
 1667SOL     OW 5899   6.695   1.127   6.415
 1667SOL    HW1 5900   6.791   1.104   6.397
 1667SOL    HW2 5901   6.690   1.197   6.486
 1668SOL     OW 5902   2.841   0.308   5.020
 1668SOL    HW1 5903   2.775   0.286   5.092
 1668SOL    HW2 5904   2.892   0.390   5.045
 1669SOL     OW 5905   6.001   6.438   6.447
 1669SOL    HW1 5906   5.954   6.357   6.483
 1669SOL    HW2 5907   5.981   6.446   6.349
 1670SOL     OW 5908   6.061   3.952   6.363
 1670SOL    HW1 5909   6.026   3.968   6.455
 1670SOL    HW2 5910   6.000   3.890   6.314
 1671SOL     OW 5911   6.213   4.712   0.396
 1671SOL    HW1 5912   6.170   4.746   0.312
 1671SOL    HW2 5913   6.230   4.789   0.458
 1672SOL     OW 5914   2.251   5.203   2.199
 1672SOL    HW1 5915   2.344   5.234   2.220
 1672SOL    HW2 5916   2.200   5.192   2.285
 1673SOL     OW 5917   6.640   1.965   3.497
 1673SOL    HW1 5918   6.601   1.931   3.411
 1673SOL    HW2 5919   6.633   2.065   3.500
 1674SOL     OW 5920   1.976   5.326   6.215
 1674SOL    HW1 5921   1.907   5.382   6.262
 1674SOL    HW2 5922   2.019   5.380   6.143
 1675SOL     OW 5923   4.392   2.465   0.572
 1675SOL    HW1 5924   4.397   2.375   0.616
 1675SOL    HW2 5925   4.386   2.455   0.473
 1676SOL     OW 5926   2.373   1.320   4.046
 1676SOL    HW1 5927   2.471   1.308   4.059
 1676SOL    HW2 5928   2.340   1.256   3.976
 1677SOL     OW 5929   6.423   0.829   5.584
 1677SOL    HW1 5930   6.416   0.844   5.683
 1677SOL    HW2 5931   6.409   0.733   5.564
 1678SOL     OW 5932   4.723   0.172   1.214
 1678SOL    HW1 5933   4.659   0.147   1.142
 1678SOL    HW2 5934   4.766   0.090   1.251
 1679SOL     OW 5935   6.125   3.940   0.471
 1679SOL    HW1 5936   6.146   3.992   0.388
 1679SOL    HW2 5937   6.061   3.866   0.448
 1680SOL     OW 5938   1.457   2.418   5.020
 1680SOL    HW1 5939   1.474   2.434   5.117
 1680SOL    HW2 5940   1.386   2.349   5.010
 1681SOL     OW 5941   4.966   5.395   1.009
 1681SOL    HW1 5942   4.957   5.368   1.105
 1681SOL    HW2 5943   4.969   5.495   1.002
 1682SOL     OW 5944   6.411   3.443   5.506
 1682SOL    HW1 5945   6.506   3.459   5.531
 1682SOL    HW2 5946   6.385   3.505   5.431
 1683SOL     OW 5947   5.562   6.313   6.859
 1683SOL    HW1 5948   5.597   6.247   6.926
 1683SOL    HW2 5949   5.622   6.393   6.856
 1684SOL     OW 5950   0.121   6.081   4.812
 1684SOL    HW1 5951   0.073   6.084   4.725
 1684SOL    HW2 5952   0.097   6.161   4.866
 1685SOL     OW 5953   1.420   1.495   0.438
 1685SOL    HW1 5954   1.391   1.440   0.517
 1685SOL    HW2 5955   1.480   1.441   0.380
 1686SOL     OW 5956   2.208   5.742   6.641
 1686SOL    HW1 5957   2.150   5.661   6.632
 1686SOL    HW2 5958   2.194   5.802   6.562
 1687SOL     OW 5959   2.045   6.500   1.811
 1687SOL    HW1 5960   1.958   6.550   1.808
 1687SOL    HW2 5961   2.114   6.555   1.857
 1688SOL     OW 5962   0.178   1.917   4.073
 1688SOL    HW1 5963   0.157   1.859   3.994
 1688SOL    HW2 5964   0.131   2.005   4.064
 1689SOL     OW 5965   3.463   1.125   2.253
 1689SOL    HW1 5966   3.429   1.120   2.347
 1689SOL    HW2 5967   3.427   1.207   2.209
 1690SOL     OW 5968   0.734   2.296   0.799
 1690SOL    HW1 5969   0.772   2.356   0.728
 1690SOL    HW2 5970   0.693   2.352   0.871
 1691SOL     OW 5971   4.644   4.327   2.755
 1691SOL    HW1 5972   4.646   4.346   2.854
 1691SOL    HW2 5973   4.722   4.371   2.711
 1692SOL     OW 5974   1.583   0.187   3.455
 1692SOL    HW1 5975   1.616   0.189   3.361
 1692SOL    HW2 5976   1.655   0.219   3.516
 1693SOL     OW 5977   2.276   2.053   3.996
 1693SOL    HW1 5978   2.240   1.970   4.038
 1693SOL    HW2 5979   2.332   2.030   3.917
 1694SOL     OW 5980   4.667   6.229   5.961
 1694SOL    HW1 5981   4.746   6.286   5.982
 1694SOL    HW2 5982   4.583   6.276   5.990
 1695SOL     OW 5983   3.175   1.113   6.147
 1695SOL    HW1 5984   3.087   1.112   6.099
 1695SOL    HW2 5985   3.177   1.039   6.214
 1696SOL     OW 5986   3.295   5.638   1.650
 1696SOL    HW1 5987   3.269   5.553   1.604
 1696SOL    HW2 5988   3.240   5.713   1.614
 1697SOL     OW 5989   1.518   0.965   2.415
 1697SOL    HW1 5990   1.616   0.955   2.429
 1697SOL    HW2 5991   1.482   1.032   2.480
 1698SOL     OW 5992   5.330   1.826   0.774
 1698SOL    HW1 5993   5.353   1.902   0.714
 1698SOL    HW2 5994   5.231   1.813   0.774
 1699SOL     OW 5995   2.342   3.922   0.747
 1699SOL    HW1 5996   2.400   3.955   0.672
 1699SOL    HW2 5997   2.397   3.912   0.830
 1700SOL     OW 5998   6.414   2.963   4.774
 1700SOL    HW1 5999   6.360   2.968   4.689
 1700SOL    HW2 6000   6.444   3.054   4.799
 1701SOL     OW 6001   5.854   3.303   5.080
 1701SOL    HW1 6002   5.838   3.306   5.179
 1701SOL    HW2 6003   5.890   3.391   5.049
 1702SOL     OW 6004   4.953   2.946   1.874
 1702SOL    HW1 6005   4.966   3.025   1.814
 1702SOL    HW2 6006   4.884   2.967   1.943
 1703SOL     OW 6007   1.314   3.768   6.883
 1703SOL    HW1 6008   1.346   3.701   6.950
 1703SOL    HW2 6009   1.378   3.771   6.806
 1704SOL     OW 6010   0.483   0.886   1.496
 1704SOL    HW1 6011   0.487   0.789   1.519
 1704SOL    HW2 6012   0.573   0.927   1.511
 1705SOL     OW 6013   3.716   3.172   2.408
 1705SOL    HW1 6014   3.779   3.235   2.362
 1705SOL    HW2 6015   3.676   3.217   2.488
 1706SOL     OW 6016   2.445   0.405   6.463
 1706SOL    HW1 6017   2.531   0.406   6.513
 1706SOL    HW2 6018   2.379   0.464   6.509
 1707SOL     OW 6019   5.667   1.337   2.973
 1707SOL    HW1 6020   5.621   1.258   3.015
 1707SOL    HW2 6021   5.708   1.309   2.886
 1708SOL     OW 6022   0.157   4.450   1.914
 1708SOL    HW1 6023   0.227   4.400   1.966
 1708SOL    HW2 6024   0.183   4.452   1.818
 1709SOL     OW 6025   3.378   6.045   4.260
 1709SOL    HW1 6026   3.462   5.995   4.280
 1709SOL    HW2 6027   3.305   5.980   4.239
 1710SOL     OW 6028   0.494   6.052   4.256
 1710SOL    HW1 6029   0.475   6.150   4.255
 1710SOL    HW2 6030   0.409   6.001   4.247
 1711SOL     OW 6031   2.250   4.323   5.695
 1711SOL    HW1 6032   2.313   4.274   5.756
 1711SOL    HW2 6033   2.297   4.401   5.655
 1712SOL     OW 6034   1.597   4.825   0.820
 1712SOL    HW1 6035   1.672   4.790   0.875
 1712SOL    HW2 6036   1.516   4.838   0.879
 1713SOL     OW 6037   1.878   3.472   0.206
 1713SOL    HW1 6038   1.933   3.462   0.123
 1713SOL    HW2 6039   1.796   3.526   0.186
 1714SOL     OW 6040   3.823   1.695   1.282
 1714SOL    HW1 6041   3.902   1.673   1.226
 1714SOL    HW2 6042   3.777   1.776   1.246
 1715SOL     OW 6043   0.350   3.195   3.694
 1715SOL    HW1 6044   0.301   3.218   3.610
 1715SOL    HW2 6045   0.418   3.125   3.674
 1716SOL     OW 6046   6.963   0.009   0.083
 1716SOL    HW1 6047   6.982   0.103   0.055
 1716SOL    HW2 6048   7.023   6.972   0.032
 1717SOL     OW 6049   3.091   0.134   0.212
 1717SOL    HW1 6050   3.045   0.223   0.223
 1717SOL    HW2 6051   3.056   0.089   0.130
 1718SOL     OW 6052   1.122   4.937   5.619
 1718SOL    HW1 6053   1.119   4.838   5.634
 1718SOL    HW2 6054   1.095   4.984   5.703
 1719SOL     OW 6055   2.144   3.315   1.577
 1719SOL    HW1 6056   2.095   3.281   1.657
 1719SOL    HW2 6057   2.081   3.323   1.500
 1720SOL     OW 6058   6.596   1.337   2.521
 1720SOL    HW1 6059   6.605   1.241   2.493
 1720SOL    HW2 6060   6.584   1.341   2.620
 1721SOL     OW 6061   1.834   6.111   3.549
 1721SOL    HW1 6062   1.838   6.012   3.562
 1721SOL    HW2 6063   1.816   6.131   3.453
 1722SOL     OW 6064   5.610   6.778   1.569
 1722SOL    HW1 6065   5.657   6.692   1.588
 1722SOL    HW2 6066   5.652   6.823   1.490
 1723SOL     OW 6067   6.050   1.132   2.639
 1723SOL    HW1 6068   5.986   1.169   2.571
 1723SOL    HW2 6069   6.008   1.055   2.686
 1724SOL     OW 6070   5.214   0.727   7.006
 1724SOL    HW1 6071   5.158   0.789   6.952
 1724SOL    HW2 6072   5.254   0.657   6.947
 1725SOL     OW 6073   4.236   5.294   2.256
 1725SOL    HW1 6074   4.194   5.380   2.287
 1725SOL    HW2 6075   4.167   5.221   2.258
 1726SOL     OW 6076   6.936   4.460   4.526
 1726SOL    HW1 6077   0.008   4.485   4.527
 1726SOL    HW2 6078   6.906   4.441   4.619
 1727SOL     OW 6079   3.271   3.197   5.400
 1727SOL    HW1 6080   3.276   3.213   5.301
 1727SOL    HW2 6081   3.254   3.100   5.417
 1728SOL     OW 6082   4.209   4.702   3.506
 1728SOL    HW1 6083   4.163   4.726   3.420
 1728SOL    HW2 6084   4.242   4.786   3.550
 1729SOL     OW 6085   2.018   3.448   2.900
 1729SOL    HW1 6086   2.037   3.438   2.998
 1729SOL    HW2 6087   2.080   3.517   2.861
 1730SOL     OW 6088   5.751   2.497   4.467
 1730SOL    HW1 6089   5.781   2.508   4.562
 1730SOL    HW2 6090   5.657   2.462   4.465
 1731SOL     OW 6091   1.079   5.794   0.403
 1731SOL    HW1 6092   1.136   5.783   0.322
 1731SOL    HW2 6093   1.017   5.715   0.410
 1732SOL     OW 6094   0.624   4.831   6.954
 1732SOL    HW1 6095   0.532   4.872   6.963
 1732SOL    HW2 6096   0.618   4.746   6.903
 1733SOL     OW 6097   1.388   4.257   0.487
 1733SOL    HW1 6098   1.374   4.246   0.586
 1733SOL    HW2 6099   1.396   4.167   0.444
 1734SOL     OW 6100   4.690   3.254   1.263
 1734SOL    HW1 6101   4.603   3.289   1.229
 1734SOL    HW2 6102   4.711   3.297   1.351
 1735SOL     OW 6103   5.675   6.417   0.876
 1735SOL    HW1 6104   5.592   6.450   0.920
 1735SOL    HW2 6105   5.658   6.326   0.837
 1736SOL     OW 6106   3.085   3.586   0.470
 1736SOL    HW1 6107   3.117   3.656   0.407
 1736SOL    HW2 6108   3.006   3.539   0.432
 1737SOL     OW 6109   1.089   6.201   3.607
 1737SOL    HW1 6110   1.165   6.167   3.552
 1737SOL    HW2 6111   1.011   6.140   3.597
 1738SOL     OW 6112   1.119   1.682   1.552
 1738SOL    HW1 6113   1.074   1.709   1.466
 1738SOL    HW2 6114   1.137   1.764   1.607
 1739SOL     OW 6115   4.416   2.163   5.851
 1739SOL    HW1 6116   4.329   2.187   5.807
 1739SOL    HW2 6117   4.442   2.070   5.824
 1740SOL     OW 6118   0.672   1.077   5.623
 1740SOL    HW1 6119   0.663   0.978   5.617
 1740SOL    HW2 6120   0.748   1.107   5.564
 1741SOL     OW 6121   2.438   0.640   2.462
 1741SOL    HW1 6122   2.340   0.656   2.456
 1741SOL    HW2 6123   2.485   0.726   2.479
 1742SOL     OW 6124   6.135   5.966   4.220
 1742SOL    HW1 6125   6.204   5.896   4.240
 1742SOL    HW2 6126   6.134   5.984   4.122
 1743SOL     OW 6127   4.463   1.082   0.387
 1743SOL    HW1 6128   4.430   1.023   0.461
 1743SOL    HW2 6129   4.562   1.070   0.377
 1744SOL     OW 6130   3.028   6.883   1.656
 1744SOL    HW1 6131   3.091   6.948   1.614
 1744SOL    HW2 6132   3.038   6.886   1.756
 1745SOL     OW 6133   6.151   3.063   5.047
 1745SOL    HW1 6134   6.078   3.000   5.022
 1745SOL    HW2 6135   6.128   3.155   5.015
 1746SOL     OW 6136   2.526   1.059   5.695
 1746SOL    HW1 6137   2.466   1.121   5.644
 1746SOL    HW2 6138   2.535   0.973   5.644
 1747SOL     OW 6139   4.861   0.221   6.252
 1747SOL    HW1 6140   4.768   0.259   6.253
 1747SOL    HW2 6141   4.916   0.266   6.322
 1748SOL     OW 6142   5.884   1.799   1.693
 1748SOL    HW1 6143   5.975   1.810   1.652
 1748SOL    HW2 6144   5.869   1.872   1.759
 1749SOL     OW 6145   4.599   0.077   5.950
 1749SOL    HW1 6146   4.680   0.117   5.907
 1749SOL    HW2 6147   4.587   7.008   5.917
 1750SOL     OW 6148   4.945   0.450   3.730
 1750SOL    HW1 6149   4.938   0.527   3.666
 1750SOL    HW2 6150   5.015   0.470   3.798
 1751SOL     OW 6151   1.967   5.766   3.765
 1751SOL    HW1 6152   1.933   5.769   3.671
 1751SOL    HW2 6153   2.025   5.845   3.783
 1752SOL     OW 6154   6.517   2.241   6.879
 1752SOL    HW1 6155   6.593   2.201   6.827
 1752SOL    HW2 6156   6.553   2.288   6.959
 1753SOL     OW 6157   2.537   7.012   2.404
 1753SOL    HW1 6158   2.568   6.918   2.393
 1753SOL    HW2 6159   2.469   0.008   2.335
 1754SOL     OW 6160   3.836   2.560   1.451
 1754SOL    HW1 6161   3.914   2.536   1.509
 1754SOL    HW2 6162   3.793   2.476   1.417
 1755SOL     OW 6163   5.426   3.774   0.552
 1755SOL    HW1 6164   5.369   3.692   0.548
 1755SOL    HW2 6165   5.398   3.838   0.480
 1756SOL     OW 6166   5.676   5.545   4.528
 1756SOL    HW1 6167   5.648   5.503   4.614
 1756SOL    HW2 6168   5.757   5.601   4.543
 1757SOL     OW 6169   3.641   0.586   4.793
 1757SOL    HW1 6170   3.559   0.599   4.737
 1757SOL    HW2 6171   3.616   0.546   4.881
 1758SOL     OW 6172   2.661   1.744   3.170
 1758SOL    HW1 6173   2.589   1.706   3.228
 1758SOL    HW2 6174   2.737   1.679   3.164
 1759SOL     OW 6175   0.729   5.393   6.144
 1759SOL    HW1 6176   0.744   5.387   6.046
 1759SOL    HW2 6177   0.774   5.474   6.180
 1760SOL     OW 6178   5.212   0.713   2.114
 1760SOL    HW1 6179   5.164   0.625   2.105
 1760SOL    HW2 6180   5.146   0.788   2.109
 1761SOL     OW 6181   5.748   2.869   1.482
 1761SOL    HW1 6182   5.661   2.870   1.432
 1761SOL    HW2 6183   5.765   2.777   1.518
 1762SOL     OW 6184   5.683   2.720   0.725
 1762SOL    HW1 6185   5.596   2.715   0.774
 1762SOL    HW2 6186   5.749   2.771   0.779
 1763SOL     OW 6187   2.160   3.711   3.823
 1763SOL    HW1 6188   2.139   3.717   3.921
 1763SOL    HW2 6189   2.258   3.699   3.810
 1764SOL     OW 6190   6.320   2.880   4.527
 1764SOL    HW1 6191   6.307   2.868   4.429
 1764SOL    HW2 6192   6.250   2.942   4.563
 1765SOL     OW 6193   2.440   2.726   6.209
 1765SOL    HW1 6194   2.463   2.811   6.257
 1765SOL    HW2 6195   2.503   2.712   6.133
 1766SOL     OW 6196   5.884   3.063   5.498
 1766SOL    HW1 6197   5.946   2.988   5.477
 1766SOL    HW2 6198   5.825   3.039   5.575
 1767SOL     OW 6199   6.671   3.828   1.871
 1767SOL    HW1 6200   6.765   3.853   1.893
 1767SOL    HW2 6201   6.635   3.892   1.803
 1768SOL     OW 6202   5.902   6.571   3.606
 1768SOL    HW1 6203   5.841   6.522   3.544
 1768SOL    HW2 6204   5.985   6.517   3.620
 1769SOL     OW 6205   5.678   0.921   3.756
 1769SOL    HW1 6206   5.694   0.939   3.659
 1769SOL    HW2 6207   5.601   0.977   3.787
 1770SOL     OW 6208   3.393   5.431   4.951
 1770SOL    HW1 6209   3.347   5.343   4.940
 1770SOL    HW2 6210   3.462   5.442   4.879
 1771SOL     OW 6211   4.549   6.400   6.953
 1771SOL    HW1 6212   4.636   6.430   6.914
 1771SOL    HW2 6213   4.540   6.301   6.944
 1772SOL     OW 6214   3.302   6.042   2.731
 1772SOL    HW1 6215   3.347   6.119   2.776
 1772SOL    HW2 6216   3.369   5.971   2.710
 1773SOL     OW 6217   1.132   5.965   6.786
 1773SOL    HW1 6218   1.063   5.965   6.858
 1773SOL    HW2 6219   1.113   6.038   6.722
 1774SOL     OW 6220   3.469   4.880   2.381
 1774SOL    HW1 6221   3.564   4.907   2.366
 1774SOL    HW2 6222   3.417   4.891   2.296
 1775SOL     OW 6223   0.862   4.599   1.240
 1775SOL    HW1 6224   0.836   4.561   1.151
 1775SOL    HW2 6225   0.951   4.643   1.233
 1776SOL     OW 6226   3.244   5.883   5.173
 1776SOL    HW1 6227   3.197   5.832   5.245
 1776SOL    HW2 6228   3.262   5.976   5.205
 1777SOL     OW 6229   3.131   5.332   0.178
 1777SOL    HW1 6230   3.093   5.286   0.258
 1777SOL    HW2 6231   3.120   5.274   0.098
 1778SOL     OW 6232   6.351   3.859   5.874
 1778SOL    HW1 6233   6.360   3.760   5.871
 1778SOL    HW2 6234   6.395   3.894   5.956
 1779SOL     OW 6235   3.671   0.464   5.484
 1779SOL    HW1 6236   3.763   0.479   5.520
 1779SOL    HW2 6237   3.670   0.488   5.387
 1780SOL     OW 6238   3.568   3.118   6.781
 1780SOL    HW1 6239   3.484   3.064   6.789
 1780SOL    HW2 6240   3.544   3.214   6.769
 1781SOL     OW 6241   3.765   5.482   3.489
 1781SOL    HW1 6242   3.707   5.551   3.445
 1781SOL    HW2 6243   3.746   5.392   3.450
 1782SOL     OW 6244   3.530   1.832   4.305
 1782SOL    HW1 6245   3.560   1.737   4.299
 1782SOL    HW2 6246   3.444   1.837   4.356
 1783SOL     OW 6247   2.104   5.847   6.973
 1783SOL    HW1 6248   2.077   5.750   6.971
 1783SOL    HW2 6249   2.134   5.875   6.882
 1784SOL     OW 6250   3.560   6.450   5.408
 1784SOL    HW1 6251   3.524   6.475   5.498
 1784SOL    HW2 6252   3.571   6.351   5.403
 1785SOL     OW 6253   6.596   4.461   1.562
 1785SOL    HW1 6254   6.636   4.375   1.593
 1785SOL    HW2 6255   6.524   4.490   1.626
 1786SOL     OW 6256   3.935   2.206   1.200
 1786SOL    HW1 6257   3.959   2.189   1.104
 1786SOL    HW2 6258   3.919   2.119   1.246
 1787SOL     OW 6259   3.806   0.518   5.969
 1787SOL    HW1 6260   3.865   0.574   6.027
 1787SOL    HW2 6261   3.721   0.498   6.018
 1788SOL     OW 6262   1.885   4.509   5.984
 1788SOL    HW1 6263   1.931   4.597   5.974
 1788SOL    HW2 6264   1.905   4.452   5.904
 1789SOL     OW 6265   5.844   0.504   0.494
 1789SOL    HW1 6266   5.821   0.591   0.537
 1789SOL    HW2 6267   5.944   0.496   0.487
 1790SOL     OW 6268   3.364   6.825   2.942
 1790SOL    HW1 6269   3.329   6.794   2.853
 1790SOL    HW2 6270   3.445   6.771   2.967
 1791SOL     OW 6271   0.089   6.565   2.533
 1791SOL    HW1 6272   0.037   6.527   2.457
 1791SOL    HW2 6273   0.182   6.586   2.503
 1792SOL     OW 6274   0.947   4.013   5.314
 1792SOL    HW1 6275   0.913   4.105   5.291
 1792SOL    HW2 6276   1.018   3.987   5.248
 1793SOL     OW 6277   0.642   0.616   3.839
 1793SOL    HW1 6278   0.587   0.681   3.891
 1793SOL    HW2 6279   0.658   0.651   3.747
 1794SOL     OW 6280   4.652   6.201   6.291
 1794SOL    HW1 6281   4.633   6.291   6.251
 1794SOL    HW2 6282   4.663   6.210   6.390
 1795SOL     OW 6283   0.539   2.985   0.098
 1795SOL    HW1 6284   0.490   3.071   0.082
 1795SOL    HW2 6285   0.617   3.002   0.157
 1796SOL     OW 6286   3.379   0.363   6.528
 1796SOL    HW1 6287   3.304   0.312   6.487
 1796SOL    HW2 6288   3.445   0.299   6.568
 1797SOL     OW 6289   0.531   0.447   0.533
 1797SOL    HW1 6290   0.508   0.455   0.631
 1797SOL    HW2 6291   0.626   0.418   0.524
 1798SOL     OW 6292   6.047   2.659   3.257
 1798SOL    HW1 6293   6.015   2.750   3.284
 1798SOL    HW2 6294   6.083   2.611   3.336
 1799SOL     OW 6295   2.266   1.589   6.602
 1799SOL    HW1 6296   2.237   1.580   6.698
 1799SOL    HW2 6297   2.195   1.635   6.550
 1800SOL     OW 6298   4.042   5.070   2.258
 1800SOL    HW1 6299   4.013   5.023   2.341
 1800SOL    HW2 6300   4.053   5.002   2.184
 1801SOL     OW 6301   5.650   0.065   1.102
 1801SOL    HW1 6302   5.618   7.002   1.066
 1801SOL    HW2 6303   5.616   0.139   1.044
 1802SOL     OW 6304   5.260   5.180   4.035
 1802SOL    HW1 6305   5.344   5.138   4.071
 1802SOL    HW2 6306   5.242   5.265   4.085
 1803SOL     OW 6307   5.960   5.553   1.020
 1803SOL    HW1 6308   5.868   5.545   1.059
 1803SOL    HW2 6309   5.979   5.649   1.000
 1804SOL     OW 6310   3.427   3.251   5.993
 1804SOL    HW1 6311   3.367   3.280   5.919
 1804SOL    HW2 6312   3.374   3.204   6.063
 1805SOL     OW 6313   5.031   3.035   6.461
 1805SOL    HW1 6314   4.969   2.961   6.434
 1805SOL    HW2 6315   4.988   3.123   6.442
 1806SOL     OW 6316   0.549   0.143   1.114
 1806SOL    HW1 6317   0.599   0.131   1.028
 1806SOL    HW2 6318   0.461   0.096   1.108
 1807SOL     OW 6319   5.470   1.887   5.611
 1807SOL    HW1 6320   5.443   1.832   5.689
 1807SOL    HW2 6321   5.430   1.979   5.619
 1808SOL     OW 6322   2.014   4.451   4.178
 1808SOL    HW1 6323   2.022   4.434   4.080
 1808SOL    HW2 6324   2.075   4.390   4.228
 1809SOL     OW 6325   3.283   0.062   6.264
 1809SOL    HW1 6326   3.235   0.093   6.181
 1809SOL    HW2 6327   3.380   0.080   6.254
 1810SOL     OW 6328   3.523   5.913   2.639
 1810SOL    HW1 6329   3.609   5.953   2.608
 1810SOL    HW2 6330   3.542   5.842   2.707
 1811SOL     OW 6331   6.306   5.359   2.285
 1811SOL    HW1 6332   6.289   5.357   2.187
 1811SOL    HW2 6333   6.377   5.427   2.305
 1812SOL     OW 6334   4.217   5.199   6.887
 1812SOL    HW1 6335   4.148   5.199   6.814
 1812SOL    HW2 6336   4.304   5.164   6.851
 1813SOL     OW 6337   6.413   5.187   5.646
 1813SOL    HW1 6338   6.457   5.179   5.556
 1813SOL    HW2 6339   6.483   5.199   5.716
 1814SOL     OW 6340   5.078   6.299   2.434
 1814SOL    HW1 6341   5.123   6.346   2.358
 1814SOL    HW2 6342   5.117   6.331   2.520
 1815SOL     OW 6343   0.233   0.988   2.444
 1815SOL    HW1 6344   0.243   0.952   2.537
 1815SOL    HW2 6345   0.231   0.912   2.379
 1816SOL     OW 6346   1.028   4.187   0.144
 1816SOL    HW1 6347   1.010   4.230   0.232
 1816SOL    HW2 6348   1.121   4.209   0.114
 1817SOL     OW 6349   1.235   5.229   2.054
 1817SOL    HW1 6350   1.302   5.255   1.984
 1817SOL    HW2 6351   1.142   5.241   2.018
 1818SOL     OW 6352   2.465   1.407   3.068
 1818SOL    HW1 6353   2.550   1.400   3.016
 1818SOL    HW2 6354   2.469   1.486   3.129
 1819SOL     OW 6355   1.714   4.505   2.416
 1819SOL    HW1 6356   1.631   4.470   2.460
 1819SOL    HW2 6357   1.777   4.429   2.397
 1820SOL     OW 6358   5.583   0.490   2.647
 1820SOL    HW1 6359   5.495   0.480   2.694
 1820SOL    HW2 6360   5.575   0.560   2.576
 1821SOL     OW 6361   2.084   1.415   3.156
 1821SOL    HW1 6362   2.142   1.453   3.084
 1821SOL    HW2 6363   2.000   1.379   3.115
 1822SOL     OW 6364   3.578   3.637   1.569
 1822SOL    HW1 6365   3.607   3.724   1.609
 1822SOL    HW2 6366   3.621   3.626   1.479
 1823SOL     OW 6367   4.359   6.959   2.426
 1823SOL    HW1 6368   4.293   0.006   2.404
 1823SOL    HW2 6369   4.452   6.995   2.417
 1824SOL     OW 6370   5.378   2.459   1.489
 1824SOL    HW1 6371   5.451   2.418   1.544
 1824SOL    HW2 6372   5.290   2.422   1.518
 1825SOL     OW 6373   1.274   1.116   1.199
 1825SOL    HW1 6374   1.229   1.114   1.288
 1825SOL    HW2 6375   1.360   1.167   1.206
 1826SOL     OW 6376   3.093   6.153   6.441
 1826SOL    HW1 6377   3.155   6.152   6.362
 1826SOL    HW2 6378   3.136   6.106   6.518
 1827SOL     OW 6379   5.896   6.971   1.744
 1827SOL    HW1 6380   5.874   6.907   1.817
 1827SOL    HW2 6381   5.814   6.990   1.690
 1828SOL     OW 6382   1.715   2.225   0.406
 1828SOL    HW1 6383   1.649   2.257   0.474
 1828SOL    HW2 6384   1.675   2.234   0.314
 1829SOL     OW 6385   6.186   5.580   1.213
 1829SOL    HW1 6386   6.231   5.502   1.172
 1829SOL    HW2 6387   6.093   5.555   1.240
 1830SOL     OW 6388   5.608   6.317   3.798
 1830SOL    HW1 6389   5.621   6.251   3.724
 1830SOL    HW2 6390   5.682   6.384   3.798
 1831SOL     OW 6391   5.003   0.732   3.276
 1831SOL    HW1 6392   5.058   0.689   3.205
 1831SOL    HW2 6393   4.997   0.830   3.260
 1832SOL     OW 6394   5.357   2.693   0.602
 1832SOL    HW1 6395   5.289   2.621   0.587
 1832SOL    HW2 6396   5.384   2.693   0.698
 1833SOL     OW 6397   6.070   1.967   5.616
 1833SOL    HW1 6398   5.993   1.992   5.675
 1833SOL    HW2 6399   6.035   1.933   5.529
 1834SOL     OW 6400   2.754   3.483   0.797
 1834SOL    HW1 6401   2.727   3.395   0.758
 1834SOL    HW2 6402   2.849   3.479   0.828
 1835SOL     OW 6403   1.349   4.536   0.133
 1835SOL    HW1 6404   1.249   4.544   0.134
 1835SOL    HW2 6405   1.388   4.603   0.196
 1836SOL     OW 6406   0.410   6.096   0.582
 1836SOL    HW1 6407   0.344   6.049   0.524
 1836SOL    HW2 6408   0.414   6.051   0.672
 1837SOL     OW 6409   1.105   2.643   4.855
 1837SOL    HW1 6410   1.045   2.599   4.922
 1837SOL    HW2 6411   1.152   2.574   4.801
 1838SOL     OW 6412   0.348   2.817   3.875
 1838SOL    HW1 6413   0.413   2.771   3.814
 1838SOL    HW2 6414   0.376   2.805   3.970
 1839SOL     OW 6415   0.010   2.350   6.046
 1839SOL    HW1 6416   0.022   2.266   6.100
 1839SOL    HW2 6417   0.041   2.335   5.953
 1840SOL     OW 6418   1.551   5.010   0.446
 1840SOL    HW1 6419   1.522   4.928   0.496
 1840SOL    HW2 6420   1.471   5.054   0.406
 1841SOL     OW 6421   1.500   3.044   3.062
 1841SOL    HW1 6422   1.542   3.043   3.153
 1841SOL    HW2 6423   1.490   3.139   3.031
 1842SOL     OW 6424   1.025   4.916   6.736
 1842SOL    HW1 6425   1.107   4.958   6.775
 1842SOL    HW2 6426   1.047   4.877   6.647
 1843SOL     OW 6427   3.558   1.922   4.977
 1843SOL    HW1 6428   3.566   1.934   5.076
 1843SOL    HW2 6429   3.470   1.957   4.946
 1844SOL     OW 6430   5.154   3.753   3.646
 1844SOL    HW1 6431   5.099   3.745   3.729
 1844SOL    HW2 6432   5.096   3.786   3.571
 1845SOL     OW 6433   4.162   0.329   0.100
 1845SOL    HW1 6434   4.184   0.289   0.011
 1845SOL    HW2 6435   4.121   0.260   0.159
 1846SOL     OW 6436   3.149   1.040   5.693
 1846SOL    HW1 6437   3.105   1.122   5.658
 1846SOL    HW2 6438   3.246   1.058   5.708
 1847SOL     OW 6439   1.846   0.014   0.331
 1847SOL    HW1 6440   1.862   6.941   0.322
 1847SOL    HW2 6441   1.759   0.038   0.289
 1848SOL     OW 6442   3.091   6.835   2.295
 1848SOL    HW1 6443   3.156   6.911   2.286
 1848SOL    HW2 6444   3.086   6.785   2.209
 1849SOL     OW 6445   2.839   1.212   6.246
 1849SOL    HW1 6446   2.751   1.254   6.224
 1849SOL    HW2 6447   2.881   1.176   6.163
 1850SOL     OW 6448   5.463   1.421   1.922
 1850SOL    HW1 6449   5.497   1.359   1.992
 1850SOL    HW2 6450   5.539   1.471   1.881
 1851SOL     OW 6451   6.565   3.518   3.393
 1851SOL    HW1 6452   6.621   3.438   3.372
 1851SOL    HW2 6453   6.547   3.521   3.491
 1852SOL     OW 6454   5.467   3.506   6.981
 1852SOL    HW1 6455   5.448   3.460   6.894
 1852SOL    HW2 6456   5.562   3.490   7.007
 1853SOL     OW 6457   1.777   4.550   0.660
 1853SOL    HW1 6458   1.798   4.645   0.685
 1853SOL    HW2 6459   1.858   4.508   0.620
 1854SOL     OW 6460   3.228   5.330   3.906
 1854SOL    HW1 6461   3.250   5.298   3.998
 1854SOL    HW2 6462   3.166   5.408   3.912
 1855SOL     OW 6463   5.437   4.511   1.947
 1855SOL    HW1 6464   5.529   4.485   1.918
 1855SOL    HW2 6465   5.443   4.587   2.011
 1856SOL     OW 6466   4.857   2.750   6.022
 1856SOL    HW1 6467   4.914   2.689   6.077
 1856SOL    HW2 6468   4.823   2.700   5.942
 1857SOL     OW 6469   4.519   1.580   3.736
 1857SOL    HW1 6470   4.513   1.488   3.697
 1857SOL    HW2 6471   4.530   1.647   3.662
 1858SOL     OW 6472   5.153   3.939   3.366
 1858SOL    HW1 6473   5.068   3.920   3.416
 1858SOL    HW2 6474   5.186   4.031   3.389
 1859SOL     OW 6475   5.401   1.379   3.339
 1859SOL    HW1 6476   5.491   1.404   3.377
 1859SOL    HW2 6477   5.377   1.445   3.267
 1860SOL     OW 6478   4.507   1.752   5.062
 1860SOL    HW1 6479   4.526   1.763   4.965
 1860SOL    HW2 6480   4.410   1.729   5.075
 1861SOL     OW 6481   5.689   6.217   2.005
 1861SOL    HW1 6482   5.726   6.208   2.097
 1861SOL    HW2 6483   5.589   6.217   2.009
 1862SOL     OW 6484   1.408   1.799   0.501
 1862SOL    HW1 6485   1.320   1.840   0.477
 1862SOL    HW2 6486   1.411   1.704   0.467
 1863SOL     OW 6487   2.190   2.659   1.689
 1863SOL    HW1 6488   2.144   2.577   1.658
 1863SOL    HW2 6489   2.284   2.660   1.653
 1864SOL     OW 6490   1.012   6.587   3.780
 1864SOL    HW1 6491   0.951   6.604   3.857
 1864SOL    HW2 6492   1.032   6.673   3.734
 1865SOL     OW 6493   5.006   2.052   6.760
 1865SOL    HW1 6494   4.928   1.992   6.736
 1865SOL    HW2 6495   4.978   2.147   6.749
 1866SOL     OW 6496   5.306   5.237   2.660
 1866SOL    HW1 6497   5.313   5.317   2.719
 1866SOL    HW2 6498   5.355   5.160   2.702
 1867SOL     OW 6499   1.070   4.859   6.476
 1867SOL    HW1 6500   1.135   4.852   6.401
 1867SOL    HW2 6501   0.978   4.834   6.444
 1868SOL     OW 6502   6.224   4.332   5.818
 1868SOL    HW1 6503   6.215   4.419   5.770
 1868SOL    HW2 6504   6.234   4.258   5.751
 1869SOL     OW 6505   6.166   1.359   4.578
 1869SOL    HW1 6506   6.236   1.309   4.630
 1869SOL    HW2 6507   6.125   1.428   4.637
 1870SOL     OW 6508   2.276   4.415   4.514
 1870SOL    HW1 6509   2.336   4.489   4.545
 1870SOL    HW2 6510   2.222   4.382   4.591
 1871SOL     OW 6511   1.291   0.150   0.731
 1871SOL    HW1 6512   1.271   0.053   0.721
 1871SOL    HW2 6513   1.213   0.196   0.774
 1872SOL     OW 6514   2.243   4.992   0.252
 1872SOL    HW1 6515   2.263   4.905   0.298
 1872SOL    HW2 6516   2.306   5.005   0.176
 1873SOL     OW 6517   4.996   1.062   0.611
 1873SOL    HW1 6518   5.055   1.122   0.664
 1873SOL    HW2 6519   5.052   1.003   0.553
 1874SOL     OW 6520   1.165   3.375   2.636
 1874SOL    HW1 6521   1.211   3.463   2.633
 1874SOL    HW2 6522   1.118   3.359   2.550
 1875SOL     OW 6523   1.186   6.881   0.922
 1875SOL    HW1 6524   1.203   6.879   0.823
 1875SOL    HW2 6525   1.149   6.794   0.952
 1876SOL     OW 6526   2.313   6.964   4.539
 1876SOL    HW1 6527   2.216   6.989   4.541
 1876SOL    HW2 6528   2.326   6.880   4.592
 1877SOL     OW 6529   0.049   6.738   3.655
 1877SOL    HW1 6530   0.068   6.660   3.594
 1877SOL    HW2 6531   0.117   6.809   3.640
 1878SOL     OW 6532   5.546   2.306   5.796
 1878SOL    HW1 6533   5.641   2.279   5.780
 1878SOL    HW2 6534   5.486   2.255   5.734
 1879SOL     OW 6535   1.434   4.647   5.642
 1879SOL    HW1 6536   1.365   4.658   5.714
 1879SOL    HW2 6537   1.404   4.694   5.559
 1880SOL     OW 6538   6.151   0.312   5.199
 1880SOL    HW1 6539   6.137   0.359   5.112
 1880SOL    HW2 6540   6.131   0.374   5.274
 1881SOL     OW 6541   6.873   2.481   6.775
 1881SOL    HW1 6542   6.846   2.577   6.779
 1881SOL    HW2 6543   6.972   2.474   6.768
 1882SOL     OW 6544   1.287   6.109   6.414
 1882SOL    HW1 6545   1.306   6.176   6.486
 1882SOL    HW2 6546   1.189   6.095   6.407
 1883SOL     OW 6547   0.032   2.129   4.039
 1883SOL    HW1 6548   0.026   2.221   4.077
 1883SOL    HW2 6549   0.020   2.133   3.939
 1884SOL     OW 6550   0.210   3.046   0.946
 1884SOL    HW1 6551   0.260   3.012   0.867
 1884SOL    HW2 6552   0.153   2.973   0.984
 1885SOL     OW 6553   1.739   1.267   4.679
 1885SOL    HW1 6554   1.798   1.285   4.757
 1885SOL    HW2 6555   1.742   1.344   4.616
 1886SOL     OW 6556   1.148   6.548   3.039
 1886SOL    HW1 6557   1.173   6.452   3.047
 1886SOL    HW2 6558   1.081   6.572   3.109
 1887SOL     OW 6559   2.437   6.568   5.887
 1887SOL    HW1 6560   2.464   6.489   5.831
 1887SOL    HW2 6561   2.338   6.568   5.900
 1888SOL     OW 6562   2.886   1.220   2.897
 1888SOL    HW1 6563   2.840   1.307   2.914
 1888SOL    HW2 6564   2.910   1.213   2.800
 1889SOL     OW 6565   0.429   3.318   2.874
 1889SOL    HW1 6566   0.432   3.414   2.846
 1889SOL    HW2 6567   0.349   3.303   2.932
 1890SOL     OW 6568   0.658   5.847   4.543
 1890SOL    HW1 6569   0.635   5.801   4.629
 1890SOL    HW2 6570   0.753   5.826   4.519
 1891SOL     OW 6571   3.250   3.088   3.769
 1891SOL    HW1 6572   3.231   3.038   3.684
 1891SOL    HW2 6573   3.302   3.030   3.831
 1892SOL     OW 6574   0.745   0.817   2.564
 1892SOL    HW1 6575   0.663   0.861   2.529
 1892SOL    HW2 6576   0.720   0.737   2.618
 1893SOL     OW 6577   3.784   3.361   4.372
 1893SOL    HW1 6578   3.756   3.288   4.434
 1893SOL    HW2 6579   3.877   3.390   4.394
 1894SOL     OW 6580   3.346   3.429   4.503
 1894SOL    HW1 6581   3.426   3.483   4.478
 1894SOL    HW2 6582   3.355   3.397   4.597
 1895SOL     OW 6583   1.918   6.388   0.067
 1895SOL    HW1 6584   1.877   6.373   0.157
 1895SOL    HW2 6585   1.864   6.455   0.017
 1896SOL     OW 6586   5.348   2.716   1.091
 1896SOL    HW1 6587   5.428   2.777   1.082
 1896SOL    HW2 6588   5.268   2.770   1.117
 1897SOL     OW 6589   1.695   4.169   4.691
 1897SOL    HW1 6590   1.626   4.137   4.625
 1897SOL    HW2 6591   1.679   4.123   4.779
 1898SOL     OW 6592   1.852   6.312   3.289
 1898SOL    HW1 6593   1.943   6.296   3.327
 1898SOL    HW2 6594   1.830   6.410   3.295
 1899SOL     OW 6595   6.979   0.869   2.326
 1899SOL    HW1 6596   6.960   0.958   2.366
 1899SOL    HW2 6597   6.999   0.803   2.398
 1900SOL     OW 6598   2.702   6.085   0.053
 1900SOL    HW1 6599   2.699   6.112   6.982
 1900SOL    HW2 6600   2.796   6.096   0.087
 1901SOL     OW 6601   2.774   3.494   1.818
 1901SOL    HW1 6602   2.824   3.436   1.754
 1901SOL    HW2 6603   2.784   3.458   1.911
 1902SOL     OW 6604   1.269   0.287   4.231
 1902SOL    HW1 6605   1.333   0.352   4.272
 1902SOL    HW2 6606   1.176   0.316   4.249
 1903SOL     OW 6607   1.051   2.635   4.041
 1903SOL    HW1 6608   1.084   2.562   4.101
 1903SOL    HW2 6609   1.128   2.677   3.994
 1904SOL     OW 6610   6.176   5.717   1.517
 1904SOL    HW1 6611   6.161   5.815   1.513
 1904SOL    HW2 6612   6.113   5.670   1.454
 1905SOL     OW 6613   0.815   1.960   4.019
 1905SOL    HW1 6614   0.791   2.046   3.974
 1905SOL    HW2 6615   0.839   1.979   4.115
 1906SOL     OW 6616   1.524   6.958   4.775
 1906SOL    HW1 6617   1.515   6.886   4.844
 1906SOL    HW2 6618   1.478   6.930   4.691
 1907SOL     OW 6619   4.931   2.719   0.359
 1907SOL    HW1 6620   4.968   2.791   0.301
 1907SOL    HW2 6621   4.913   2.756   0.450
 1908SOL     OW 6622   3.263   1.247   1.077
 1908SOL    HW1 6623   3.336   1.180   1.090
 1908SOL    HW2 6624   3.230   1.278   1.167
 1909SOL     OW 6625   6.364   5.041   4.778
 1909SOL    HW1 6626   6.417   5.068   4.858
 1909SOL    HW2 6627   6.266   5.050   4.799
 1910SOL     OW 6628   0.619   5.974   5.606
 1910SOL    HW1 6629   0.603   6.000   5.511
 1910SOL    HW2 6630   0.693   5.907   5.610
 1911SOL     OW 6631   5.983   5.550   4.380
 1911SOL    HW1 6632   5.919   5.503   4.319
 1911SOL    HW2 6633   5.933   5.614   4.438
 1912SOL     OW 6634   3.474   4.904   2.019
 1912SOL    HW1 6635   3.567   4.868   2.012
 1912SOL    HW2 6636   3.433   4.907   1.928
 1913SOL     OW 6637   3.987   4.232   6.760
 1913SOL    HW1 6638   4.009   4.158   6.823
 1913SOL    HW2 6639   4.070   4.282   6.735
 1914SOL     OW 6640   3.069   4.429   6.842
 1914SOL    HW1 6641   3.011   4.347   6.849
 1914SOL    HW2 6642   3.119   4.441   6.927
 1915SOL     OW 6643   3.699   2.825   6.188
 1915SOL    HW1 6644   3.700   2.734   6.147
 1915SOL    HW2 6645   3.793   2.857   6.200
 1916SOL     OW 6646   4.130   0.738   2.680
 1916SOL    HW1 6647   4.050   0.772   2.728
 1916SOL    HW2 6648   4.189   0.814   2.655
 1917SOL     OW 6649   1.853   4.097   1.308
 1917SOL    HW1 6650   1.930   4.150   1.272
 1917SOL    HW2 6651   1.816   4.142   1.389
 1918SOL     OW 6652   5.696   2.610   4.000
 1918SOL    HW1 6653   5.731   2.552   3.926
 1918SOL    HW2 6654   5.627   2.561   4.052
 1919SOL     OW 6655   6.881   2.943   6.544
 1919SOL    HW1 6656   6.910   3.036   6.568
 1919SOL    HW2 6657   6.811   2.948   6.472
 1920SOL     OW 6658   4.916   3.276   1.058
 1920SOL    HW1 6659   4.884   3.272   1.153
 1920SOL    HW2 6660   4.900   3.368   1.022
 1921SOL     OW 6661   2.478   2.397   6.867
 1921SOL    HW1 6662   2.384   2.419   6.894
 1921SOL    HW2 6663   2.542   2.431   6.936
 1922SOL     OW 6664   3.323   3.039   2.990
 1922SOL    HW1 6665   3.312   3.132   2.955
 1922SOL    HW2 6666   3.372   3.041   3.077
 1923SOL     OW 6667   3.492   0.951   4.379
 1923SOL    HW1 6668   3.545   0.867   4.369
 1923SOL    HW2 6669   3.455   0.956   4.471
 1924SOL     OW 6670   4.738   1.200   0.534
 1924SOL    HW1 6671   4.742   1.143   0.452
 1924SOL    HW2 6672   4.825   1.192   0.584
 1925SOL     OW 6673   1.244   3.628   1.249
 1925SOL    HW1 6674   1.330   3.662   1.289
 1925SOL    HW2 6675   1.187   3.705   1.222
 1926SOL     OW 6676   4.007   0.399   2.137
 1926SOL    HW1 6677   4.103   0.372   2.126
 1926SOL    HW2 6678   3.976   0.373   2.229
 1927SOL     OW 6679   2.056   4.961   1.587
 1927SOL    HW1 6680   2.076   4.871   1.626
 1927SOL    HW2 6681   1.969   4.956   1.537
 1928SOL     OW 6682   5.899   4.275   2.749
 1928SOL    HW1 6683   5.907   4.176   2.752
 1928SOL    HW2 6684   5.925   4.313   2.838
 1929SOL     OW 6685   3.146   6.935   3.238
 1929SOL    HW1 6686   3.055   6.932   3.197
 1929SOL    HW2 6687   3.194   6.850   3.220
 1930SOL     OW 6688   3.749   3.140   0.245
 1930SOL    HW1 6689   3.723   3.141   0.342
 1930SOL    HW2 6690   3.791   3.052   0.223
 1931SOL     OW 6691   6.898   2.036   4.262
 1931SOL    HW1 6692   6.827   2.093   4.220
 1931SOL    HW2 6693   6.979   2.034   4.203
 1932SOL     OW 6694   4.891   1.949   2.246
 1932SOL    HW1 6695   4.812   1.916   2.194
 1932SOL    HW2 6696   4.894   2.049   2.242
 1933SOL     OW 6697   1.019   0.595   1.075
 1933SOL    HW1 6698   1.061   0.509   1.105
 1933SOL    HW2 6699   1.071   0.672   1.110
 1934SOL     OW 6700   6.796   0.695   6.544
 1934SOL    HW1 6701   6.844   0.781   6.554
 1934SOL    HW2 6702   6.697   0.710   6.553
 1935SOL     OW 6703   6.007   5.046   3.813
 1935SOL    HW1 6704   5.989   5.068   3.718
 1935SOL    HW2 6705   6.082   4.979   3.819
 1936SOL     OW 6706   4.793   3.004   6.099
 1936SOL    HW1 6707   4.695   3.018   6.087
 1936SOL    HW2 6708   4.827   2.943   6.027
 1937SOL     OW 6709   6.106   5.018   0.086
 1937SOL    HW1 6710   6.170   4.946   0.058
 1937SOL    HW2 6711   6.106   5.091   0.018
 1938SOL     OW 6712   6.445   3.204   0.043
 1938SOL    HW1 6713   6.513   3.222   0.115
 1938SOL    HW2 6714   6.464   3.116   0.001
 1939SOL     OW 6715   0.795   0.563   4.630
 1939SOL    HW1 6716   0.778   0.490   4.697
 1939SOL    HW2 6717   0.818   0.648   4.678
 1940SOL     OW 6718   0.479   5.189   0.695
 1940SOL    HW1 6719   0.395   5.216   0.740
 1940SOL    HW2 6720   0.539   5.269   0.686
 1941SOL     OW 6721   5.436   1.861   4.696
 1941SOL    HW1 6722   5.378   1.937   4.724
 1941SOL    HW2 6723   5.380   1.789   4.655
 1942SOL     OW 6724   6.922   4.484   1.851
 1942SOL    HW1 6725   7.017   4.459   1.870
 1942SOL    HW2 6726   6.883   4.417   1.788
 1943SOL     OW 6727   1.102   2.737   3.570
 1943SOL    HW1 6728   1.198   2.757   3.553
 1943SOL    HW2 6729   1.070   2.666   3.507
 1944SOL     OW 6730   0.591   3.358   3.661
 1944SOL    HW1 6731   0.563   3.453   3.670
 1944SOL    HW2 6732   0.545   3.317   3.582
 1945SOL     OW 6733   5.026   1.158   1.945
 1945SOL    HW1 6734   5.087   1.231   1.916
 1945SOL    HW2 6735   5.069   1.069   1.927
 1946SOL     OW 6736   6.466   6.205   0.820
 1946SOL    HW1 6737   6.415   6.256   0.751
 1946SOL    HW2 6738   6.444   6.108   0.813
 1947SOL     OW 6739   6.209   5.142   3.178
 1947SOL    HW1 6740   6.299   5.167   3.142
 1947SOL    HW2 6741   6.154   5.224   3.188
 1948SOL     OW 6742   5.293   3.351   3.709
 1948SOL    HW1 6743   5.258   3.414   3.778
 1948SOL    HW2 6744   5.322   3.266   3.753
 1949SOL     OW 6745   3.463   4.224   6.525
 1949SOL    HW1 6746   3.543   4.230   6.585
 1949SOL    HW2 6747   3.380   4.230   6.580
 1950SOL     OW 6748   3.985   3.933   3.235
 1950SOL    HW1 6749   3.917   3.949   3.307
 1950SOL    HW2 6750   4.076   3.929   3.276
 1951SOL     OW 6751   6.142   5.413   6.192
 1951SOL    HW1 6752   6.127   5.314   6.198
 1951SOL    HW2 6753   6.056   5.461   6.207
 1952SOL     OW 6754   5.893   5.308   0.152
 1952SOL    HW1 6755   5.810   5.271   0.110
 1952SOL    HW2 6756   5.921   5.390   0.104
 1953SOL     OW 6757   1.438   1.371   6.725
 1953SOL    HW1 6758   1.476   1.344   6.813
 1953SOL    HW2 6759   1.505   1.427   6.676
 1954SOL     OW 6760   4.226   6.943   1.657
 1954SOL    HW1 6761   4.199   6.858   1.611
 1954SOL    HW2 6762   4.320   6.966   1.633
 1955SOL     OW 6763   0.133   2.647   3.891
 1955SOL    HW1 6764   0.214   2.699   3.865
 1955SOL    HW2 6765   0.053   2.708   3.892
 1956SOL     OW 6766   5.505   0.825   1.376
 1956SOL    HW1 6767   5.446   0.881   1.318
 1956SOL    HW2 6768   5.479   0.729   1.366
 1957SOL     OW 6769   6.526   2.397   4.120
 1957SOL    HW1 6770   6.476   2.432   4.040
 1957SOL    HW2 6771   6.460   2.377   4.193
 1958SOL     OW 6772   3.708   1.434   0.666
 1958SOL    HW1 6773   3.753   1.419   0.578
 1958SOL    HW2 6774   3.703   1.532   0.685
 1959SOL     OW 6775   1.015   2.393   5.265
 1959SOL    HW1 6776   1.070   2.475   5.251
 1959SOL    HW2 6777   1.029   2.358   5.357
 1960SOL     OW 6778   5.930   4.201   3.856
 1960SOL    HW1 6779   6.016   4.192   3.805
 1960SOL    HW2 6780   5.928   4.134   3.931
 1961SOL     OW 6781   0.733   3.825   3.774
 1961SOL    HW1 6782   0.667   3.773   3.720
 1961SOL    HW2 6783   0.801   3.762   3.813
 1962SOL     OW 6784   0.637   0.790   2.157
 1962SOL    HW1 6785   0.719   0.819   2.206
 1962SOL    HW2 6786   0.597   0.869   2.110
 1963SOL     OW 6787   0.855   2.632   6.820
 1963SOL    HW1 6788   0.847   2.533   6.815
 1963SOL    HW2 6789   0.950   2.659   6.804
 1964SOL     OW 6790   5.665   3.567   0.730
 1964SOL    HW1 6791   5.730   3.515   0.675
 1964SOL    HW2 6792   5.622   3.636   0.673
 1965SOL     OW 6793   6.182   4.220   3.737
 1965SOL    HW1 6794   6.178   4.205   3.638
 1965SOL    HW2 6795   6.278   4.226   3.766
 1966SOL     OW 6796   1.282   4.669   6.731
 1966SOL    HW1 6797   1.224   4.692   6.809
 1966SOL    HW2 6798   1.378   4.681   6.756
 1967SOL     OW 6799   6.131   3.425   4.944
 1967SOL    HW1 6800   6.143   3.374   4.859
 1967SOL    HW2 6801   6.221   3.452   4.979
 1968SOL     OW 6802   2.768   1.088   5.494
 1968SOL    HW1 6803   2.706   1.012   5.472
 1968SOL    HW2 6804   2.725   1.175   5.466
 1969SOL     OW 6805   1.839   5.864   0.879
 1969SOL    HW1 6806   1.819   5.950   0.832
 1969SOL    HW2 6807   1.802   5.867   0.971
 1970SOL     OW 6808   5.454   5.029   4.163
 1970SOL    HW1 6809   5.449   4.960   4.091
 1970SOL    HW2 6810   5.549   5.060   4.173
 1971SOL     OW 6811   1.865   4.605   4.698
 1971SOL    HW1 6812   1.806   4.648   4.630
 1971SOL    HW2 6813   1.905   4.521   4.660
 1972SOL     OW 6814   6.219   2.360   2.259
 1972SOL    HW1 6815   6.176   2.450   2.253
 1972SOL    HW2 6816   6.261   2.349   2.349
 1973SOL     OW 6817   3.278   2.238   1.022
 1973SOL    HW1 6818   3.225   2.240   0.937
 1973SOL    HW2 6819   3.329   2.152   1.027
 1974SOL     OW 6820   2.515   6.790   4.961
 1974SOL    HW1 6821   2.462   6.753   4.885
 1974SOL    HW2 6822   2.566   6.871   4.930
 1975SOL     OW 6823   1.999   2.925   3.318
 1975SOL    HW1 6824   2.096   2.939   3.297
 1975SOL    HW2 6825   1.951   3.013   3.318
 1976SOL     OW 6826   0.983   0.979   5.294
 1976SOL    HW1 6827   0.979   0.899   5.235
 1976SOL    HW2 6828   1.077   0.992   5.326
 1977SOL     OW 6829   1.961   3.774   6.460
 1977SOL    HW1 6830   1.941   3.696   6.400
 1977SOL    HW2 6831   1.934   3.752   6.554
 1978SOL     OW 6832   3.022   0.449   2.432
 1978SOL    HW1 6833   2.993   0.353   2.442
 1978SOL    HW2 6834   2.969   0.492   2.359
 1979SOL     OW 6835   6.118   4.466   6.401
 1979SOL    HW1 6836   6.065   4.550   6.389
 1979SOL    HW2 6837   6.066   4.389   6.365
 1980SOL     OW 6838   3.701   0.633   0.917
 1980SOL    HW1 6839   3.790   0.676   0.900
 1980SOL    HW2 6840   3.630   0.681   0.865
 1981SOL     OW 6841   3.772   1.847   2.222
 1981SOL    HW1 6842   3.797   1.941   2.196
 1981SOL    HW2 6843   3.780   1.788   2.142
 1982SOL     OW 6844   1.571   2.822   6.115
 1982SOL    HW1 6845   1.507   2.861   6.049
 1982SOL    HW2 6846   1.649   2.884   6.126
 1983SOL     OW 6847   0.004   1.107   2.059
 1983SOL    HW1 6848   6.932   1.133   2.060
 1983SOL    HW2 6849   0.013   1.017   2.017
 1984SOL     OW 6850   4.351   3.762   6.054
 1984SOL    HW1 6851   4.259   3.774   6.016
 1984SOL    HW2 6852   4.419   3.784   5.985
 1985SOL     OW 6853   6.368   4.123   4.219
 1985SOL    HW1 6854   6.268   4.133   4.216
 1985SOL    HW2 6855   6.391   4.028   4.239
 1986SOL     OW 6856   3.176   3.438   2.315
 1986SOL    HW1 6857   3.262   3.441   2.265
 1986SOL    HW2 6858   3.194   3.429   2.412
 1987SOL     OW 6859   2.304   0.675   2.041
 1987SOL    HW1 6860   2.299   0.685   2.140
 1987SOL    HW2 6861   2.215   0.694   2.001
 1988SOL     OW 6862   0.612   1.509   1.849
 1988SOL    HW1 6863   0.563   1.469   1.926
 1988SOL    HW2 6864   0.624   1.607   1.864
 1989SOL     OW 6865   2.856   5.352   5.129
 1989SOL    HW1 6866   2.798   5.390   5.200
 1989SOL    HW2 6867   2.928   5.418   5.106
 1990SOL     OW 6868   4.052   0.556   6.986
 1990SOL    HW1 6869   4.114   0.494   0.009
 1990SOL    HW2 6870   4.096   0.646   6.976
 1991SOL     OW 6871   2.782   5.317   1.485
 1991SOL    HW1 6872   2.831   5.320   1.572
 1991SOL    HW2 6873   2.683   5.320   1.503
 1992SOL     OW 6874   0.754   6.625   2.761
 1992SOL    HW1 6875   0.658   6.635   2.733
 1992SOL    HW2 6876   0.808   6.592   2.683
 1993SOL     OW 6877   2.085   1.877   2.971
 1993SOL    HW1 6878   2.128   1.966   2.989
 1993SOL    HW2 6879   2.152   1.815   2.930
 1994SOL     OW 6880   3.887   2.720   1.004
 1994SOL    HW1 6881   3.840   2.647   1.054
 1994SOL    HW2 6882   3.970   2.683   0.962
 1995SOL     OW 6883   5.822   1.609   4.052
 1995SOL    HW1 6884   5.771   1.674   4.108
 1995SOL    HW2 6885   5.799   1.515   4.079
 1996SOL     OW 6886   4.782   0.915   0.714
 1996SOL    HW1 6887   4.712   0.968   0.762
 1996SOL    HW2 6888   4.863   0.972   0.702
 1997SOL     OW 6889   3.259   1.386   3.744
 1997SOL    HW1 6890   3.283   1.483   3.734
 1997SOL    HW2 6891   3.319   1.331   3.686
 1998SOL     OW 6892   2.507   3.770   1.470
 1998SOL    HW1 6893   2.487   3.845   1.408
 1998SOL    HW2 6894   2.557   3.805   1.549
 1999SOL     OW 6895   0.792   0.096   6.878
 1999SOL    HW1 6896   0.826   0.002   6.874
 1999SOL    HW2 6897   0.762   0.125   6.787
 2000SOL     OW 6898   3.974   4.409   6.129
 2000SOL    HW1 6899   3.964   4.434   6.226
 2000SOL    HW2 6900   4.041   4.335   6.120
 2001SOL     OW 6901   1.468   2.243   1.412
 2001SOL    HW1 6902   1.504   2.336   1.412
 2001SOL    HW2 6903   1.521   2.186   1.350
 2002SOL     OW 6904   0.101   5.343   1.064
 2002SOL    HW1 6905   0.163   5.305   1.133
 2002SOL    HW2 6906   0.084   5.275   0.992
 2003SOL     OW 6907   5.566   5.252   1.987
 2003SOL    HW1 6908   5.634   5.309   1.940
 2003SOL    HW2 6909   5.595   5.237   2.082
 2004SOL     OW 6910   3.535   6.545   2.920
 2004SOL    HW1 6911   3.620   6.572   2.964
 2004SOL    HW2 6912   3.545   6.552   2.821
 2005SOL     OW 6913   1.440   6.405   0.330
 2005SOL    HW1 6914   1.345   6.403   0.362
 2005SOL    HW2 6915   1.473   6.311   0.319
 2006SOL     OW 6916   5.502   6.422   2.211
 2006SOL    HW1 6917   5.473   6.361   2.285
 2006SOL    HW2 6918   5.423   6.449   2.157
 2007SOL     OW 6919   5.418   4.979   6.139
 2007SOL    HW1 6920   5.403   4.909   6.210
 2007SOL    HW2 6921   5.498   4.955   6.085
 2008SOL     OW 6922   2.019   3.526   3.167
 2008SOL    HW1 6923   1.985   3.599   3.108
 2008SOL    HW2 6924   1.945   3.461   3.185
 2009SOL     OW 6925   6.271   7.004   2.382
 2009SOL    HW1 6926   6.271   0.028   2.295
 2009SOL    HW2 6927   6.197   6.937   2.382
 2010SOL     OW 6928   6.891   1.829   2.048
 2010SOL    HW1 6929   6.866   1.923   2.071
 2010SOL    HW2 6930   6.963   1.797   2.110
 2011SOL     OW 6931   0.685   6.897   4.716
 2011SOL    HW1 6932   0.610   6.919   4.654
 2011SOL    HW2 6933   0.771   6.933   4.679
 2012SOL     OW 6934   0.683   3.232   1.260
 2012SOL    HW1 6935   0.723   3.283   1.183
 2012SOL    HW2 6936   0.585   3.220   1.244
 2013SOL     OW 6937   0.068   2.604   1.956
 2013SOL    HW1 6938   0.117   2.649   1.881
 2013SOL    HW2 6939   0.004   2.537   1.918
 2014SOL     OW 6940   3.795   1.235   4.149
 2014SOL    HW1 6941   3.722   1.210   4.085
 2014SOL    HW2 6942   3.869   1.279   4.099
 2015SOL     OW 6943   4.168   6.729   1.863
 2015SOL    HW1 6944   4.175   6.828   1.852
 2015SOL    HW2 6945   4.119   6.689   1.785
 2016SOL     OW 6946   2.194   0.824   4.168
 2016SOL    HW1 6947   2.191   0.737   4.217
 2016SOL    HW2 6948   2.188   0.899   4.234
 2017SOL     OW 6949   3.291   6.259   3.834
 2017SOL    HW1 6950   3.320   6.337   3.778
 2017SOL    HW2 6951   3.191   6.252   3.830
 2018SOL     OW 6952   0.789   0.662   4.079
 2018SOL    HW1 6953   0.741   0.664   3.992
 2018SOL    HW2 6954   0.786   0.569   4.117
 2019SOL     OW 6955   5.521   5.675   6.609
 2019SOL    HW1 6956   5.517   5.594   6.667
 2019SOL    HW2 6957   5.465   5.662   6.528
 2020SOL     OW 6958   1.906   6.817   0.136
 2020SOL    HW1 6959   1.996   6.814   0.179
 2020SOL    HW2 6960   1.882   6.725   0.102
 2021SOL     OW 6961   6.960   5.956   4.381
 2021SOL    HW1 6962   6.864   5.929   4.385
 2021SOL    HW2 6963   6.977   6.026   4.450
 2022SOL     OW 6964   1.899   3.332   4.312
 2022SOL    HW1 6965   1.957   3.265   4.358
 2022SOL    HW2 6966   1.832   3.368   4.377
 2023SOL     OW 6967   6.736   5.962   6.468
 2023SOL    HW1 6968   6.681   5.997   6.392
 2023SOL    HW2 6969   6.807   5.902   6.432
 2024SOL     OW 6970   0.243   5.494   3.897
 2024SOL    HW1 6971   0.159   5.458   3.856
 2024SOL    HW2 6972   0.278   5.428   3.963
 2025SOL     OW 6973   2.080   6.109   4.695
 2025SOL    HW1 6974   2.090   6.017   4.734
 2025SOL    HW2 6975   2.171   6.144   4.670
 2026SOL     OW 6976   7.014   0.618   5.889
 2026SOL    HW1 6977   6.927   0.580   5.919
 2026SOL    HW2 6978   0.062   0.551   5.903
 2027SOL     OW 6979   6.996   6.152   2.225
 2027SOL    HW1 6980   7.016   6.162   2.127
 2027SOL    HW2 6981   6.898   6.146   2.239
 2028SOL     OW 6982   3.217   5.584   4.743
 2028SOL    HW1 6983   3.289   5.595   4.675
 2028SOL    HW2 6984   3.256   5.597   4.834
 2029SOL     OW 6985   6.122   3.021   6.670
 2029SOL    HW1 6986   6.221   3.018   6.654
 2029SOL    HW2 6987   6.104   3.060   6.760
 2030SOL     OW 6988   2.421   6.655   2.355
 2030SOL    HW1 6989   2.351   6.682   2.421
 2030SOL    HW2 6990   2.509   6.646   2.401
 2031SOL     OW 6991   0.718   6.005   4.822
 2031SOL    HW1 6992   0.797   6.007   4.884
 2031SOL    HW2 6993   0.706   5.912   4.787
 2032SOL     OW 6994   2.376   2.902   5.917
 2032SOL    HW1 6995   2.307   2.940   5.979
 2032SOL    HW2 6996   2.428   2.831   5.965
 2033SOL     OW 6997   2.277   1.592   0.588
 2033SOL    HW1 6998   2.317   1.539   0.663
 2033SOL    HW2 6999   2.186   1.555   0.566
 2034SOL     OW 7000   0.824   4.248   5.250
 2034SOL    HW1 7001   0.735   4.241   5.206
 2034SOL    HW2 7002   0.858   4.341   5.242
 2035SOL     OW 7003   5.244   5.838   3.155
 2035SOL    HW1 7004   5.192   5.894   3.091
 2035SOL    HW2 7005   5.275   5.894   3.232
 2036SOL     OW 7006   0.434   4.563   6.450
 2036SOL    HW1 7007   0.365   4.536   6.517
 2036SOL    HW2 7008   0.401   4.544   6.358
 2037SOL     OW 7009   1.383   2.499   0.022
 2037SOL    HW1 7010   1.482   2.506   0.035
 2037SOL    HW2 7011   1.345   2.591   0.010
 2038SOL     OW 7012   0.680   1.334   5.854
 2038SOL    HW1 7013   0.776   1.315   5.836
 2038SOL    HW2 7014   0.665   1.340   5.953
 2039SOL     OW 7015   5.024   6.050   3.320
 2039SOL    HW1 7016   5.016   6.040   3.221
 2039SOL    HW2 7017   4.975   6.132   3.349
 2040SOL     OW 7018   2.683   2.061   0.085
 2040SOL    HW1 7019   2.698   1.971   0.128
 2040SOL    HW2 7020   2.629   2.118   0.146
 2041SOL     OW 7021   2.781   6.472   6.821
 2041SOL    HW1 7022   2.848   6.490   6.749
 2041SOL    HW2 7023   2.815   6.505   6.909
 2042SOL     OW 7024   6.106   0.714   5.879
 2042SOL    HW1 7025   6.022   0.700   5.826
 2042SOL    HW2 7026   6.174   0.759   5.821
 2043SOL     OW 7027   0.864   4.163   0.605
 2043SOL    HW1 7028   0.772   4.130   0.585
 2043SOL    HW2 7029   0.930   4.116   0.546
 2044SOL     OW 7030   4.315   0.628   1.670
 2044SOL    HW1 7031   4.413   0.617   1.683
 2044SOL    HW2 7032   4.266   0.580   1.743
 2045SOL     OW 7033   1.999   5.977   4.280
 2045SOL    HW1 7034   1.903   5.984   4.253
 2045SOL    HW2 7035   2.018   6.040   4.355
 2046SOL     OW 7036   0.809   3.230   6.037
 2046SOL    HW1 7037   0.798   3.204   5.940
 2046SOL    HW2 7038   0.844   3.152   6.088
 2047SOL     OW 7039   6.873   0.412   0.906
 2047SOL    HW1 7040   6.972   0.418   0.904
 2047SOL    HW2 7041   6.845   0.354   0.983
 2048SOL     OW 7042   2.215   1.293   4.279
 2048SOL    HW1 7043   2.131   1.253   4.242
 2048SOL    HW2 7044   2.281   1.307   4.205
 2049SOL     OW 7045   4.779   2.751   4.892
 2049SOL    HW1 7046   4.685   2.731   4.921
 2049SOL    HW2 7047   4.795   2.850   4.898
 2050SOL     OW 7048   0.437   1.029   3.834
 2050SOL    HW1 7049   0.489   1.101   3.880
 2050SOL    HW2 7050   0.457   1.032   3.736
 2051SOL     OW 7051   3.448   5.854   0.660
 2051SOL    HW1 7052   3.379   5.788   0.632
 2051SOL    HW2 7053   3.531   5.840   0.607
 2052SOL     OW 7054   1.186   3.872   0.570
 2052SOL    HW1 7055   1.260   3.916   0.620
 2052SOL    HW2 7056   1.219   3.785   0.533
 2053SOL     OW 7057   6.170   4.859   2.707
 2053SOL    HW1 7058   6.207   4.773   2.741
 2053SOL    HW2 7059   6.122   4.843   2.620
 2054SOL     OW 7060   2.965   3.781   3.082
 2054SOL    HW1 7061   2.902   3.752   3.010
 2054SOL    HW2 7062   2.978   3.706   3.147
 2055SOL     OW 7063   4.452   2.719   5.584
 2055SOL    HW1 7064   4.469   2.747   5.490
 2055SOL    HW2 7065   4.452   2.619   5.590
 2056SOL     OW 7066   3.124   5.097   1.623
 2056SOL    HW1 7067   3.135   5.181   1.569
 2056SOL    HW2 7068   3.198   5.092   1.691
 2057SOL     OW 7069   5.882   3.385   4.423
 2057SOL    HW1 7070   5.940   3.417   4.348
 2057SOL    HW2 7071   5.907   3.433   4.507
 2058SOL     OW 7072   6.242   6.690   3.497
 2058SOL    HW1 7073   6.196   6.766   3.452
 2058SOL    HW2 7074   6.311   6.725   3.560
 2059SOL     OW 7075   2.121   1.921   5.326
 2059SOL    HW1 7076   2.171   1.840   5.357
 2059SOL    HW2 7077   2.063   1.896   5.249
 2060SOL     OW 7078   2.024   2.335   6.349
 2060SOL    HW1 7079   2.066   2.394   6.418
 2060SOL    HW2 7080   2.089   2.263   6.323
 2061SOL     OW 7081   2.118   2.078   3.143
 2061SOL    HW1 7082   2.022   2.066   3.166
 2061SOL    HW2 7083   2.140   2.175   3.139
 2062SOL     OW 7084   6.179   4.958   4.238
 2062SOL    HW1 7085   6.132   5.030   4.187
 2062SOL    HW2 7086   6.271   4.989   4.262
 2063SOL     OW 7087   0.825   2.392   4.082
 2063SOL    HW1 7088   0.917   2.377   4.119
 2063SOL    HW2 7089   0.790   2.479   4.115
 2064SOL     OW 7090   0.741   3.788   4.376
 2064SOL    HW1 7091   0.661   3.728   4.371
 2064SOL    HW2 7092   0.760   3.809   4.472
 2065SOL     OW 7093   3.970   3.549   5.876
 2065SOL    HW1 7094   3.972   3.451   5.895
 2065SOL    HW2 7095   3.880   3.575   5.842
 2066SOL     OW 7096   1.180   3.151   4.990
 2066SOL    HW1 7097   1.174   3.077   4.923
 2066SOL    HW2 7098   1.115   3.223   4.967
 2067SOL     OW 7099   6.437   4.551   1.768
 2067SOL    HW1 7100   6.468   4.542   1.862
 2067SOL    HW2 7101   6.344   4.588   1.766
 2068SOL     OW 7102   4.446   6.675   4.137
 2068SOL    HW1 7103   4.510   6.741   4.179
 2068SOL    HW2 7104   4.479   6.582   4.154
 2069SOL     OW 7105   6.887   1.135   3.670
 2069SOL    HW1 7106   6.928   1.044   3.665
 2069SOL    HW2 7107   6.923   1.192   3.596
 2070SOL     OW 7108   1.636   5.340   1.258
 2070SOL    HW1 7109   1.543   5.307   1.243
 2070SOL    HW2 7110   1.698   5.297   1.192
 2071SOL     OW 7111   0.026   2.535   5.078
 2071SOL    HW1 7112   7.010   2.541   4.987
 2071SOL    HW2 7113   6.986   2.564   5.147
 2072SOL     OW 7114   5.593   4.211   5.370
 2072SOL    HW1 7115   5.546   4.165   5.445
 2072SOL    HW2 7116   5.582   4.158   5.286
 2073SOL     OW 7117   3.570   5.378   6.477
 2073SOL    HW1 7118   3.519   5.461   6.499
 2073SOL    HW2 7119   3.564   5.314   6.554
 2074SOL     OW 7120   2.557   4.651   5.947
 2074SOL    HW1 7121   2.551   4.736   6.000
 2074SOL    HW2 7122   2.486   4.588   5.977
 2075SOL     OW 7123   6.225   2.466   1.529
 2075SOL    HW1 7124   6.325   2.475   1.523
 2075SOL    HW2 7125   6.186   2.462   1.437
 2076SOL     OW 7126   6.801   6.735   4.586
 2076SOL    HW1 7127   6.847   6.696   4.667
 2076SOL    HW2 7128   6.807   6.834   4.589
 2077SOL     OW 7129   6.271   4.456   0.353
 2077SOL    HW1 7130   6.316   4.413   0.431
 2077SOL    HW2 7131   6.264   4.554   0.369
 2078SOL     OW 7132   0.909   3.025   6.195
 2078SOL    HW1 7133   0.881   2.959   6.265
 2078SOL    HW2 7134   1.007   3.042   6.202
 2079SOL     OW 7135   5.472   1.167   3.072
 2079SOL    HW1 7136   5.415   1.245   3.047
 2079SOL    HW2 7137   5.439   1.127   3.157
 2080SOL     OW 7138   2.366   3.312   6.631
 2080SOL    HW1 7139   2.350   3.391   6.691
 2080SOL    HW2 7140   2.461   3.282   6.640
 2081SOL     OW 7141   6.735   6.295   2.162
 2081SOL    HW1 7142   6.682   6.352   2.225
 2081SOL    HW2 7143   6.802   6.352   2.114
 2082SOL     OW 7144   6.708   5.701   4.043
 2082SOL    HW1 7145   6.695   5.720   3.946
 2082SOL    HW2 7146   6.792   5.650   4.057
 2083SOL     OW 7147   0.336   6.463   4.054
 2083SOL    HW1 7148   0.318   6.386   3.994
 2083SOL    HW2 7149   0.316   6.548   4.006
 2084SOL     OW 7150   0.070   2.066   0.976
 2084SOL    HW1 7151   7.015   2.125   0.969
 2084SOL    HW2 7152   0.066   1.995   0.906
 2085SOL     OW 7153   6.667   6.142   0.522
 2085SOL    HW1 7154   6.631   6.205   0.454
 2085SOL    HW2 7155   6.613   6.058   0.523
 2086SOL     OW 7156   5.255   0.519   6.851
 2086SOL    HW1 7157   5.324   0.527   6.779
 2086SOL    HW2 7158   5.200   0.436   6.836
 2087SOL     OW 7159   4.105   1.635   6.745
 2087SOL    HW1 7160   4.030   1.700   6.759
 2087SOL    HW2 7161   4.068   1.546   6.721
 2088SOL     OW 7162   6.939   4.614   5.963
 2088SOL    HW1 7163   6.952   4.665   5.878
 2088SOL    HW2 7164   6.870   4.660   6.018
 2089SOL     OW 7165   2.723   4.096   6.132
 2089SOL    HW1 7166   2.781   4.039   6.073
 2089SOL    HW2 7167   2.778   4.131   6.208
 2090SOL     OW 7168   5.223   3.040   0.054
 2090SOL    HW1 7169   5.268   2.986   7.008
 2090SOL    HW2 7170   5.288   3.059   0.127
 2091SOL     OW 7171   5.375   6.385   0.670
 2091SOL    HW1 7172   5.411   6.473   0.701
 2091SOL    HW2 7173   5.376   6.320   0.746
 2092SOL     OW 7174   3.422   3.467   2.175
 2092SOL    HW1 7175   3.392   3.481   2.080
 2092SOL    HW2 7176   3.521   3.453   2.177
 2093SOL     OW 7177   4.476   0.587   1.136
 2093SOL    HW1 7178   4.470   0.490   1.160
 2093SOL    HW2 7179   4.391   0.633   1.160
 2094SOL     OW 7180   5.503   2.307   0.298
 2094SOL    HW1 7181   5.501   2.220   0.347
 2094SOL    HW2 7182   5.499   2.382   0.364
 2095SOL     OW 7183   5.292   5.234   4.644
 2095SOL    HW1 7184   5.284   5.332   4.660
 2095SOL    HW2 7185   5.376   5.215   4.593
 2096SOL     OW 7186   3.901   6.909   2.424
 2096SOL    HW1 7187   3.927   6.936   2.331
 2096SOL    HW2 7188   3.919   6.985   2.487
 2097SOL     OW 7189   0.752   5.636   5.978
 2097SOL    HW1 7190   0.789   5.648   6.070
 2097SOL    HW2 7191   0.738   5.726   5.936
 2098SOL     OW 7192   2.549   6.709   3.838
 2098SOL    HW1 7193   2.574   6.659   3.755
 2098SOL    HW2 7194   2.460   6.753   3.825
 2099SOL     OW 7195   4.076   1.841   7.023
 2099SOL    HW1 7196   4.144   1.773   0.026
 2099SOL    HW2 7197   4.084   1.922   0.056
 2100SOL     OW 7198   4.486   0.496   0.050
 2100SOL    HW1 7199   4.488   0.401   0.018
 2100SOL    HW2 7200   4.421   0.504   0.126
 2101SOL     OW 7201   1.651   0.186   2.698
 2101SOL    HW1 7202   1.647   0.282   2.725
 2101SOL    HW2 7203   1.664   0.180   2.599
 2102SOL     OW 7204   4.093   2.482   1.562
 2102SOL    HW1 7205   4.139   2.567   1.587
 2102SOL    HW2 7206   4.084   2.424   1.644
 2103SOL     OW 7207   1.200   6.917   0.648
 2103SOL    HW1 7208   1.109   6.918   0.608
 2103SOL    HW2 7209   1.245   6.830   0.627
 2104SOL     OW 7210   1.941   3.725   2.982
 2104SOL    HW1 7211   1.854   3.703   2.938
 2104SOL    HW2 7212   2.014   3.728   2.914
 2105SOL     OW 7213   5.564   0.339   4.897
 2105SOL    HW1 7214   5.617   0.269   4.849
 2105SOL    HW2 7215   5.590   0.429   4.863
 2106SOL     OW 7216   3.794   2.823   1.457
 2106SOL    HW1 7217   3.706   2.850   1.496
 2106SOL    HW2 7218   3.811   2.726   1.476
 2107SOL     OW 7219   5.121   4.460   4.796
 2107SOL    HW1 7220   5.133   4.559   4.801
 2107SOL    HW2 7221   5.033   4.440   4.753
 2108SOL     OW 7222   5.113   6.876   4.875
 2108SOL    HW1 7223   5.015   6.868   4.859
 2108SOL    HW2 7224   5.155   6.934   4.805
 2109SOL     OW 7225   2.869   5.977   1.790
 2109SOL    HW1 7226   2.909   6.052   1.842
 2109SOL    HW2 7227   2.938   5.905   1.777
 2110SOL     OW 7228   3.596   5.837   0.226
 2110SOL    HW1 7229   3.640   5.749   0.211
 2110SOL    HW2 7230   3.513   5.842   0.170
 2111SOL     OW 7231   1.335   2.404   6.137
 2111SOL    HW1 7232   1.406   2.354   6.087
 2111SOL    HW2 7233   1.367   2.424   6.229
 2112SOL     OW 7234   0.994   0.023   6.647
 2112SOL    HW1 7235   1.082   0.063   6.621
 2112SOL    HW2 7236   1.006   6.991   6.728
 2113SOL     OW 7237   6.604   1.632   5.307
 2113SOL    HW1 7238   6.563   1.718   5.279
 2113SOL    HW2 7239   6.577   1.610   5.401
 2114SOL     OW 7240   1.934   0.849   5.355
 2114SOL    HW1 7241   1.967   0.842   5.261
 2114SOL    HW2 7242   1.883   0.766   5.379
 2115SOL     OW 7243   6.863   6.273   3.324
 2115SOL    HW1 7244   6.832   6.222   3.243
 2115SOL    HW2 7245   6.962   6.271   3.329
 2116SOL     OW 7246   1.971   1.321   0.028
 2116SOL    HW1 7247   1.902   1.387   7.024
 2116SOL    HW2 7248   1.966   1.310   0.127
 2117SOL     OW 7249   6.427   2.484   2.893
 2117SOL    HW1 7250   6.372   2.431   2.828
 2117SOL    HW2 7251   6.368   2.518   2.966
 2118SOL     OW 7252   0.126   2.888   2.570
 2118SOL    HW1 7253   0.039   2.922   2.606
 2118SOL    HW2 7254   0.199   2.954   2.590
 2119SOL     OW 7255   0.324   2.916   0.279
 2119SOL    HW1 7256   0.243   2.874   0.237
 2119SOL    HW2 7257   0.394   2.931   0.209
 2120SOL     OW 7258   5.480   2.057   0.656
 2120SOL    HW1 7259   5.403   2.121   0.660
 2120SOL    HW2 7260   5.525   2.064   0.567
 2121SOL     OW 7261   2.031   6.651   1.169
 2121SOL    HW1 7262   2.108   6.586   1.168
 2121SOL    HW2 7263   1.950   6.605   1.206
 2122SOL     OW 7264   6.493   0.920   4.732
 2122SOL    HW1 7265   6.528   0.884   4.645
 2122SOL    HW2 7266   6.395   0.905   4.737
 2123SOL     OW 7267   1.029   5.417   3.220
 2123SOL    HW1 7268   1.106   5.374   3.268
 2123SOL    HW2 7269   1.063   5.495   3.168
 2124SOL     OW 7270   4.659   3.464   6.409
 2124SOL    HW1 7271   4.733   3.436   6.347
 2124SOL    HW2 7272   4.573   3.467   6.358
 2125SOL     OW 7273   1.120   5.572   4.470
 2125SOL    HW1 7274   1.192   5.633   4.438
 2125SOL    HW2 7275   1.147   5.477   4.453
 2126SOL     OW 7276   2.809   3.468   0.388
 2126SOL    HW1 7277   2.800   3.561   0.425
 2126SOL    HW2 7278   2.831   3.405   0.462
 2127SOL     OW 7279   1.201   3.554   3.886
 2127SOL    HW1 7280   1.208   3.563   3.985
 2127SOL    HW2 7281   1.140   3.478   3.864
 2128SOL     OW 7282   5.535   3.192   2.375
 2128SOL    HW1 7283   5.532   3.105   2.326
 2128SOL    HW2 7284   5.453   3.201   2.432
 2129SOL     OW 7285   4.893   4.368   3.982
 2129SOL    HW1 7286   4.872   4.294   4.046
 2129SOL    HW2 7287   4.809   4.414   3.955
 2130SOL     OW 7288   1.747   0.628   1.621
 2130SOL    HW1 7289   1.678   0.565   1.586
 2130SOL    HW2 7290   1.718   0.662   1.711
 2131SOL     OW 7291   5.909   0.636   6.251
 2131SOL    HW1 7292   5.815   0.668   6.262
 2131SOL    HW2 7293   5.961   0.704   6.201
 2132SOL     OW 7294   2.673   2.551   0.047
 2132SOL    HW1 7295   2.757   2.508   0.016
 2132SOL    HW2 7296   2.634   2.605   6.997
 2133SOL     OW 7297   3.693   1.923   1.197
 2133SOL    HW1 7298   3.744   1.973   1.267
 2133SOL    HW2 7299   3.595   1.925   1.219
 2134SOL     OW 7300   1.616   6.617   5.347
 2134SOL    HW1 7301   1.714   6.595   5.349
 2134SOL    HW2 7302   1.595   6.684   5.417
 2135SOL     OW 7303   1.018   6.126   4.212
 2135SOL    HW1 7304   0.920   6.106   4.205
 2135SOL    HW2 7305   1.033   6.224   4.197
 2136SOL     OW 7306   1.286   4.725   4.124
 2136SOL    HW1 7307   1.345   4.701   4.047
 2136SOL    HW2 7308   1.341   4.735   4.206
 2137SOL     OW 7309   0.198   0.591   3.889
 2137SOL    HW1 7310   0.227   0.528   3.817
 2137SOL    HW2 7311   0.098   0.595   3.891
 2138SOL     OW 7312   1.053   2.376   5.829
 2138SOL    HW1 7313   1.023   2.471   5.816
 2138SOL    HW2 7314   1.111   2.370   5.909
 2139SOL     OW 7315   2.977   7.012   4.101
 2139SOL    HW1 7316   3.041   0.040   4.156
 2139SOL    HW2 7317   2.908   6.971   4.161
 2140SOL     OW 7318   1.146   5.748   3.839
 2140SOL    HW1 7319   1.049   5.755   3.817
 2140SOL    HW2 7320   1.190   5.836   3.823
 2141SOL     OW 7321   6.283   2.231   6.745
 2141SOL    HW1 7322   6.213   2.185   6.800
 2141SOL    HW2 7323   6.373   2.215   6.785
 2142SOL     OW 7324   3.572   1.013   3.463
 2142SOL    HW1 7325   3.602   0.958   3.542
 2142SOL    HW2 7326   3.506   0.962   3.410
 2143SOL     OW 7327   3.754   6.040   0.111
 2143SOL    HW1 7328   3.706   6.124   0.136
 2143SOL    HW2 7329   3.710   5.962   0.157
 2144SOL     OW 7330   1.098   0.839   1.782
 2144SOL    HW1 7331   1.075   0.930   1.817
 2144SOL    HW2 7332   1.192   0.839   1.749
 2145SOL     OW 7333   2.617   5.577   2.578
 2145SOL    HW1 7334   2.523   5.595   2.547
 2145SOL    HW2 7335   2.675   5.654   2.553
 2146SOL     OW 7336   2.593   1.881   1.272
 2146SOL    HW1 7337   2.646   1.961   1.303
 2146SOL    HW2 7338   2.511   1.913   1.226
 2147SOL     OW 7339   0.080   1.059   4.407
 2147SOL    HW1 7340   0.156   1.039   4.469
 2147SOL    HW2 7341   0.033   1.142   4.438
 2148SOL     OW 7342   5.938   3.732   4.488
 2148SOL    HW1 7343   6.037   3.749   4.496
 2148SOL    HW2 7344   5.912   3.659   4.552
 2149SOL     OW 7345   2.975   0.399   3.183
 2149SOL    HW1 7346   3.016   0.422   3.095
 2149SOL    HW2 7347   2.876   0.388   3.171
 2150SOL     OW 7348   4.466   0.065   3.230
 2150SOL    HW1 7349   4.564   0.060   3.251
 2150SOL    HW2 7350   4.414   0.030   3.308
 2151SOL     OW 7351   3.819   4.461   5.665
 2151SOL    HW1 7352   3.736   4.516   5.674
 2151SOL    HW2 7353   3.874   4.468   5.748
 2152SOL     OW 7354   6.714   6.586   2.361
 2152SOL    HW1 7355   6.630   6.575   2.309
 2152SOL    HW2 7356   6.777   6.511   2.340
 2153SOL     OW 7357   4.590   1.764   3.551
 2153SOL    HW1 7358   4.558   1.835   3.489
 2153SOL    HW2 7359   4.685   1.784   3.577
 2154SOL     OW 7360   4.012   6.504   5.169
 2154SOL    HW1 7361   3.934   6.546   5.122
 2154SOL    HW2 7362   4.061   6.573   5.222
 2155SOL     OW 7363   6.299   3.748   6.563
 2155SOL    HW1 7364   6.207   3.786   6.559
 2155SOL    HW2 7365   6.333   3.752   6.657
 2156SOL     OW 7366   6.957   0.651   1.702
 2156SOL    HW1 7367   7.011   0.592   1.642
 2156SOL    HW2 7368   6.873   0.605   1.729
 2157SOL     OW 7369   6.356   0.825   3.968
 2157SOL    HW1 7370   6.307   0.896   3.918
 2157SOL    HW2 7371   6.343   0.837   4.066
 2158SOL     OW 7372   5.069   0.160   3.752
 2158SOL    HW1 7373   5.001   0.095   3.786
 2158SOL    HW2 7374   5.029   0.251   3.746
 2159SOL     OW 7375   2.264   0.680   5.183
 2159SOL    HW1 7376   2.291   0.622   5.260
 2159SOL    HW2 7377   2.235   0.623   5.106
 2160SOL     OW 7378   2.803   2.616   0.677
 2160SOL    HW1 7379   2.887   2.575   0.641
 2160SOL    HW2 7380   2.775   2.693   0.619
 2161SOL     OW 7381   5.252   2.361   4.052
 2161SOL    HW1 7382   5.199   2.431   4.003
 2161SOL    HW2 7383   5.193   2.313   4.116
 2162SOL     OW 7384   1.879   1.192   1.285
 2162SOL    HW1 7385   1.979   1.194   1.276
 2162SOL    HW2 7386   1.838   1.219   1.198
 2163SOL     OW 7387   2.438   1.483   1.060
 2163SOL    HW1 7388   2.417   1.395   1.102
 2163SOL    HW2 7389   2.379   1.553   1.099
 2164SOL     OW 7390   6.809   0.355   1.205
 2164SOL    HW1 7391   6.852   0.445   1.213
 2164SOL    HW2 7392   6.727   0.351   1.262
 2165SOL     OW 7393   3.151   6.944   1.933
 2165SOL    HW1 7394   3.244   6.977   1.919
 2165SOL    HW2 7395   3.152   6.846   1.950
 2166SOL     OW 7396   5.698   2.508   6.101
 2166SOL    HW1 7397   5.792   2.537   6.120
 2166SOL    HW2 7398   5.693   2.469   6.009
 2167SOL     OW 7399   3.280   0.974   1.366
 2167SOL    HW1 7400   3.353   1.027   1.321
 2167SOL    HW2 7401   3.208   1.037   1.396
 2168SOL     OW 7402   5.926   6.584   4.504
 2168SOL    HW1 7403   5.997   6.548   4.444
 2168SOL    HW2 7404   5.888   6.510   4.560
 2169SOL     OW 7405   5.515   1.220   6.094
 2169SOL    HW1 7406   5.472   1.309   6.081
 2169SOL    HW2 7407   5.599   1.214   6.041
 2170SOL     OW 7408   5.358   4.711   4.622
 2170SOL    HW1 7409   5.443   4.726   4.572
 2170SOL    HW2 7410   5.287   4.681   4.559
 2171SOL     OW 7411   6.843   3.529   0.414
 2171SOL    HW1 7412   6.747   3.518   0.440
 2171SOL    HW2 7413   6.859   3.622   0.382
 2172SOL     OW 7414   2.309   0.401   1.980
 2172SOL    HW1 7415   2.273   0.392   1.887
 2172SOL    HW2 7416   2.326   0.498   2.001
 2173SOL     OW 7417   4.672   2.409   4.660
 2173SOL    HW1 7418   4.748   2.409   4.726
 2173SOL    HW2 7419   4.586   2.425   4.709
 2174SOL     OW 7420   1.156   5.260   4.850
 2174SOL    HW1 7421   1.118   5.168   4.861
 2174SOL    HW2 7422   1.230   5.258   4.782
 2175SOL     OW 7423   1.774   6.047   5.622
 2175SOL    HW1 7424   1.848   5.994   5.581
 2175SOL    HW2 7425   1.795   6.145   5.613
 2176SOL     OW 7426   1.680   2.431   2.790
 2176SOL    HW1 7427   1.652   2.337   2.808
 2176SOL    HW2 7428   1.780   2.435   2.780
 2177SOL     OW 7429   1.072   2.021   1.040
 2177SOL    HW1 7430   0.988   1.983   1.001
 2177SOL    HW2 7431   1.050   2.074   1.122
 2178SOL     OW 7432   6.303   6.503   1.159
 2178SOL    HW1 7433   6.273   6.490   1.254
 2178SOL    HW2 7434   6.402   6.508   1.156
 2179SOL     OW 7435   1.282   4.171   4.211
 2179SOL    HW1 7436   1.340   4.169   4.293
 2179SOL    HW2 7437   1.291   4.260   4.166
 2180SOL     OW 7438   3.466   2.597   1.599
 2180SOL    HW1 7439   3.390   2.661   1.607
 2180SOL    HW2 7440   3.437   2.507   1.631
 2181SOL     OW 7441   3.277   6.515   1.131
 2181SOL    HW1 7442   3.240   6.603   1.161
 2181SOL    HW2 7443   3.350   6.531   1.065
 2182SOL     OW 7444   4.769   2.680   1.176
 2182SOL    HW1 7445   4.863   2.659   1.202
 2182SOL    HW2 7446   4.757   2.779   1.169
 2183SOL     OW 7447   3.205   1.957   0.741
 2183SOL    HW1 7448   3.226   1.908   0.656
 2183SOL    HW2 7449   3.180   2.051   0.720
 2184SOL     OW 7450   5.014   3.442   6.556
 2184SOL    HW1 7451   4.971   3.361   6.596
 2184SOL    HW2 7452   5.016   3.432   6.457
 2185SOL     OW 7453   6.858   6.836   1.962
 2185SOL    HW1 7454   6.912   6.885   1.893
 2185SOL    HW2 7455   6.905   6.838   2.049
 2186SOL     OW 7456   0.561   4.493   3.418
 2186SOL    HW1 7457   0.633   4.563   3.424
 2186SOL    HW2 7458   0.545   4.470   3.322
 2187SOL     OW 7459   6.440   1.313   0.253
 2187SOL    HW1 7460   6.537   1.319   0.230
 2187SOL    HW2 7461   6.399   1.236   0.203
 2188SOL     OW 7462   4.666   1.204   3.853
 2188SOL    HW1 7463   4.648   1.224   3.757
 2188SOL    HW2 7464   4.756   1.238   3.878
 2189SOL     OW 7465   2.899   0.130   6.757
 2189SOL    HW1 7466   2.858   0.182   6.683
 2189SOL    HW2 7467   2.899   0.033   6.734
 2190SOL     OW 7468   5.038   3.051   0.937
 2190SOL    HW1 7469   4.978   3.126   0.963
 2190SOL    HW2 7470   5.033   3.035   0.839
 2191SOL     OW 7471   2.530   1.872   0.342
 2191SOL    HW1 7472   2.493   1.856   0.250
 2191SOL    HW2 7473   2.459   1.857   0.410
 2192SOL     OW 7474   4.044   5.434   2.625
 2192SOL    HW1 7475   3.959   5.486   2.619
 2192SOL    HW2 7476   4.032   5.345   2.581
 2193SOL     OW 7477   6.605   6.075   4.688
 2193SOL    HW1 7478   6.586   6.135   4.611
 2193SOL    HW2 7479   6.610   5.981   4.657
 2194SOL     OW 7480   2.902   0.054   2.041
 2194SOL    HW1 7481   2.998   0.032   2.026
 2194SOL    HW2 7482   2.850   0.034   1.958
 2195SOL     OW 7483   0.909   4.648   2.030
 2195SOL    HW1 7484   0.881   4.616   1.939
 2195SOL    HW2 7485   0.831   4.692   2.074
 2196SOL     OW 7486   4.227   3.228   0.594
 2196SOL    HW1 7487   4.171   3.239   0.512
 2196SOL    HW2 7488   4.214   3.137   0.632
 2197SOL     OW 7489   4.366   4.004   6.867
 2197SOL    HW1 7490   4.401   4.094   6.895
 2197SOL    HW2 7491   4.284   3.982   6.920
 2198SOL     OW 7492   6.441   4.585   0.610
 2198SOL    HW1 7493   6.376   4.633   0.669
 2198SOL    HW2 7494   6.425   4.487   0.616
 2199SOL     OW 7495   4.462   1.037   3.105
 2199SOL    HW1 7496   4.473   0.947   3.063
 2199SOL    HW2 7497   4.484   1.108   3.038
 2200SOL     OW 7498   2.865   6.849   4.315
 2200SOL    HW1 7499   2.882   6.882   4.407
 2200SOL    HW2 7500   2.911   6.761   4.302
 2201SOL     OW 7501   4.690   4.229   4.336
 2201SOL    HW1 7502   4.619   4.261   4.272
 2201SOL    HW2 7503   4.713   4.303   4.399
 2202SOL     OW 7504   4.672   5.559   3.788
 2202SOL    HW1 7505   4.674   5.485   3.720
 2202SOL    HW2 7506   4.672   5.519   3.880
 2203SOL     OW 7507   3.081   2.066   2.578
 2203SOL    HW1 7508   3.080   2.122   2.496
 2203SOL    HW2 7509   3.119   2.119   2.654
 2204SOL     OW 7510   2.706   2.327   0.383
 2204SOL    HW1 7511   2.635   2.275   0.337
 2204SOL    HW2 7512   2.681   2.341   0.479
 2205SOL     OW 7513   2.791   0.900   1.889
 2205SOL    HW1 7514   2.703   0.853   1.896
 2205SOL    HW2 7515   2.866   0.833   1.895
 2206SOL     OW 7516   1.597   3.115   0.369
 2206SOL    HW1 7517   1.498   3.123   0.360
 2206SOL    HW2 7518   1.641   3.141   0.283
 2207SOL     OW 7519   7.003   4.730   4.969
 2207SOL    HW1 7520   6.960   4.708   5.056
 2207SOL    HW2 7521   6.975   4.822   4.940
 2208SOL     OW 7522   6.703   4.850   2.261
 2208SOL    HW1 7523   6.755   4.844   2.346
 2208SOL    HW2 7524   6.653   4.936   2.259
 2209SOL     OW 7525   0.685   6.996   1.699
 2209SOL    HW1 7526   0.768   6.985   1.644
 2209SOL    HW2 7527   0.610   6.946   1.657
 2210SOL     OW 7528   2.162   5.290   3.633
 2210SOL    HW1 7529   2.078   5.246   3.665
 2210SOL    HW2 7530   2.213   5.226   3.575
 2211SOL     OW 7531   6.747   1.774   4.890
 2211SOL    HW1 7532   6.836   1.742   4.922
 2211SOL    HW2 7533   6.681   1.699   4.891
 2212SOL     OW 7534   1.902   6.648   6.237
 2212SOL    HW1 7535   1.924   6.707   6.159
 2212SOL    HW2 7536   1.952   6.562   6.230
 2213SOL     OW 7537   3.795   0.777   3.259
 2213SOL    HW1 7538   3.739   0.730   3.327
 2213SOL    HW2 7539   3.736   0.828   3.196
 2214SOL     OW 7540   4.116   0.067   5.246
 2214SOL    HW1 7541   4.096   0.066   5.148
 2214SOL    HW2 7542   4.033   0.089   5.296
 2215SOL     OW 7543   5.733   2.202   5.386
 2215SOL    HW1 7544   5.645   2.249   5.389
 2215SOL    HW2 7545   5.803   2.260   5.427
 2216SOL     OW 7546   3.113   1.005   2.402
 2216SOL    HW1 7547   3.172   0.934   2.441
 2216SOL    HW2 7548   3.166   1.090   2.392
 2217SOL     OW 7549   4.335   1.010   2.025
 2217SOL    HW1 7550   4.397   0.932   2.014
 2217SOL    HW2 7551   4.241   0.977   2.032
 2218SOL     OW 7552   0.838   0.542   2.804
 2218SOL    HW1 7553   0.785   0.603   2.864
 2218SOL    HW2 7554   0.931   0.577   2.795
 2219SOL     OW 7555   1.401   1.771   2.488
 2219SOL    HW1 7556   1.396   1.861   2.530
 2219SOL    HW2 7557   1.309   1.743   2.458
 2220SOL     OW 7558   0.893   0.665   1.837
 2220SOL    HW1 7559   0.896   0.616   1.924
 2220SOL    HW2 7560   0.953   0.746   1.842
 2221SOL     OW 7561   0.287   0.611   6.034
 2221SOL    HW1 7562   0.307   0.551   6.112
 2221SOL    HW2 7563   0.223   0.683   6.063
 2222SOL     OW 7564   6.573   5.417   3.386
 2222SOL    HW1 7565   6.565   5.472   3.303
 2222SOL    HW2 7566   6.560   5.475   3.466
 2223SOL     OW 7567   6.788   6.597   1.482
 2223SOL    HW1 7568   6.776   6.513   1.534
 2223SOL    HW2 7569   6.761   6.676   1.538
 2224SOL     OW 7570   1.015   5.062   0.958
 2224SOL    HW1 7571   0.938   5.107   0.912
 2224SOL    HW2 7572   1.043   5.116   1.037
 2225SOL     OW 7573   0.626   3.727   0.607
 2225SOL    HW1 7574   0.650   3.805   0.549
 2225SOL    HW2 7575   0.674   3.734   0.694
 2226SOL     OW 7576   3.653   3.890   2.632
 2226SOL    HW1 7577   3.719   3.856   2.699
 2226SOL    HW2 7578   3.632   3.986   2.652
 2227SOL     OW 7579   0.796   2.692   4.111
 2227SOL    HW1 7580   0.894   2.683   4.097
 2227SOL    HW2 7581   0.747   2.657   4.031
 2228SOL     OW 7582   2.755   4.715   3.926
 2228SOL    HW1 7583   2.848   4.750   3.932
 2228SOL    HW2 7584   2.729   4.673   4.012
 2229SOL     OW 7585   5.669   6.553   2.874
 2229SOL    HW1 7586   5.645   6.592   2.785
 2229SOL    HW2 7587   5.744   6.487   2.861
 2230SOL     OW 7588   2.701   5.151   1.737
 2230SOL    HW1 7589   2.612   5.196   1.745
 2230SOL    HW2 7590   2.774   5.217   1.753
 2231SOL     OW 7591   2.101   6.209   1.191
 2231SOL    HW1 7592   2.067   6.120   1.221
 2231SOL    HW2 7593   2.144   6.256   1.269
 2232SOL     OW 7594   5.589   2.712   3.779
 2232SOL    HW1 7595   5.628   2.793   3.735
 2232SOL    HW2 7596   5.639   2.692   3.863
 2233SOL     OW 7597   3.268   1.229   6.414
 2233SOL    HW1 7598   3.270   1.165   6.338
 2233SOL    HW2 7599   3.342   1.296   6.404
 2234SOL     OW 7600   3.637   2.303   0.976
 2234SOL    HW1 7601   3.611   2.254   1.059
 2234SOL    HW2 7602   3.575   2.278   0.902
 2235SOL     OW 7603   1.991   1.995   1.833
 2235SOL    HW1 7604   2.061   2.062   1.861
 2235SOL    HW2 7605   1.901   2.026   1.865
 2236SOL     OW 7606   1.420   4.857   5.448
 2236SOL    HW1 7607   1.490   4.851   5.377
 2236SOL    HW2 7608   1.334   4.890   5.407
 2237SOL     OW 7609   6.596   3.144   4.444
 2237SOL    HW1 7610   6.688   3.107   4.428
 2237SOL    HW2 7611   6.529   3.087   4.398
 2238SOL     OW 7612   6.042   6.669   0.569
 2238SOL    HW1 7613   6.043   6.721   0.484
 2238SOL    HW2 7614   5.950   6.673   0.609
 2239SOL     OW 7615   6.241   6.097   1.967
 2239SOL    HW1 7616   6.159   6.098   2.025
 2239SOL    HW2 7617   6.302   6.025   1.998
 2240SOL     OW 7618   6.298   3.814   1.984
 2240SOL    HW1 7619   6.359   3.841   2.059
 2240SOL    HW2 7620   6.349   3.812   1.898
 2241SOL     OW 7621   1.240   0.846   3.378
 2241SOL    HW1 7622   1.191   0.800   3.452
 2241SOL    HW2 7623   1.266   0.779   3.309
 2242SOL     OW 7624   3.608   1.816   2.482
 2242SOL    HW1 7625   3.575   1.909   2.498
 2242SOL    HW2 7626   3.652   1.811   2.392
 2243SOL     OW 7627   2.754   0.022   5.107
 2243SOL    HW1 7628   2.806   7.017   5.026
 2243SOL    HW2 7629   2.656   0.021   5.085
 2244SOL     OW 7630   3.619   1.299   4.718
 2244SOL    HW1 7631   3.646   1.203   4.709
 2244SOL    HW2 7632   3.693   1.350   4.762
 2245SOL     OW 7633   0.343   2.314   1.918
 2245SOL    HW1 7634   0.377   2.229   1.878
 2245SOL    HW2 7635   0.267   2.294   1.979
 2246SOL     OW 7636   1.148   4.869   5.357
 2246SOL    HW1 7637   1.075   4.919   5.309
 2246SOL    HW2 7638   1.141   4.886   5.455
 2247SOL     OW 7639   1.495   1.168   4.799
 2247SOL    HW1 7640   1.564   1.208   4.739
 2247SOL    HW2 7641   1.539   1.126   4.878
 2248SOL     OW 7642   4.173   3.965   5.599
 2248SOL    HW1 7643   4.081   3.956   5.638
 2248SOL    HW2 7644   4.229   3.886   5.624
 2249SOL     OW 7645   4.223   5.533   5.571
 2249SOL    HW1 7646   4.175   5.539   5.659
 2249SOL    HW2 7647   4.311   5.488   5.585
 2250SOL     OW 7648   4.569   4.744   1.253
 2250SOL    HW1 7649   4.648   4.729   1.313
 2250SOL    HW2 7650   4.542   4.840   1.257
 2251SOL     OW 7651   0.185   0.511   6.478
 2251SOL    HW1 7652   0.175   0.601   6.434
 2251SOL    HW2 7653   0.239   0.521   6.561
 2252SOL     OW 7654   3.111   0.477   6.135
 2252SOL    HW1 7655   3.192   0.466   6.193
 2252SOL    HW2 7656   3.132   0.540   6.060
 2253SOL     OW 7657   1.113   3.988   6.688
 2253SOL    HW1 7658   1.115   3.962   6.785
 2253SOL    HW2 7659   1.018   3.988   6.656
 2254SOL     OW 7660   1.785   4.616   6.446
 2254SOL    HW1 7661   1.712   4.548   6.451
 2254SOL    HW2 7662   1.757   4.699   6.495
 2255SOL     OW 7663   6.419   3.429   6.715
 2255SOL    HW1 7664   6.427   3.490   6.794
 2255SOL    HW2 7665   6.323   3.425   6.686
 2256SOL     OW 7666   2.574   4.615   2.153
 2256SOL    HW1 7667   2.632   4.659   2.221
 2256SOL    HW2 7668   2.627   4.598   2.070
 2257SOL     OW 7669   1.775   3.858   4.992
 2257SOL    HW1 7670   1.842   3.830   4.922
 2257SOL    HW2 7671   1.822   3.873   5.078
 2258SOL     OW 7672   2.339   5.284   4.993
 2258SOL    HW1 7673   2.239   5.294   4.989
 2258SOL    HW2 7674   2.363   5.189   4.973
 2259SOL     OW 7675   5.952   3.208   6.478
 2259SOL    HW1 7676   6.033   3.266   6.463
 2259SOL    HW2 7677   5.982   3.117   6.507
 2260SOL     OW 7678   4.245   2.938   0.997
 2260SOL    HW1 7679   4.339   2.940   1.031
 2260SOL    HW2 7680   4.198   2.858   1.034
 2261SOL     OW 7681   2.895   6.260   4.967
 2261SOL    HW1 7682   2.836   6.191   5.008
 2261SOL    HW2 7683   2.878   6.264   4.869
 2262SOL     OW 7684   3.801   1.614   2.984
 2262SOL    HW1 7685   3.857   1.696   2.970
 2262SOL    HW2 7686   3.807   1.585   3.080
 2263SOL     OW 7687   0.980   4.335   6.023
 2263SOL    HW1 7688   1.037   4.343   6.105
 2263SOL    HW2 7689   0.902   4.276   6.042
 2264SOL     OW 7690   3.191   3.585   3.633
 2264SOL    HW1 7691   3.109   3.614   3.683
 2264SOL    HW2 7692   3.187   3.622   3.540
 2265SOL     OW 7693   0.236   6.870   3.410
 2265SOL    HW1 7694   0.159   6.820   3.369
 2265SOL    HW2 7695   0.318   6.814   3.406
 2266SOL     OW 7696   6.272   0.575   6.069
 2266SOL    HW1 7697   6.334   0.500   6.048
 2266SOL    HW2 7698   6.207   0.586   5.994
 2267SOL     OW 7699   5.348   1.991   5.037
 2267SOL    HW1 7700   5.394   1.947   5.113
 2267SOL    HW2 7701   5.340   2.089   5.054
 2268SOL     OW 7702   6.895   5.652   6.686
 2268SOL    HW1 7703   6.926   5.747   6.687
 2268SOL    HW2 7704   6.803   5.647   6.648
 2269SOL     OW 7705   0.144   6.971   2.923
 2269SOL    HW1 7706   0.071   6.977   2.991
 2269SOL    HW2 7707   0.222   6.922   2.962
 2270SOL     OW 7708   3.528   2.981   3.423
 2270SOL    HW1 7709   3.575   3.069   3.429
 2270SOL    HW2 7710   3.557   2.933   3.340
 2271SOL     OW 7711   1.191   4.666   3.407
 2271SOL    HW1 7712   1.276   4.701   3.368
 2271SOL    HW2 7713   1.212   4.599   3.478
 2272SOL     OW 7714   5.096   1.289   5.872
 2272SOL    HW1 7715   5.043   1.282   5.957
 2272SOL    HW2 7716   5.055   1.230   5.803
 2273SOL     OW 7717   0.465   0.939   2.792
 2273SOL    HW1 7718   0.521   0.992   2.728
 2273SOL    HW2 7719   0.456   0.990   2.878
 2274SOL     OW 7720   1.153   4.511   3.640
 2274SOL    HW1 7721   1.180   4.423   3.678
 2274SOL    HW2 7722   1.069   4.542   3.685
 2275SOL     OW 7723   4.758   6.278   3.870
 2275SOL    HW1 7724   4.821   6.254   3.944
 2275SOL    HW2 7725   4.672   6.310   3.910
 2276SOL     OW 7726   3.555   5.816   2.305
 2276SOL    HW1 7727   3.531   5.910   2.329
 2276SOL    HW2 7728   3.553   5.806   2.206
 2277SOL     OW 7729   3.409   3.300   1.395
 2277SOL    HW1 7730   3.410   3.391   1.355
 2277SOL    HW2 7731   3.406   3.231   1.322
 2278SOL     OW 7732   4.146   5.936   1.773
 2278SOL    HW1 7733   4.224   5.992   1.743
 2278SOL    HW2 7734   4.084   5.922   1.695
 2279SOL     OW 7735   5.505   4.147   5.858
 2279SOL    HW1 7736   5.596   4.117   5.832
 2279SOL    HW2 7737   5.492   4.137   5.956
 2280SOL     OW 7738   5.291   0.402   5.969
 2280SOL    HW1 7739   5.319   0.404   5.873
 2280SOL    HW2 7740   5.372   0.403   6.027
 2281SOL     OW 7741   2.150   1.304   0.321
 2281SOL    HW1 7742   2.138   1.205   0.318
 2281SOL    HW2 7743   2.247   1.326   0.323
 2282SOL     OW 7744   3.850   5.976   2.466
 2282SOL    HW1 7745   3.913   5.911   2.424
 2282SOL    HW2 7746   3.807   6.031   2.394
 2283SOL     OW 7747   0.614   3.721   1.932
 2283SOL    HW1 7748   0.698   3.739   1.984
 2283SOL    HW2 7749   0.541   3.780   1.965
 2284SOL     OW 7750   2.024   2.176   2.117
 2284SOL    HW1 7751   2.090   2.140   2.050
 2284SOL    HW2 7752   1.932   2.165   2.081
 2285SOL     OW 7753   1.686   3.550   6.552
 2285SOL    HW1 7754   1.731   3.516   6.469
 2285SOL    HW2 7755   1.591   3.521   6.553
 2286SOL     OW 7756   6.721   6.559   4.382
 2286SOL    HW1 7757   6.763   6.619   4.449
 2286SOL    HW2 7758   6.766   6.570   4.293
 2287SOL     OW 7759   2.304   2.007   0.650
 2287SOL    HW1 7760   2.247   1.975   0.726
 2287SOL    HW2 7761   2.299   1.941   0.575
 2288SOL     OW 7762   2.508   5.672   4.680
 2288SOL    HW1 7763   2.593   5.629   4.712
 2288SOL    HW2 7764   2.441   5.673   4.754
 2289SOL     OW 7765   3.691   0.655   6.969
 2289SOL    HW1 7766   3.740   0.604   6.898
 2289SOL    HW2 7767   3.660   0.743   6.932
 2290SOL     OW 7768   3.133   4.027   4.433
 2290SOL    HW1 7769   3.187   4.056   4.353
 2290SOL    HW2 7770   3.171   4.070   4.515
 2291SOL     OW 7771   2.043   2.568   0.115
 2291SOL    HW1 7772   2.143   2.571   0.111
 2291SOL    HW2 7773   2.014   2.490   0.170
 2292SOL     OW 7774   4.832   1.889   3.306
 2292SOL    HW1 7775   4.817   1.969   3.364
 2292SOL    HW2 7776   4.744   1.856   3.271
 2293SOL     OW 7777   0.709   1.299   6.520
 2293SOL    HW1 7778   0.799   1.334   6.495
 2293SOL    HW2 7779   0.709   1.275   6.617
 2294SOL     OW 7780   6.825   1.495   4.983
 2294SOL    HW1 7781   6.758   1.525   5.051
 2294SOL    HW2 7782   6.886   1.428   5.025
 2295SOL     OW 7783   5.596   5.783   0.695
 2295SOL    HW1 7784   5.532   5.860   0.703
 2295SOL    HW2 7785   5.554   5.710   0.642
 2296SOL     OW 7786   3.707   5.649   4.650
 2296SOL    HW1 7787   3.756   5.653   4.562
 2296SOL    HW2 7788   3.766   5.605   4.718
 2297SOL     OW 7789   6.320   3.469   5.955
 2297SOL    HW1 7790   6.377   3.391   5.929
 2297SOL    HW2 7791   6.233   3.437   5.993
 2298SOL     OW 7792   2.585   3.338   5.319
 2298SOL    HW1 7793   2.501   3.391   5.308
 2298SOL    HW2 7794   2.564   3.240   5.311
 2299SOL     OW 7795   5.844   3.504   4.690
 2299SOL    HW1 7796   5.883   3.430   4.745
 2299SOL    HW2 7797   5.764   3.470   4.641
 2300SOL     OW 7798   5.332   0.161   2.904
 2300SOL    HW1 7799   5.333   0.208   2.815
 2300SOL    HW2 7800   5.426   0.148   2.936
 2301SOL     OW 7801   3.691   3.336   4.959
 2301SOL    HW1 7802   3.645   3.302   5.041
 2301SOL    HW2 7803   3.662   3.431   4.941
 2302SOL     OW 7804   6.333   3.163   6.087
 2302SOL    HW1 7805   6.253   3.219   6.066
 2302SOL    HW2 7806   6.357   3.174   6.184
 2303SOL     OW 7807   2.863   1.586   6.768
 2303SOL    HW1 7808   2.944   1.530   6.752
 2303SOL    HW2 7809   2.781   1.535   6.742
 2304SOL     OW 7810   6.539   0.106   2.311
 2304SOL    HW1 7811   6.531   0.008   2.291
 2304SOL    HW2 7812   6.627   0.123   2.356
 2305SOL     OW 7813   3.011   6.868   5.184
 2305SOL    HW1 7814   2.956   6.828   5.111
 2305SOL    HW2 7815   3.018   6.966   5.171
 2306SOL     OW 7816   1.954   4.664   4.947
 2306SOL    HW1 7817   1.918   4.633   4.859
 2306SOL    HW2 7818   2.030   4.605   4.973
 2307SOL     OW 7819   6.953   3.898   4.835
 2307SOL    HW1 7820   6.944   3.818   4.776
 2307SOL    HW2 7821   6.986   3.869   4.925
 2308SOL     OW 7822   0.628   5.499   2.290
 2308SOL    HW1 7823   0.644   5.598   2.297
 2308SOL    HW2 7824   0.701   5.451   2.339
 2309SOL     OW 7825   2.091   0.506   4.740
 2309SOL    HW1 7826   2.096   0.603   4.715
 2309SOL    HW2 7827   2.141   0.452   4.672
 2310SOL     OW 7828   4.276   0.050   0.272
 2310SOL    HW1 7829   4.319   0.074   0.358
 2310SOL    HW2 7830   4.184   0.090   0.268
 2311SOL     OW 7831   2.289   5.617   0.780
 2311SOL    HW1 7832   2.290   5.517   0.783
 2311SOL    HW2 7833   2.209   5.651   0.830
 2312SOL     OW 7834   3.673   4.977   2.874
 2312SOL    HW1 7835   3.691   5.070   2.906
 2312SOL    HW2 7836   3.743   4.915   2.909
 2313SOL     OW 7837   4.876   4.533   1.560
 2313SOL    HW1 7838   4.925   4.446   1.554
 2313SOL    HW2 7839   4.787   4.519   1.603
 2314SOL     OW 7840   2.543   4.529   3.603
 2314SOL    HW1 7841   2.560   4.540   3.701
 2314SOL    HW2 7842   2.605   4.589   3.552
 2315SOL     OW 7843   4.852   2.068   0.079
 2315SOL    HW1 7844   4.799   2.055   0.163
 2315SOL    HW2 7845   4.843   1.986   0.021
 2316SOL     OW 7846   5.098   3.486   2.253
 2316SOL    HW1 7847   5.042   3.458   2.331
 2316SOL    HW2 7848   5.191   3.506   2.284
 2317SOL     OW 7849   0.628   6.069   3.509
 2317SOL    HW1 7850   0.635   6.164   3.481
 2317SOL    HW2 7851   0.644   6.010   3.430
 2318SOL     OW 7852   0.263   1.580   3.942
 2318SOL    HW1 7853   0.243   1.491   3.901
 2318SOL    HW2 7854   0.195   1.647   3.911
 2319SOL     OW 7855   1.217   4.793   1.673
 2319SOL    HW1 7856   1.200   4.835   1.584
 2319SOL    HW2 7857   1.129   4.769   1.715
 2320SOL     OW 7858   6.507   4.768   4.739
 2320SOL    HW1 7859   6.470   4.854   4.703
 2320SOL    HW2 7860   6.436   4.698   4.737
 2321SOL     OW 7861   3.983   5.089   4.386
 2321SOL    HW1 7862   4.077   5.065   4.362
 2321SOL    HW2 7863   3.958   5.175   4.341
 2322SOL     OW 7864   2.695   0.738   4.432
 2322SOL    HW1 7865   2.713   0.651   4.479
 2322SOL    HW2 7866   2.692   0.723   4.333
 2323SOL     OW 7867   4.936   3.466   1.954
 2323SOL    HW1 7868   4.889   3.379   1.941
 2323SOL    HW2 7869   4.996   3.460   2.034
 2324SOL     OW 7870   0.629   4.940   4.092
 2324SOL    HW1 7871   0.631   5.030   4.048
 2324SOL    HW2 7872   0.608   4.951   4.189
 2325SOL     OW 7873   0.046   2.472   0.282
 2325SOL    HW1 7874   0.123   2.534   0.267
 2325SOL    HW2 7875   6.988   2.526   0.297
 2326SOL     OW 7876   0.947   4.345   0.375
 2326SOL    HW1 7877   0.933   4.437   0.414
 2326SOL    HW2 7878   0.951   4.278   0.450
 2327SOL     OW 7879   5.122   1.082   3.473
 2327SOL    HW1 7880   5.177   1.028   3.537
 2327SOL    HW2 7881   5.057   1.139   3.525
 2328SOL     OW 7882   6.309   5.305   3.898
 2328SOL    HW1 7883   6.224   5.268   3.934
 2328SOL    HW2 7884   6.290   5.355   3.813
 2329SOL     OW 7885   1.091   5.937   3.461
 2329SOL    HW1 7886   1.023   5.923   3.533
 2329SOL    HW2 7887   1.178   5.896   3.488
 2330SOL     OW 7888   0.958   4.444   0.676
 2330SOL    HW1 7889   0.892   4.370   0.695
 2330SOL    HW2 7890   1.050   4.411   0.694
 2331SOL     OW 7891   1.292   4.701   5.194
 2331SOL    HW1 7892   1.234   4.622   5.174
 2331SOL    HW2 7893   1.249   4.757   5.265
 2332SOL     OW 7894   5.358   3.008   5.804
 2332SOL    HW1 7895   5.366   2.922   5.754
 2332SOL    HW2 7896   5.443   3.025   5.855
 2333SOL     OW 7897   2.679   4.852   3.688
 2333SOL    HW1 7898   2.741   4.929   3.671
 2333SOL    HW2 7899   2.710   4.800   3.767
 2334SOL     OW 7900   2.684   0.326   6.330
 2334SOL    HW1 7901   2.588   0.353   6.327
 2334SOL    HW2 7902   2.705   0.270   6.250
 2335SOL     OW 7903   4.525   4.556   4.607
 2335SOL    HW1 7904   4.444   4.609   4.631
 2335SOL    HW2 7905   4.582   4.544   4.688
 2336SOL     OW 7906   4.321   2.900   5.785
 2336SOL    HW1 7907   4.299   2.986   5.740
 2336SOL    HW2 7908   4.322   2.826   5.718
 2337SOL     OW 7909   6.135   0.328   4.584
 2337SOL    HW1 7910   6.175   0.310   4.494
 2337SOL    HW2 7911   6.159   0.254   4.646
 2338SOL     OW 7912   1.627   0.043   6.620
 2338SOL    HW1 7913   1.719   0.066   6.651
 2338SOL    HW2 7914   1.563   0.052   6.696
 2339SOL     OW 7915   4.257   5.179   0.332
 2339SOL    HW1 7916   4.165   5.218   0.332
 2339SOL    HW2 7917   4.279   5.145   0.241
 2340SOL     OW 7918   3.630   5.275   4.498
 2340SOL    HW1 7919   3.641   5.288   4.399
 2340SOL    HW2 7920   3.710   5.227   4.534
 2341SOL     OW 7921   5.787   5.224   6.274
 2341SOL    HW1 7922   5.846   5.157   6.229
 2341SOL    HW2 7923   5.808   5.225   6.372
 2342SOL     OW 7924   6.789   0.514   5.275
 2342SOL    HW1 7925   6.872   0.493   5.328
 2342SOL    HW2 7926   6.814   0.564   5.192
 2343SOL     OW 7927   0.933   0.213   0.279
 2343SOL    HW1 7928   0.896   0.122   0.298
 2343SOL    HW2 7929   1.003   0.236   0.346
 2344SOL     OW 7930   2.513   0.732   2.934
 2344SOL    HW1 7931   2.578   0.749   3.009
 2344SOL    HW2 7932   2.561   0.688   2.858
 2345SOL     OW 7933   0.831   1.950   2.217
 2345SOL    HW1 7934   0.917   1.998   2.204
 2345SOL    HW2 7935   0.756   2.016   2.227
 2346SOL     OW 7936   4.522   3.004   5.315
 2346SOL    HW1 7937   4.558   3.087   5.273
 2346SOL    HW2 7938   4.522   3.013   5.414
 2347SOL     OW 7939   1.796   3.261   0.973
 2347SOL    HW1 7940   1.863   3.335   0.969
 2347SOL    HW2 7941   1.719   3.281   0.913
 2348SOL     OW 7942   2.263   6.869   1.785
 2348SOL    HW1 7943   2.207   6.787   1.770
 2348SOL    HW2 7944   2.349   6.843   1.828
 2349SOL     OW 7945   4.702   3.887   0.067
 2349SOL    HW1 7946   4.714   3.986   0.081
 2349SOL    HW2 7947   4.726   3.864   6.998
 2350SOL     OW 7948   2.622   6.319   5.232
 2350SOL    HW1 7949   2.644   6.405   5.188
 2350SOL    HW2 7950   2.637   6.243   5.168
 2351SOL     OW 7951   1.712   5.087   3.066
 2351SOL    HW1 7952   1.712   5.147   3.146
 2351SOL    HW2 7953   1.648   5.121   2.998
 2352SOL     OW 7954   5.928   5.015   0.952
 2352SOL    HW1 7955   5.882   4.933   0.918
 2352SOL    HW2 7956   5.946   5.077   0.875
 2353SOL     OW 7957   2.401   3.803   6.197
 2353SOL    HW1 7958   2.417   3.744   6.119
 2353SOL    HW2 7959   2.422   3.897   6.173
 2354SOL     OW 7960   4.683   1.736   2.402
 2354SOL    HW1 7961   4.743   1.814   2.419
 2354SOL    HW2 7962   4.606   1.766   2.345
 2355SOL     OW 7963   0.121   1.673   1.849
 2355SOL    HW1 7964   0.022   1.681   1.841
 2355SOL    HW2 7965   0.163   1.764   1.838
 2356SOL     OW 7966   2.989   5.171   3.826
 2356SOL    HW1 7967   2.980   5.185   3.924
 2356SOL    HW2 7968   3.075   5.212   3.794
 2357SOL     OW 7969   1.171   4.785   0.665
 2357SOL    HW1 7970   1.180   4.690   0.636
 2357SOL    HW2 7971   1.157   4.789   0.764
 2358SOL     OW 7972   3.243   0.782   4.974
 2358SOL    HW1 7973   3.313   0.840   4.932
 2358SOL    HW2 7974   3.227   0.813   5.068
 2359SOL     OW 7975   2.108   2.216   5.546
 2359SOL    HW1 7976   2.021   2.187   5.586
 2359SOL    HW2 7977   2.137   2.149   5.478
 2360SOL     OW 7978   3.413   5.215   0.733
 2360SOL    HW1 7979   3.352   5.274   0.679
 2360SOL    HW2 7980   3.370   5.196   0.821
 2361SOL     OW 7981   3.725   5.751   1.133
 2361SOL    HW1 7982   3.637   5.767   1.089
 2361SOL    HW2 7983   3.772   5.838   1.146
 2362SOL     OW 7984   3.299   4.895   3.788
 2362SOL    HW1 7985   3.357   4.901   3.706
 2362SOL    HW2 7986   3.326   4.965   3.854
 2363SOL     OW 7987   1.960   3.857   1.337
 2363SOL    HW1 7988   1.923   3.949   1.347
 2363SOL    HW2 7989   1.983   3.840   1.241
 2364SOL     OW 7990   3.846   1.474   2.217
 2364SOL    HW1 7991   3.812   1.545   2.155
 2364SOL    HW2 7992   3.800   1.482   2.305
 2365SOL     OW 7993   5.293   4.366   2.991
 2365SOL    HW1 7994   5.383   4.402   2.966
 2365SOL    HW2 7995   5.304   4.284   3.047
 2366SOL     OW 7996   2.981   5.107   5.085
 2366SOL    HW1 7997   2.910   5.038   5.098
 2366SOL    HW2 7998   2.944   5.198   5.104
 2367SOL     OW 7999   5.792   5.016   5.889
 2367SOL    HW1 8000   5.771   5.040   5.794
 2367SOL    HW2 8001   5.807   5.098   5.943
 2368SOL     OW 8002   5.082   0.797   5.187
 2368SOL    HW1 8003   5.115   0.742   5.264
 2368SOL    HW2 8004   5.120   0.889   5.193
 2369SOL     OW 8005   3.854   2.179   4.035
 2369SOL    HW1 8006   3.806   2.110   4.090
 2369SOL    HW2 8007   3.933   2.137   3.990
 2370SOL     OW 8008   5.455   2.027   1.811
 2370SOL    HW1 8009   5.437   1.936   1.847
 2370SOL    HW2 8010   5.523   2.021   1.737
 2371SOL     OW 8011   1.221   6.396   1.958
 2371SOL    HW1 8012   1.268   6.417   1.872
 2371SOL    HW2 8013   1.255   6.309   1.994
 2372SOL     OW 8014   6.846   0.440   6.040
 2372SOL    HW1 8015   6.811   0.381   5.967
 2372SOL    HW2 8016   6.774   0.455   6.108
 2373SOL     OW 8017   5.960   4.599   5.837
 2373SOL    HW1 8018   6.026   4.582   5.764
 2373SOL    HW2 8019   6.008   4.633   5.918
 2374SOL     OW 8020   6.464   6.551   2.260
 2374SOL    HW1 8021   6.384   6.498   2.287
 2374SOL    HW2 8022   6.475   6.548   2.161
 2375SOL     OW 8023   1.722   0.377   4.015
 2375SOL    HW1 8024   1.676   0.403   4.099
 2375SOL    HW2 8025   1.819   0.401   4.021
 2376SOL     OW 8026   5.289   2.303   3.297
 2376SOL    HW1 8027   5.227   2.373   3.263
 2376SOL    HW2 8028   5.248   2.212   3.283
 2377SOL     OW 8029   4.094   3.783   5.989
 2377SOL    HW1 8030   4.050   3.865   5.954
 2377SOL    HW2 8031   4.042   3.702   5.960
 2378SOL     OW 8032   0.433   1.145   0.401
 2378SOL    HW1 8033   0.400   1.227   0.447
 2378SOL    HW2 8034   0.385   1.065   0.436
 2379SOL     OW 8035   0.382   5.201   2.662
 2379SOL    HW1 8036   0.430   5.173   2.579
 2379SOL    HW2 8037   0.447   5.243   2.725
 2380SOL     OW 8038   4.432   5.996   6.721
 2380SOL    HW1 8039   4.451   5.955   6.810
 2380SOL    HW2 8040   4.343   6.042   6.724
 2381SOL     OW 8041   2.037   3.210   3.941
 2381SOL    HW1 8042   2.046   3.206   3.842
 2381SOL    HW2 8043   2.095   3.142   3.984
 2382SOL     OW 8044   0.291   5.502   3.055
 2382SOL    HW1 8045   0.228   5.500   3.133
 2382SOL    HW2 8046   0.353   5.423   3.060
 2383SOL     OW 8047   4.516   4.111   5.850
 2383SOL    HW1 8048   4.574   4.186   5.820
 2383SOL    HW2 8049   4.421   4.141   5.855
 2384SOL     OW 8050   0.241   2.112   2.242
 2384SOL    HW1 8051   0.276   2.086   2.332
 2384SOL    HW2 8052   0.223   2.211   2.240
 2385SOL     OW 8053   0.347   0.796   6.910
 2385SOL    HW1 8054   0.304   0.719   6.956
 2385SOL    HW2 8055   0.282   0.837   6.846
 2386SOL     OW 8056   5.917   5.705   4.599
 2386SOL    HW1 8057   5.854   5.763   4.650
 2386SOL    HW2 8058   6.009   5.717   4.635
 2387SOL     OW 8059   0.796   0.932   4.073
 2387SOL    HW1 8060   0.736   0.977   4.139
 2387SOL    HW2 8061   0.782   0.833   4.078
 2388SOL     OW 8062   0.662   3.631   5.777
 2388SOL    HW1 8063   0.692   3.580   5.696
 2388SOL    HW2 8064   0.720   3.712   5.789
 2389SOL     OW 8065   4.314   5.425   3.216
 2389SOL    HW1 8066   4.252   5.448   3.291
 2389SOL    HW2 8067   4.268   5.363   3.152
 2390SOL     OW 8068   4.773   2.502   6.647
 2390SOL    HW1 8069   4.749   2.515   6.551
 2390SOL    HW2 8070   4.871   2.484   6.655
 2391SOL     OW 8071   3.235   3.703   6.919
 2391SOL    HW1 8072   3.158   3.767   6.912
 2391SOL    HW2 8073   3.235   3.659   7.009
 2392SOL     OW 8074   3.938   5.028   5.848
 2392SOL    HW1 8075   3.865   5.091   5.877
 2392SOL    HW2 8076   3.961   5.046   5.752
 2393SOL     OW 8077   3.844   4.370   0.620
 2393SOL    HW1 8078   3.824   4.447   0.680
 2393SOL    HW2 8079   3.857   4.403   0.526
 2394SOL     OW 8080   6.364   1.620   3.763
 2394SOL    HW1 8081   6.269   1.651   3.771
 2394SOL    HW2 8082   6.413   1.639   3.847
 2395SOL     OW 8083   1.419   2.937   3.752
 2395SOL    HW1 8084   1.451   3.027   3.721
 2395SOL    HW2 8085   1.424   2.872   3.675
 2396SOL     OW 8086   6.816   0.171   6.658
 2396SOL    HW1 8087   6.718   0.155   6.649
 2396SOL    HW2 8088   6.840   0.258   6.615
 2397SOL     OW 8089   2.141   4.391   5.328
 2397SOL    HW1 8090   2.062   4.380   5.389
 2397SOL    HW2 8091   2.212   4.442   5.375
 2398SOL     OW 8092   4.050   6.292   4.117
 2398SOL    HW1 8093   4.110   6.255   4.046
 2398SOL    HW2 8094   4.096   6.367   4.164
 2399SOL     OW 8095   3.241   1.615   2.567
 2399SOL    HW1 8096   3.267   1.707   2.595
 2399SOL    HW2 8097   3.321   1.554   2.575
 2400SOL     OW 8098   1.521   3.439   0.252
 2400SOL    HW1 8099   1.543   3.474   0.161
 2400SOL    HW2 8100   1.469   3.353   0.243
 2401SOL     OW 8101   2.052   6.083   6.732
 2401SOL    HW1 8102   1.968   6.063   6.680
 2401SOL    HW2 8103   2.132   6.064   6.675
 2402SOL     OW 8104   1.232   4.099   2.336
 2402SOL    HW1 8105   1.169   4.173   2.361
 2402SOL    HW2 8106   1.317   4.109   2.387
 2403SOL     OW 8107   3.043   3.659   5.493
 2403SOL    HW1 8108   2.983   3.714   5.435
 2403SOL    HW2 8109   3.134   3.654   5.452
 2404SOL     OW 8110   6.367   1.397   1.251
 2404SOL    HW1 8111   6.445   1.345   1.287
 2404SOL    HW2 8112   6.399   1.488   1.222
 2405SOL     OW 8113   1.936   3.086   0.712
 2405SOL    HW1 8114   2.012   3.120   0.657
 2405SOL    HW2 8115   1.967   3.067   0.805
 2406SOL     OW 8116   3.841   5.504   4.816
 2406SOL    HW1 8117   3.918   5.461   4.770
 2406SOL    HW2 8118   3.790   5.434   4.866
 2407SOL     OW 8119   2.523   2.000   3.182
 2407SOL    HW1 8120   2.459   1.969   3.112
 2407SOL    HW2 8121   2.586   1.926   3.206
 2408SOL     OW 8122   3.275   0.250   5.523
 2408SOL    HW1 8123   3.221   0.312   5.580
 2408SOL    HW2 8124   3.238   0.157   5.531
 2409SOL     OW 8125   0.765   3.049   0.255
 2409SOL    HW1 8126   0.785   3.133   0.306
 2409SOL    HW2 8127   0.734   2.978   0.318
 2410SOL     OW 8128   6.970   3.348   4.380
 2410SOL    HW1 8129   6.932   3.336   4.472
 2410SOL    HW2 8130   6.991   3.258   4.341
 2411SOL     OW 8131   3.147   1.882   6.991
 2411SOL    HW1 8132   3.059   1.892   6.945
 2411SOL    HW2 8133   3.133   1.881   0.065
 2412SOL     OW 8134   3.229   2.213   6.090
 2412SOL    HW1 8135   3.224   2.269   6.007
 2412SOL    HW2 8136   3.277   2.265   6.161
 2413SOL     OW 8137   0.372   3.615   6.837
 2413SOL    HW1 8138   0.357   3.518   6.852
 2413SOL    HW2 8139   0.344   3.639   6.744
 2414SOL     OW 8140   7.009   1.375   5.212
 2414SOL    HW1 8141   0.042   1.444   5.256
 2414SOL    HW2 8142   7.009   1.291   5.266
 2415SOL     OW 8143   3.256   4.938   6.316
 2415SOL    HW1 8144   3.237   4.859   6.257
 2415SOL    HW2 8145   3.291   5.013   6.260
 2416SOL     OW 8146   0.100   2.389   2.747
 2416SOL    HW1 8147   0.091   2.446   2.829
 2416SOL    HW2 8148   0.061   2.299   2.765
 2417SOL     OW 8149   3.509   2.217   1.227
 2417SOL    HW1 8150   3.432   2.280   1.235
 2417SOL    HW2 8151   3.476   2.123   1.237
 2418SOL     OW 8152   5.055   4.014   6.881
 2418SOL    HW1 8153   5.069   4.050   6.974
 2418SOL    HW2 8154   4.957   4.008   6.862
 2419SOL     OW 8155   3.015   1.046   3.168
 2419SOL    HW1 8156   2.988   1.068   3.262
 2419SOL    HW2 8157   2.936   1.057   3.108
 2420SOL     OW 8158   1.393   3.772   2.847
 2420SOL    HW1 8159   1.343   3.859   2.844
 2420SOL    HW2 8160   1.403   3.737   2.754
 2421SOL     OW 8161   2.889   0.143   3.364
 2421SOL    HW1 8162   2.932   0.230   3.339
 2421SOL    HW2 8163   2.919   0.115   3.455
 2422SOL     OW 8164   4.373   5.314   0.558
 2422SOL    HW1 8165   4.324   5.273   0.482
 2422SOL    HW2 8166   4.308   5.359   0.619
 2423SOL     OW 8167   2.705   5.273   3.780
 2423SOL    HW1 8168   2.730   5.196   3.721
 2423SOL    HW2 8169   2.777   5.287   3.848
 2424SOL     OW 8170   4.847   6.720   6.201
 2424SOL    HW1 8171   4.869   6.817   6.206
 2424SOL    HW2 8172   4.769   6.700   6.261
 2425SOL     OW 8173   4.221   5.811   5.181
 2425SOL    HW1 8174   4.203   5.860   5.096
 2425SOL    HW2 8175   4.319   5.813   5.200
 2426SOL     OW 8176   2.846   2.199   5.064
 2426SOL    HW1 8177   2.933   2.245   5.050
 2426SOL    HW2 8178   2.776   2.266   5.090
 2427SOL     OW 8179   4.726   1.638   0.682
 2427SOL    HW1 8180   4.780   1.670   0.605
 2427SOL    HW2 8181   4.717   1.538   0.678
 2428SOL     OW 8182   1.916   1.471   2.754
 2428SOL    HW1 8183   1.873   1.410   2.821
 2428SOL    HW2 8184   2.008   1.495   2.786
 2429SOL     OW 8185   6.357   5.764   1.048
 2429SOL    HW1 8186   6.306   5.704   1.110
 2429SOL    HW2 8187   6.330   5.859   1.066
 2430SOL     OW 8188   6.239   0.680   6.312
 2430SOL    HW1 8189   6.242   0.617   6.390
 2430SOL    HW2 8190   6.233   0.628   6.227
 2431SOL     OW 8191   0.832   3.426   2.174
 2431SOL    HW1 8192   0.851   3.341   2.126
 2431SOL    HW2 8193   0.891   3.432   2.255
 2432SOL     OW 8194   2.513   5.351   1.879
 2432SOL    HW1 8195   2.442   5.329   1.812
 2432SOL    HW2 8196   2.470   5.372   1.967
 2433SOL     OW 8197   0.292   4.203   5.284
 2433SOL    HW1 8198   0.385   4.206   5.247
 2433SOL    HW2 8199   0.287   4.261   5.365
 2434SOL     OW 8200   4.669   1.104   3.379
 2434SOL    HW1 8201   4.740   1.143   3.320
 2434SOL    HW2 8202   4.696   1.011   3.404
 2435SOL     OW 8203   6.233   6.576   6.389
 2435SOL    HW1 8204   6.269   6.635   6.461
 2435SOL    HW2 8205   6.172   6.508   6.429
 2436SOL     OW 8206   0.359   3.118   0.496
 2436SOL    HW1 8207   0.304   3.193   0.458
 2436SOL    HW2 8208   0.341   3.034   0.444
 2437SOL     OW 8209   0.162   3.682   1.384
 2437SOL    HW1 8210   0.183   3.690   1.287
 2437SOL    HW2 8211   0.088   3.615   1.396
 2438SOL     OW 8212   3.719   1.661   4.633
 2438SOL    HW1 8213   3.749   1.714   4.554
 2438SOL    HW2 8214   3.721   1.564   4.611
 2439SOL     OW 8215   1.146   5.644   1.409
 2439SOL    HW1 8216   1.232   5.663   1.362
 2439SOL    HW2 8217   1.157   5.663   1.507
 2440SOL     OW 8218   6.695   0.873   5.410
 2440SOL    HW1 8219   6.626   0.803   5.429
 2440SOL    HW2 8220   6.770   0.864   5.476
 2441SOL     OW 8221   5.939   0.955   0.973
 2441SOL    HW1 8222   5.911   0.900   1.052
 2441SOL    HW2 8223   6.023   0.917   0.934
 2442SOL     OW 8224   5.386   3.303   2.127
 2442SOL    HW1 8225   5.381   3.204   2.121
 2442SOL    HW2 8226   5.481   3.332   2.119
 2443SOL     OW 8227   0.705   3.481   1.423
 2443SOL    HW1 8228   0.700   3.385   1.397
 2443SOL    HW2 8229   0.679   3.491   1.519
 2444SOL     OW 8230   3.412   5.156   2.138
 2444SOL    HW1 8231   3.319   5.174   2.169
 2444SOL    HW2 8232   3.416   5.067   2.093
 2445SOL     OW 8233   0.689   2.020   0.874
 2445SOL    HW1 8234   0.679   2.118   0.858
 2445SOL    HW2 8235   0.599   1.976   0.866
 2446SOL     OW 8236   0.406   5.588   1.981
 2446SOL    HW1 8237   0.432   5.597   2.077
 2446SOL    HW2 8238   0.368   5.675   1.949
 2447SOL     OW 8239   1.683   7.025   0.569
 2447SOL    HW1 8240   1.744   0.012   0.491
 2447SOL    HW2 8241   1.723   6.959   0.633
 2448SOL     OW 8242   5.714   0.901   4.525
 2448SOL    HW1 8243   5.740   0.826   4.586
 2448SOL    HW2 8244   5.762   0.984   4.553
 2449SOL     OW 8245   1.862   4.426   0.980
 2449SOL    HW1 8246   1.806   4.428   1.062
 2449SOL    HW2 8247   1.803   4.420   0.899
 2450SOL     OW 8248   0.515   6.471   4.844
 2450SOL    HW1 8249   0.540   6.528   4.767
 2450SOL    HW2 8250   0.530   6.375   4.821
 2451SOL     OW 8251   2.184   6.784   5.594
 2451SOL    HW1 8252   2.205   6.831   5.508
 2451SOL    HW2 8253   2.150   6.850   5.660
 2452SOL     OW 8254   2.328   1.586   3.975
 2452SOL    HW1 8255   2.232   1.591   3.950
 2452SOL    HW2 8256   2.349   1.496   4.012
 2453SOL     OW 8257   1.526   1.980   5.807
 2453SOL    HW1 8258   1.528   2.013   5.901
 2453SOL    HW2 8259   1.609   1.927   5.789
 2454SOL     OW 8260   3.097   6.055   1.017
 2454SOL    HW1 8261   3.122   6.047   0.920
 2454SOL    HW2 8262   3.092   5.964   1.058
 2455SOL     OW 8263   3.960   2.194   0.938
 2455SOL    HW1 8264   4.055   2.218   0.956
 2455SOL    HW2 8265   3.955   2.100   0.903
 2456SOL     OW 8266   0.569   3.777   6.039
 2456SOL    HW1 8267   0.612   3.722   5.967
 2456SOL    HW2 8268   0.615   3.865   6.046
 2457SOL     OW 8269   3.972   1.953   5.472
 2457SOL    HW1 8270   3.999   1.932   5.378
 2457SOL    HW2 8271   4.025   1.897   5.535
 2458SOL     OW 8272   0.294   0.147   2.790
 2458SOL    HW1 8273   0.239   0.069   2.822
 2458SOL    HW2 8274   0.349   0.118   2.712
 2459SOL     OW 8275   1.522   6.866   0.949
 2459SOL    HW1 8276   1.462   6.941   0.975
 2459SOL    HW2 8277   1.610   6.903   0.920
 2460SOL     OW 8278   0.508   0.917   4.589
 2460SOL    HW1 8279   0.579   0.986   4.585
 2460SOL    HW2 8280   0.537   0.835   4.540
 2461SOL     OW 8281   3.980   1.594   3.781
 2461SOL    HW1 8282   4.075   1.565   3.794
 2461SOL    HW2 8283   3.919   1.523   3.816
 2462SOL     OW 8284   0.560   5.648   0.433
 2462SOL    HW1 8285   0.578   5.563   0.384
 2462SOL    HW2 8286   0.499   5.631   0.509
 2463SOL     OW 8287   6.677   7.005   0.201
 2463SOL    HW1 8288   6.635   7.011   0.292
 2463SOL    HW2 8289   6.743   0.055   0.191
 2464SOL     OW 8290   0.632   2.429   4.696
 2464SOL    HW1 8291   0.604   2.426   4.792
 2464SOL    HW2 8292   0.603   2.345   4.650
 2465SOL     OW 8293   6.871   7.001   6.336
 2465SOL    HW1 8294   6.878   6.901   6.329
 2465SOL    HW2 8295   6.927   0.007   6.413
 2466SOL     OW 8296   0.841   1.835   1.858
 2466SOL    HW1 8297   0.744   1.853   1.873
 2466SOL    HW2 8298   0.861   1.843   1.760
 2467SOL     OW 8299   5.641   3.108   5.326
 2467SOL    HW1 8300   5.574   3.176   5.354
 2467SOL    HW2 8301   5.731   3.132   5.363
 2468SOL     OW 8302   3.454   0.030   5.399
 2468SOL    HW1 8303   3.490   0.123   5.404
 2468SOL    HW2 8304   3.378   0.027   5.334
 2469SOL     OW 8305   3.480   1.857   5.824
 2469SOL    HW1 8306   3.458   1.928   5.891
 2469SOL    HW2 8307   3.514   1.900   5.740
 2470SOL     OW 8308   2.529   5.416   6.761
 2470SOL    HW1 8309   2.528   5.396   6.859
 2470SOL    HW2 8310   2.502   5.511   6.747
 2471SOL     OW 8311   3.003   5.131   1.997
 2471SOL    HW1 8312   3.079   5.162   1.939
 2471SOL    HW2 8313   3.004   5.032   2.003
 2472SOL     OW 8314   4.690   1.307   3.567
 2472SOL    HW1 8315   4.654   1.229   3.516
 2472SOL    HW2 8316   4.757   1.356   3.511
 2473SOL     OW 8317   0.473   3.978   4.144
 2473SOL    HW1 8318   0.506   3.964   4.050
 2473SOL    HW2 8319   0.415   3.900   4.170
 2474SOL     OW 8320   0.639   6.252   1.741
 2474SOL    HW1 8321   0.637   6.298   1.652
 2474SOL    HW2 8322   0.610   6.316   1.812
 2475SOL     OW 8323   4.762   1.028   0.335
 2475SOL    HW1 8324   4.799   0.939   0.363
 2475SOL    HW2 8325   4.755   1.030   0.235
 2476SOL     OW 8326   4.587   0.554   0.874
 2476SOL    HW1 8327   4.556   0.586   0.964
 2476SOL    HW2 8328   4.657   0.484   0.886
 2477SOL     OW 8329   3.684   0.253   3.406
 2477SOL    HW1 8330   3.717   0.291   3.493
 2477SOL    HW2 8331   3.590   0.285   3.390
 2478SOL     OW 8332   4.680   0.156   4.446
 2478SOL    HW1 8333   4.750   0.134   4.378
 2478SOL    HW2 8334   4.637   0.071   4.478
 2479SOL     OW 8335   5.773   3.276   1.228
 2479SOL    HW1 8336   5.702   3.220   1.272
 2479SOL    HW2 8337   5.850   3.218   1.202
 2480SOL     OW 8338   3.722   2.321   1.364
 2480SOL    HW1 8339   3.629   2.304   1.334
 2480SOL    HW2 8340   3.786   2.277   1.302
 2481SOL     OW 8341   3.098   6.699   2.055
 2481SOL    HW1 8342   3.000   6.688   2.038
 2481SOL    HW2 8343   3.149   6.633   2.001
 2482SOL     OW 8344   6.585   3.580   6.933
 2482SOL    HW1 8345   6.569   3.503   6.995
 2482SOL    HW2 8346   6.665   3.561   6.876
 2483SOL     OW 8347   1.373   2.557   0.843
 2483SOL    HW1 8348   1.277   2.556   0.871
 2483SOL    HW2 8349   1.380   2.590   0.749
 2484SOL     OW 8350   4.396   1.091   0.089
 2484SOL    HW1 8351   4.460   1.055   0.021
 2484SOL    HW2 8352   4.445   1.151   0.152
 2485SOL     OW 8353   0.328   2.170   6.272
 2485SOL    HW1 8354   0.402   2.133   6.216
 2485SOL    HW2 8355   0.240   2.147   6.230
 2486SOL     OW 8356   6.713   6.054   3.960
 2486SOL    HW1 8357   6.757   5.990   3.897
 2486SOL    HW2 8358   6.661   6.122   3.908
 2487SOL     OW 8359   4.577   6.143   6.939
 2487SOL    HW1 8360   4.519   6.073   6.981
 2487SOL    HW2 8361   4.666   6.144   6.985
 2488SOL     OW 8362   6.599   4.077   0.595
 2488SOL    HW1 8363   6.687   4.047   0.630
 2488SOL    HW2 8364   6.534   4.001   0.597
 2489SOL     OW 8365   6.316   5.243   4.435
 2489SOL    HW1 8366   6.391   5.304   4.459
 2489SOL    HW2 8367   6.228   5.290   4.450
 2490SOL     OW 8368   2.498   5.811   3.341
 2490SOL    HW1 8369   2.581   5.819   3.397
 2490SOL    HW2 8370   2.442   5.735   3.375
 2491SOL     OW 8371   3.884   4.626   1.572
 2491SOL    HW1 8372   3.926   4.541   1.538
 2491SOL    HW2 8373   3.951   4.675   1.628
 2492SOL     OW 8374   6.700   5.141   1.404
 2492SOL    HW1 8375   6.630   5.209   1.426
 2492SOL    HW2 8376   6.771   5.142   1.475
 2493SOL     OW 8377   5.362   6.819   1.014
 2493SOL    HW1 8378   5.450   6.780   1.039
 2493SOL    HW2 8379   5.376   6.893   0.948
 2494SOL     OW 8380   6.666   4.190   1.646
 2494SOL    HW1 8381   6.744   4.152   1.598
 2494SOL    HW2 8382   6.583   4.140   1.621
 2495SOL     OW 8383   0.393   4.736   2.120
 2495SOL    HW1 8384   0.339   4.732   2.035
 2495SOL    HW2 8385   0.332   4.757   2.196
 2496SOL     OW 8386   5.825   4.878   6.506
 2496SOL    HW1 8387   5.807   4.780   6.501
 2496SOL    HW2 8388   5.919   4.896   6.476
 2497SOL     OW 8389   0.126   0.085   2.179
 2497SOL    HW1 8390   0.152   0.084   2.275
 2497SOL    HW2 8391   0.096   7.018   2.152
 2498SOL     OW 8392   1.979   3.719   5.549
 2498SOL    HW1 8393   1.933   3.681   5.629
 2498SOL    HW2 8394   2.046   3.787   5.577
 2499SOL     OW 8395   0.282   3.923   1.442
 2499SOL    HW1 8396   0.268   3.975   1.358
 2499SOL    HW2 8397   0.238   3.833   1.434
 2500SOL     OW 8398   3.713   3.146   1.340
 2500SOL    HW1 8399   3.616   3.146   1.363
 2500SOL    HW2 8400   3.734   3.067   1.284
 2501SOL     OW 8401   5.802   5.595   6.499
 2501SOL    HW1 8402   5.718   5.644   6.522
 2501SOL    HW2 8403   5.869   5.607   6.572
 2502SOL     OW 8404   2.340   6.201   4.679
 2502SOL    HW1 8405   2.321   6.162   4.589
 2502SOL    HW2 8406   2.355   6.300   4.670
 2503SOL     OW 8407   3.229   6.889   5.651
 2503SOL    HW1 8408   3.181   6.876   5.738
 2503SOL    HW2 8409   3.292   6.812   5.636
 2504SOL     OW 8410   4.009   6.809   3.754
 2504SOL    HW1 8411   3.996   6.796   3.655
 2504SOL    HW2 8412   3.982   6.902   3.779
 2505SOL     OW 8413   6.978   4.637   4.034
 2505SOL    HW1 8414   6.954   4.588   4.118
 2505SOL    HW2 8415   0.010   4.577   3.976
 2506SOL     OW 8416   5.283   5.459   5.722
 2506SOL    HW1 8417   5.306   5.419   5.811
 2506SOL    HW2 8418   5.189   5.435   5.698
 2507SOL     OW 8419   6.627   3.191   1.835
 2507SOL    HW1 8420   6.647   3.258   1.907
 2507SOL    HW2 8421   6.704   3.128   1.826
 2508SOL     OW 8422   5.302   1.663   4.577
 2508SOL    HW1 8423   5.326   1.569   4.599
 2508SOL    HW2 8424   5.344   1.689   4.490
 2509SOL     OW 8425   0.143   3.580   5.848
 2509SOL    HW1 8426   0.206   3.634   5.905
 2509SOL    HW2 8427   0.190   3.555   5.763
 2510SOL     OW 8428   3.404   3.878   2.047
 2510SOL    HW1 8429   3.465   3.807   2.083
 2510SOL    HW2 8430   3.457   3.959   2.022
 2511SOL     OW 8431   2.243   0.450   4.250
 2511SOL    HW1 8432   2.323   0.443   4.190
 2511SOL    HW2 8433   2.162   0.417   4.201
 2512SOL     OW 8434   3.820   4.915   4.277
 2512SOL    HW1 8435   3.861   4.984   4.338
 2512SOL    HW2 8436   3.733   4.949   4.243
 2513SOL     OW 8437   2.626   5.481   6.098
 2513SOL    HW1 8438   2.586   5.507   6.186
 2513SOL    HW2 8439   2.579   5.400   6.063
 2514SOL     OW 8440   1.165   2.057   2.640
 2514SOL    HW1 8441   1.186   2.139   2.587
 2514SOL    HW2 8442   1.187   2.073   2.736
 2515SOL     OW 8443   1.285   1.502   1.442
 2515SOL    HW1 8444   1.239   1.573   1.495
 2515SOL    HW2 8445   1.376   1.485   1.482
 2516SOL     OW 8446   6.076   2.050   4.523
 2516SOL    HW1 8447   5.983   2.053   4.560
 2516SOL    HW2 8448   6.073   2.018   4.428
 2517SOL     OW 8449   1.272   1.688   4.275
 2517SOL    HW1 8450   1.284   1.677   4.176
 2517SOL    HW2 8451   1.182   1.727   4.293
 2518SOL     OW 8452   2.679   4.916   1.308
 2518SOL    HW1 8453   2.651   4.853   1.380
 2518SOL    HW2 8454   2.773   4.946   1.323
 2519SOL     OW 8455   1.072   1.264   0.970
 2519SOL    HW1 8456   1.035   1.357   0.968
 2519SOL    HW2 8457   1.122   1.249   1.055
 2520SOL     OW 8458   2.496   2.203   0.268
 2520SOL    HW1 8459   2.458   2.152   0.346
 2520SOL    HW2 8460   2.429   2.272   0.238
 2521SOL     OW 8461   4.728   1.159   5.393
 2521SOL    HW1 8462   4.634   1.128   5.408
 2521SOL    HW2 8463   4.783   1.136   5.474
 2522SOL     OW 8464   1.057   2.379   6.173
 2522SOL    HW1 8465   1.062   2.410   6.268
 2522SOL    HW2 8466   1.125   2.429   6.118
 2523SOL     OW 8467   1.956   5.219   6.767
 2523SOL    HW1 8468   1.989   5.217   6.673
 2523SOL    HW2 8469   1.864   5.180   6.771
 2524SOL     OW 8470   1.419   0.569   4.378
 2524SOL    HW1 8471   1.493   0.510   4.345
 2524SOL    HW2 8472   1.404   0.644   4.313
 2525SOL     OW 8473   6.496   2.679   5.603
 2525SOL    HW1 8474   6.525   2.774   5.598
 2525SOL    HW2 8475   6.433   2.659   5.528
 2526SOL     OW 8476   1.249   6.694   1.233
 2526SOL    HW1 8477   1.180   6.766   1.222
 2526SOL    HW2 8478   1.296   6.680   1.146
 2527SOL     OW 8479   4.729   5.052   5.899
 2527SOL    HW1 8480   4.686   5.028   5.812
 2527SOL    HW2 8481   4.682   5.006   5.974
 2528SOL     OW 8482   4.624   5.944   6.545
 2528SOL    HW1 8483   4.696   5.905   6.602
 2528SOL    HW2 8484   4.546   5.970   6.602
 2529SOL     OW 8485   0.618   0.072   6.371
 2529SOL    HW1 8486   0.578   0.105   6.285
 2529SOL    HW2 8487   0.546   0.028   6.426
 2530SOL     OW 8488   2.280   5.768   6.193
 2530SOL    HW1 8489   2.235   5.792   6.107
 2530SOL    HW2 8490   2.272   5.670   6.209
 2531SOL     OW 8491   6.769   5.387   5.969
 2531SOL    HW1 8492   6.783   5.392   6.068
 2531SOL    HW2 8493   6.856   5.405   5.922
 2532SOL     OW 8494   5.458   6.496   1.046
 2532SOL    HW1 8495   5.501   6.551   1.118
 2532SOL    HW2 8496   5.370   6.462   1.078
 2533SOL     OW 8497   4.933   0.806   3.744
 2533SOL    HW1 8498   5.013   0.840   3.794
 2533SOL    HW2 8499   4.852   0.858   3.770
 2534SOL     OW 8500   3.809   1.181   2.755
 2534SOL    HW1 8501   3.847   1.141   2.838
 2534SOL    HW2 8502   3.883   1.217   2.698
 2535SOL     OW 8503   4.012   2.926   6.648
 2535SOL    HW1 8504   3.985   3.013   6.607
 2535SOL    HW2 8505   3.972   2.919   6.740
 2536SOL     OW 8506   1.274   0.796   0.748
 2536SOL    HW1 8507   1.278   0.825   0.652
 2536SOL    HW2 8508   1.284   0.876   0.807
 2537SOL     OW 8509   3.824   6.986   6.691
 2537SOL    HW1 8510   3.732   7.011   6.722
 2537SOL    HW2 8511   3.886   6.984   6.769
 2538SOL     OW 8512   6.500   3.492   3.679
 2538SOL    HW1 8513   6.579   3.531   3.728
 2538SOL    HW2 8514   6.423   3.555   3.685
 2539SOL     OW 8515   5.291   2.274   5.400
 2539SOL    HW1 8516   5.231   2.322   5.336
 2539SOL    HW2 8517   5.305   2.180   5.370
 2540SOL     OW 8518   2.849   1.610   2.103
 2540SOL    HW1 8519   2.895   1.637   2.018
 2540SOL    HW2 8520   2.917   1.594   2.174
 2541SOL     OW 8521   3.473   6.502   4.503
 2541SOL    HW1 8522   3.486   6.600   4.523
 2541SOL    HW2 8523   3.535   6.449   4.561
 2542SOL     OW 8524   1.885   4.976   6.415
 2542SOL    HW1 8525   1.897   4.951   6.318
 2542SOL    HW2 8526   1.931   5.063   6.432
 2543SOL     OW 8527   1.553   1.286   3.777
 2543SOL    HW1 8528   1.634   1.343   3.789
 2543SOL    HW2 8529   1.581   1.195   3.749
 2544SOL     OW 8530   1.092   5.300   6.910
 2544SOL    HW1 8531   1.012   5.353   6.938
 2544SOL    HW2 8532   1.119   5.239   6.984
 2545SOL     OW 8533   2.774   6.024   2.689
 2545SOL    HW1 8534   2.869   6.029   2.718
 2545SOL    HW2 8535   2.759   5.940   2.636
 2546SOL     OW 8536   6.904   1.346   1.242
 2546SOL    HW1 8537   6.917   1.351   1.341
 2546SOL    HW2 8538   6.872   1.434   1.208
 2547SOL     OW 8539   0.917   3.445   4.733
 2547SOL    HW1 8540   0.962   3.524   4.774
 2547SOL    HW2 8541   0.876   3.471   4.646
 2548SOL     OW 8542   0.776   0.377   4.146
 2548SOL    HW1 8543   0.777   0.311   4.071
 2548SOL    HW2 8544   0.683   0.386   4.182
 2549SOL     OW 8545   6.555   2.392   1.164
 2549SOL    HW1 8546   6.571   2.468   1.227
 2549SOL    HW2 8547   6.479   2.336   1.198
 2550SOL     OW 8548   6.327   6.256   0.194
 2550SOL    HW1 8549   6.247   6.305   0.229
 2550SOL    HW2 8550   6.408   6.282   0.247
 2551SOL     OW 8551   1.362   4.119   6.682
 2551SOL    HW1 8552   1.280   4.070   6.653
 2551SOL    HW2 8553   1.338   4.213   6.705
 2552SOL     OW 8554   1.888   5.811   3.492
 2552SOL    HW1 8555   1.817   5.744   3.470
 2552SOL    HW2 8556   1.916   5.859   3.408
 2553SOL     OW 8557   3.946   3.618   6.942
 2553SOL    HW1 8558   4.011   3.608   7.016
 2553SOL    HW2 8559   3.942   3.714   6.913
 2554SOL     OW 8560   1.665   1.395   7.016
 2554SOL    HW1 8561   1.603   1.468   6.986
 2554SOL    HW2 8562   1.638   1.365   0.082
 2555SOL     OW 8563   6.049   1.057   6.830
 2555SOL    HW1 8564   6.093   1.005   6.904
 2555SOL    HW2 8565   6.070   1.154   6.841
 2556SOL     OW 8566   2.668   5.643   0.965
 2556SOL    HW1 8567   2.651   5.548   0.937
 2556SOL    HW2 8568   2.758   5.672   0.931
 2557SOL     OW 8569   1.775   3.877   0.347
 2557SOL    HW1 8570   1.867   3.841   0.330
 2557SOL    HW2 8571   1.776   3.977   0.337
 2558SOL     OW 8572   3.872   0.427   5.685
 2558SOL    HW1 8573   3.967   0.403   5.703
 2558SOL    HW2 8574   3.824   0.439   5.772
 2559SOL     OW 8575   6.956   5.040   4.987
 2559SOL    HW1 8576   6.965   5.089   5.074
 2559SOL    HW2 8577   6.879   5.076   4.935
 2560SOL     OW 8578   6.213   1.527   7.008
 2560SOL    HW1 8579   6.290   1.588   6.996
 2560SOL    HW2 8580   6.169   1.544   0.071
 2561SOL     OW 8581   3.520   5.410   4.705
 2561SOL    HW1 8582   3.567   5.352   4.639
 2561SOL    HW2 8583   3.565   5.499   4.711
 2562SOL     OW 8584   1.920   3.998   6.926
 2562SOL    HW1 8585   1.881   3.907   6.908
 2562SOL    HW2 8586   1.937   4.044   6.839
 2563SOL     OW 8587   2.191   0.890   0.111
 2563SOL    HW1 8588   2.146   0.801   0.104
 2563SOL    HW2 8589   2.164   0.935   0.196
 2564SOL     OW 8590   1.527   5.965   1.321
 2564SOL    HW1 8591   1.544   5.899   1.394
 2564SOL    HW2 8592   1.460   6.033   1.353
 2565SOL     OW 8593   1.568   0.475   1.511
 2565SOL    HW1 8594   1.570   0.442   1.417
 2565SOL    HW2 8595   1.515   0.559   1.516
 2566SOL     OW 8596   1.607   6.723   5.994
 2566SOL    HW1 8597   1.650   6.635   5.975
 2566SOL    HW2 8598   1.523   6.732   5.940
 2567SOL     OW 8599   0.749   6.697   0.417
 2567SOL    HW1 8600   0.676   6.752   0.458
 2567SOL    HW2 8601   0.713   6.648   0.337
 2568SOL     OW 8602   4.600   3.311   0.179
 2568SOL    HW1 8603   4.531   3.286   0.110
 2568SOL    HW2 8604   4.558   3.369   0.248
 2569SOL     OW 8605   2.741   0.796   3.079
 2569SOL    HW1 8606   2.797   0.795   3.162
 2569SOL    HW2 8607   2.681   0.876   3.081
 2570SOL     OW 8608   5.230   2.385   6.155
 2570SOL    HW1 8609   5.303   2.436   6.199
 2570SOL    HW2 8610   5.236   2.289   6.180
 2571SOL     OW 8611   1.112   4.026   4.694
 2571SOL    HW1 8612   1.173   3.947   4.692
 2571SOL    HW2 8613   1.031   4.006   4.639
 2572SOL     OW 8614   1.767   5.009   3.669
 2572SOL    HW1 8615   1.829   4.983   3.595
 2572SOL    HW2 8616   1.762   4.935   3.736
 2573SOL     OW 8617   1.072   0.279   0.821
 2573SOL    HW1 8618   1.081   0.378   0.828
 2573SOL    HW2 8619   1.010   0.246   0.892
 2574SOL     OW 8620   6.026   2.979   0.515
 2574SOL    HW1 8621   5.974   2.933   0.443
 2574SOL    HW2 8622   5.967   2.993   0.595
 2575SOL     OW 8623   0.936   5.467   6.440
 2575SOL    HW1 8624   0.940   5.401   6.515
 2575SOL    HW2 8625   0.987   5.432   6.361
 2576SOL     OW 8626   4.304   5.887   3.891
 2576SOL    HW1 8627   4.284   5.804   3.838
 2576SOL    HW2 8628   4.401   5.908   3.885
 2577SOL     OW 8629   2.264   4.280   2.309
 2577SOL    HW1 8630   2.291   4.299   2.214
 2577SOL    HW2 8631   2.315   4.341   2.370
 2578SOL     OW 8632   4.148   1.752   3.255
 2578SOL    HW1 8633   4.134   1.825   3.188
 2578SOL    HW2 8634   4.126   1.785   3.346
 2579SOL     OW 8635   0.991   6.683   3.252
 2579SOL    HW1 8636   0.948   6.637   3.329
 2579SOL    HW2 8637   1.003   6.780   3.273
 2580SOL     OW 8638   1.751   1.906   6.378
 2580SOL    HW1 8639   1.659   1.882   6.410
 2580SOL    HW2 8640   1.748   1.928   6.281
 2581SOL     OW 8641   3.503   0.503   4.996
 2581SOL    HW1 8642   3.467   0.413   5.021
 2581SOL    HW2 8643   3.438   0.574   5.024
 2582SOL     OW 8644   0.047   2.990   1.735
 2582SOL    HW1 8645   0.117   2.919   1.739
 2582SOL    HW2 8646   0.005   2.991   1.644
 2583SOL     OW 8647   5.781   0.289   0.675
 2583SOL    HW1 8648   5.773   0.342   0.759
 2583SOL    HW2 8649   5.793   0.350   0.597
 2584SOL     OW 8650   4.175   4.614   6.427
 2584SOL    HW1 8651   4.163   4.668   6.510
 2584SOL    HW2 8652   4.094   4.556   6.413
 2585SOL     OW 8653   3.333   4.704   6.519
 2585SOL    HW1 8654   3.280   4.665   6.444
 2585SOL    HW2 8655   3.425   4.728   6.486
 2586SOL     OW 8656   2.660   0.762   3.706
 2586SOL    HW1 8657   2.714   0.831   3.754
 2586SOL    HW2 8658   2.663   0.780   3.607
 2587SOL     OW 8659   6.743   1.340   3.844
 2587SOL    HW1 8660   6.673   1.311   3.910
 2587SOL    HW2 8661   6.801   1.262   3.821
 2588SOL     OW 8662   4.511   0.687   6.385
 2588SOL    HW1 8663   4.437   0.683   6.452
 2588SOL    HW2 8664   4.538   0.782   6.371
 2589SOL     OW 8665   2.113   6.619   0.290
 2589SOL    HW1 8666   2.071   6.564   0.362
 2589SOL    HW2 8667   2.177   6.562   0.238
 2590SOL     OW 8668   2.444   5.250   0.226
 2590SOL    HW1 8669   2.392   5.195   0.292
 2590SOL    HW2 8670   2.417   5.346   0.235
 2591SOL     OW 8671   6.319   5.637   3.475
 2591SOL    HW1 8672   6.245   5.636   3.408
 2591SOL    HW2 8673   6.398   5.685   3.437
 2592SOL     OW 8674   2.548   3.920   0.970
 2592SOL    HW1 8675   2.487   3.842   0.957
 2592SOL    HW2 8676   2.622   3.895   1.033
 2593SOL     OW 8677   3.085   3.682   0.733
 2593SOL    HW1 8678   3.077   3.627   0.649
 2593SOL    HW2 8679   3.014   3.752   0.733
 2594SOL     OW 8680   1.738   3.443   4.521
 2594SOL    HW1 8681   1.691   3.514   4.573
 2594SOL    HW2 8682   1.706   3.353   4.550
 2595SOL     OW 8683   1.997   1.121   2.561
 2595SOL    HW1 8684   2.042   1.049   2.614
 2595SOL    HW2 8685   2.060   1.198   2.550
 2596SOL     OW 8686   1.301   1.970   0.193
 2596SOL    HW1 8687   1.328   2.066   0.187
 2596SOL    HW2 8688   1.229   1.960   0.263
 2597SOL     OW 8689   7.004   6.430   6.627
 2597SOL    HW1 8690   0.063   6.469   6.591
 2597SOL    HW2 8691   6.960   6.496   6.688
 2598SOL     OW 8692   5.943   2.380   2.720
 2598SOL    HW1 8693   5.872   2.309   2.716
 2598SOL    HW2 8694   5.939   2.435   2.637
 2599SOL     OW 8695   3.277   5.752   1.948
 2599SOL    HW1 8696   3.358   5.725   1.999
 2599SOL    HW2 8697   3.304   5.807   1.869
 2600SOL     OW 8698   5.776   4.225   4.406
 2600SOL    HW1 8699   5.827   4.311   4.400
 2600SOL    HW2 8700   5.802   4.176   4.489
 2601SOL     OW 8701   6.598   1.466   3.663
 2601SOL    HW1 8702   6.507   1.502   3.686
 2601SOL    HW2 8703   6.645   1.439   3.746
 2602SOL     OW 8704   0.931   4.101   3.187
 2602SOL    HW1 8705   0.867   4.043   3.237
 2602SOL    HW2 8706   0.906   4.197   3.199
 2603SOL     OW 8707   2.658   6.274   2.761
 2603SOL    HW1 8708   2.704   6.186   2.746
 2603SOL    HW2 8709   2.599   6.267   2.841
 2604SOL     OW 8710   4.753   2.719   3.566
 2604SOL    HW1 8711   4.769   2.814   3.538
 2604SOL    HW2 8712   4.834   2.684   3.612
 2605SOL     OW 8713   1.893   3.885   2.148
 2605SOL    HW1 8714   1.955   3.825   2.097
 2605SOL    HW2 8715   1.946   3.957   2.192
 2606SOL     OW 8716   4.748   3.503   1.057
 2606SOL    HW1 8717   4.761   3.520   1.155
 2606SOL    HW2 8718   4.809   3.561   1.005
 2607SOL     OW 8719   2.650   2.046   1.615
 2607SOL    HW1 8720   2.717   2.117   1.637
 2607SOL    HW2 8721   2.695   1.957   1.610
 2608SOL     OW 8722   2.767   4.962   5.789
 2608SOL    HW1 8723   2.673   4.966   5.755
 2608SOL    HW2 8724   2.813   4.883   5.748
 2609SOL     OW 8725   0.128   2.533   0.610
 2609SOL    HW1 8726   0.052   2.522   0.547
 2609SOL    HW2 8727   0.214   2.532   0.559
 2610SOL     OW 8728   1.593   4.089   4.963
 2610SOL    HW1 8729   1.506   4.041   4.949
 2610SOL    HW2 8730   1.661   4.024   4.996
 2611SOL     OW 8731   5.154   0.256   6.830
 2611SOL    HW1 8732   5.160   0.175   6.770
 2611SOL    HW2 8733   5.245   0.283   6.859
 2612SOL     OW 8734   6.668   0.243   5.871
 2612SOL    HW1 8735   6.695   0.163   5.818
 2612SOL    HW2 8736   6.663   0.322   5.809
 2613SOL     OW 8737   0.886   6.640   6.798
 2613SOL    HW1 8738   0.839   6.564   6.843
 2613SOL    HW2 8739   0.838   6.662   6.713
 2614SOL     OW 8740   6.052   1.781   6.704
 2614SOL    HW1 8741   6.023   1.795   6.608
 2614SOL    HW2 8742   5.985   1.825   6.764
 2615SOL     OW 8743   0.388   3.309   6.822
 2615SOL    HW1 8744   0.427   3.287   6.733
 2615SOL    HW2 8745   0.318   3.241   6.846
 2616SOL     OW 8746   0.973   1.246   5.170
 2616SOL    HW1 8747   0.991   1.255   5.072
 2616SOL    HW2 8748   0.966   1.149   5.194
 2617SOL     OW 8749   4.915   0.294   1.395
 2617SOL    HW1 8750   4.850   0.269   1.324
 2617SOL    HW2 8751   4.918   0.222   1.465
 2618SOL     OW 8752   1.267   6.342   6.001
 2618SOL    HW1 8753   1.211   6.404   6.056
 2618SOL    HW2 8754   1.210   6.267   5.967
 2619SOL     OW 8755   5.021   1.266   2.766
 2619SOL    HW1 8756   5.020   1.366   2.767
 2619SOL    HW2 8757   5.114   1.233   2.780
 2620SOL     OW 8758   6.124   1.565   1.465
 2620SOL    HW1 8759   6.221   1.560   1.490
 2620SOL    HW2 8760   6.115   1.592   1.369
 2621SOL     OW 8761   1.828   5.942   1.493
 2621SOL    HW1 8762   1.732   5.916   1.505
 2621SOL    HW2 8763   1.885   5.887   1.554
 2622SOL     OW 8764   2.974   3.842   6.903
 2622SOL    HW1 8765   2.992   3.928   6.855
 2622SOL    HW2 8766   2.955   3.770   6.837
 2623SOL     OW 8767   0.304   6.048   3.354
 2623SOL    HW1 8768   0.365   6.103   3.296
 2623SOL    HW2 8769   0.332   5.952   3.348
 2624SOL     OW 8770   0.498   1.527   4.837
 2624SOL    HW1 8771   0.519   1.485   4.749
 2624SOL    HW2 8772   0.460   1.619   4.822
 2625SOL     OW 8773   2.463   5.018   6.476
 2625SOL    HW1 8774   2.562   5.018   6.489
 2625SOL    HW2 8775   2.424   4.934   6.512
 2626SOL     OW 8776   6.999   5.906   6.725
 2626SOL    HW1 8777   6.965   6.000   6.715
 2626SOL    HW2 8778   0.057   5.895   6.669
 2627SOL     OW 8779   1.974   0.322   6.199
 2627SOL    HW1 8780   2.068   0.304   6.230
 2627SOL    HW2 8781   1.918   0.351   6.277
 2628SOL     OW 8782   7.006   4.459   1.341
 2628SOL    HW1 8783   6.915   4.429   1.314
 2628SOL    HW2 8784   0.039   4.379   1.356
 2629SOL     OW 8785   3.359   4.073   2.503
 2629SOL    HW1 8786   3.406   3.990   2.473
 2629SOL    HW2 8787   3.302   4.108   2.429
 2630SOL     OW 8788   3.882   0.674   4.380
 2630SOL    HW1 8789   3.929   0.761   4.365
 2630SOL    HW2 8790   3.919   0.630   4.462
 2631SOL     OW 8791   5.486   0.179   0.004
 2631SOL    HW1 8792   5.434   0.195   0.087
 2631SOL    HW2 8793   5.502   0.080   7.018
 2632SOL     OW 8794   5.828   5.222   1.880
 2632SOL    HW1 8795   5.885   5.184   1.807
 2632SOL    HW2 8796   5.792   5.148   1.937
 2633SOL     OW 8797   0.204   3.239   6.090
 2633SOL    HW1 8798   0.270   3.165   6.092
 2633SOL    HW2 8799   0.172   3.253   5.996
 2634SOL     OW 8800   0.463   1.153   5.857
 2634SOL    HW1 8801   0.496   1.217   5.926
 2634SOL    HW2 8802   0.532   1.140   5.787
 2635SOL     OW 8803   4.548   5.390   3.554
 2635SOL    HW1 8804   4.557   5.433   3.464
 2635SOL    HW2 8805   4.453   5.363   3.568
 2636SOL     OW 8806   3.638   6.473   6.105
 2636SOL    HW1 8807   3.580   6.395   6.125
 2636SOL    HW2 8808   3.582   6.551   6.076
 2637SOL     OW 8809   0.609   1.175   3.223
 2637SOL    HW1 8810   0.683   1.116   3.191
 2637SOL    HW2 8811   0.637   1.219   3.309
 2638SOL     OW 8812   1.020   6.435   4.542
 2638SOL    HW1 8813   1.027   6.511   4.477
 2638SOL    HW2 8814   0.938   6.382   4.521
 2639SOL     OW 8815   4.360   4.716   4.778
 2639SOL    HW1 8816   4.385   4.655   4.853
 2639SOL    HW2 8817   4.436   4.778   4.760
 2640SOL     OW 8818   2.395   0.879   3.691
 2640SOL    HW1 8819   2.407   0.949   3.761
 2640SOL    HW2 8820   2.462   0.807   3.704
 2641SOL     OW 8821   5.931   2.118   6.910
 2641SOL    HW1 8822   5.896   2.180   6.841
 2641SOL    HW2 8823   5.941   2.167   6.997
 2642SOL     OW 8824   6.277   0.311   3.166
 2642SOL    HW1 8825   6.307   0.252   3.091
 2642SOL    HW2 8826   6.207   0.264   3.220
 2643SOL     OW 8827   2.098   4.797   4.146
 2643SOL    HW1 8828   2.173   4.788   4.212
 2643SOL    HW2 8829   2.123   4.863   4.076
 2644SOL     OW 8830   5.644   5.406   4.749
 2644SOL    HW1 8831   5.648   5.449   4.839
 2644SOL    HW2 8832   5.650   5.306   4.760
 2645SOL     OW 8833   4.897   5.854   3.505
 2645SOL    HW1 8834   4.914   5.759   3.478
 2645SOL    HW2 8835   4.919   5.915   3.428
 2646SOL     OW 8836   1.041   2.691   6.334
 2646SOL    HW1 8837   1.136   2.721   6.330
 2646SOL    HW2 8838   0.982   2.771   6.348
 2647SOL     OW 8839   4.970   6.741   2.413
 2647SOL    HW1 8840   4.934   6.714   2.324
 2647SOL    HW2 8841   4.941   6.835   2.433
 2648SOL     OW 8842   0.809   6.651   6.516
 2648SOL    HW1 8843   0.721   6.679   6.477
 2648SOL    HW2 8844   0.877   6.723   6.499
 2649SOL     OW 8845   5.276   1.668   3.333
 2649SOL    HW1 8846   5.188   1.671   3.381
 2649SOL    HW2 8847   5.333   1.744   3.364
 2650SOL     OW 8848   2.972   6.734   3.994
 2650SOL    HW1 8849   2.957   6.639   4.022
 2650SOL    HW2 8850   3.034   6.779   4.059
 2651SOL     OW 8851   4.366   2.354   3.963
 2651SOL    HW1 8852   4.412   2.442   3.957
 2651SOL    HW2 8853   4.434   2.281   3.967
 2652SOL     OW 8854   4.789   4.277   5.326
 2652SOL    HW1 8855   4.821   4.249   5.417
 2652SOL    HW2 8856   4.852   4.345   5.289
 2653SOL     OW 8857   2.260   5.948   6.443
 2653SOL    HW1 8858   2.296   6.032   6.483
 2653SOL    HW2 8859   2.326   5.912   6.376
 2654SOL     OW 8860   0.032   0.934   0.575
 2654SOL    HW1 8861   0.034   0.973   0.667
 2654SOL    HW2 8862   0.110   0.968   0.522
 2655SOL     OW 8863   5.632   6.653   2.625
 2655SOL    HW1 8864   5.628   6.557   2.601
 2655SOL    HW2 8865   5.727   6.682   2.637
 2656SOL     OW 8866   4.326   6.155   3.578
 2656SOL    HW1 8867   4.315   6.056   3.570
 2656SOL    HW2 8868   4.246   6.194   3.625
 2657SOL     OW 8869   1.097   3.560   6.813
 2657SOL    HW1 8870   1.159   3.633   6.783
 2657SOL    HW2 8871   1.030   3.542   6.741
 2658SOL     OW 8872   3.836   5.125   0.723
 2658SOL    HW1 8873   3.922   5.149   0.768
 2658SOL    HW2 8874   3.840   5.153   0.627
 2659SOL     OW 8875   6.954   2.309   5.141
 2659SOL    HW1 8876   6.862   2.328   5.108
 2659SOL    HW2 8877   7.012   2.389   5.127
 2660SOL     OW 8878   0.200   1.689   1.438
 2660SOL    HW1 8879   0.233   1.654   1.351
 2660SOL    HW2 8880   0.109   1.652   1.457
 2661SOL     OW 8881   1.829   1.048   0.952
 2661SOL    HW1 8882   1.833   1.144   0.980
 2661SOL    HW2 8883   1.737   1.026   0.920
 2662SOL     OW 8884   2.915   1.914   2.217
 2662SOL    HW1 8885   2.933   1.818   2.197
 2662SOL    HW2 8886   2.864   1.921   2.303
 2663SOL     OW 8887   4.026   0.165   0.282
 2663SOL    HW1 8888   3.988   0.083   0.240
 2663SOL    HW2 8889   3.988   0.176   0.374
 2664SOL     OW 8890   4.901   3.674   5.438
 2664SOL    HW1 8891   4.853   3.762   5.438
 2664SOL    HW2 8892   4.883   3.626   5.524
 2665SOL     OW 8893   1.900   3.023   4.126
 2665SOL    HW1 8894   1.806   3.038   4.095
 2665SOL    HW2 8895   1.959   3.094   4.088
 2666SOL     OW 8896   1.786   4.148   1.583
 2666SOL    HW1 8897   1.780   4.243   1.615
 2666SOL    HW2 8898   1.811   4.089   1.659
 2667SOL     OW 8899   6.521   2.958   5.564
 2667SOL    HW1 8900   6.604   2.971   5.510
 2667SOL    HW2 8901   6.537   2.991   5.657
 2668SOL     OW 8902   6.315   0.645   2.972
 2668SOL    HW1 8903   6.221   0.615   2.991
 2668SOL    HW2 8904   6.316   0.744   2.962
 2669SOL     OW 8905   2.619   0.811   0.342
 2669SOL    HW1 8906   2.536   0.759   0.363
 2669SOL    HW2 8907   2.604   0.864   0.258
 2670SOL     OW 8908   0.082   0.144   6.406
 2670SOL    HW1 8909   0.044   0.210   6.341
 2670SOL    HW2 8910   0.148   0.085   6.358
 2671SOL     OW 8911   5.306   4.586   6.348
 2671SOL    HW1 8912   5.366   4.663   6.370
 2671SOL    HW2 8913   5.215   4.621   6.324
 2672SOL     OW 8914   3.297   0.669   1.744
 2672SOL    HW1 8915   3.261   0.757   1.775
 2672SOL    HW2 8916   3.309   0.671   1.645
 2673SOL     OW 8917   3.988   0.333   2.418
 2673SOL    HW1 8918   3.925   0.403   2.382
 2673SOL    HW2 8919   4.050   0.375   2.484
 2674SOL     OW 8920   0.379   5.750   3.050
 2674SOL    HW1 8921   0.473   5.779   3.029
 2674SOL    HW2 8922   0.369   5.653   3.029
 2675SOL     OW 8923   4.541   1.257   4.548
 2675SOL    HW1 8924   4.463   1.242   4.610
 2675SOL    HW2 8925   4.568   1.353   4.551
 2676SOL     OW 8926   3.454   4.126   3.558
 2676SOL    HW1 8927   3.435   4.171   3.645
 2676SOL    HW2 8928   3.377   4.066   3.534
 2677SOL     OW 8929   1.953   5.973   1.265
 2677SOL    HW1 8930   2.005   5.893   1.237
 2677SOL    HW2 8931   1.903   5.953   1.349
 2678SOL     OW 8932   3.900   1.633   2.491
 2678SOL    HW1 8933   3.973   1.600   2.551
 2678SOL    HW2 8934   3.814   1.587   2.514
 2679SOL     OW 8935   2.089   2.857   2.661
 2679SOL    HW1 8936   2.169   2.798   2.659
 2679SOL    HW2 8937   2.090   2.912   2.745
 2680SOL     OW 8938   5.751   2.387   0.218
 2680SOL    HW1 8939   5.672   2.326   0.218
 2680SOL    HW2 8940   5.801   2.378   0.132
 2681SOL     OW 8941   1.938   2.696   3.678
 2681SOL    HW1 8942   1.933   2.745   3.765
 2681SOL    HW2 8943   1.868   2.625   3.676
 2682SOL     OW 8944   3.598   3.979   1.563
 2682SOL    HW1 8945   3.608   3.951   1.467
 2682SOL    HW2 8946   3.520   4.041   1.571
 2683SOL     OW 8947   2.188   3.921   1.762
 2683SOL    HW1 8948   2.151   3.913   1.855
 2683SOL    HW2 8949   2.122   3.886   1.696
 2684SOL     OW 8950   6.708   0.222   3.741
 2684SOL    HW1 8951   6.756   0.281   3.676
 2684SOL    HW2 8952   6.636   0.274   3.787
 2685SOL     OW 8953   0.607   5.983   5.317
 2685SOL    HW1 8954   0.673   5.908   5.327
 2685SOL    HW2 8955   0.593   6.002   5.220
 2686SOL     OW 8956   1.344   0.879   5.678
 2686SOL    HW1 8957   1.423   0.936   5.658
 2686SOL    HW2 8958   1.290   0.921   5.751
 2687SOL     OW 8959   4.106   1.704   1.537
 2687SOL    HW1 8960   4.192   1.741   1.573
 2687SOL    HW2 8961   4.126   1.646   1.458
 2688SOL     OW 8962   3.940   2.527   6.732
 2688SOL    HW1 8963   4.040   2.527   6.741
 2688SOL    HW2 8964   3.913   2.595   6.664
 2689SOL     OW 8965   0.767   3.545   3.373
 2689SOL    HW1 8966   0.712   3.496   3.305
 2689SOL    HW2 8967   0.861   3.552   3.341
 2690SOL     OW 8968   4.716   0.898   5.580
 2690SOL    HW1 8969   4.667   0.875   5.665
 2690SOL    HW2 8970   4.715   0.819   5.519
 2691SOL     OW 8971   0.226   3.915   5.261
 2691SOL    HW1 8972   0.214   4.015   5.261
 2691SOL    HW2 8973   0.291   3.889   5.189
 2692SOL     OW 8974   2.496   5.933   1.969
 2692SOL    HW1 8975   2.464   5.842   1.994
 2692SOL    HW2 8976   2.584   5.951   2.013
 2693SOL     OW 8977   0.954   6.089   3.243
 2693SOL    HW1 8978   0.856   6.111   3.246
 2693SOL    HW2 8979   0.980   6.042   3.327
 2694SOL     OW 8980   2.306   0.180   2.367
 2694SOL    HW1 8981   2.341   0.259   2.418
 2694SOL    HW2 8982   2.354   0.172   2.280
 2695SOL     OW 8983   0.199   5.047   4.053
 2695SOL    HW1 8984   0.252   4.967   4.080
 2695SOL    HW2 8985   0.107   5.018   4.025
 2696SOL     OW 8986   4.694   5.105   6.329
 2696SOL    HW1 8987   4.653   5.196   6.337
 2696SOL    HW2 8988   4.635   5.038   6.375
 2697SOL     OW 8989   4.028   1.950   0.298
 2697SOL    HW1 8990   3.933   1.920   0.311
 2697SOL    HW2 8991   4.089   1.870   0.301
 2698SOL     OW 8992   1.755   5.664   5.999
 2698SOL    HW1 8993   1.766   5.749   5.947
 2698SOL    HW2 8994   1.788   5.587   5.945
 2699SOL     OW 8995   2.690   6.358   2.332
 2699SOL    HW1 8996   2.648   6.335   2.244
 2699SOL    HW2 8997   2.621   6.399   2.392
 2700SOL     OW 8998   4.502   1.904   1.407
 2700SOL    HW1 8999   4.416   1.954   1.395
 2700SOL    HW2 9000   4.508   1.831   1.339
 2701SOL     OW 9001   4.922   3.514   4.535
 2701SOL    HW1 9002   4.839   3.568   4.555
 2701SOL    HW2 9003   5.001   3.561   4.574
 2702SOL     OW 9004   2.680   1.312   4.659
 2702SOL    HW1 9005   2.742   1.379   4.617
 2702SOL    HW2 9006   2.733   1.238   4.701
 2703SOL     OW 9007   2.525   6.407   2.564
 2703SOL    HW1 9008   2.498   6.487   2.617
 2703SOL    HW2 9009   2.566   6.339   2.625
 2704SOL     OW 9010   4.940   0.636   3.516
 2704SOL    HW1 9011   4.960   0.661   3.421
 2704SOL    HW2 9012   4.974   0.708   3.577
 2705SOL     OW 9013   0.584   0.337   5.242
 2705SOL    HW1 9014   0.531   0.356   5.158
 2705SOL    HW2 9015   0.547   0.255   5.286
 2706SOL     OW 9016   6.843   4.038   3.452
 2706SOL    HW1 9017   6.840   4.029   3.552
 2706SOL    HW2 9018   6.751   4.056   3.418
 2707SOL     OW 9019   4.221   1.057   3.591
 2707SOL    HW1 9020   4.276   1.101   3.520
 2707SOL    HW2 9021   4.264   0.970   3.618
 2708SOL     OW 9022   5.187   3.512   6.156
 2708SOL    HW1 9023   5.216   3.436   6.098
 2708SOL    HW2 9024   5.133   3.576   6.102
 2709SOL     OW 9025   4.452   1.418   5.577
 2709SOL    HW1 9026   4.382   1.476   5.618
 2709SOL    HW2 9027   4.409   1.356   5.511
 2710SOL     OW 9028   0.924   3.211   4.405
 2710SOL    HW1 9029   0.920   3.311   4.400
 2710SOL    HW2 9030   0.995   3.184   4.470
 2711SOL     OW 9031   4.178   0.823   1.570
 2711SOL    HW1 9032   4.218   0.766   1.641
 2711SOL    HW2 9033   4.110   0.770   1.520
 2712SOL     OW 9034   5.072   6.198   2.093
 2712SOL    HW1 9035   5.107   6.218   2.001
 2712SOL    HW2 9036   4.972   6.202   2.093
 2713SOL     OW 9037   3.654   4.880   5.226
 2713SOL    HW1 9038   3.727   4.830   5.273
 2713SOL    HW2 9039   3.639   4.968   5.269
 2714SOL     OW 9040   3.063   4.427   6.235
 2714SOL    HW1 9041   3.098   4.378   6.315
 2714SOL    HW2 9042   3.101   4.386   6.152
 2715SOL     OW 9043   4.112   6.718   6.488
 2715SOL    HW1 9044   4.190   6.721   6.426
 2715SOL    HW2 9045   4.145   6.718   6.582
 2716SOL     OW 9046   3.971   0.877   2.846
 2716SOL    HW1 9047   3.916   0.933   2.909
 2716SOL    HW2 9048   4.003   0.796   2.893
 2717SOL     OW 9049   1.058   2.091   1.911
 2717SOL    HW1 9050   0.987   2.148   1.868
 2717SOL    HW2 9051   1.017   2.036   1.983
 2718SOL     OW 9052   6.586   1.616   5.598
 2718SOL    HW1 9053   6.512   1.616   5.665
 2718SOL    HW2 9054   6.636   1.529   5.603
 2719SOL     OW 9055   1.559   5.309   3.697
 2719SOL    HW1 9056   1.474   5.342   3.655
 2719SOL    HW2 9057   1.545   5.296   3.795
 2720SOL     OW 9058   1.619   5.942   6.133
 2720SOL    HW1 9059   1.579   6.006   6.200
 2720SOL    HW2 9060   1.710   5.975   6.106
 2721SOL     OW 9061   2.526   6.788   1.854
 2721SOL    HW1 9062   2.602   6.780   1.790
 2721SOL    HW2 9063   2.553   6.847   1.930
 2722SOL     OW 9064   4.041   5.055   6.682
 2722SOL    HW1 9065   4.062   5.123   6.612
 2722SOL    HW2 9066   4.102   4.976   6.672
 2723SOL     OW 9067   3.749   5.962   6.756
 2723SOL    HW1 9068   3.679   6.027   6.783
 2723SOL    HW2 9069   3.833   5.978   6.809
 2724SOL     OW 9070   0.217   5.686   0.970
 2724SOL    HW1 9071   0.134   5.662   1.021
 2724SOL    HW2 9072   0.191   5.728   0.883
 2725SOL     OW 9073   5.734   4.639   3.641
 2725SOL    HW1 9074   5.775   4.551   3.616
 2725SOL    HW2 9075   5.798   4.690   3.699
 2726SOL     OW 9076   6.660   1.746   2.336
 2726SOL    HW1 9077   6.561   1.756   2.344
 2726SOL    HW2 9078   6.682   1.655   2.301
 2727SOL     OW 9079   1.368   5.859   3.460
 2727SOL    HW1 9080   1.416   5.818   3.538
 2727SOL    HW2 9081   1.411   5.828   3.375
 2728SOL     OW 9082   4.343   5.484   6.430
 2728SOL    HW1 9083   4.249   5.486   6.464
 2728SOL    HW2 9084   4.345   5.524   6.338
 2729SOL     OW 9085   5.786   0.491   6.505
 2729SOL    HW1 9086   5.853   0.489   6.579
 2729SOL    HW2 9087   5.826   0.538   6.426
 2730SOL     OW 9088   1.382   6.025   3.025
 2730SOL    HW1 9089   1.332   5.993   3.106
 2730SOL    HW2 9090   1.322   6.020   2.945
 2731SOL     OW 9091   2.953   3.944   4.926
 2731SOL    HW1 9092   2.870   3.999   4.917
 2731SOL    HW2 9093   3.027   4.002   4.959
 2732SOL     OW 9094   5.351   0.464   1.949
 2732SOL    HW1 9095   5.399   0.393   2.000
 2732SOL    HW2 9096   5.345   0.437   1.853
 2733SOL     OW 9097   0.773   6.219   0.079
 2733SOL    HW1 9098   0.871   6.205   0.063
 2733SOL    HW2 9099   0.743   6.162   0.155
 2734SOL     OW 9100   3.663   6.249   2.471
 2734SOL    HW1 9101   3.711   6.208   2.393
 2734SOL    HW2 9102   3.697   6.342   2.486
 2735SOL     OW 9103   0.659   1.567   1.596
 2735SOL    HW1 9104   0.688   1.492   1.538
 2735SOL    HW2 9105   0.636   1.532   1.687
 2736SOL     OW 9106   5.765   4.320   3.172
 2736SOL    HW1 9107   5.833   4.356   3.108
 2736SOL    HW2 9108   5.796   4.232   3.208
 2737SOL     OW 9109   3.167   0.575   5.405
 2737SOL    HW1 9110   3.256   0.619   5.396
 2737SOL    HW2 9111   3.099   0.643   5.432
 2738SOL     OW 9112   4.811   5.467   1.502
 2738SOL    HW1 9113   4.734   5.530   1.496
 2738SOL    HW2 9114   4.864   5.486   1.585
 2739SOL     OW 9115   6.978   4.980   1.356
 2739SOL    HW1 9116   6.939   5.038   1.428
 2739SOL    HW2 9117   6.947   4.885   1.369
 2740SOL     OW 9118   0.540   5.302   3.311
 2740SOL    HW1 9119   0.606   5.236   3.347
 2740SOL    HW2 9120   0.509   5.272   3.221
 2741SOL     OW 9121   0.394   0.194   5.379
 2741SOL    HW1 9122   0.335   0.114   5.392
 2741SOL    HW2 9123   0.400   0.246   5.464
 2742SOL     OW 9124   3.399   5.580   2.308
 2742SOL    HW1 9125   3.442   5.671   2.304
 2742SOL    HW2 9126   3.444   5.520   2.242
 2743SOL     OW 9127   5.111   1.506   2.855
 2743SOL    HW1 9128   5.159   1.541   2.935
 2743SOL    HW2 9129   5.121   1.571   2.779
 2744SOL     OW 9130   3.584   4.139   2.696
 2744SOL    HW1 9131   3.504   4.158   2.639
 2744SOL    HW2 9132   3.568   4.174   2.788
 2745SOL     OW 9133   0.654   6.105   0.455
 2745SOL    HW1 9134   0.706   6.019   0.456
 2745SOL    HW2 9135   0.568   6.092   0.504
 2746SOL     OW 9136   1.790   1.489   3.355
 2746SOL    HW1 9137   1.845   1.572   3.350
 2746SOL    HW2 9138   1.699   1.507   3.318
 2747SOL     OW 9139   3.791   4.243   0.953
 2747SOL    HW1 9140   3.889   4.263   0.949
 2747SOL    HW2 9141   3.776   4.154   0.995
 2748SOL     OW 9142   3.900   0.142   0.549
 2748SOL    HW1 9143   3.873   0.236   0.530
 2748SOL    HW2 9144   3.846   0.106   0.625
 2749SOL     OW 9145   2.897   1.622   1.048
 2749SOL    HW1 9146   2.921   1.592   0.956
 2749SOL    HW2 9147   2.877   1.720   1.047
 2750SOL     OW 9148   3.374   5.514   2.563
 2750SOL    HW1 9149   3.286   5.551   2.591
 2750SOL    HW2 9150   3.390   5.533   2.466
 2751SOL     OW 9151   6.542   5.161   0.965
 2751SOL    HW1 9152   6.448   5.130   0.971
 2751SOL    HW2 9153   6.596   5.117   1.038
 2752SOL     OW 9154   4.152   5.752   6.792
 2752SOL    HW1 9155   4.176   5.849   6.787
 2752SOL    HW2 9156   4.219   5.699   6.741
 2753SOL     OW 9157   5.329   6.087   5.333
 2753SOL    HW1 9158   5.380   6.002   5.348
 2753SOL    HW2 9159   5.391   6.165   5.336
 2754SOL     OW 9160   1.271   6.763   5.884
 2754SOL    HW1 9161   1.195   6.705   5.912
 2754SOL    HW2 9162   1.287   6.834   5.952
 2755SOL     OW 9163   4.317   0.445   2.298
 2755SOL    HW1 9164   4.399   0.501   2.290
 2755SOL    HW2 9165   4.261   0.478   2.374
 2756SOL     OW 9166   4.657   5.849   0.136
 2756SOL    HW1 9167   4.599   5.874   0.058
 2756SOL    HW2 9168   4.601   5.804   0.205
 2757SOL     OW 9169   0.437   4.753   0.949
 2757SOL    HW1 9170   0.357   4.693   0.955
 2757SOL    HW2 9171   0.498   4.734   1.026
 2758SOL     OW 9172   3.970   0.870   5.357
 2758SOL    HW1 9173   3.948   0.956   5.312
 2758SOL    HW2 9174   4.032   0.888   5.434
 2759SOL     OW 9175   5.102   5.088   4.752
 2759SOL    HW1 9176   5.189   5.126   4.721
 2759SOL    HW2 9177   5.035   5.161   4.765
 2760SOL     OW 9178   1.597   6.504   3.660
 2760SOL    HW1 9179   1.501   6.530   3.672
 2760SOL    HW2 9180   1.615   6.419   3.709
 2761SOL     OW 9181   2.414   5.110   3.924
 2761SOL    HW1 9182   2.407   5.086   3.827
 2761SOL    HW2 9183   2.443   5.205   3.933
 2762SOL     OW 9184   1.378   0.436   4.864
 2762SOL    HW1 9185   1.426   0.389   4.938
 2762SOL    HW2 9186   1.281   0.444   4.888
 2763SOL     OW 9187   5.319   1.713   2.590
 2763SOL    HW1 9188   5.248   1.740   2.654
 2763SOL    HW2 9189   5.280   1.655   2.519
 2764SOL     OW 9190   6.445   0.902   1.883
 2764SOL    HW1 9191   6.544   0.904   1.893
 2764SOL    HW2 9192   6.402   0.937   1.966
 2765SOL     OW 9193   5.595   2.018   2.470
 2765SOL    HW1 9194   5.690   2.047   2.482
 2765SOL    HW2 9195   5.534   2.095   2.490
 2766SOL     OW 9196   6.053   0.416   2.661
 2766SOL    HW1 9197   6.040   0.487   2.592
 2766SOL    HW2 9198   6.093   0.335   2.618
 2767SOL     OW 9199   6.221   4.580   5.714
 2767SOL    HW1 9200   6.217   4.586   5.615
 2767SOL    HW2 9201   6.315   4.599   5.745
 2768SOL     OW 9202   6.047   1.260   6.500
 2768SOL    HW1 9203   6.122   1.326   6.507
 2768SOL    HW2 9204   5.981   1.277   6.573
 2769SOL     OW 9205   1.193   4.675   1.307
 2769SOL    HW1 9206   1.204   4.614   1.229
 2769SOL    HW2 9207   1.188   4.621   1.391
 2770SOL     OW 9208   6.359   6.041   1.640
 2770SOL    HW1 9209   6.274   6.093   1.643
 2770SOL    HW2 9210   6.424   6.085   1.578
 2771SOL     OW 9211   4.880   1.216   1.012
 2771SOL    HW1 9212   4.827   1.214   0.927
 2771SOL    HW2 9213   4.821   1.243   1.087
 2772SOL     OW 9214   3.717   2.209   6.485
 2772SOL    HW1 9215   3.774   2.176   6.560
 2772SOL    HW2 9216   3.688   2.303   6.504
 2773SOL     OW 9217   3.316   4.343   0.893
 2773SOL    HW1 9218   3.374   4.267   0.863
 2773SOL    HW2 9219   3.229   4.307   0.928
 2774SOL     OW 9220   5.668   3.437   2.441
 2774SOL    HW1 9221   5.638   3.346   2.412
 2774SOL    HW2 9222   5.693   3.491   2.361
 2775SOL     OW 9223   6.809   0.039   2.364
 2775SOL    HW1 9224   6.901   0.059   2.400
 2775SOL    HW2 9225   6.765   6.995   2.421
 2776SOL     OW 9226   3.392   6.045   6.027
 2776SOL    HW1 9227   3.474   6.088   5.989
 2776SOL    HW2 9228   3.331   6.018   5.953
 2777SOL     OW 9229   2.883   1.572   3.479
 2777SOL    HW1 9230   2.964   1.547   3.427
 2777SOL    HW2 9231   2.825   1.492   3.492
 2778SOL     OW 9232   2.486   1.784   4.687
 2778SOL    HW1 9233   2.460   1.875   4.721
 2778SOL    HW2 9234   2.582   1.766   4.710
 2779SOL     OW 9235   6.159   1.268   0.700
 2779SOL    HW1 9236   6.093   1.236   0.633
 2779SOL    HW2 9237   6.118   1.269   0.791
 2780SOL     OW 9238   4.335   5.996   0.247
 2780SOL    HW1 9239   4.328   6.064   0.320
 2780SOL    HW2 9240   4.345   5.905   0.288
 2781SOL     OW 9241   4.877   4.782   0.557
 2781SOL    HW1 9242   4.796   4.724   0.552
 2781SOL    HW2 9243   4.872   4.839   0.640
 2782SOL     OW 9244   2.650   1.400   6.128
 2782SOL    HW1 9245   2.560   1.368   6.099
 2782SOL    HW2 9246   2.688   1.459   6.057
 2783SOL     OW 9247   0.359   4.521   6.193
 2783SOL    HW1 9248   0.290   4.534   6.121
 2783SOL    HW2 9249   0.435   4.467   6.156
 2784SOL     OW 9250   2.214   2.089   1.936
 2784SOL    HW1 9251   2.249   2.151   1.867
 2784SOL    HW2 9252   2.275   2.010   1.945
 2785SOL     OW 9253   5.992   1.139   1.608
 2785SOL    HW1 9254   6.062   1.151   1.537
 2785SOL    HW2 9255   5.958   1.045   1.605
 2786SOL     OW 9256   2.970   6.955   0.020
 2786SOL    HW1 9257   2.898   6.952   0.089
 2786SOL    HW2 9258   2.943   6.901   6.966
 2787SOL     OW 9259   2.054   2.880   5.381
 2787SOL    HW1 9260   1.992   2.920   5.449
 2787SOL    HW2 9261   2.027   2.910   5.289
 2788SOL     OW 9262   0.734   3.927   6.965
 2788SOL    HW1 9263   0.737   3.827   6.970
 2788SOL    HW2 9264   0.720   3.955   6.870
 2789SOL     OW 9265   7.018   2.352   4.191
 2789SOL    HW1 9266   7.015   2.370   4.290
 2789SOL    HW2 9267   6.941   2.399   4.148
 2790SOL     OW 9268   3.595   5.915   3.873
 2790SOL    HW1 9269   3.647   5.998   3.853
 2790SOL    HW2 9270   3.607   5.891   3.969
 2791SOL     OW 9271   2.322   2.664   2.697
 2791SOL    HW1 9272   2.372   2.599   2.640
 2791SOL    HW2 9273   2.341   2.644   2.793
 2792SOL     OW 9274   0.938   2.540   5.043
 2792SOL    HW1 9275   0.944   2.456   5.096
 2792SOL    HW2 9276   0.842   2.562   5.026
 2793SOL     OW 9277   5.146   0.908   3.890
 2793SOL    HW1 9278   5.117   0.963   3.968
 2793SOL    HW2 9279   5.200   0.830   3.923
 2794SOL     OW 9280   0.680   0.994   1.279
 2794SOL    HW1 9281   0.621   0.983   1.200
 2794SOL    HW2 9282   0.756   0.928   1.274
 2795SOL     OW 9283   1.824   4.425   1.648
 2795SOL    HW1 9284   1.922   4.406   1.653
 2795SOL    HW2 9285   1.803   4.474   1.563
 2796SOL     OW 9286   5.333   4.530   2.577
 2796SOL    HW1 9287   5.345   4.509   2.480
 2796SOL    HW2 9288   5.410   4.586   2.608
 2797SOL     OW 9289   4.595   4.476   4.903
 2797SOL    HW1 9290   4.661   4.535   4.950
 2797SOL    HW2 9291   4.502   4.509   4.919
 2798SOL     OW 9292   1.677   3.329   4.131
 2798SOL    HW1 9293   1.760   3.330   4.187
 2798SOL    HW2 9294   1.654   3.423   4.106
 2799SOL     OW 9295   6.355   5.694   5.757
 2799SOL    HW1 9296   6.282   5.644   5.803
 2799SOL    HW2 9297   6.443   5.668   5.796
 2800SOL     OW 9298   2.937   1.859   6.848
 2800SOL    HW1 9299   2.961   1.778   6.794
 2800SOL    HW2 9300   2.838   1.859   6.865
 2801SOL     OW 9301   4.380   5.335   2.524
 2801SOL    HW1 9302   4.439   5.403   2.480
 2801SOL    HW2 9303   4.416   5.313   2.615
 2802SOL     OW 9304   5.837   0.903   5.932
 2802SOL    HW1 9305   5.930   0.920   5.966
 2802SOL    HW2 9306   5.812   0.808   5.950
 2803SOL     OW 9307   2.096   5.479   5.561
 2803SOL    HW1 9308   2.112   5.441   5.470
 2803SOL    HW2 9309   2.123   5.575   5.562
 2804SOL     OW 9310   0.164   4.703   2.678
 2804SOL    HW1 9311   0.112   4.708   2.593
 2804SOL    HW2 9312   0.187   4.795   2.708
 2805SOL     OW 9313   4.937   3.923   6.109
 2805SOL    HW1 9314   4.861   3.980   6.080
 2805SOL    HW2 9315   5.017   3.943   6.053
 2806SOL     OW 9316   6.861   5.566   2.825
 2806SOL    HW1 9317   6.830   5.506   2.751
 2806SOL    HW2 9318   6.908   5.511   2.894
 2807SOL     OW 9319   4.086   4.762   4.285
 2807SOL    HW1 9320   4.098   4.851   4.239
 2807SOL    HW2 9321   3.991   4.751   4.313
 2808SOL     OW 9322   4.547   5.964   3.834
 2808SOL    HW1 9323   4.564   6.050   3.884
 2808SOL    HW2 9324   4.632   5.933   3.792
 2809SOL     OW 9325   5.467   3.494   0.908
 2809SOL    HW1 9326   5.549   3.526   0.860
 2809SOL    HW2 9327   5.494   3.433   0.983
 2810SOL     OW 9328   1.400   0.177   5.443
 2810SOL    HW1 9329   1.311   0.219   5.460
 2810SOL    HW2 9330   1.433   0.132   5.526
 2811SOL     OW 9331   0.104   1.074   4.153
 2811SOL    HW1 9332   0.107   1.070   4.252
 2811SOL    HW2 9333   0.135   0.987   4.114
 2812SOL     OW 9334   5.496   3.838   2.504
 2812SOL    HW1 9335   5.458   3.834   2.411
 2812SOL    HW2 9336   5.503   3.746   2.540
 2813SOL     OW 9337   6.236   1.728   6.452
 2813SOL    HW1 9338   6.158   1.783   6.421
 2813SOL    HW2 9339   6.276   1.770   6.533
 2814SOL     OW 9340   5.023   4.410   5.294
 2814SOL    HW1 9341   5.116   4.415   5.331
 2814SOL    HW2 9342   5.022   4.350   5.214
 2815SOL     OW 9343   6.995   1.694   5.231
 2815SOL    HW1 9344   0.033   1.637   5.284
 2815SOL    HW2 9345   6.902   1.659   5.242
 2816SOL     OW 9346   5.641   6.431   3.123
 2816SOL    HW1 9347   5.653   6.465   3.030
 2816SOL    HW2 9348   5.610   6.336   3.121
 2817SOL     OW 9349   1.661   1.638   1.229
 2817SOL    HW1 9350   1.753   1.640   1.189
 2817SOL    HW2 9351   1.668   1.643   1.329
 2818SOL     OW 9352   0.300   3.691   6.043
 2818SOL    HW1 9353   0.382   3.748   6.052
 2818SOL    HW2 9354   0.318   3.601   6.084
 2819SOL     OW 9355   5.719   2.965   0.945
 2819SOL    HW1 9356   5.714   3.019   0.861
 2819SOL    HW2 9357   5.799   2.992   0.998
 2820SOL     OW 9358   6.036   2.657   4.520
 2820SOL    HW1 9359   6.086   2.692   4.441
 2820SOL    HW2 9360   6.099   2.611   4.582
 2821SOL     OW 9361   1.209   3.073   3.842
 2821SOL    HW1 9362   1.279   3.009   3.811
 2821SOL    HW2 9363   1.194   3.062   3.940
 2822SOL     OW 9364   3.172   1.877   0.448
 2822SOL    HW1 9365   3.207   1.784   0.437
 2822SOL    HW2 9366   3.246   1.942   0.430
 2823SOL     OW 9367   2.120   6.506   3.352
 2823SOL    HW1 9368   2.116   6.410   3.381
 2823SOL    HW2 9369   2.026   6.540   3.339
 2824SOL     OW 9370   3.065   1.437   4.759
 2824SOL    HW1 9371   2.975   1.447   4.718
 2824SOL    HW2 9372   3.059   1.455   4.858
 2825SOL     OW 9373   6.293   6.099   1.140
 2825SOL    HW1 9374   6.217   6.138   1.088
 2825SOL    HW2 9375   6.374   6.156   1.128
 2826SOL     OW 9376   4.529   2.576   4.199
 2826SOL    HW1 9377   4.464   2.559   4.273
 2826SOL    HW2 9378   4.597   2.643   4.230
 2827SOL     OW 9379   5.623   1.014   6.222
 2827SOL    HW1 9380   5.718   1.045   6.220
 2827SOL    HW2 9381   5.563   1.089   6.193
 2828SOL     OW 9382   3.144   1.786   6.488
 2828SOL    HW1 9383   3.119   1.837   6.406
 2828SOL    HW2 9384   3.185   1.848   6.555
 2829SOL     OW 9385   2.016   0.096   6.591
 2829SOL    HW1 9386   1.941   0.121   6.653
 2829SOL    HW2 9387   1.980   0.043   6.515
 2830SOL     OW 9388   3.506   3.564   6.781
 2830SOL    HW1 9389   3.560   3.500   6.727
 2830SOL    HW2 9390   3.412   3.565   6.748
 2831SOL     OW 9391   5.969   5.475   4.020
 2831SOL    HW1 9392   5.959   5.408   3.947
 2831SOL    HW2 9393   6.040   5.541   3.996
 2832SOL     OW 9394   0.309   0.794   1.837
 2832SOL    HW1 9395   0.239   0.864   1.821
 2832SOL    HW2 9396   0.279   0.733   1.911
 2833SOL     OW 9397   6.111   3.048   2.215
 2833SOL    HW1 9398   6.105   2.960   2.167
 2833SOL    HW2 9399   6.105   3.032   2.314
 2834SOL     OW 9400   3.698   0.913   5.899
 2834SOL    HW1 9401   3.790   0.877   5.908
 2834SOL    HW2 9402   3.647   0.858   5.833
 2835SOL     OW 9403   0.473   6.598   3.019
 2835SOL    HW1 9404   0.471   6.698   3.024
 2835SOL    HW2 9405   0.565   6.566   3.039
 2836SOL     OW 9406   6.655   0.972   0.750
 2836SOL    HW1 9407   6.563   1.009   0.735
 2836SOL    HW2 9408   6.675   0.902   0.681
 2837SOL     OW 9409   6.287   2.811   3.961
 2837SOL    HW1 9410   6.204   2.830   4.014
 2837SOL    HW2 9411   6.296   2.879   3.889
 2838SOL     OW 9412   2.156   5.016   3.928
 2838SOL    HW1 9413   2.250   5.048   3.940
 2838SOL    HW2 9414   2.095   5.095   3.916
 2839SOL     OW 9415   5.042   2.115   1.598
 2839SOL    HW1 9416   5.061   2.043   1.665
 2839SOL    HW2 9417   4.962   2.090   1.544
 2840SOL     OW 9418   6.884   1.962   5.665
 2840SOL    HW1 9419   6.849   1.937   5.574
 2840SOL    HW2 9420   6.902   2.061   5.668
 2841SOL     OW 9421   0.603   6.494   1.452
 2841SOL    HW1 9422   0.577   6.563   1.385
 2841SOL    HW2 9423   0.650   6.537   1.529
 2842SOL     OW 9424   6.203   3.169   3.252
 2842SOL    HW1 9425   6.288   3.130   3.287
 2842SOL    HW2 9426   6.203   3.165   3.152
 2843SOL     OW 9427   3.915   2.002   4.756
 2843SOL    HW1 9428   3.817   2.005   4.739
 2843SOL    HW2 9429   3.954   2.093   4.746
 2844SOL     OW 9430   0.159   3.828   5.562
 2844SOL    HW1 9431   0.155   3.857   5.467
 2844SOL    HW2 9432   0.225   3.754   5.573
 2845SOL     OW 9433   6.537   4.072   5.306
 2845SOL    HW1 9434   6.631   4.094   5.333
 2845SOL    HW2 9435   6.525   3.972   5.308
 2846SOL     OW 9436   4.659   1.064   6.689
 2846SOL    HW1 9437   4.599   1.016   6.752
 2846SOL    HW2 9438   4.623   1.156   6.672
 2847SOL     OW 9439   4.610   4.350   3.972
 2847SOL    HW1 9440   4.571   4.421   4.030
 2847SOL    HW2 9441   4.575   4.360   3.879
 2848SOL     OW 9442   1.247   6.183   5.113
 2848SOL    HW1 9443   1.292   6.259   5.067
 2848SOL    HW2 9444   1.149   6.203   5.123
 2849SOL     OW 9445   2.318   2.991   1.622
 2849SOL    HW1 9446   2.240   2.984   1.559
 2849SOL    HW2 9447   2.289   2.960   1.713
 2850SOL     OW 9448   3.716   1.352   0.149
 2850SOL    HW1 9449   3.631   1.311   0.181
 2850SOL    HW2 9450   3.719   1.347   0.049
 2851SOL     OW 9451   2.532   4.440   6.259
 2851SOL    HW1 9452   2.490   4.437   6.168
 2851SOL    HW2 9453   2.460   4.431   6.329
 2852SOL     OW 9454   7.000   3.298   6.348
 2852SOL    HW1 9455   0.047   3.300   6.280
 2852SOL    HW2 9456   6.977   3.391   6.376
 2853SOL     OW 9457   3.696   3.392   1.647
 2853SOL    HW1 9458   3.659   3.470   1.597
 2853SOL    HW2 9459   3.785   3.367   1.609
 2854SOL     OW 9460   1.168   1.229   3.602
 2854SOL    HW1 9461   1.251   1.285   3.597
 2854SOL    HW2 9462   1.089   1.288   3.619
 2855SOL     OW 9463   3.227   0.929   5.234
 2855SOL    HW1 9464   3.147   0.936   5.294
 2855SOL    HW2 9465   3.246   1.018   5.193
 2856SOL     OW 9466   2.388   1.479   5.016
 2856SOL    HW1 9467   2.299   1.445   5.048
 2856SOL    HW2 9468   2.441   1.511   5.095
 2857SOL     OW 9469   2.991   3.592   3.284
 2857SOL    HW1 9470   2.934   3.575   3.364
 2857SOL    HW2 9471   3.079   3.629   3.314
 2858SOL     OW 9472   5.788   2.544   3.141
 2858SOL    HW1 9473   5.778   2.643   3.155
 2858SOL    HW2 9474   5.734   2.516   3.061
 2859SOL     OW 9475   6.194   6.458   0.688
 2859SOL    HW1 9476   6.153   6.540   0.648
 2859SOL    HW2 9477   6.251   6.413   0.619
 2860SOL     OW 9478   4.376   1.808   1.641
 2860SOL    HW1 9479   4.362   1.881   1.707
 2860SOL    HW2 9480   4.432   1.842   1.565
 2861SOL     OW 9481   3.306   5.332   5.613
 2861SOL    HW1 9482   3.228   5.392   5.596
 2861SOL    HW2 9483   3.330   5.283   5.529
 2862SOL     OW 9484   6.086   0.586   4.575
 2862SOL    HW1 9485   6.179   0.621   4.561
 2862SOL    HW2 9486   6.091   0.490   4.601
 2863SOL     OW 9487   6.319   1.777   0.728
 2863SOL    HW1 9488   6.256   1.764   0.805
 2863SOL    HW2 9489   6.267   1.806   0.648
 2864SOL     OW 9490   3.219   1.401   0.002
 2864SOL    HW1 9491   3.216   1.345   0.085
 2864SOL    HW2 9492   3.126   1.419   6.995
 2865SOL     OW 9493   4.237   5.141   5.328
 2865SOL    HW1 9494   4.220   5.197   5.247
 2865SOL    HW2 9495   4.256   5.201   5.406
 2866SOL     OW 9496   6.943   0.008   6.076
 2866SOL    HW1 9497   6.869   6.998   6.019
 2866SOL    HW2 9498   6.922   7.019   6.172
 2867SOL     OW 9499   6.653   4.358   3.509
 2867SOL    HW1 9500   6.738   4.330   3.465
 2867SOL    HW2 9501   6.667   4.444   3.558
 2868SOL     OW 9502   1.718   4.520   5.450
 2868SOL    HW1 9503   1.712   4.427   5.413
 2868SOL    HW2 9504   1.801   4.529   5.504
 2869SOL     OW 9505   6.026   1.508   2.737
 2869SOL    HW1 9506   5.982   1.521   2.648
 2869SOL    HW2 9507   6.100   1.441   2.728
 2870SOL     OW 9508   4.789   2.045   2.853
 2870SOL    HW1 9509   4.812   1.948   2.865
 2870SOL    HW2 9510   4.873   2.100   2.861
 2871SOL     OW 9511   2.018   1.744   5.832
 2871SOL    HW1 9512   2.068   1.816   5.880
 2871SOL    HW2 9513   2.067   1.719   5.749
 2872SOL     OW 9514   2.089   6.402   4.404
 2872SOL    HW1 9515   2.023   6.341   4.448
 2872SOL    HW2 9516   2.056   6.496   4.412
 2873SOL     OW 9517   0.121   5.261   1.934
 2873SOL    HW1 9518   0.084   5.307   2.015
 2873SOL    HW2 9519   0.171   5.179   1.962
 2874SOL     OW 9520   5.917   1.875   2.631
 2874SOL    HW1 9521   6.013   1.848   2.641
 2874SOL    HW2 9522   5.863   1.836   2.705
 2875SOL     OW 9523   2.916   4.999   0.667
 2875SOL    HW1 9524   2.993   5.060   0.687
 2875SOL    HW2 9525   2.941   4.905   0.693
 2876SOL     OW 9526   7.014   1.479   2.609
 2876SOL    HW1 9527   0.019   1.400   2.557
 2876SOL    HW2 9528   6.918   1.498   2.588
 2877SOL     OW 9529   2.267   3.353   6.065
 2877SOL    HW1 9530   2.324   3.315   5.992
 2877SOL    HW2 9531   2.319   3.355   6.150
 2878SOL     OW 9532   3.074   4.523   0.116
 2878SOL    HW1 9533   3.115   4.549   0.203
 2878SOL    HW2 9534   3.054   4.606   0.063
 2879SOL     OW 9535   4.922   4.729   6.455
 2879SOL    HW1 9536   4.941   4.664   6.528
 2879SOL    HW2 9537   4.881   4.812   6.494
 2880SOL     OW 9538   0.994   6.183   1.592
 2880SOL    HW1 9539   0.933   6.121   1.641
 2880SOL    HW2 9540   1.027   6.139   1.508
 2881SOL     OW 9541   0.276   0.155   6.884
 2881SOL    HW1 9542   0.222   0.146   6.801
 2881SOL    HW2 9543   0.304   0.251   6.896
 2882SOL     OW 9544   6.836   3.509   3.769
 2882SOL    HW1 9545   6.805   3.575   3.701
 2882SOL    HW2 9546   6.934   3.523   3.788
 2883SOL     OW 9547   4.846   6.428   2.500
 2883SOL    HW1 9548   4.926   6.381   2.463
 2883SOL    HW2 9549   4.803   6.482   2.428
 2884SOL     OW 9550   1.688   5.987   3.310
 2884SOL    HW1 9551   1.701   6.022   3.218
 2884SOL    HW2 9552   1.671   5.889   3.307
 2885SOL     OW 9553   0.347   2.088   3.494
 2885SOL    HW1 9554   0.385   2.128   3.578
 2885SOL    HW2 9555   0.310   2.161   3.437
 2886SOL     OW 9556   2.191   2.619   6.169
 2886SOL    HW1 9557   2.274   2.659   6.208
 2886SOL    HW2 9558   2.214   2.537   6.118
 2887SOL     OW 9559   2.156   1.146   4.810
 2887SOL    HW1 9560   2.155   1.123   4.908
 2887SOL    HW2 9561   2.126   1.241   4.798
 2888SOL     OW 9562   6.778   5.044   6.955
 2888SOL    HW1 9563   6.769   5.062   0.028
 2888SOL    HW2 9564   6.751   5.126   6.905
 2889SOL     OW 9565   0.400   6.935   1.633
 2889SOL    HW1 9566   0.394   6.986   1.547
 2889SOL    HW2 9567   0.357   6.988   1.706
 2890SOL     OW 9568   2.974   6.537   0.710
 2890SOL    HW1 9569   2.883   6.578   0.708
 2890SOL    HW2 9570   3.043   6.608   0.724
 2891SOL     OW 9571   3.030   5.327   4.464
 2891SOL    HW1 9572   3.119   5.287   4.442
 2891SOL    HW2 9573   2.958   5.259   4.448
 2892SOL     OW 9574   4.721   4.522   5.618
 2892SOL    HW1 9575   4.773   4.559   5.541
 2892SOL    HW2 9576   4.691   4.596   5.677
 2893SOL     OW 9577   2.643   0.574   5.841
 2893SOL    HW1 9578   2.703   0.510   5.891
 2893SOL    HW2 9579   2.699   0.632   5.782
 2894SOL     OW 9580   3.325   2.565   0.936
 2894SOL    HW1 9581   3.284   2.632   0.999
 2894SOL    HW2 9582   3.262   2.489   0.923
 2895SOL     OW 9583   3.184   3.290   6.750
 2895SOL    HW1 9584   3.205   3.243   6.836
 2895SOL    HW2 9585   3.089   3.274   6.726
 2896SOL     OW 9586   2.316   5.491   1.117
 2896SOL    HW1 9587   2.224   5.468   1.084
 2896SOL    HW2 9588   2.338   5.585   1.089
 2897SOL     OW 9589   1.332   6.572   3.689
 2897SOL    HW1 9590   1.285   6.492   3.726
 2897SOL    HW2 9591   1.298   6.591   3.597
 2898SOL     OW 9592   2.678   4.932   2.383
 2898SOL    HW1 9593   2.769   4.970   2.397
 2898SOL    HW2 9594   2.644   4.958   2.293
 2899SOL     OW 9595   6.527   0.556   0.356
 2899SOL    HW1 9596   6.563   0.469   0.390
 2899SOL    HW2 9597   6.602   0.622   0.347
 2900SOL     OW 9598   2.907   5.585   6.127
 2900SOL    HW1 9599   2.807   5.576   6.125
 2900SOL    HW2 9600   2.933   5.674   6.089
 2901SOL     OW 9601   3.265   7.011   1.553
 2901SOL    HW1 9602   3.359   6.978   1.562
 2901SOL    HW2 9603   3.257   0.075   1.598
 2902SOL     OW 9604   5.571   5.528   1.741
 2902SOL    HW1 9605   5.639   5.461   1.709
 2902SOL    HW2 9606   5.483   5.483   1.755
 2903SOL     OW 9607   2.586   2.211   2.002
 2903SOL    HW1 9608   2.600   2.275   1.927
 2903SOL    HW2 9609   2.656   2.139   1.998
 2904SOL     OW 9610   1.965   3.712   4.824
 2904SOL    HW1 9611   1.935   3.640   4.762
 2904SOL    HW2 9612   2.032   3.675   4.888
 2905SOL     OW 9613   1.016   2.357   1.374
 2905SOL    HW1 9614   1.045   2.398   1.287
 2905SOL    HW2 9615   0.921   2.381   1.392
 2906SOL     OW 9616   5.408   5.818   2.230
 2906SOL    HW1 9617   5.388   5.909   2.194
 2906SOL    HW2 9618   5.343   5.795   2.302
 2907SOL     OW 9619   6.597   0.738   4.086
 2907SOL    HW1 9620   6.538   0.817   4.099
 2907SOL    HW2 9621   6.687   0.768   4.054
 2908SOL     OW 9622   4.307   6.150   4.648
 2908SOL    HW1 9623   4.208   6.141   4.632
 2908SOL    HW2 9624   4.356   6.093   4.582
 2909SOL     OW 9625   1.496   5.778   5.095
 2909SOL    HW1 9626   1.556   5.743   5.166
 2909SOL    HW2 9627   1.548   5.841   5.036
 2910SOL     OW 9628   5.144   6.481   6.414
 2910SOL    HW1 9629   5.157   6.571   6.372
 2910SOL    HW2 9630   5.147   6.410   6.343
 2911SOL     OW 9631   1.818   4.054   3.427
 2911SOL    HW1 9632   1.748   3.983   3.412
 2911SOL    HW2 9633   1.790   4.111   3.505
 2912SOL     OW 9634   2.791   5.252   0.724
 2912SOL    HW1 9635   2.797   5.152   0.721
 2912SOL    HW2 9636   2.750   5.284   0.638
 2913SOL     OW 9637   0.709   2.794   2.819
 2913SOL    HW1 9638   0.678   2.836   2.903
 2913SOL    HW2 9639   0.727   2.864   2.750
 2914SOL     OW 9640   4.867   5.337   5.031
 2914SOL    HW1 9641   4.934   5.350   5.105
 2914SOL    HW2 9642   4.776   5.360   5.064
 2915SOL     OW 9643   4.403   1.271   4.005
 2915SOL    HW1 9644   4.483   1.260   3.946
 2915SOL    HW2 9645   4.329   1.314   3.953
 2916SOL     OW 9646   4.783   5.229   4.415
 2916SOL    HW1 9647   4.691   5.193   4.402
 2916SOL    HW2 9648   4.830   5.175   4.485
 2917SOL     OW 9649   4.576   1.258   2.914
 2917SOL    HW1 9650   4.546   1.263   2.819
 2917SOL    HW2 9651   4.667   1.217   2.918
 2918SOL     OW 9652   7.015   3.901   3.787
 2918SOL    HW1 9653   0.049   3.949   3.851
 2918SOL    HW2 9654   0.024   3.914   3.694
 2919SOL     OW 9655   6.761   6.063   6.994
 2919SOL    HW1 9656   6.806   6.107   6.916
 2919SOL    HW2 9657   6.819   5.990   0.003
 2920SOL     OW 9658   4.365   2.450   3.045
 2920SOL    HW1 9659   4.294   2.478   3.110
 2920SOL    HW2 9660   4.428   2.526   3.031
 2921SOL     OW 9661   0.469   0.419   1.844
 2921SOL    HW1 9662   0.390   0.464   1.803
 2921SOL    HW2 9663   0.495   0.466   1.928
 2922SOL     OW 9664   4.096   6.694   5.737
 2922SOL    HW1 9665   4.010   6.731   5.703
 2922SOL    HW2 9666   4.140   6.761   5.796
 2923SOL     OW 9667   6.912   4.234   0.727
 2923SOL    HW1 9668   6.832   4.284   0.758
 2923SOL    HW2 9669   6.887   4.140   0.706
 2924SOL     OW 9670   5.777   0.374   5.672
 2924SOL    HW1 9671   5.716   0.448   5.645
 2924SOL    HW2 9672   5.843   0.358   5.598
 2925SOL     OW 9673   5.667   3.745   1.553
 2925SOL    HW1 9674   5.659   3.835   1.596
 2925SOL    HW2 9675   5.746   3.744   1.492
 2926SOL     OW 9676   6.970   1.444   4.220
 2926SOL    HW1 9677   6.986   1.455   4.122
 2926SOL    HW2 9678   6.981   1.533   4.266
 2927SOL     OW 9679   0.569   2.643   2.590
 2927SOL    HW1 9680   0.668   2.636   2.580
 2927SOL    HW2 9681   0.539   2.735   2.563
 2928SOL     OW 9682   5.439   6.631   0.792
 2928SOL    HW1 9683   5.446   6.593   0.884
 2928SOL    HW2 9684   5.347   6.668   0.777
 2929SOL     OW 9685   0.830   6.977   5.725
 2929SOL    HW1 9686   0.734   7.004   5.729
 2929SOL    HW2 9687   0.878   7.010   5.806
 2930SOL     OW 9688   3.823   6.519   4.647
 2930SOL    HW1 9689   3.908   6.560   4.615
 2930SOL    HW2 9690   3.818   6.424   4.616
 2931SOL     OW 9691   3.816   5.636   6.640
 2931SOL    HW1 9692   3.726   5.625   6.683
 2931SOL    HW2 9693   3.883   5.580   6.688
 2932SOL     OW 9694   1.724   4.660   1.888
 2932SOL    HW1 9695   1.723   4.670   1.988
 2932SOL    HW2 9696   1.635   4.625   1.858
 2933SOL     OW 9697   4.897   1.433   3.437
 2933SOL    HW1 9698   4.947   1.520   3.441
 2933SOL    HW2 9699   4.938   1.368   3.501
 2934SOL     OW 9700   3.002   0.513   0.029
 2934SOL    HW1 9701   2.968   0.605   0.050
 2934SOL    HW2 9702   2.950   0.474   6.979
 2935SOL     OW 9703   6.806   1.577   1.153
 2935SOL    HW1 9704   6.721   1.581   1.102
 2935SOL    HW2 9705   6.874   1.637   1.110
 2936SOL     OW 9706   3.649   6.171   0.905
 2936SOL    HW1 9707   3.592   6.252   0.919
 2936SOL    HW2 9708   3.741   6.200   0.880
 2937SOL     OW 9709   2.246   4.304   0.526
 2937SOL    HW1 9710   2.288   4.245   0.458
 2937SOL    HW2 9711   2.211   4.248   0.601
 2938SOL     OW 9712   4.820   5.276   5.479
 2938SOL    HW1 9713   4.737   5.330   5.496
 2938SOL    HW2 9714   4.898   5.338   5.471
 2939SOL     OW 9715   0.346   6.545   5.525
 2939SOL    HW1 9716   0.276   6.515   5.589
 2939SOL    HW2 9717   0.386   6.631   5.555
 2940SOL     OW 9718   4.128   0.282   5.420
 2940SOL    HW1 9719   4.171   0.226   5.349
 2940SOL    HW2 9720   4.042   0.320   5.385
 2941SOL     OW 9721   2.761   1.728   5.641
 2941SOL    HW1 9722   2.744   1.819   5.679
 2941SOL    HW2 9723   2.860   1.711   5.640
 2942SOL     OW 9724   3.955   6.393   4.362
 2942SOL    HW1 9725   3.949   6.341   4.277
 2942SOL    HW2 9726   3.901   6.348   4.433
 2943SOL     OW 9727   5.832   3.895   3.069
 2943SOL    HW1 9728   5.774   3.813   3.068
 2943SOL    HW2 9729   5.917   3.877   3.019
 2944SOL     OW 9730   3.919   5.989   6.509
 2944SOL    HW1 9731   3.917   5.899   6.466
 2944SOL    HW2 9732   3.845   5.996   6.575
 2945SOL     OW 9733   2.918   3.502   3.533
 2945SOL    HW1 9734   2.905   3.529   3.628
 2945SOL    HW2 9735   2.942   3.405   3.529
 2946SOL     OW 9736   6.751   6.164   5.796
 2946SOL    HW1 9737   6.745   6.066   5.774
 2946SOL    HW2 9738   6.764   6.175   5.895
 2947SOL     OW 9739   0.234   5.429   0.161
 2947SOL    HW1 9740   0.154   5.370   0.158
 2947SOL    HW2 9741   0.291   5.404   0.240
 2948SOL     OW 9742   6.036   4.715   5.323
 2948SOL    HW1 9743   6.072   4.763   5.243
 2948SOL    HW2 9744   5.936   4.720   5.323
 2949SOL     OW 9745   1.366   6.418   0.709
 2949SOL    HW1 9746   1.422   6.476   0.768
 2949SOL    HW2 9747   1.396   6.323   0.718
 2950SOL     OW 9748   5.319   3.476   4.619
 2950SOL    HW1 9749   5.277   3.465   4.529
 2950SOL    HW2 9750   5.287   3.402   4.679
 2951SOL     OW 9751   6.209   1.291   1.439
 2951SOL    HW1 9752   6.268   1.349   1.383
 2951SOL    HW2 9753   6.133   1.346   1.474
 2952SOL     OW 9754   1.529   3.664   1.941
 2952SOL    HW1 9755   1.498   3.759   1.940
 2952SOL    HW2 9756   1.592   3.650   2.018
 2953SOL     OW 9757   5.679   0.771   2.773
 2953SOL    HW1 9758   5.625   0.848   2.808
 2953SOL    HW2 9759   5.657   0.688   2.824
 2954SOL     OW 9760   5.808   6.315   1.595
 2954SOL    HW1 9761   5.777   6.239   1.652
 2954SOL    HW2 9762   5.778   6.300   1.501
 2955SOL     OW 9763   6.272   2.994   0.640
 2955SOL    HW1 9764   6.193   3.014   0.581
 2955SOL    HW2 9765   6.251   2.914   0.696
 2956SOL     OW 9766   6.650   5.499   2.630
 2956SOL    HW1 9767   6.668   5.474   2.535
 2956SOL    HW2 9768   6.611   5.421   2.679
 2957SOL     OW 9769   1.102   3.773   1.460
 2957SOL    HW1 9770   1.182   3.821   1.424
 2957SOL    HW2 9771   1.076   3.699   1.399
 2958SOL     OW 9772   3.598   4.935   6.408
 2958SOL    HW1 9773   3.662   4.864   6.438
 2958SOL    HW2 9774   3.540   4.963   6.484
 2959SOL     OW 9775   4.500   5.694   6.854
 2959SOL    HW1 9776   4.590   5.707   6.896
 2959SOL    HW2 9777   4.460   5.609   6.887
 2960SOL     OW 9778   2.504   1.732   6.895
 2960SOL    HW1 9779   2.473   1.701   6.805
 2960SOL    HW2 9780   2.548   1.822   6.886
 2961SOL     OW 9781   5.672   2.763   4.366
 2961SOL    HW1 9782   5.654   2.856   4.399
 2961SOL    HW2 9783   5.708   2.708   4.441
 2962SOL     OW 9784   3.345   1.195   3.516
 2962SOL    HW1 9785   3.380   1.270   3.460
 2962SOL    HW2 9786   3.386   1.109   3.486
 2963SOL     OW 9787   1.988   2.966   5.146
 2963SOL    HW1 9788   1.889   2.956   5.134
 2963SOL    HW2 9789   2.035   2.930   5.065
 2964SOL     OW 9790   2.876   5.805   0.400
 2964SOL    HW1 9791   2.868   5.716   0.445
 2964SOL    HW2 9792   2.789   5.828   0.357
 2965SOL     OW 9793   0.753   2.429   5.667
 2965SOL    HW1 9794   0.734   2.500   5.735
 2965SOL    HW2 9795   0.838   2.451   5.619
 2966SOL     OW 9796   4.539   4.410   3.716
 2966SOL    HW1 9797   4.502   4.493   3.758
 2966SOL    HW2 9798   4.520   4.411   3.618
 2967SOL     OW 9799   6.167   2.131   3.821
 2967SOL    HW1 9800   6.163   2.189   3.903
 2967SOL    HW2 9801   6.076   2.125   3.780
 2968SOL     OW 9802   6.743   4.176   3.702
 2968SOL    HW1 9803   6.687   4.094   3.689
 2968SOL    HW2 9804   6.710   4.248   3.641
 2969SOL     OW 9805   4.661   0.892   4.644
 2969SOL    HW1 9806   4.634   0.810   4.594
 2969SOL    HW2 9807   4.736   0.938   4.595
 2970SOL     OW 9808   1.390   4.844   6.464
 2970SOL    HW1 9809   1.341   4.821   6.548
 2970SOL    HW2 9810   1.371   4.776   6.394
 2971SOL     OW 9811   4.967   3.250   3.350
 2971SOL    HW1 9812   5.050   3.212   3.310
 2971SOL    HW2 9813   4.991   3.307   3.428
 2972SOL     OW 9814   0.687   4.427   6.366
 2972SOL    HW1 9815   0.771   4.437   6.420
 2972SOL    HW2 9816   0.609   4.459   6.421
 2973SOL     OW 9817   5.638   6.338   4.184
 2973SOL    HW1 9818   5.677   6.382   4.265
 2973SOL    HW2 9819   5.606   6.408   4.121
 2974SOL     OW 9820   0.245   3.750   2.531
 2974SOL    HW1 9821   0.258   3.807   2.612
 2974SOL    HW2 9822   0.310   3.674   2.533
 2975SOL     OW 9823   0.237   0.945   4.608
 2975SOL    HW1 9824   0.336   0.943   4.592
 2975SOL    HW2 9825   0.218   0.995   4.693
 2976SOL     OW 9826   3.379   6.654   1.685
 2976SOL    HW1 9827   3.466   6.662   1.734
 2976SOL    HW2 9828   3.386   6.701   1.597
 2977SOL     OW 9829   3.645   6.597   4.276
 2977SOL    HW1 9830   3.611   6.547   4.355
 2977SOL    HW2 9831   3.593   6.569   4.194
 2978SOL     OW 9832   4.138   6.254   6.992
 2978SOL    HW1 9833   4.219   6.264   0.024
 2978SOL    HW2 9834   4.059   6.291   0.015
 2979SOL     OW 9835   2.994   0.865   3.599
 2979SOL    HW1 9836   2.957   0.862   3.692
 2979SOL    HW2 9837   2.954   0.943   3.550
 2980SOL     OW 9838   6.787   6.507   4.095
 2980SOL    HW1 9839   6.711   6.457   4.055
 2980SOL    HW2 9840   6.873   6.466   4.065
 2981SOL     OW 9841   1.683   1.311   5.343
 2981SOL    HW1 9842   1.594   1.266   5.347
 2981SOL    HW2 9843   1.751   1.256   5.393
 2982SOL     OW 9844   4.731   0.077   3.291
 2982SOL    HW1 9845   4.801   0.079   3.363
 2982SOL    HW2 9846   4.767   0.027   3.212
 2983SOL     OW 9847   6.598   0.243   2.667
 2983SOL    HW1 9848   6.501   0.267   2.669
 2983SOL    HW2 9849   6.608   0.144   2.680
 2984SOL     OW 9850   5.417   4.871   1.592
 2984SOL    HW1 9851   5.390   4.791   1.646
 2984SOL    HW2 9852   5.412   4.953   1.648
 2985SOL     OW 9853   6.147   2.030   3.212
 2985SOL    HW1 9854   6.233   2.075   3.186
 2985SOL    HW2 9855   6.092   2.014   3.130
 2986SOL     OW 9856   2.255   3.776   5.239
 2986SOL    HW1 9857   2.307   3.855   5.207
 2986SOL    HW2 9858   2.163   3.778   5.200
 2987SOL     OW 9859   4.447   2.386   4.466
 2987SOL    HW1 9860   4.524   2.381   4.530
 2987SOL    HW2 9861   4.361   2.372   4.515
 2988SOL     OW 9862   0.511   0.533   2.096
 2988SOL    HW1 9863   0.559   0.503   2.178
 2988SOL    HW2 9864   0.517   0.633   2.088
 2989SOL     OW 9865   6.925   4.789   0.749
 2989SOL    HW1 9866   6.839   4.756   0.710
 2989SOL    HW2 9867   7.002   4.747   0.702
 2990SOL     OW 9868   3.270   7.002   0.892
 2990SOL    HW1 9869   3.334   7.001   0.969
 2990SOL    HW2 9870   3.315   0.014   0.811
 2991SOL     OW 9871   6.890   4.703   0.392
 2991SOL    HW1 9872   6.877   4.628   0.457
 2991SOL    HW2 9873   6.910   4.666   0.302
 2992SOL     OW 9874   4.084   4.720   6.900
 2992SOL    HW1 9875   4.087   4.795   6.966
 2992SOL    HW2 9876   4.115   4.636   6.944
 2993SOL     OW 9877   2.198   5.589   0.503
 2993SOL    HW1 9878   2.164   5.634   0.585
 2993SOL    HW2 9879   2.295   5.611   0.491
 2994SOL     OW 9880   4.202   6.561   0.061
 2994SOL    HW1 9881   4.237   6.643   0.107
 2994SOL    HW2 9882   4.269   6.487   0.070
 2995SOL     OW 9883   2.588   0.864   5.533
 2995SOL    HW1 9884   2.575   0.811   5.449
 2995SOL    HW2 9885   2.672   0.833   5.579
 2996SOL     OW 9886   3.913   5.339   6.083
 2996SOL    HW1 9887   3.854   5.408   6.126
 2996SOL    HW2 9888   3.941   5.272   6.152
 2997SOL     OW 9889   5.026   6.373   0.167
 2997SOL    HW1 9890   5.051   6.458   0.213
 2997SOL    HW2 9891   4.999   6.305   0.234
 2998SOL     OW 9892   6.227   5.732   5.183
 2998SOL    HW1 9893   6.195   5.826   5.192
 2998SOL    HW2 9894   6.317   5.732   5.139
 2999SOL     OW 9895   3.363   6.345   2.304
 2999SOL    HW1 9896   3.275   6.374   2.266
 2999SOL    HW2 9897   3.348   6.274   2.373
 3000SOL     OW 9898   1.548   2.943   4.377
 3000SOL    HW1 9899   1.502   3.029   4.353
 3000SOL    HW2 9900   1.644   2.961   4.398
 3001SOL     OW 9901   4.367   7.012   6.437
 3001SOL    HW1 9902   4.418   0.028   6.362
 3001SOL    HW2 9903   4.363   6.913   6.425
 3002SOL     OW 9904   3.563   6.927   5.629
 3002SOL    HW1 9905   3.651   6.975   5.624
 3002SOL    HW2 9906   3.503   6.959   5.556
 3003SOL     OW 9907   2.359   0.038   6.380
 3003SOL    HW1 9908   2.420   0.011   6.305
 3003SOL    HW2 9909   2.333   6.983   6.433
 3004SOL     OW 9910   6.417   3.561   4.925
 3004SOL    HW1 9911   6.435   3.517   5.013
 3004SOL    HW2 9912   6.345   3.630   4.936
 3005SOL     OW 9913   4.540   2.502   1.842
 3005SOL    HW1 9914   4.581   2.591   1.824
 3005SOL    HW2 9915   4.444   2.504   1.814
 3006SOL     OW 9916   5.189   0.863   1.388
 3006SOL    HW1 9917   5.236   0.891   1.304
 3006SOL    HW2 9918   5.225   0.775   1.419
 3007SOL     OW 9919   6.559   6.085   2.040
 3007SOL    HW1 9920   6.496   6.144   1.990
 3007SOL    HW2 9921   6.625   6.141   2.090
 3008SOL     OW 9922   4.231   5.500   6.144
 3008SOL    HW1 9923   4.133   5.479   6.137
 3008SOL    HW2 9924   4.245   5.598   6.126
 3009SOL     OW 9925   1.144   1.286   2.624
 3009SOL    HW1 9926   1.185   1.373   2.596
 3009SOL    HW2 9927   1.052   1.303   2.660
 3010SOL     OW 9928   3.376   6.923   2.298
 3010SOL    HW1 9929   3.362   6.825   2.281
 3010SOL    HW2 9930   3.474   6.944   2.292
 3011SOL     OW 9931   5.741   0.498   6.887
 3011SOL    HW1 9932   5.804   0.571   6.860
 3011SOL    HW2 9933   5.685   0.530   6.963
 3012SOL     OW 9934   0.078   4.777   2.425
 3012SOL    HW1 9935   0.066   4.707   2.355
 3012SOL    HW2 9936   0.064   4.868   2.385
 3013SOL     OW 9937   5.322   4.459   2.304
 3013SOL    HW1 9938   5.269   4.483   2.222
 3013SOL    HW2 9939   5.397   4.398   2.278
 3014SOL     OW 9940   4.825   1.053   4.931
 3014SOL    HW1 9941   4.884   0.977   4.905
 3014SOL    HW2 9942   4.846   1.081   5.025
 3015SOL     OW 9943   3.263   2.139   6.920
 3015SOL    HW1 9944   3.290   2.052   6.960
 3015SOL    HW2 9945   3.173   2.130   6.877
 3016SOL     OW 9946   3.445   6.181   3.317
 3016SOL    HW1 9947   3.508   6.255   3.293
 3016SOL    HW2 9948   3.361   6.190   3.263
 3017SOL     OW 9949   6.521   6.255   1.083
 3017SOL    HW1 9950   6.479   6.248   0.992
 3017SOL    HW2 9951   6.621   6.250   1.074
 3018SOL     OW 9952   3.555   0.138   6.220
 3018SOL    HW1 9953   3.543   0.181   6.131
 3018SOL    HW2 9954   3.623   0.064   6.213
 3019SOL     OW 9955   5.220   6.513   2.206
 3019SOL    HW1 9956   5.122   6.493   2.204
 3019SOL    HW2 9957   5.240   6.575   2.282
 3020SOL     OW 9958   1.989   1.235   0.779
 3020SOL    HW1 9959   1.934   1.194   0.706
 3020SOL    HW2 9960   1.929   1.261   0.855
 3021SOL     OW 9961   3.597   1.060   6.105
 3021SOL    HW1 9962   3.639   0.999   6.038
 3021SOL    HW2 9963   3.630   1.153   6.090
 3022SOL     OW 9964   5.665   6.876   2.363
 3022SOL    HW1 9965   5.673   6.970   2.395
 3022SOL    HW2 9966   5.585   6.833   2.405
 3023SOL     OW 9967   5.831   0.192   1.553
 3023SOL    HW1 9968   5.807   0.196   1.650
 3023SOL    HW2 9969   5.930   0.181   1.545
 3024SOL     OW 9970   3.209   6.400   6.881
 3024SOL    HW1 9971   3.114   6.374   6.898
 3024SOL    HW2 9972   3.249   6.438   6.965
 3025SOL     OW 9973   1.796   2.345   1.502
 3025SOL    HW1 9974   1.869   2.334   1.435
 3025SOL    HW2 9975   1.743   2.261   1.507
 3026SOL     OW 9976   2.012   4.659   0.932
 3026SOL    HW1 9977   1.954   4.580   0.952
 3026SOL    HW2 9978   2.088   4.630   0.874
 3027SOL     OW 9979   1.435   1.657   3.901
 3027SOL    HW1 9980   1.532   1.685   3.899
 3027SOL    HW2 9981   1.429   1.560   3.924
 3028SOL     OW 9982   1.658   0.637   4.698
 3028SOL    HW1 9983   1.679   0.547   4.659
 3028SOL    HW2 9984   1.559   0.646   4.709
 3029SOL     OW 9985   4.936   6.443   5.518
 3029SOL    HW1 9986   4.944   6.535   5.557
 3029SOL    HW2 9987   5.010   6.385   5.553
 3030SOL     OW 9988   1.371   1.760   6.154
 3030SOL    HW1 9989   1.321   1.718   6.078
 3030SOL    HW2 9990   1.423   1.838   6.121
 3031SOL     OW 9991   1.322   4.952   6.773
 3031SOL    HW1 9992   1.405   4.979   6.822
 3031SOL    HW2 9993   1.304   4.855   6.790
 3032SOL     OW 9994   4.186   0.210   5.854
 3032SOL    HW1 9995   4.101   0.186   5.902
 3032SOL    HW2 9996   4.252   0.245   5.920
 3033SOL     OW 9997   5.085   4.890   6.294
 3033SOL    HW1 9998   5.029   4.825   6.346
 3033SOL    HW2 9999   5.152   4.932   6.355
 3034SOL     OW10000   2.314   0.030   4.126
 3034SOL    HW110001   2.376   0.059   4.053
 3034SOL    HW210002   2.366   0.014   4.210
 3035SOL     OW10003   6.393   6.907   6.769
 3035SOL    HW110004   6.312   6.858   6.804
 3035SOL    HW210005   6.471   6.888   6.828
 3036SOL     OW10006   1.575   4.481   6.132
 3036SOL    HW110007   1.631   4.556   6.099
 3036SOL    HW210008   1.609   4.394   6.096
 3037SOL     OW10009   6.702   6.607   5.563
 3037SOL    HW110010   6.636   6.572   5.497
 3037SOL    HW210011   6.705   6.547   5.643
 3038SOL     OW10012   5.572   0.163   5.692
 3038SOL    HW110013   5.649   0.223   5.669
 3038SOL    HW210014   5.556   0.100   5.616
 3039SOL     OW10015   0.800   5.179   0.787
 3039SOL    HW110016   0.778   5.084   0.764
 3039SOL    HW210017   0.851   5.221   0.713
 3040SOL     OW10018   2.507   2.383   6.465
 3040SOL    HW110019   2.493   2.284   6.474
 3040SOL    HW210020   2.593   2.400   6.417
 3041SOL     OW10021   1.835   1.952   6.124
 3041SOL    HW110022   1.789   1.863   6.125
 3041SOL    HW210023   1.929   1.941   6.090
 3042SOL     OW10024   5.207   0.210   2.062
 3042SOL    HW110025   5.259   0.182   1.982
 3042SOL    HW210026   5.114   0.173   2.056
 3043SOL     OW10027   0.330   5.255   0.377
 3043SOL    HW110028   0.233   5.231   0.368
 3043SOL    HW210029   0.359   5.242   0.472
 3044SOL     OW10030   3.347   3.968   6.189
 3044SOL    HW110031   3.337   3.890   6.127
 3044SOL    HW210032   3.422   4.026   6.158
 3045SOL     OW10033   5.540   1.927   3.708
 3045SOL    HW110034   5.514   2.020   3.737
 3045SOL    HW210035   5.618   1.896   3.762
 3046SOL     OW10036   2.607   2.051   5.589
 3046SOL    HW110037   2.646   2.046   5.681
 3046SOL    HW210038   2.661   2.114   5.534
 3047SOL     OW10039   6.852   4.542   2.406
 3047SOL    HW110040   6.890   4.619   2.459
 3047SOL    HW210041   6.920   4.510   2.341
 3048SOL     OW10042   3.093   2.500   1.724
 3048SOL    HW110043   3.190   2.515   1.744
 3048SOL    HW210044   3.048   2.461   1.804
 3049SOL     OW10045   0.704   0.334   1.995
 3049SOL    HW110046   0.619   0.291   2.026
 3049SOL    HW210047   0.731   0.296   1.907
 3050SOL     OW10048   3.364   5.369   3.680
 3050SOL    HW110049   3.319   5.357   3.769
 3050SOL    HW210050   3.297   5.355   3.607
 3051SOL     OW10051   2.674   4.456   5.527
 3051SOL    HW110052   2.603   4.516   5.564
 3051SOL    HW210053   2.666   4.452   5.427
 3052SOL     OW10054   4.517   6.706   2.732
 3052SOL    HW110055   4.504   6.805   2.721
 3052SOL    HW210056   4.609   6.688   2.766
 3053SOL     OW10057   4.804   6.425   0.486
 3053SOL    HW110058   4.729   6.359   0.491
 3053SOL    HW210059   4.875   6.400   0.552
 3054SOL     OW10060   2.123   3.491   6.333
 3054SOL    HW110061   2.117   3.514   6.236
 3054SOL    HW210062   2.033   3.466   6.368
 3055SOL     OW10063   5.708   6.098   2.549
 3055SOL    HW110064   5.790   6.042   2.561
 3055SOL    HW210065   5.636   6.043   2.507
 3056SOL     OW10066   6.476   1.048   1.122
 3056SOL    HW110067   6.380   1.059   1.148
 3056SOL    HW210068   6.511   1.134   1.085
 3057SOL     OW10069   6.181   5.781   2.519
 3057SOL    HW110070   6.129   5.724   2.455
 3057SOL    HW210071   6.277   5.753   2.519
 3058SOL     OW10072   6.321   4.851   1.586
 3058SOL    HW110073   6.352   4.807   1.670
 3058SOL    HW210074   6.395   4.903   1.546
 3059SOL     OW10075   1.855   2.797   4.624
 3059SOL    HW110076   1.941   2.841   4.651
 3059SOL    HW210077   1.874   2.712   4.576
 3060SOL     OW10078   6.534   6.891   0.765
 3060SOL    HW110079   6.552   6.972   0.708
 3060SOL    HW210080   6.513   6.813   0.707
 3061SOL     OW10081   0.089   0.800   6.098
 3061SOL    HW110082   0.059   0.895   6.107
 3061SOL    HW210083   0.019   0.748   6.049
 3062SOL     OW10084   3.008   5.828   6.056
 3062SOL    HW110085   2.941   5.849   5.985
 3062SOL    HW210086   2.983   5.876   6.141
 3063SOL     OW10087   1.774   5.209   0.998
 3063SOL    HW110088   1.699   5.176   0.942
 3063SOL    HW210089   1.845   5.139   1.005
 3064SOL     OW10090   6.811   4.905   3.125
 3064SOL    HW110091   6.828   4.817   3.079
 3064SOL    HW210092   6.713   4.923   3.128
 3065SOL     OW10093   2.011   0.864   1.034
 3065SOL    HW110094   1.947   0.935   1.008
 3065SOL    HW210095   2.007   0.850   1.133
 3066SOL     OW10096   5.374   5.267   1.206
 3066SOL    HW110097   5.371   5.302   1.299
 3066SOL    HW210098   5.469   5.248   1.180
 3067SOL     OW10099   5.195   6.433   3.206
 3067SOL    HW110100   5.252   6.505   3.167
 3067SOL    HW210101   5.192   6.443   3.306
 3068SOL     OW10102   6.267   4.935   0.561
 3068SOL    HW110103   6.275   4.960   0.465
 3068SOL    HW210104   6.255   5.018   0.616
 3069SOL     OW10105   1.321   5.385   3.570
 3069SOL    HW110106   1.323   5.467   3.628
 3069SOL    HW210107   1.230   5.343   3.575
 3070SOL     OW10108   3.991   1.816   4.181
 3070SOL    HW110109   4.061   1.746   4.173
 3070SOL    HW210110   3.954   1.837   4.090
 3071SOL     OW10111   6.128   0.115   3.531
 3071SOL    HW110112   6.074   0.114   3.615
 3071SOL    HW210113   6.224   0.097   3.554
 3072SOL     OW10114   0.531   0.157   2.293
 3072SOL    HW110115   0.468   0.175   2.217
 3072SOL    HW210116   0.569   0.065   2.283
 3073SOL     OW10117   1.591   3.234   4.613
 3073SOL    HW110118   1.648   3.157   4.587
 3073SOL    HW210119   1.500   3.224   4.571
 3074SOL     OW10120   5.014   3.144   5.806
 3074SOL    HW110121   5.072   3.145   5.887
 3074SOL    HW210122   4.920   3.166   5.832
 3075SOL     OW10123   1.050   5.712   1.706
 3075SOL    HW110124   1.097   5.641   1.758
 3075SOL    HW210125   0.960   5.679   1.678
 3076SOL     OW10126   0.407   0.200   4.865
 3076SOL    HW110127   0.397   0.102   4.882
 3076SOL    HW210128   0.341   0.229   4.796
 3077SOL     OW10129   4.888   4.833   3.871
 3077SOL    HW110130   4.957   4.899   3.901
 3077SOL    HW210131   4.933   4.760   3.820
 3078SOL     OW10132   2.060   2.830   0.259
 3078SOL    HW110133   1.977   2.878   0.288
 3078SOL    HW210134   2.036   2.740   0.225
 3079SOL     OW10135   5.926   2.860   6.190
 3079SOL    HW110136   5.891   2.954   6.187
 3079SOL    HW210137   5.850   2.796   6.201
 3080SOL     OW10138   6.385   5.913   0.814
 3080SOL    HW110139   6.289   5.940   0.804
 3080SOL    HW210140   6.395   5.856   0.895
 3081SOL     OW10141   6.589   5.212   5.862
 3081SOL    HW110142   6.597   5.123   5.907
 3081SOL    HW210143   6.655   5.276   5.901
 3082SOL     OW10144   2.161   7.022   2.496
 3082SOL    HW110145   2.230   0.056   2.454
 3082SOL    HW210146   2.113   6.970   2.424
 3083SOL     OW10147   3.633   0.580   2.074
 3083SOL    HW110148   3.649   0.664   2.126
 3083SOL    HW210149   3.535   0.567   2.060
 3084SOL     OW10150   5.038   6.519   4.744
 3084SOL    HW110151   5.024   6.429   4.784
 3084SOL    HW210152   4.967   6.582   4.776
 3085SOL     OW10153   0.505   5.785   1.529
 3085SOL    HW110154   0.572   5.854   1.502
 3085SOL    HW210155   0.488   5.791   1.627
 3086SOL     OW10156   5.871   1.296   4.383
 3086SOL    HW110157   5.970   1.283   4.371
 3086SOL    HW210158   5.835   1.348   4.305
 3087SOL     OW10159   5.810   3.077   2.717
 3087SOL    HW110160   5.826   3.139   2.794
 3087SOL    HW210161   5.739   3.010   2.742
 3088SOL     OW10162   3.040   4.228   5.989
 3088SOL    HW110163   3.117   4.284   5.961
 3088SOL    HW210164   2.955   4.267   5.952
 3089SOL     OW10165   1.549   2.363   0.574
 3089SOL    HW110166   1.538   2.313   0.660
 3089SOL    HW210167   1.483   2.438   0.570
 3090SOL     OW10168   0.975   1.453   1.298
 3090SOL    HW110169   0.978   1.546   1.336
 3090SOL    HW210170   1.042   1.396   1.345
 3091SOL     OW10171   2.484   0.351   0.368
 3091SOL    HW110172   2.576   0.388   0.381
 3091SOL    HW210173   2.482   0.256   0.400
 3092SOL     OW10174   4.603   6.342   0.853
 3092SOL    HW110175   4.603   6.438   0.826
 3092SOL    HW210176   4.574   6.334   0.948
 3093SOL     OW10177   5.240   6.096   3.802
 3093SOL    HW110178   5.285   6.117   3.715
 3093SOL    HW210179   5.198   6.006   3.796
 3094SOL     OW10180   3.017   5.251   5.438
 3094SOL    HW110181   3.075   5.203   5.372
 3094SOL    HW210182   3.016   5.201   5.525
 3095SOL     OW10183   2.892   4.925   4.469
 3095SOL    HW110184   2.913   4.859   4.541
 3095SOL    HW210185   2.971   4.934   4.408
 3096SOL     OW10186   0.646   0.866   5.354
 3096SOL    HW110187   0.589   0.916   5.289
 3096SOL    HW210188   0.644   0.768   5.332
 3097SOL     OW10189   1.309   2.814   0.152
 3097SOL    HW110190   1.343   2.796   0.244
 3097SOL    HW210191   1.221   2.768   0.140
 3098SOL     OW10192   3.929   2.197   0.179
 3098SOL    HW110193   3.848   2.161   0.133
 3098SOL    HW210194   3.980   2.122   0.221
 3099SOL     OW10195   1.108   6.124   4.846
 3099SOL    HW110196   1.131   6.040   4.798
 3099SOL    HW210197   1.043   6.104   4.919
 3100SOL     OW10198   6.631   6.583   0.465
 3100SOL    HW110199   6.580   6.665   0.442
 3100SOL    HW210200   6.729   6.599   0.451
 3101SOL     OW10201   4.527   0.118   1.038
 3101SOL    HW110202   4.490   0.139   0.948
 3101SOL    HW210203   4.463   0.149   1.109
 3102SOL     OW10204   1.357   5.519   0.949
 3102SOL    HW110205   1.399   5.457   1.015
 3102SOL    HW210206   1.419   5.531   0.871
 3103SOL     OW10207   4.026   3.595   2.296
 3103SOL    HW110208   4.032   3.618   2.199
 3103SOL    HW210209   3.948   3.534   2.311
 3104SOL     OW10210   6.729   5.266   3.644
 3104SOL    HW110211   6.677   5.183   3.626
 3104SOL    HW210212   6.692   5.311   3.726
 3105SOL     OW10213   6.574   6.398   3.975
 3105SOL    HW110214   6.511   6.476   3.984
 3105SOL    HW210215   6.552   6.348   3.891
 3106SOL     OW10216   0.004   2.763   4.734
 3106SOL    HW110217   6.988   2.672   4.730
 3106SOL    HW210218   0.103   2.755   4.729
 3107SOL     OW10219   3.117   7.011   3.872
 3107SOL    HW110220   3.195   0.048   3.867
 3107SOL    HW210221   3.068   0.001   3.958
 3108SOL     OW10222   3.402   0.254   3.305
 3108SOL    HW110223   3.385   0.159   3.333
 3108SOL    HW210224   3.394   0.261   3.205
 3109SOL     OW10225   4.705   5.993   2.992
 3109SOL    HW110226   4.642   5.922   2.961
 3109SOL    HW210227   4.673   6.030   3.079
 3110SOL     OW10228   0.827   3.085   2.383
 3110SOL    HW110229   0.735   3.120   2.363
 3110SOL    HW210230   0.843   3.001   2.331
 3111SOL     OW10231   6.461   4.841   3.954
 3111SOL    HW110232   6.480   4.935   3.983
 3111SOL    HW210233   6.532   4.811   3.891
 3112SOL     OW10234   3.236   3.565   6.696
 3112SOL    HW110235   3.213   3.609   6.783
 3112SOL    HW210236   3.219   3.467   6.703
 3113SOL     OW10237   3.799   0.397   3.595
 3113SOL    HW110238   3.766   0.480   3.551
 3113SOL    HW210239   3.898   0.401   3.605
 3114SOL     OW10240   5.572   5.334   0.829
 3114SOL    HW110241   5.545   5.261   0.766
 3114SOL    HW210242   5.668   5.357   0.814
 3115SOL     OW10243   2.712   3.127   1.735
 3115SOL    HW110244   2.620   3.164   1.748
 3115SOL    HW210245   2.771   3.157   1.810
 3116SOL     OW10246   6.768   1.842   0.052
 3116SOL    HW110247   6.675   1.845   0.090
 3116SOL    HW210248   6.834   1.859   0.125
 3117SOL     OW10249   4.025   4.031   5.162
 3117SOL    HW110250   4.005   4.128   5.145
 3117SOL    HW210251   4.097   4.023   5.231
 3118SOL     OW10252   6.257   5.036   0.327
 3118SOL    HW110253   6.230   5.043   0.231
 3118SOL    HW210254   6.242   5.124   0.372
 3119SOL     OW10255   2.180   4.656   5.857
 3119SOL    HW110256   2.141   4.666   5.765
 3119SOL    HW210257   2.122   4.705   5.923
 3120SOL     OW10258   3.046   5.699   5.387
 3120SOL    HW110259   3.021   5.605   5.410
 3120SOL    HW210260   3.081   5.745   5.469
 3121SOL     OW10261   0.675   6.345   2.821
 3121SOL    HW110262   0.713   6.436   2.838
 3121SOL    HW210263   0.691   6.320   2.726
 3122SOL     OW10264   2.989   5.408   0.831
 3122SOL    HW110265   2.914   5.361   0.785
 3122SOL    HW210266   3.062   5.343   0.850
 3123SOL     OW10267   4.341   6.739   4.937
 3123SOL    HW110268   4.428   6.720   4.982
 3123SOL    HW210269   4.300   6.654   4.905
 3124SOL     OW10270   3.432   6.993   5.904
 3124SOL    HW110271   3.469   7.000   5.812
 3124SOL    HW210272   3.499   6.948   5.964
 3125SOL     OW10273   6.430   1.880   6.019
 3125SOL    HW110274   6.489   1.879   6.100
 3125SOL    HW210275   6.339   1.848   6.044
 3126SOL     OW10276   3.838   6.544   0.378
 3126SOL    HW110277   3.815   6.547   0.475
 3126SOL    HW210278   3.796   6.463   0.337
 3127SOL     OW10279   0.993   1.814   3.635
 3127SOL    HW110280   0.925   1.793   3.705
 3127SOL    HW210281   1.085   1.807   3.675
 3128SOL     OW10282   1.469   0.993   0.186
 3128SOL    HW110283   1.392   0.956   0.238
 3128SOL    HW210284   1.533   0.920   0.164
 3129SOL     OW10285   1.400   2.946   4.102
 3129SOL    HW110286   1.309   2.952   4.144
 3129SOL    HW210287   1.419   2.851   4.078
 3130SOL     OW10288   1.711   5.488   2.981
 3130SOL    HW110289   1.759   5.486   3.069
 3130SOL    HW210290   1.752   5.421   2.920
 3131SOL     OW10291   0.175   3.213   3.470
 3131SOL    HW110292   0.124   3.236   3.553
 3131SOL    HW210293   0.121   3.151   3.414
 3132SOL     OW10294   4.961   6.167   5.046
 3132SOL    HW110295   4.928   6.072   5.048
 3132SOL    HW210296   5.031   6.180   5.116
 3133SOL     OW10297   2.742   1.712   2.855
 3133SOL    HW110298   2.748   1.678   2.949
 3133SOL    HW210299   2.804   1.790   2.844
 3134SOL     OW10300   4.883   3.225   2.645
 3134SOL    HW110301   4.934   3.250   2.728
 3134SOL    HW210302   4.902   3.291   2.573
 3135SOL     OW10303   2.879   1.575   3.088
 3135SOL    HW110304   2.898   1.555   2.992
 3135SOL    HW210305   2.954   1.540   3.145
 3136SOL     OW10306   6.330   6.622   5.261
 3136SOL    HW110307   6.321   6.523   5.260
 3136SOL    HW210308   6.251   6.664   5.216
 3137SOL     OW10309   6.721   1.732   4.559
 3137SOL    HW110310   6.812   1.762   4.531
 3137SOL    HW210311   6.652   1.777   4.502
 3138SOL     OW10312   5.376   1.708   5.185
 3138SOL    HW110313   5.462   1.754   5.207
 3138SOL    HW210314   5.393   1.638   5.115
 3139SOL     OW10315   5.094   6.283   5.694
 3139SOL    HW110316   5.135   6.298   5.784
 3139SOL    HW210317   5.080   6.186   5.679
 3140SOL     OW10318   6.512   6.218   6.547
 3140SOL    HW110319   6.548   6.311   6.553
 3140SOL    HW210320   6.581   6.154   6.579
 3141SOL     OW10321   0.962   5.234   0.536
 3141SOL    HW110322   1.024   5.163   0.570
 3141SOL    HW210323   1.010   5.290   0.468
 3142SOL     OW10324   3.512   6.639   6.835
 3142SOL    HW110325   3.611   6.640   6.846
 3142SOL    HW210326   3.475   6.730   6.856
 3143SOL     OW10327   0.054   1.723   0.403
 3143SOL    HW110328   0.105   1.638   0.396
 3143SOL    HW210329   0.009   1.742   0.315
 3144SOL     OW10330   1.784   3.479   6.314
 3144SOL    HW110331   1.788   3.385   6.348
 3144SOL    HW210332   1.798   3.480   6.215
 3145SOL     OW10333   3.874   6.346   3.875
 3145SOL    HW110334   3.885   6.319   3.971
 3145SOL    HW210335   3.881   6.445   3.867
 3146SOL     OW10336   2.165   0.732   3.640
 3146SOL    HW110337   2.108   0.729   3.722
 3146SOL    HW210338   2.245   0.790   3.658
 3147SOL     OW10339   3.517   3.769   0.587
 3147SOL    HW110340   3.432   3.757   0.536
 3147SOL    HW210341   3.577   3.691   0.571
 3148SOL     OW10342   3.957   5.701   5.132
 3148SOL    HW110343   4.051   5.732   5.143
 3148SOL    HW210344   3.954   5.601   5.140
 3149SOL     OW10345   3.571   6.528   5.688
 3149SOL    HW110346   3.646   6.469   5.718
 3149SOL    HW210347   3.524   6.566   5.768
 3150SOL     OW10348   6.561   0.051   4.178
 3150SOL    HW110349   6.635   0.102   4.221
 3150SOL    HW210350   6.482   0.111   4.163
 3151SOL     OW10351   3.704   0.598   0.222
 3151SOL    HW110352   3.676   0.626   0.130
 3151SOL    HW210353   3.727   0.500   0.221
 3152SOL     OW10354   1.404   4.847   0.047
 3152SOL    HW110355   1.428   4.831   0.143
 3152SOL    HW210356   1.342   4.775   0.015
 3153SOL     OW10357   0.263   4.225   2.911
 3153SOL    HW110358   0.305   4.306   2.950
 3153SOL    HW210359   0.238   4.242   2.816
 3154SOL     OW10360   5.842   2.271   6.669
 3154SOL    HW110361   5.931   2.312   6.688
 3154SOL    HW210362   5.771   2.341   6.673
 3155SOL     OW10363   4.907   6.015   0.165
 3155SOL    HW110364   4.867   6.101   0.135
 3155SOL    HW210365   4.835   5.948   0.182
 3156SOL     OW10366   3.337   3.328   3.309
 3156SOL    HW110367   3.385   3.361   3.390
 3156SOL    HW210368   3.336   3.399   3.239
 3157SOL     OW10369   2.153   2.477   4.414
 3157SOL    HW110370   2.143   2.467   4.315
 3157SOL    HW210371   2.064   2.499   4.454
 3158SOL     OW10372   4.275   6.008   1.311
 3158SOL    HW110373   4.245   6.026   1.217
 3158SOL    HW210374   4.360   5.955   1.309
 3159SOL     OW10375   6.132   4.366   0.584
 3159SOL    HW110376   6.166   4.411   0.502
 3159SOL    HW210377   6.208   4.322   0.632
 3160SOL     OW10378   5.501   4.674   0.357
 3160SOL    HW110379   5.556   4.590   0.352
 3160SOL    HW210380   5.436   4.675   0.281
 3161SOL     OW10381   0.582   1.946   2.657
 3161SOL    HW110382   0.533   1.879   2.712
 3161SOL    HW210383   0.628   1.900   2.581
 3162SOL     OW10384   6.295   6.603   5.803
 3162SOL    HW110385   6.350   6.533   5.847
 3162SOL    HW210386   6.333   6.693   5.825
 3163SOL     OW10387   2.655   4.416   5.247
 3163SOL    HW110388   2.743   4.464   5.242
 3163SOL    HW210389   2.595   4.449   5.174
 3164SOL     OW10390   5.998   5.779   6.359
 3164SOL    HW110391   6.065   5.778   6.285
 3164SOL    HW210392   6.015   5.702   6.421
 3165SOL     OW10393   0.250   2.883   1.420
 3165SOL    HW110394   0.333   2.865   1.474
 3165SOL    HW210395   0.228   2.803   1.365
 3166SOL     OW10396   5.684   2.996   6.458
 3166SOL    HW110397   5.685   2.902   6.425
 3166SOL    HW210398   5.623   3.003   6.537
 3167SOL     OW10399   1.099   4.314   2.417
 3167SOL    HW110400   1.063   4.384   2.356
 3167SOL    HW210401   1.087   4.343   2.512
 3168SOL     OW10402   5.269   3.227   0.720
 3168SOL    HW110403   5.285   3.129   0.729
 3168SOL    HW210404   5.231   3.263   0.806
 3169SOL     OW10405   1.802   1.917   4.917
 3169SOL    HW110406   1.709   1.904   4.950
 3169SOL    HW210407   1.865   1.863   4.973
 3170SOL     OW10408   4.528   0.578   5.844
 3170SOL    HW110409   4.510   0.565   5.746
 3170SOL    HW210410   4.555   0.491   5.885
 3171SOL     OW10411   6.194   6.821   3.253
 3171SOL    HW110412   6.285   6.845   3.220
 3171SOL    HW210413   6.144   6.772   3.181
 3172SOL     OW10414   5.819   0.422   5.948
 3172SOL    HW110415   5.807   0.391   5.853
 3172SOL    HW210416   5.788   0.350   6.010
 3173SOL     OW10417   1.820   1.331   1.541
 3173SOL    HW110418   1.903   1.379   1.570
 3173SOL    HW210419   1.836   1.289   1.452
 3174SOL     OW10420   1.973   3.929   6.247
 3174SOL    HW110421   2.052   3.911   6.188
 3174SOL    HW210422   1.982   3.875   6.331
 3175SOL     OW10423   6.666   5.900   1.040
 3175SOL    HW110424   6.655   5.887   0.941
 3175SOL    HW210425   6.748   5.954   1.057
 3176SOL     OW10426   1.429   5.746   6.140
 3176SOL    HW110427   1.440   5.679   6.066
 3176SOL    HW210428   1.494   5.821   6.127
 3177SOL     OW10429   0.754   0.071   4.130
 3177SOL    HW110430   0.690   0.095   4.203
 3177SOL    HW210431   0.845   0.056   4.170
 3178SOL     OW10432   1.702   3.391   0.670
 3178SOL    HW110433   1.767   3.395   0.594
 3178SOL    HW210434   1.671   3.296   0.683
 3179SOL     OW10435   0.980   2.457   3.134
 3179SOL    HW110436   0.955   2.553   3.128
 3179SOL    HW210437   1.047   2.435   3.063
 3180SOL     OW10438   5.283   1.052   6.089
 3180SOL    HW110439   5.331   1.131   6.051
 3180SOL    HW210440   5.216   1.018   6.023
 3181SOL     OW10441   0.151   1.937   3.611
 3181SOL    HW110442   0.239   1.963   3.570
 3181SOL    HW210443   0.078   1.949   3.543
 3182SOL     OW10444   1.689   4.780   5.569
 3182SOL    HW110445   1.590   4.783   5.580
 3182SOL    HW210446   1.717   4.690   5.537
 3183SOL     OW10447   4.715   2.975   1.236
 3183SOL    HW110448   4.742   3.067   1.208
 3183SOL    HW210449   4.714   2.969   1.336
 3184SOL     OW10450   2.183   1.438   2.894
 3184SOL    HW110451   2.246   1.363   2.875
 3184SOL    HW210452   2.220   1.524   2.859
 3185SOL     OW10453   0.509   6.505   6.073
 3185SOL    HW110454   0.520   6.429   6.137
 3185SOL    HW210455   0.584   6.505   6.007
 3186SOL     OW10456   3.590   0.358   1.857
 3186SOL    HW110457   3.585   0.427   1.929
 3186SOL    HW210458   3.531   0.384   1.781
 3187SOL     OW10459   2.697   4.473   0.345
 3187SOL    HW110460   2.682   4.485   0.246
 3187SOL    HW210461   2.784   4.428   0.360
 3188SOL     OW10462   4.767   0.409   3.067
 3188SOL    HW110463   4.822   0.397   3.150
 3188SOL    HW210464   4.674   0.435   3.091
 3189SOL     OW10465   6.985   6.871   1.714
 3189SOL    HW110466   7.016   6.818   1.635
 3189SOL    HW210467   6.904   6.923   1.689
 3190SOL     OW10468   0.599   6.658   1.199
 3190SOL    HW110469   0.689   6.681   1.235
 3190SOL    HW210470   0.607   6.638   1.101
 3191SOL     OW10471   3.105   0.427   1.053
 3191SOL    HW110472   3.082   0.414   0.956
 3191SOL    HW210473   3.202   0.451   1.061
 3192SOL     OW10474   5.823   2.408   3.843
 3192SOL    HW110475   5.865   2.360   3.920
 3192SOL    HW210476   5.892   2.465   3.798
 3193SOL     OW10477   4.899   4.286   0.261
 3193SOL    HW110478   4.939   4.304   0.351
 3193SOL    HW210479   4.900   4.369   0.207
 3194SOL     OW10480   1.672   4.550   5.771
 3194SOL    HW110481   1.589   4.587   5.731
 3194SOL    HW210482   1.729   4.625   5.805
 3195SOL     OW10483   0.664   3.781   3.076
 3195SOL    HW110484   0.680   3.682   3.069
 3195SOL    HW210485   0.739   3.831   3.033
 3196SOL     OW10486   0.453   6.176   5.419
 3196SOL    HW110487   0.518   6.106   5.388
 3196SOL    HW210488   0.423   6.155   5.512
 3197SOL     OW10489   0.822   4.193   4.383
 3197SOL    HW110490   0.832   4.116   4.320
 3197SOL    HW210491   0.738   4.242   4.363
 3198SOL     OW10492   5.373   6.976   0.150
 3198SOL    HW110493   5.374   6.938   0.243
 3198SOL    HW210494   5.278   6.982   0.118
 3199SOL     OW10495   3.656   1.882   2.815
 3199SOL    HW110496   3.659   1.853   2.719
 3199SOL    HW210497   3.669   1.803   2.875
 3200SOL     OW10498   7.004   2.173   0.611
 3200SOL    HW110499   0.076   2.193   0.622
 3200SOL    HW210500   6.951   2.254   0.635
 3201SOL     OW10501   4.633   4.281   3.382
 3201SOL    HW110502   4.540   4.317   3.390
 3201SOL    HW210503   4.688   4.312   3.459
 3202SOL     OW10504   1.355   5.540   2.067
 3202SOL    HW110505   1.400   5.485   2.137
 3202SOL    HW210506   1.313   5.620   2.110
 3203SOL     OW10507   5.239   0.263   1.258
 3203SOL    HW110508   5.326   0.300   1.223
 3203SOL    HW210509   5.169   0.334   1.252
 3204SOL     OW10510   6.192   6.456   1.398
 3204SOL    HW110511   6.157   6.542   1.435
 3204SOL    HW210512   6.236   6.404   1.472
 3205SOL     OW10513   1.224   4.155   3.349
 3205SOL    HW110514   1.207   4.125   3.255
 3205SOL    HW210515   1.278   4.085   3.397
 3206SOL     OW10516   1.494   6.440   0.036
 3206SOL    HW110517   1.500   6.448   0.135
 3206SOL    HW210518   1.522   6.348   0.008
 3207SOL     OW10519   0.891   1.379   2.748
 3207SOL    HW110520   0.864   1.444   2.676
 3207SOL    HW210521   0.812   1.357   2.804
 3208SOL     OW10522   5.921   0.619   4.922
 3208SOL    HW110523   5.992   0.561   4.961
 3208SOL    HW210524   5.877   0.671   4.995
 3209SOL     OW10525   2.487   0.318   2.787
 3209SOL    HW110526   2.567   0.367   2.822
 3209SOL    HW210527   2.406   0.377   2.793
 3210SOL     OW10528   0.672   4.834   2.570
 3210SOL    HW110529   0.736   4.777   2.518
 3210SOL    HW210530   0.717   4.921   2.593
 3211SOL     OW10531   0.851   4.130   2.761
 3211SOL    HW110532   0.877   4.105   2.667
 3211SOL    HW210533   0.887   4.221   2.782
 3212SOL     OW10534   4.801   3.014   4.931
 3212SOL    HW110535   4.798   3.026   4.832
 3212SOL    HW210536   4.844   3.093   4.974
 3213SOL     OW10537   5.035   0.129   1.629
 3213SOL    HW110538   4.987   0.055   1.676
 3213SOL    HW210539   5.052   0.204   1.693
 3214SOL     OW10540   4.140   4.101   6.430
 3214SOL    HW110541   4.043   4.119   6.447
 3214SOL    HW210542   4.155   4.088   6.332
 3215SOL     OW10543   6.149   1.119   0.184
 3215SOL    HW110544   6.054   1.137   0.210
 3215SOL    HW210545   6.162   1.021   0.172
 3216SOL     OW10546   6.563   6.719   5.119
 3216SOL    HW110547   6.634   6.649   5.121
 3216SOL    HW210548   6.486   6.689   5.175
 3217SOL     OW10549   6.817   3.966   0.729
 3217SOL    HW110550   6.871   3.908   0.668
 3217SOL    HW210551   6.790   3.913   0.810
 3218SOL     OW10552   3.703   0.804   2.264
 3218SOL    HW110553   3.749   0.811   2.353
 3218SOL    HW210554   3.716   0.889   2.213
 3219SOL     OW10555   6.960   6.983   4.090
 3219SOL    HW110556   6.971   0.054   4.117
 3219SOL    HW210557   7.008   6.925   4.156
 3220SOL     OW10558   5.856   3.177   6.786
 3220SOL    HW110559   5.859   3.140   6.693
 3220SOL    HW210560   5.879   3.274   6.784
 3221SOL     OW10561   3.647   7.015   2.362
 3221SOL    HW110562   3.736   6.976   2.386
 3221SOL    HW210563   3.652   0.090   2.366
 3222SOL     OW10564   6.515   3.764   2.676
 3222SOL    HW110565   6.480   3.790   2.586
 3222SOL    HW210566   6.613   3.785   2.681
 3223SOL     OW10567   2.522   4.512   3.897
 3223SOL    HW110568   2.451   4.581   3.902
 3223SOL    HW210569   2.602   4.543   3.950
 3224SOL     OW10570   3.666   5.816   1.653
 3224SOL    HW110571   3.599   5.833   1.726
 3224SOL    HW210572   3.633   5.857   1.568
 3225SOL     OW10573   2.009   2.648   0.803
 3225SOL    HW110574   1.978   2.728   0.853
 3225SOL    HW210575   1.930   2.602   0.761
 3226SOL     OW10576   0.237   0.854   4.114
 3226SOL    HW110577   0.316   0.905   4.148
 3226SOL    HW210578   0.246   0.758   4.140
 3227SOL     OW10579   1.884   1.543   5.305
 3227SOL    HW110580   1.905   1.556   5.208
 3227SOL    HW210581   1.825   1.463   5.316
 3228SOL     OW10582   4.933   3.281   4.681
 3228SOL    HW110583   4.872   3.207   4.654
 3228SOL    HW210584   4.915   3.362   4.626
 3229SOL     OW10585   4.227   1.442   5.141
 3229SOL    HW110586   4.131   1.457   5.166
 3229SOL    HW210587   4.231   1.384   5.060
 3230SOL     OW10588   1.635   0.822   4.243
 3230SOL    HW110589   1.613   0.756   4.170
 3230SOL    HW210590   1.568   0.896   4.241
 3231SOL     OW10591   4.894   5.176   0.187
 3231SOL    HW110592   4.949   5.096   0.163
 3231SOL    HW210593   4.894   5.187   0.287
 3232SOL     OW10594   2.214   4.298   3.405
 3232SOL    HW110595   2.264   4.217   3.434
 3232SOL    HW210596   2.151   4.326   3.478
 3233SOL     OW10597   1.526   3.555   0.515
 3233SOL    HW110598   1.543   3.522   0.422
 3233SOL    HW210599   1.569   3.493   0.581
 3234SOL     OW10600   6.484   2.292   4.906
 3234SOL    HW110601   6.424   2.360   4.949
 3234SOL    HW210602   6.489   2.310   4.808
 3235SOL     OW10603   5.343   0.802   2.518
 3235SOL    HW110604   5.365   0.830   2.424
 3235SOL    HW210605   5.302   0.879   2.567
 3236SOL     OW10606   0.413   3.154   1.338
 3236SOL    HW110607   0.429   3.203   1.423
 3236SOL    HW210608   0.405   3.056   1.357
 3237SOL     OW10609   2.900   6.552   4.278
 3237SOL    HW110610   2.818   6.528   4.329
 3237SOL    HW210611   2.895   6.512   4.186
 3238SOL     OW10612   6.272   6.135   6.456
 3238SOL    HW110613   6.320   6.076   6.391
 3238SOL    HW210614   6.338   6.179   6.516
 3239SOL     OW10615   0.463   5.693   5.304
 3239SOL    HW110616   0.477   5.792   5.314
 3239SOL    HW210617   0.492   5.647   5.388
 3240SOL     OW10618   6.995   1.870   5.011
 3240SOL    HW110619   6.998   1.792   5.074
 3240SOL    HW210620   6.940   1.943   5.052
 3241SOL     OW10621   4.991   7.022   5.302
 3241SOL    HW110622   5.051   7.009   5.223
 3241SOL    HW210623   4.948   0.087   5.297
 3242SOL     OW10624   3.381   6.508   0.631
 3242SOL    HW110625   3.453   6.529   0.564
 3242SOL    HW210626   3.407   6.428   0.684
 3243SOL     OW10627   3.224   5.349   0.956
 3243SOL    HW110628   3.271   5.434   0.934
 3243SOL    HW210629   3.241   5.326   1.052
 3244SOL     OW10630   1.330   6.036   5.527
 3244SOL    HW110631   1.246   5.989   5.555
 3244SOL    HW210632   1.346   6.020   5.429
 3245SOL     OW10633   2.950   1.937   5.738
 3245SOL    HW110634   2.938   1.927   5.639
 3245SOL    HW210635   3.043   1.910   5.763
 3246SOL     OW10636   5.561   6.310   3.406
 3246SOL    HW110637   5.573   6.302   3.307
 3246SOL    HW210638   5.621   6.382   3.441
 3247SOL     OW10639   6.399   2.238   5.543
 3247SOL    HW110640   6.420   2.333   5.566
 3247SOL    HW210641   6.377   2.188   5.627
 3248SOL     OW10642   5.243   3.941   2.916
 3248SOL    HW110643   5.255   3.917   2.820
 3248SOL    HW210644   5.159   3.993   2.928
 3249SOL     OW10645   3.153   4.494   5.583
 3249SOL    HW110646   3.165   4.399   5.553
 3249SOL    HW210647   3.056   4.517   5.583
 3250SOL     OW10648   4.963   5.288   1.280
 3250SOL    HW110649   4.979   5.361   1.346
 3250SOL    HW210650   4.873   5.246   1.297
 3251SOL     OW10651   3.621   0.830   3.674
 3251SOL    HW110652   3.701   0.858   3.726
 3251SOL    HW210653   3.543   0.819   3.737
 3252SOL     OW10654   3.025   2.161   3.485
 3252SOL    HW110655   2.970   2.171   3.568
 3252SOL    HW210656   2.977   2.201   3.408
 3253SOL     OW10657   4.553   4.273   0.950
 3253SOL    HW110658   4.551   4.222   0.864
 3253SOL    HW210659   4.518   4.365   0.936
 3254SOL     OW10660   5.649   4.550   2.345
 3254SOL    HW110661   5.604   4.608   2.414
 3254SOL    HW210662   5.713   4.488   2.390
 3255SOL     OW10663   4.232   4.774   1.096
 3255SOL    HW110664   4.210   4.785   1.193
 3255SOL    HW210665   4.312   4.716   1.087
 3256SOL     OW10666   6.164   6.317   5.799
 3256SOL    HW110667   6.254   6.316   5.754
 3256SOL    HW210668   6.173   6.285   5.893
 3257SOL     OW10669   2.216   1.682   1.182
 3257SOL    HW110670   2.260   1.769   1.204
 3257SOL    HW210671   2.149   1.660   1.253
 3258SOL     OW10672   5.092   6.653   1.732
 3258SOL    HW110673   5.030   6.576   1.740
 3258SOL    HW210674   5.148   6.660   1.815
 3259SOL     OW10675   5.880   6.337   2.869
 3259SOL    HW110676   5.942   6.402   2.827
 3259SOL    HW210677   5.926   6.293   2.947
 3260SOL     OW10678   1.516   1.813   1.060
 3260SOL    HW110679   1.581   1.791   1.132
 3260SOL    HW210680   1.498   1.912   1.061
 3261SOL     OW10681   4.470   6.874   3.435
 3261SOL    HW110682   4.488   6.953   3.494
 3261SOL    HW210683   4.449   6.794   3.492
 3262SOL     OW10684   4.049   1.178   3.809
 3262SOL    HW110685   4.071   1.145   3.717
 3262SOL    HW210686   3.972   1.241   3.804
 3263SOL     OW10687   3.931   4.816   2.807
 3263SOL    HW110688   3.995   4.751   2.767
 3263SOL    HW210689   3.941   4.816   2.906
 3264SOL     OW10690   4.761   4.708   6.079
 3264SOL    HW110691   4.793   4.798   6.111
 3264SOL    HW210692   4.733   4.715   5.983
 3265SOL     OW10693   5.090   0.407   6.330
 3265SOL    HW110694   5.184   0.437   6.348
 3265SOL    HW210695   5.041   0.479   6.281
 3266SOL     OW10696   1.069   2.885   6.896
 3266SOL    HW110697   1.028   2.941   6.969
 3266SOL    HW210698   1.029   2.912   6.808
 3267SOL     OW10699   5.130   3.028   2.155
 3267SOL    HW110700   5.165   2.966   2.085
 3267SOL    HW210701   5.084   2.975   2.226
 3268SOL     OW10702   1.834   4.463   0.088
 3268SOL    HW110703   1.911   4.414   0.047
 3268SOL    HW210704   1.750   4.437   0.040
 3269SOL     OW10705   4.589   3.625   0.701
 3269SOL    HW110706   4.633   3.710   0.672
 3269SOL    HW210707   4.638   3.587   0.780
 3270SOL     OW10708   0.188   5.401   4.267
 3270SOL    HW110709   0.252   5.458   4.318
 3270SOL    HW210710   0.153   5.329   4.327
 3271SOL     OW10711   5.084   0.463   2.120
 3271SOL    HW110712   5.143   0.389   2.086
 3271SOL    HW210713   5.056   0.443   2.213
 3272SOL     OW10714   5.048   6.815   0.032
 3272SOL    HW110715   5.105   6.814   6.975
 3272SOL    HW210716   5.042   6.908   0.068
 3273SOL     OW10717   1.350   1.151   3.100
 3273SOL    HW110718   1.288   1.151   3.179
 3273SOL    HW210719   1.444   1.153   3.133
 3274SOL     OW10720   2.714   1.595   7.011
 3274SOL    HW110721   2.643   1.652   6.971
 3274SOL    HW210722   2.787   1.580   6.944
 3275SOL     OW10723   4.183   0.795   6.990
 3275SOL    HW110724   4.124   0.872   7.012
 3275SOL    HW210725   4.264   0.797   0.024
 3276SOL     OW10726   2.431   6.295   0.276
 3276SOL    HW110727   2.345   6.256   0.243
 3276SOL    HW210728   2.491   6.315   0.199
 3277SOL     OW10729   0.191   6.182   5.866
 3277SOL    HW110730   0.174   6.276   5.837
 3277SOL    HW210731   0.255   6.182   5.943
 3278SOL     OW10732   1.208   1.199   0.433
 3278SOL    HW110733   1.125   1.254   0.442
 3278SOL    HW210734   1.190   1.122   0.373
 3279SOL     OW10735   1.948   6.188   0.978
 3279SOL    HW110736   2.012   6.197   1.054
 3279SOL    HW210737   1.856   6.215   1.008
 3280SOL     OW10738   2.693   6.293   4.278
 3280SOL    HW110739   2.625   6.319   4.211
 3280SOL    HW210740   2.654   6.227   4.342
 3281SOL     OW10741   2.694   6.232   0.477
 3281SOL    HW110742   2.597   6.207   0.481
 3281SOL    HW210743   2.704   6.319   0.429
 3282SOL     OW10744   2.000   5.787   2.445
 3282SOL    HW110745   1.911   5.817   2.477
 3282SOL    HW210746   2.071   5.846   2.483
 3283SOL     OW10747   2.065   0.078   4.050
 3283SOL    HW110748   2.066   0.028   3.964
 3283SOL    HW210749   2.152   0.064   4.098
 3284SOL     OW10750   1.318   5.065   5.955
 3284SOL    HW110751   1.328   4.967   5.938
 3284SOL    HW210752   1.385   5.116   5.901
 3285SOL     OW10753   0.041   2.480   4.469
 3285SOL    HW110754   6.976   2.491   4.511
 3285SOL    HW210755   0.088   2.569   4.466
 3286SOL     OW10756   4.510   4.941   6.452
 3286SOL    HW110757   4.435   4.913   6.391
 3286SOL    HW210758   4.498   4.897   6.541
 3287SOL     OW10759   0.593   3.654   1.646
 3287SOL    HW110760   0.622   3.714   1.571
 3287SOL    HW210761   0.587   3.708   1.731
 3288SOL     OW10762   1.002   6.169   6.097
 3288SOL    HW110763   1.018   6.079   6.057
 3288SOL    HW210764   0.913   6.203   6.070
 3289SOL     OW10765   1.212   5.749   4.130
 3289SOL    HW110766   1.278   5.683   4.164
 3289SOL    HW210767   1.198   5.736   4.032
 3290SOL     OW10768   0.483   4.898   3.478
 3290SOL    HW110769   0.429   4.904   3.394
 3290SOL    HW210770   0.574   4.863   3.457
 3291SOL     OW10771   1.463   0.573   1.922
 3291SOL    HW110772   1.498   0.495   1.973
 3291SOL    HW210773   1.536   0.639   1.906
 3292SOL     OW10774   0.123   5.827   4.837
 3292SOL    HW110775   0.159   5.919   4.823
 3292SOL    HW210776   0.174   5.781   4.910
 3293SOL     OW10777   5.814   0.972   2.856
 3293SOL    HW110778   5.797   0.905   2.785
 3293SOL    HW210779   5.870   0.931   2.928
 3294SOL     OW10780   0.708   6.366   0.822
 3294SOL    HW110781   0.709   6.365   0.722
 3294SOL    HW210782   0.715   6.272   0.856
 3295SOL     OW10783   1.804   2.216   6.163
 3295SOL    HW110784   1.893   2.236   6.204
 3295SOL    HW210785   1.798   2.118   6.144
 3296SOL     OW10786   0.589   6.659   2.022
 3296SOL    HW110787   0.678   6.614   2.027
 3296SOL    HW210788   0.602   6.756   2.004
 3297SOL     OW10789   3.042   1.348   5.877
 3297SOL    HW110790   2.978   1.277   5.847
 3297SOL    HW210791   3.128   1.339   5.825
 3298SOL     OW10792   6.906   4.362   2.701
 3298SOL    HW110793   6.917   4.299   2.624
 3298SOL    HW210794   6.824   4.418   2.688
 3299SOL     OW10795   0.848   1.502   4.943
 3299SOL    HW110796   0.799   1.440   5.004
 3299SOL    HW210797   0.841   1.595   4.977
 3300SOL     OW10798   6.809   7.017   4.992
 3300SOL    HW110799   6.786   6.940   4.933
 3300SOL    HW210800   6.727   0.046   5.010
 3301SOL     OW10801   6.927   4.147   2.531
 3301SOL    HW110802   6.956   4.089   2.607
 3301SOL    HW210803   6.970   4.115   2.446
 3302SOL     OW10804   1.075   5.831   5.225
 3302SOL    HW110805   1.051   5.773   5.303
 3302SOL    HW210806   1.163   5.876   5.242
 3303SOL     OW10807   2.937   3.343   4.008
 3303SOL    HW110808   2.975   3.251   4.019
 3303SOL    HW210809   2.870   3.360   4.081
 3304SOL     OW10810   1.372   0.609   3.258
 3304SOL    HW110811   1.359   0.536   3.325
 3304SOL    HW210812   1.469   0.620   3.237
 3305SOL     OW10813   0.372   2.612   0.139
 3305SOL    HW110814   0.445   2.560   0.095
 3305SOL    HW210815   0.318   2.659   0.069
 3306SOL     OW10816   1.261   3.159   2.376
 3306SOL    HW110817   1.260   3.259   2.369
 3306SOL    HW210818   1.349   3.125   2.344
 3307SOL     OW10819   0.837   6.974   0.341
 3307SOL    HW110820   0.828   6.874   0.340
 3307SOL    HW210821   0.844   7.006   0.435
 3308SOL     OW10822   5.132   6.399   0.885
 3308SOL    HW110823   5.161   6.315   0.838
 3308SOL    HW210824   5.174   6.478   0.841
 3309SOL     OW10825   1.678   5.135   2.514
 3309SOL    HW110826   1.677   5.177   2.423
 3309SOL    HW210827   1.769   5.099   2.533
 3310SOL     OW10828   1.538   6.690   1.856
 3310SOL    HW110829   1.489   6.612   1.816
 3310SOL    HW210830   1.620   6.710   1.803
 3311SOL     OW10831   3.753   5.820   0.798
 3311SOL    HW110832   3.802   5.906   0.783
 3311SOL    HW210833   3.657   5.839   0.820
 3312SOL     OW10834   2.202   2.624   6.594
 3312SOL    HW110835   2.151   2.605   6.678
 3312SOL    HW210836   2.300   2.624   6.615
 3313SOL     OW10837   6.488   6.257   4.956
 3313SOL    HW110838   6.449   6.323   4.892
 3313SOL    HW210839   6.431   6.251   5.038
 3314SOL     OW10840   0.839   4.637   6.742
 3314SOL    HW110841   0.888   4.715   6.782
 3314SOL    HW210842   0.747   4.665   6.716
 3315SOL     OW10843   6.644   3.184   3.752
 3315SOL    HW110844   6.567   3.145   3.701
 3315SOL    HW210845   6.693   3.249   3.693
 3316SOL     OW10846   3.687   1.690   0.174
 3316SOL    HW110847   3.679   1.591   0.192
 3316SOL    HW210848   3.683   1.706   0.076
 3317SOL     OW10849   4.182   2.708   1.693
 3317SOL    HW110850   4.245   2.781   1.718
 3317SOL    HW210851   4.089   2.743   1.694
 3318SOL     OW10852   2.642   5.068   5.549
 3318SOL    HW110853   2.676   5.093   5.459
 3318SOL    HW210854   2.594   5.146   5.590
 3319SOL     OW10855   6.834   6.595   6.731
 3319SOL    HW110856   6.743   6.585   6.691
 3319SOL    HW210857   6.850   6.692   6.751
 3320SOL     OW10858   0.633   0.204   0.389
 3320SOL    HW110859   0.623   0.269   0.314
 3320SOL    HW210860   0.668   0.117   0.353
 3321SOL     OW10861   4.113   3.397   4.167
 3321SOL    HW110862   4.057   3.325   4.126
 3321SOL    HW210863   4.202   3.400   4.121
 3322SOL     OW10864   4.104   1.707   1.933
 3322SOL    HW110865   4.060   1.624   1.900
 3322SOL    HW210866   4.203   1.695   1.931
 3323SOL     OW10867   2.061   4.613   0.274
 3323SOL    HW110868   2.118   4.574   0.202
 3323SOL    HW210869   2.000   4.543   0.311
 3324SOL     OW10870   6.234   3.226   1.461
 3324SOL    HW110871   6.138   3.238   1.435
 3324SOL    HW210872   6.272   3.314   1.488
 3325SOL     OW10873   1.354   4.644   6.281
 3325SOL    HW110874   1.341   4.703   6.201
 3325SOL    HW210875   1.369   4.549   6.251
 3326SOL     OW10876   5.817   0.809   1.959
 3326SOL    HW110877   5.914   0.821   1.979
 3326SOL    HW210878   5.806   0.750   1.879
 3327SOL     OW10879   4.688   5.539   1.775
 3327SOL    HW110880   4.785   5.530   1.751
 3327SOL    HW210881   4.640   5.454   1.751
 3328SOL     OW10882   6.170   6.904   4.061
 3328SOL    HW110883   6.198   6.832   4.124
 3328SOL    HW210884   6.248   6.963   4.041
 3329SOL     OW10885   5.400   0.743   5.871
 3329SOL    HW110886   5.351   0.759   5.956
 3329SOL    HW210887   5.495   0.717   5.891
 3330SOL     OW10888   6.633   6.539   2.727
 3330SOL    HW110889   6.639   6.536   2.827
 3330SOL    HW210890   6.654   6.449   2.690
 3331SOL     OW10891   1.480   4.109   2.913
 3331SOL    HW110892   1.420   4.041   2.870
 3331SOL    HW210893   1.449   4.126   3.007
 3332SOL     OW10894   3.125   5.175   0.418
 3332SOL    HW110895   3.140   5.240   0.492
 3332SOL    HW210896   3.202   5.111   0.414
 3333SOL     OW10897   1.715   3.068   1.154
 3333SOL    HW110898   1.791   3.003   1.153
 3333SOL    HW210899   1.739   3.147   1.097
 3334SOL     OW10900   1.354   2.547   2.125
 3334SOL    HW110901   1.432   2.607   2.107
 3334SOL    HW210902   1.277   2.575   2.069
 3335SOL     OW10903   3.415   4.162   5.391
 3335SOL    HW110904   3.484   4.153   5.463
 3335SOL    HW210905   3.338   4.215   5.424
 3336SOL     OW10906   4.018   6.013   5.567
 3336SOL    HW110907   3.992   6.047   5.477
 3336SOL    HW210908   4.051   6.088   5.624
 3337SOL     OW10909   3.622   2.868   3.669
 3337SOL    HW110910   3.560   2.876   3.591
 3337SOL    HW210911   3.583   2.915   3.748
 3338SOL     OW10912   2.960   2.639   1.545
 3338SOL    HW110913   3.015   2.609   1.623
 3338SOL    HW210914   2.882   2.692   1.578
 3339SOL     OW10915   0.957   6.892   6.876
 3339SOL    HW110916   1.047   6.864   6.907
 3339SOL    HW210917   0.898   6.812   6.866
 3340SOL     OW10918   3.816   1.401   5.762
 3340SOL    HW110919   3.739   1.461   5.786
 3340SOL    HW210920   3.871   1.444   5.691
 3341SOL     OW10921   1.224   4.410   1.448
 3341SOL    HW110922   1.223   4.330   1.388
 3341SOL    HW210923   1.235   4.380   1.543
 3342SOL     OW10924   6.266   0.734   2.433
 3342SOL    HW110925   6.341   0.675   2.461
 3342SOL    HW210926   6.181   0.681   2.429
 3343SOL     OW10927   3.911   5.616   0.972
 3343SOL    HW110928   3.944   5.675   0.898
 3343SOL    HW210929   3.817   5.640   0.994
 3344SOL     OW10930   1.054   3.622   1.980
 3344SOL    HW110931   1.021   3.542   2.029
 3344SOL    HW210932   1.121   3.595   1.911
 3345SOL     OW10933   5.663   5.508   1.119
 3345SOL    HW110934   5.666   5.555   1.208
 3345SOL    HW210935   5.640   5.412   1.133
 3346SOL     OW10936   1.366   0.848   0.482
 3346SOL    HW110937   1.289   0.788   0.460
 3346SOL    HW210938   1.444   0.793   0.512
 3347SOL     OW10939   0.818   4.103   5.739
 3347SOL    HW110940   0.784   4.012   5.766
 3347SOL    HW210941   0.913   4.096   5.711
 3348SOL     OW10942   3.649   4.241   6.335
 3348SOL    HW110943   3.560   4.235   6.381
 3348SOL    HW210944   3.711   4.173   6.373
 3349SOL     OW10945   1.779   5.169   2.076
 3349SOL    HW110946   1.871   5.148   2.042
 3349SOL    HW210947   1.782   5.254   2.128
 3350SOL     OW10948   2.024   5.137   4.960
 3350SOL    HW110949   1.929   5.135   4.991
 3350SOL    HW210950   2.075   5.064   5.006
 3351SOL     OW10951   5.503   0.246   2.063
 3351SOL    HW110952   5.533   0.169   2.006
 3351SOL    HW210953   5.446   0.211   2.138
 3352SOL     OW10954   5.438   1.533   6.940
 3352SOL    HW110955   5.487   1.480   6.871
 3352SOL    HW210956   5.481   1.520   0.004
 3353SOL     OW10957   4.001   1.039   6.644
 3353SOL    HW110958   3.990   1.098   6.564
 3353SOL    HW210959   3.917   0.985   6.657
 3354SOL     OW10960   2.125   3.291   0.569
 3354SOL    HW110961   2.189   3.227   0.611
 3354SOL    HW210962   2.152   3.310   0.475
 3355SOL     OW10963   1.010   0.600   4.466
 3355SOL    HW110964   1.092   0.624   4.518
 3355SOL    HW210965   0.936   0.577   4.530
 3356SOL     OW10966   2.589   0.912   6.145
 3356SOL    HW110967   2.661   0.886   6.209
 3356SOL    HW210968   2.557   0.830   6.096
 3357SOL     OW10969   3.071   3.273   2.881
 3357SOL    HW110970   3.059   3.216   2.961
 3357SOL    HW210971   3.058   3.219   2.798
 3358SOL     OW10972   0.367   2.008   1.244
 3358SOL    HW110973   0.466   2.018   1.251
 3358SOL    HW210974   0.325   2.097   1.227
 3359SOL     OW10975   0.986   0.004   4.215
 3359SOL    HW110976   0.975   6.955   4.150
 3359SOL    HW210977   1.070   0.055   4.193
 3360SOL     OW10978   2.045   5.324   4.432
 3360SOL    HW110979   2.089   5.316   4.342
 3360SOL    HW210980   2.111   5.358   4.498
 3361SOL     OW10981   6.795   6.442   4.804
 3361SOL    HW110982   6.833   6.355   4.773
 3361SOL    HW210983   6.864   6.514   4.798
 3362SOL     OW10984   4.013   0.404   4.296
 3362SOL    HW110985   3.994   0.500   4.317
 3362SOL    HW210986   3.944   0.346   4.339
 3363SOL     OW10987   5.334   4.046   0.078
 3363SOL    HW110988   5.356   4.062   7.007
 3363SOL    HW210989   5.385   3.967   0.111
 3364SOL     OW10990   1.664   3.797   1.691
 3364SOL    HW110991   1.646   3.755   1.780
 3364SOL    HW210992   1.710   3.730   1.632
 3365SOL     OW10993   0.926   3.012   3.048
 3365SOL    HW110994   0.895   3.070   3.123
 3365SOL    HW210995   0.852   3.000   2.982
 3366SOL     OW10996   6.515   2.658   4.541
 3366SOL    HW110997   6.553   2.671   4.449
 3366SOL    HW210998   6.431   2.711   4.550
 3367SOL     OW10999   3.365   2.882   3.907
 3367SOL    HW111000   3.375   2.783   3.905
 3367SOL    HW211001   3.399   2.917   3.995
 3368SOL     OW11002   2.530   1.534   3.305
 3368SOL    HW111003   2.566   1.465   3.368
 3368SOL    HW211004   2.430   1.539   3.315
 3369SOL     OW11005   5.154   2.913   1.144
 3369SOL    HW111006   5.075   2.892   1.201
 3369SOL    HW211007   5.124   2.958   1.060
 3370SOL     OW11008   1.021   5.916   3.044
 3370SOL    HW111009   0.982   5.987   3.104
 3370SOL    HW211010   0.975   5.918   2.956
 3371SOL     OW11011   2.168   2.915   1.386
 3371SOL    HW111012   2.240   2.955   1.329
 3371SOL    HW211013   2.162   2.817   1.367
 3372SOL     OW11014   6.052   3.078   3.827
 3372SOL    HW111015   6.022   3.016   3.900
 3372SOL    HW211016   6.017   3.169   3.845
 3373SOL     OW11017   7.010   4.511   0.910
 3373SOL    HW111018   7.018   4.431   0.969
 3373SOL    HW211019   6.913   4.527   0.889
 3374SOL     OW11020   0.738   6.031   4.160
 3374SOL    HW111021   0.740   6.065   4.066
 3374SOL    HW211022   0.650   6.052   4.202
 3375SOL     OW11023   0.635   6.152   5.807
 3375SOL    HW111024   0.701   6.219   5.774
 3375SOL    HW211025   0.617   6.085   5.735
 3376SOL     OW11026   3.216   2.940   5.164
 3376SOL    HW111027   3.174   3.017   5.116
 3376SOL    HW211028   3.314   2.939   5.145
 3377SOL     OW11029   6.763   5.269   4.484
 3377SOL    HW111030   6.810   5.347   4.527
 3377SOL    HW211031   6.697   5.231   4.549
 3378SOL     OW11032   1.138   5.940   0.641
 3378SOL    HW111033   1.111   5.895   0.555
 3378SOL    HW211034   1.216   5.999   0.624
 3379SOL     OW11035   5.957   4.017   4.056
 3379SOL    HW111036   6.021   4.058   4.122
 3379SOL    HW211037   5.865   4.017   4.095
 3380SOL     OW11038   2.511   5.324   1.503
 3380SOL    HW111039   2.452   5.307   1.582
 3380SOL    HW211040   2.507   5.245   1.441
 3381SOL     OW11041   2.976   3.814   6.196
 3381SOL    HW111042   3.031   3.896   6.183
 3381SOL    HW211043   3.036   3.735   6.211
 3382SOL     OW11044   6.792   4.023   6.882
 3382SOL    HW111045   6.879   4.043   6.928
 3382SOL    HW211046   6.789   3.925   6.859
 3383SOL     OW11047   3.324   5.596   0.911
 3383SOL    HW111048   3.292   5.649   0.990
 3383SOL    HW211049   3.421   5.613   0.897
 3384SOL     OW11050   2.734   2.804   6.472
 3384SOL    HW111051   2.767   2.794   6.378
 3384SOL    HW211052   2.799   2.762   6.535
 3385SOL     OW11053   6.165   2.488   4.700
 3385SOL    HW111054   6.262   2.462   4.696
 3385SOL    HW211055   6.125   2.453   4.785
 3386SOL     OW11056   0.519   6.177   4.729
 3386SOL    HW111057   0.599   6.134   4.771
 3386SOL    HW211058   0.464   6.107   4.684
 3387SOL     OW11059   6.093   0.848   2.678
 3387SOL    HW111060   6.112   0.751   2.687
 3387SOL    HW211061   6.022   0.862   2.608
 3388SOL     OW11062   0.181   3.696   0.681
 3388SOL    HW111063   0.180   3.784   0.729
 3388SOL    HW211064   0.172   3.621   0.747
 3389SOL     OW11065   6.284   5.616   6.476
 3389SOL    HW111066   6.252   5.529   6.515
 3389SOL    HW211067   6.340   5.597   6.396
 3390SOL     OW11068   3.278   4.845   0.212
 3390SOL    HW111069   3.345   4.881   0.147
 3390SOL    HW211070   3.298   4.881   0.303
 3391SOL     OW11071   4.922   3.862   5.164
 3391SOL    HW111072   4.840   3.915   5.147
 3391SOL    HW211073   5.001   3.923   5.172
 3392SOL     OW11074   5.104   6.530   5.944
 3392SOL    HW111075   5.145   6.439   5.937
 3392SOL    HW211076   5.128   6.584   5.863
 3393SOL     OW11077   3.606   6.245   0.236
 3393SOL    HW111078   3.597   6.329   0.182
 3393SOL    HW211079   3.515   6.210   0.258
 3394SOL     OW11080   3.149   5.040   0.816
 3394SOL    HW111081   3.178   5.101   0.890
 3394SOL    HW211082   3.105   4.959   0.855
 3395SOL     OW11083   2.028   6.683   2.738
 3395SOL    HW111084   1.954   6.748   2.718
 3395SOL    HW211085   2.070   6.706   2.826
 3396SOL     OW11086   5.036   0.337   4.471
 3396SOL    HW111087   4.950   0.363   4.514
 3396SOL    HW211088   5.055   0.240   4.488
 3397SOL     OW11089   2.429   6.133   0.924
 3397SOL    HW111090   2.441   6.037   0.947
 3397SOL    HW211091   2.506   6.164   0.868
 3398SOL     OW11092   6.667   1.309   6.621
 3398SOL    HW111093   6.572   1.302   6.652
 3398SOL    HW211094   6.729   1.306   6.700
 3399SOL     OW11095   6.916   6.504   2.070
 3399SOL    HW111096   6.906   6.544   1.979
 3399SOL    HW211097   7.012   6.513   2.099
 3400SOL     OW11098   3.475   2.644   5.387
 3400SOL    HW111099   3.557   2.613   5.434
 3400SOL    HW211100   3.501   2.687   5.300
 3401SOL     OW11101   0.125   2.925   4.317
 3401SOL    HW111102   0.074   2.969   4.391
 3401SOL    HW211103   0.070   2.851   4.278
 3402SOL     OW11104   5.446   3.396   0.375
 3402SOL    HW111105   5.426   3.391   0.473
 3402SOL    HW211106   5.379   3.457   0.331
 3403SOL     OW11107   5.715   6.584   5.458
 3403SOL    HW111108   5.623   6.607   5.488
 3403SOL    HW211109   5.758   6.524   5.525
 3404SOL     OW11110   5.143   4.982   3.145
 3404SOL    HW111111   5.227   4.927   3.149
 3404SOL    HW211112   5.151   5.050   3.072
 3405SOL     OW11113   4.330   6.114   0.519
 3405SOL    HW111114   4.428   6.131   0.524
 3405SOL    HW211115   4.281   6.201   0.523
 3406SOL     OW11116   3.567   5.216   1.130
 3406SOL    HW111117   3.604   5.281   1.197
 3406SOL    HW211118   3.582   5.252   1.038
 3407SOL     OW11119   1.298   2.845   0.495
 3407SOL    HW111120   1.378   2.842   0.555
 3407SOL    HW211121   1.244   2.762   0.507
 3408SOL     OW11122   4.198   6.517   4.175
 3408SOL    HW111123   4.150   6.539   4.259
 3408SOL    HW211124   4.273   6.581   4.161
 3409SOL     OW11125   4.226   1.599   6.983
 3409SOL    HW111126   4.226   1.504   7.013
 3409SOL    HW211127   4.173   1.608   6.899
 3410SOL     OW11128   6.563   0.640   2.848
 3410SOL    HW111129   6.474   0.651   2.893
 3410SOL    HW211130   6.608   0.729   2.840
 3411SOL     OW11131   5.790   3.126   5.783
 3411SOL    HW111132   5.803   3.223   5.803
 3411SOL    HW211133   5.713   3.114   5.721
 3412SOL     OW11134   5.718   2.941   3.719
 3412SOL    HW111135   5.712   3.005   3.796
 3412SOL    HW211136   5.812   2.937   3.686
 3413SOL     OW11137   6.653   2.551   0.786
 3413SOL    HW111138   6.671   2.625   0.850
 3413SOL    HW211139   6.585   2.489   0.824
 3414SOL     OW11140   3.775   3.204   1.883
 3414SOL    HW111141   3.784   3.256   1.797
 3414SOL    HW211142   3.847   3.136   1.888
 3415SOL     OW11143   2.130   1.375   6.279
 3415SOL    HW111144   2.111   1.471   6.258
 3415SOL    HW211145   2.069   1.344   6.351
 3416SOL     OW11146   5.915   6.868   6.050
 3416SOL    HW111147   5.859   6.924   5.989
 3416SOL    HW211148   5.952   6.790   6.000
 3417SOL     OW11149   6.030   0.620   2.416
 3417SOL    HW111150   5.979   0.705   2.431
 3417SOL    HW211151   5.975   0.558   2.359
 3418SOL     OW11152   4.373   5.803   0.913
 3418SOL    HW111153   4.343   5.736   0.845
 3418SOL    HW211154   4.473   5.806   0.915
 3419SOL     OW11155   2.789   4.925   5.017
 3419SOL    HW111156   2.782   4.974   4.929
 3419SOL    HW211157   2.792   4.827   5.000
 3420SOL     OW11158   4.256   0.841   2.279
 3420SOL    HW111159   4.263   0.789   2.194
 3420SOL    HW211160   4.347   0.869   2.308
 3421SOL     OW11161   0.150   1.883   4.811
 3421SOL    HW111162   0.082   1.871   4.883
 3421SOL    HW211163   0.208   1.962   4.832
 3422SOL     OW11164   3.682   5.995   2.025
 3422SOL    HW111165   3.777   5.969   2.007
 3422SOL    HW211166   3.644   6.040   1.944
 3423SOL     OW11167   2.373   4.212   5.921
 3423SOL    HW111168   2.320   4.146   5.866
 3423SOL    HW211169   2.417   4.164   5.997
 3424SOL     OW11170   5.673   0.674   2.152
 3424SOL    HW111171   5.742   0.730   2.106
 3424SOL    HW211172   5.718   0.610   2.214
 3425SOL     OW11173   6.152   2.716   6.163
 3425SOL    HW111174   6.141   2.706   6.064
 3425SOL    HW211175   6.087   2.785   6.197
 3426SOL     OW11176   6.677   5.176   0.157
 3426SOL    HW111177   6.767   5.219   0.164
 3426SOL    HW211178   6.646   5.149   0.248
 3427SOL     OW11179   1.635   1.287   6.167
 3427SOL    HW111180   1.551   1.246   6.204
 3427SOL    HW211181   1.712   1.226   6.187
 3428SOL     OW11182   5.032   0.001   4.519
 3428SOL    HW111183   5.023   0.060   4.599
 3428SOL    HW211184   5.103   6.958   4.537
 3429SOL     OW11185   4.187   6.350   0.524
 3429SOL    HW111186   4.153   6.401   0.445
 3429SOL    HW211187   4.229   6.413   0.589
 3430SOL     OW11188   2.736   4.506   6.852
 3430SOL    HW111189   2.726   4.605   6.855
 3430SOL    HW211190   2.790   4.480   6.771
 3431SOL     OW11191   0.847   4.766   3.042
 3431SOL    HW111192   0.849   4.859   3.007
 3431SOL    HW211193   0.902   4.760   3.126
 3432SOL     OW11194   0.404   5.018   0.002
 3432SOL    HW111195   0.325   5.063   6.986
 3432SOL    HW211196   0.485   5.075   7.016
 3433SOL     OW11197   0.988   1.374   0.422
 3433SOL    HW111198   0.915   1.339   0.481
 3433SOL    HW211199   0.948   1.418   0.342
 3434SOL     OW11200   3.977   2.316   1.767
 3434SOL    HW111201   3.984   2.218   1.784
 3434SOL    HW211202   3.886   2.348   1.793
 3435SOL     OW11203   2.161   2.439   1.153
 3435SOL    HW111204   2.208   2.499   1.088
 3435SOL    HW211205   2.104   2.374   1.103
 3436SOL     OW11206   4.104   6.496   5.916
 3436SOL    HW111207   4.024   6.512   5.974
 3436SOL    HW211208   4.097   6.552   5.833
 3437SOL     OW11209   1.605   6.779   0.166
 3437SOL    HW111210   1.703   6.794   0.178
 3437SOL    HW211211   1.576   6.818   0.079
 3438SOL     OW11212   2.159   4.137   0.697
 3438SOL    HW111213   2.202   4.050   0.673
 3438SOL    HW211214   2.118   4.130   0.788
 3439SOL     OW11215   2.973   5.529   0.452
 3439SOL    HW111216   2.929   5.459   0.395
 3439SOL    HW211217   3.063   5.550   0.415
 3440SOL     OW11218   3.734   3.641   5.802
 3440SOL    HW111219   3.689   3.724   5.769
 3440SOL    HW211220   3.666   3.570   5.818
 3441SOL     OW11221   6.719   5.102   4.836
 3441SOL    HW111222   6.665   5.148   4.765
 3441SOL    HW211223   6.741   5.009   4.806
 3442SOL     OW11224   1.138   2.183   0.452
 3442SOL    HW111225   1.105   2.233   0.532
 3442SOL    HW211226   1.209   2.238   0.406
 3443SOL     OW11227   0.742   6.017   2.587
 3443SOL    HW111228   0.719   6.113   2.569
 3443SOL    HW211229   0.660   5.969   2.618
 3444SOL     OW11230   0.508   4.048   6.107
 3444SOL    HW111231   0.411   4.025   6.093
 3444SOL    HW211232   0.518   4.101   6.191
 3445SOL     OW11233   5.603   5.131   4.792
 3445SOL    HW111234   5.646   5.043   4.813
 3445SOL    HW211235   5.504   5.123   4.804
 3446SOL     OW11236   4.902   1.710   0.464
 3446SOL    HW111237   4.921   1.658   0.381
 3446SOL    HW211238   4.905   1.808   0.444
 3447SOL     OW11239   4.620   1.481   6.221
 3447SOL    HW111240   4.687   1.533   6.168
 3447SOL    HW211241   4.607   1.523   6.310
 3448SOL     OW11242   1.147   5.269   5.806
 3448SOL    HW111243   1.206   5.293   5.729
 3448SOL    HW211244   1.202   5.228   5.879
 3449SOL     OW11245   1.105   3.859   5.541
 3449SOL    HW111246   1.199   3.874   5.511
 3449SOL    HW211247   1.042   3.894   5.472
 3450SOL     OW11248   2.705   6.759   2.459
 3450SOL    HW111249   2.681   6.711   2.544
 3450SOL    HW211250   2.756   6.842   2.481
 3451SOL     OW11251   2.135   2.161   0.501
 3451SOL    HW111252   2.210   2.112   0.545
 3451SOL    HW211253   2.083   2.213   0.569
 3452SOL     OW11254   4.085   1.514   6.440
 3452SOL    HW111255   4.076   1.483   6.535
 3452SOL    HW211256   4.161   1.467   6.397
 3453SOL     OW11257   4.841   6.535   6.022
 3453SOL    HW111258   4.852   6.614   6.082
 3453SOL    HW211259   4.929   6.511   5.983
 3454SOL     OW11260   1.194   3.075   2.633
 3454SOL    HW111261   1.272   3.094   2.693
 3454SOL    HW211262   1.218   3.098   2.539
 3455SOL     OW11263   0.996   4.206   6.473
 3455SOL    HW111264   0.991   4.285   6.535
 3455SOL    HW211265   1.071   4.219   6.409
 3456SOL     OW11266   4.101   5.344   2.964
 3456SOL    HW111267   4.023   5.400   2.936
 3456SOL    HW211268   4.110   5.266   2.902
 3457SOL     OW11269   4.008   4.413   0.300
 3457SOL    HW111270   4.008   4.416   0.200
 3457SOL    HW211271   4.057   4.332   0.331
 3458SOL     OW11272   4.861   1.675   1.395
 3458SOL    HW111273   4.794   1.670   1.469
 3458SOL    HW211274   4.852   1.763   1.348
 3459SOL     OW11275   6.418   6.259   1.865
 3459SOL    HW111276   6.340   6.205   1.897
 3459SOL    HW211277   6.413   6.270   1.766
 3460SOL     OW11278   3.746   1.740   5.286
 3460SOL    HW111279   3.695   1.818   5.323
 3460SOL    HW211280   3.701   1.706   5.204
 3461SOL     OW11281   4.515   4.589   4.096
 3461SOL    HW111282   4.594   4.646   4.074
 3461SOL    HW211283   4.432   4.645   4.096
 3462SOL     OW11284   1.217   4.831   6.081
 3462SOL    HW111285   1.153   4.768   6.126
 3462SOL    HW211286   1.168   4.915   6.056
 3463SOL     OW11287   5.932   3.781   0.398
 3463SOL    HW111288   5.893   3.760   0.488
 3463SOL    HW211289   5.865   3.831   0.343
 3464SOL     OW11290   0.369   4.343   3.814
 3464SOL    HW111291   0.429   4.306   3.743
 3464SOL    HW211292   0.423   4.385   3.886
 3465SOL     OW11293   0.618   3.240   2.245
 3465SOL    HW111294   0.691   3.305   2.268
 3465SOL    HW211295   0.597   3.247   2.148
 3466SOL     OW11296   6.321   3.694   3.722
 3466SOL    HW111297   6.401   3.738   3.762
 3466SOL    HW211298   6.258   3.764   3.688
 3467SOL     OW11299   1.582   2.636   5.912
 3467SOL    HW111300   1.519   2.677   5.846
 3467SOL    HW211301   1.560   2.668   6.004
 3468SOL     OW11302   4.821   5.852   1.795
 3468SOL    HW111303   4.784   5.775   1.846
 3468SOL    HW211304   4.868   5.817   1.713
 3469SOL     OW11305   5.862   4.295   0.542
 3469SOL    HW111306   5.878   4.247   0.455
 3469SOL    HW211307   5.949   4.329   0.578
 3470SOL     OW11308   5.815   4.999   1.361
 3470SOL    HW111309   5.825   4.901   1.349
 3470SOL    HW211310   5.862   5.046   1.286
 3471SOL     OW11311   4.341   6.428   4.591
 3471SOL    HW111312   4.356   6.332   4.612
 3471SOL    HW211313   4.425   6.468   4.555
 3472SOL     OW11314   4.436   1.085   4.369
 3472SOL    HW111315   4.345   1.048   4.386
 3472SOL    HW211316   4.464   1.143   4.446
 3473SOL     OW11317   4.617   6.532   3.911
 3473SOL    HW111318   4.714   6.544   3.889
 3473SOL    HW211319   4.576   6.621   3.932
 3474SOL     OW11320   4.671   4.586   0.550
 3474SOL    HW111321   4.652   4.510   0.488
 3474SOL    HW211322   4.711   4.550   0.635
 3475SOL     OW11323   1.510   5.176   5.036
 3475SOL    HW111324   1.571   5.248   5.001
 3475SOL    HW211325   1.536   5.088   4.996
 3476SOL     OW11326   4.213   1.883   3.915
 3476SOL    HW111327   4.133   1.882   3.856
 3476SOL    HW211328   4.197   1.945   3.992
 3477SOL     OW11329   4.780   4.871   1.727
 3477SOL    HW111330   4.878   4.857   1.739
 3477SOL    HW211331   4.730   4.825   1.800
 3478SOL     OW11332   3.583   4.163   0.342
 3478SOL    HW111333   3.489   4.181   0.371
 3478SOL    HW211334   3.622   4.246   0.303
 3479SOL     OW11335   1.690   0.309   0.856
 3479SOL    HW111336   1.609   0.320   0.798
 3479SOL    HW211337   1.661   0.299   0.951
 3480SOL     OW11338   1.325   0.370   3.794
 3480SOL    HW111339   1.421   0.374   3.766
 3480SOL    HW211340   1.316   0.315   3.877
 3481SOL     OW11341   2.169   6.174   0.206
 3481SOL    HW111342   2.111   6.196   0.127
 3481SOL    HW211343   2.228   6.097   0.184
 3482SOL     OW11344   0.535   2.562   1.437
 3482SOL    HW111345   0.499   2.585   1.346
 3482SOL    HW211346   0.487   2.616   1.506
 3483SOL     OW11347   3.745   1.155   0.571
 3483SOL    HW111348   3.649   1.146   0.599
 3483SOL    HW211349   3.799   1.187   0.648
 3484SOL     OW11350   3.808   4.056   3.416
 3484SOL    HW111351   3.792   4.063   3.514
 3484SOL    HW211352   3.738   4.107   3.366
 3485SOL     OW11353   6.085   1.824   5.178
 3485SOL    HW111354   6.019   1.895   5.154
 3485SOL    HW211355   6.079   1.804   5.275
 3486SOL     OW11356   5.551   0.698   3.232
 3486SOL    HW111357   5.537   0.787   3.275
 3486SOL    HW211358   5.648   0.674   3.236
 3487SOL     OW11359   0.950   0.067   0.595
 3487SOL    HW111360   0.864   0.118   0.602
 3487SOL    HW211361   1.018   0.124   0.550
 3488SOL     OW11362   6.106   4.110   4.261
 3488SOL    HW111363   6.130   4.027   4.312
 3488SOL    HW211364   6.072   4.179   4.325
 3489SOL     OW11365   2.604   5.399   7.020
 3489SOL    HW111366   2.546   5.340   0.052
 3489SOL    HW211367   2.639   5.475   0.050
 3490SOL     OW11368   4.718   3.533   0.357
 3490SOL    HW111369   4.755   3.447   0.391
 3490SOL    HW211370   4.627   3.548   0.396
 3491SOL     OW11371   5.965   2.789   5.150
 3491SOL    HW111372   6.027   2.827   5.218
 3491SOL    HW211373   5.935   2.862   5.089
 3492SOL     OW11374   6.505   4.916   0.142
 3492SOL    HW111375   6.600   4.893   0.118
 3492SOL    HW211376   6.502   4.948   0.236
 3493SOL     OW11377   6.722   4.875   1.762
 3493SOL    HW111378   6.685   4.917   1.679
 3493SOL    HW211379   6.651   4.872   1.833
 3494SOL     OW11380   2.906   6.168   1.203
 3494SOL    HW111381   2.995   6.157   1.159
 3494SOL    HW211382   2.877   6.263   1.195
 3495SOL     OW11383   5.754   4.618   6.576
 3495SOL    HW111384   5.658   4.629   6.602
 3495SOL    HW211385   5.811   4.614   6.658
 3496SOL     OW11386   1.069   5.304   0.816
 3496SOL    HW111387   1.014   5.333   0.737
 3496SOL    HW211388   1.081   5.381   0.878
 3497SOL     OW11389   4.333   6.936   4.431
 3497SOL    HW111390   4.432   6.924   4.444
 3497SOL    HW211391   4.303   7.018   4.479
 3498SOL     OW11392   1.070   1.723   0.273
 3498SOL    HW111393   1.056   1.634   0.318
 3498SOL    HW211394   1.168   1.739   0.261
 3499SOL     OW11395   0.057   4.372   4.257
 3499SOL    HW111396   7.018   4.448   4.270
 3499SOL    HW211397   0.008   4.291   4.226
 3500SOL     OW11398   5.562   3.113   0.721
 3500SOL    HW111399   5.500   3.040   0.693
 3500SOL    HW211400   5.509   3.195   0.742
 3501SOL     OW11401   0.535   4.763   2.935
 3501SOL    HW111402   0.628   4.725   2.936
 3501SOL    HW211403   0.490   4.738   2.849
 3502SOL     OW11404   0.632   5.237   1.449
 3502SOL    HW111405   0.651   5.335   1.462
 3502SOL    HW211406   0.611   5.219   1.353
 3503SOL     OW11407   3.586   6.810   3.240
 3503SOL    HW111408   3.546   6.882   3.183
 3503SOL    HW211409   3.608   6.846   3.330
 3504SOL     OW11410   1.936   2.884   2.980
 3504SOL    HW111411   1.876   2.934   2.916
 3504SOL    HW211412   1.880   2.820   3.033
 3505SOL     OW11413   4.838   6.785   4.823
 3505SOL    HW111414   4.800   6.872   4.854
 3505SOL    HW211415   4.773   6.712   4.843
 3506SOL     OW11416   6.084   4.809   2.461
 3506SOL    HW111417   6.099   4.899   2.420
 3506SOL    HW211418   6.019   4.757   2.405
 3507SOL     OW11419   0.098   0.347   5.868
 3507SOL    HW111420   0.145   0.284   5.806
 3507SOL    HW211421   0.095   0.308   5.959
 3508SOL     OW11422   6.359   4.571   6.924
 3508SOL    HW111423   6.440   4.535   6.969
 3508SOL    HW211424   6.337   4.514   6.844
 3509SOL     OW11425   5.808   6.989   6.485
 3509SOL    HW111426   5.871   0.010   6.547
 3509SOL    HW211427   5.840   6.896   6.467
 3510SOL     OW11428   1.809   1.606   2.010
 3510SOL    HW111429   1.833   1.510   1.993
 3510SOL    HW211430   1.848   1.663   1.937
 3511SOL     OW11431   0.824   0.831   4.722
 3511SOL    HW111432   0.776   0.911   4.758
 3511SOL    HW211433   0.832   0.839   4.622
 3512SOL     OW11434   3.846   2.932   1.228
 3512SOL    HW111435   3.843   2.856   1.162
 3512SOL    HW211436   3.856   2.895   1.320
 3513SOL     OW11437   5.845   4.200   1.270
 3513SOL    HW111438   5.932   4.222   1.314
 3513SOL    HW211439   5.800   4.126   1.320
 3514SOL     OW11440   2.277   6.126   1.959
 3514SOL    HW111441   2.353   6.062   1.954
 3514SOL    HW211442   2.208   6.093   2.024
 3515SOL     OW11443   3.991   5.999   3.080
 3515SOL    HW111444   4.060   6.056   3.035
 3515SOL    HW211445   4.033   5.946   3.153
 3516SOL     OW11446   2.019   0.500   0.287
 3516SOL    HW111447   1.966   0.575   0.326
 3516SOL    HW211448   1.965   0.416   0.291
 3517SOL     OW11449   0.844   0.637   7.013
 3517SOL    HW111450   0.822   0.666   0.081
 3517SOL    HW211451   0.761   0.607   6.966
 3518SOL     OW11452   4.174   3.747   6.285
 3518SOL    HW111453   4.191   3.786   6.194
 3518SOL    HW211454   4.245   3.679   6.306
 3519SOL     OW11455   3.521   6.522   0.403
 3519SOL    HW111456   3.526   6.423   0.413
 3519SOL    HW211457   3.472   6.545   0.319
 3520SOL     OW11458   3.473   4.984   1.476
 3520SOL    HW111459   3.499   4.903   1.425
 3520SOL    HW211460   3.537   5.058   1.457
 3521SOL     OW11461   6.635   2.411   6.237
 3521SOL    HW111462   6.664   2.436   6.330
 3521SOL    HW211463   6.629   2.312   6.229
 3522SOL     OW11464   2.699   0.239   0.799
 3522SOL    HW111465   2.641   0.174   0.751
 3522SOL    HW211466   2.753   0.191   0.868
 3523SOL     OW11467   2.717   4.725   5.287
 3523SOL    HW111468   2.744   4.820   5.271
 3523SOL    HW211469   2.776   4.664   5.234
 3524SOL     OW11470   2.315   1.180   2.871
 3524SOL    HW111471   2.334   1.183   2.970
 3524SOL    HW211472   2.252   1.105   2.852
 3525SOL     OW11473   1.386   3.338   3.274
 3525SOL    HW111474   1.467   3.397   3.272
 3525SOL    HW211475   1.359   3.315   3.181
 3526SOL     OW11476   3.430   6.589   3.384
 3526SOL    HW111477   3.359   6.652   3.417
 3526SOL    HW211478   3.465   6.621   3.296
 3527SOL     OW11479   5.484   3.831   0.147
 3527SOL    HW111480   5.442   3.748   0.184
 3527SOL    HW211481   5.509   3.815   0.052
 3528SOL     OW11482   1.980   6.749   4.648
 3528SOL    HW111483   1.897   6.804   4.652
 3528SOL    HW211484   2.001   6.712   4.738
 3529SOL     OW11485   4.122   5.559   0.290
 3529SOL    HW111486   4.122   5.658   0.275
 3529SOL    HW211487   4.030   5.529   0.317
 3530SOL     OW11488   1.930   6.436   2.845
 3530SOL    HW111489   1.901   6.394   2.758
 3530SOL    HW211490   2.004   6.500   2.828
 3531SOL     OW11491   5.536   4.675   6.960
 3531SOL    HW111492   5.460   4.711   7.014
 3531SOL    HW211493   5.549   4.578   6.982
 3532SOL     OW11494   1.872   6.696   0.929
 3532SOL    HW111495   1.799   6.637   0.964
 3532SOL    HW211496   1.937   6.715   1.003
 3533SOL     OW11497   1.480   0.985   3.400
 3533SOL    HW111498   1.515   0.986   3.306
 3533SOL    HW211499   1.384   0.956   3.400
 3534SOL     OW11500   5.400   0.577   5.109
 3534SOL    HW111501   5.480   0.547   5.161
 3534SOL    HW211502   5.323   0.517   5.128
 3535SOL     OW11503   5.043   6.644   0.232
 3535SOL    HW111504   5.090   6.690   0.307
 3535SOL    HW211505   5.043   6.703   0.152
 3536SOL     OW11506   1.186   3.107   2.950
 3536SOL    HW111507   1.159   3.070   2.861
 3536SOL    HW211508   1.119   3.079   3.019
 3537SOL     OW11509   3.128   4.843   1.483
 3537SOL    HW111510   3.154   4.909   1.553
 3537SOL    HW211511   3.096   4.892   1.401
 3538SOL     OW11512   3.934   0.758   3.839
 3538SOL    HW111513   3.920   0.683   3.903
 3538SOL    HW211514   3.951   0.722   3.747
 3539SOL     OW11515   4.984   5.637   5.363
 3539SOL    HW111516   4.891   5.667   5.344
 3539SOL    HW211517   5.049   5.704   5.325
 3540SOL     OW11518   3.807   4.743   6.496
 3540SOL    HW111519   3.803   4.701   6.586
 3540SOL    HW211520   3.750   4.691   6.432
 3541SOL     OW11521   1.061   2.675   2.199
 3541SOL    HW111522   1.091   2.583   2.172
 3541SOL    HW211523   1.142   2.731   2.217
 3542SOL     OW11524   6.054   1.485   0.269
 3542SOL    HW111525   5.992   1.563   0.270
 3542SOL    HW211526   6.003   1.402   0.247
 3543SOL     OW11527   0.336   2.409   3.957
 3543SOL    HW111528   0.264   2.477   3.972
 3543SOL    HW211529   0.335   2.342   4.032
 3544SOL     OW11530   2.656   4.373   0.055
 3544SOL    HW111531   2.739   4.327   0.086
 3544SOL    HW211532   2.676   4.422   6.995
 3545SOL     OW11533   3.706   6.521   0.652
 3545SOL    HW111534   3.798   6.494   0.680
 3545SOL    HW211535   3.675   6.598   0.708
 3546SOL     OW11536   6.507   4.940   1.335
 3546SOL    HW111537   6.523   4.848   1.369
 3546SOL    HW211538   6.578   5.002   1.370
 3547SOL     OW11539   0.624   3.894   4.612
 3547SOL    HW111540   0.573   3.834   4.675
 3547SOL    HW211541   0.560   3.944   4.555
 3548SOL     OW11542   6.362   0.225   5.723
 3548SOL    HW111543   6.379   0.313   5.767
 3548SOL    HW211544   6.334   0.158   5.792
 3549SOL     OW11545   2.270   6.203   6.575
 3549SOL    HW111546   2.195   6.269   6.582
 3549SOL    HW211547   2.357   6.250   6.591
 3550SOL     OW11548   5.500   1.825   5.876
 3550SOL    HW111549   5.591   1.866   5.878
 3550SOL    HW211550   5.507   1.727   5.895
 3551SOL     OW11551   5.952   1.782   4.886
 3551SOL    HW111552   5.893   1.832   4.823
 3551SOL    HW211553   6.022   1.843   4.923
 3552SOL     OW11554   6.865   0.237   2.691
 3552SOL    HW111555   6.885   0.150   2.737
 3552SOL    HW211556   6.767   0.256   2.698
 3553SOL     OW11557   6.409   5.952   6.319
 3553SOL    HW111558   6.479   6.007   6.274
 3553SOL    HW211559   6.449   5.906   6.399
 3554SOL     OW11560   4.679   4.657   6.647
 3554SOL    HW111561   4.771   4.620   6.659
 3554SOL    HW211562   4.686   4.752   6.615
 3555SOL     OW11563   2.767   1.352   5.171
 3555SOL    HW111564   2.740   1.372   5.077
 3555SOL    HW211565   2.686   1.343   5.228
 3556SOL     OW11566   6.471   1.102   0.044
 3556SOL    HW111567   6.421   1.176   7.022
 3556SOL    HW211568   6.559   1.088   7.024
 3557SOL     OW11569   4.830   6.525   1.800
 3557SOL    HW111570   4.836   6.595   1.872
 3557SOL    HW211571   4.744   6.535   1.751
 3558SOL     OW11572   3.814   5.573   2.626
 3558SOL    HW111573   3.722   5.542   2.651
 3558SOL    HW211574   3.813   5.609   2.533
 3559SOL     OW11575   3.760   6.706   6.707
 3559SOL    HW111576   3.758   6.656   6.621
 3559SOL    HW211577   3.776   6.803   6.689
 3560SOL     OW11578   2.274   6.044   4.449
 3560SOL    HW111579   2.346   5.977   4.463
 3560SOL    HW211580   2.259   6.058   4.351
 3561SOL     OW11581   4.199   3.021   5.403
 3561SOL    HW111582   4.297   3.002   5.408
 3561SOL    HW211583   4.151   2.942   5.366
 3562SOL     OW11584   2.602   1.137   0.447
 3562SOL    HW111585   2.678   1.071   0.449
 3562SOL    HW211586   2.638   1.227   0.421
 3563SOL     OW11587   0.126   2.409   6.776
 3563SOL    HW111588   0.149   2.488   6.719
 3563SOL    HW211589   0.211   2.363   6.804
 3564SOL     OW11590   6.674   3.888   3.074
 3564SOL    HW111591   6.760   3.934   3.053
 3564SOL    HW211592   6.599   3.935   3.029
 3565SOL     OW11593   4.975   6.688   5.664
 3565SOL    HW111594   4.893   6.735   5.697
 3565SOL    HW211595   5.055   6.723   5.713
 3566SOL     OW11596   1.342   0.504   5.936
 3566SOL    HW111597   1.370   0.583   5.990
 3566SOL    HW211598   1.369   0.517   5.841
 3567SOL     OW11599   6.817   4.347   7.017
 3567SOL    HW111600   6.752   4.274   0.013
 3567SOL    HW211601   6.878   4.361   0.069
 3568SOL     OW11602   3.873   3.520   5.547
 3568SOL    HW111603   3.802   3.529   5.477
 3568SOL    HW211604   3.854   3.584   5.621
 3569SOL     OW11605   1.783   0.245   3.624
 3569SOL    HW111606   1.790   0.226   3.722
 3569SOL    HW211607   1.874   0.238   3.582
 3570SOL     OW11608   6.086   1.928   4.265
 3570SOL    HW111609   6.165   1.960   4.213
 3570SOL    HW211610   6.080   1.828   4.259
 3571SOL     OW11611   6.302   5.452   4.743
 3571SOL    HW111612   6.260   5.416   4.660
 3571SOL    HW211613   6.353   5.379   4.789
 3572SOL     OW11614   6.155   6.773   5.592
 3572SOL    HW111615   6.124   6.742   5.503
 3572SOL    HW211616   6.203   6.698   5.639
 3573SOL     OW11617   0.177   2.374   0.970
 3573SOL    HW111618   0.121   2.451   0.941
 3573SOL    HW211619   0.148   2.291   0.924
 3574SOL     OW11620   6.435   3.937   0.245
 3574SOL    HW111621   6.415   3.960   0.149
 3574SOL    HW211622   6.481   4.014   0.288
 3575SOL     OW11623   6.287   6.839   1.860
 3575SOL    HW111624   6.276   6.744   1.889
 3575SOL    HW211625   6.230   6.898   1.917
 3576SOL     OW11626   6.578   0.484   0.073
 3576SOL    HW111627   6.621   0.573   0.088
 3576SOL    HW211628   6.507   0.469   0.141
 3577SOL     OW11629   2.361   3.778   0.176
 3577SOL    HW111630   2.295   3.706   0.154
 3577SOL    HW211631   2.360   3.847   0.103
 3578SOL     OW11632   3.647   4.305   1.806
 3578SOL    HW111633   3.614   4.398   1.822
 3578SOL    HW211634   3.698   4.302   1.720
 3579SOL     OW11635   1.735   4.231   5.291
 3579SOL    HW111636   1.659   4.166   5.290
 3579SOL    HW211637   1.821   4.181   5.301
 3580SOL     OW11638   6.219   3.186   0.839
 3580SOL    HW111639   6.270   3.217   0.920
 3580SOL    HW211640   6.276   3.123   0.786
 3581SOL     OW11641   6.428   0.451   3.347
 3581SOL    HW111642   6.372   0.388   3.294
 3581SOL    HW211643   6.468   0.519   3.286
 3582SOL     OW11644   0.246   6.957   5.453
 3582SOL    HW111645   0.307   6.899   5.507
 3582SOL    HW211646   0.190   6.900   5.393
 3583SOL     OW11647   0.962   5.253   1.879
 3583SOL    HW111648   0.924   5.296   1.797
 3583SOL    HW211649   0.942   5.309   1.959
 3584SOL     OW11650   5.974   0.099   5.157
 3584SOL    HW111651   5.928   0.074   5.242
 3584SOL    HW211652   6.038   0.174   5.174
 3585SOL     OW11653   2.191   4.989   3.519
 3585SOL    HW111654   2.111   5.017   3.465
 3585SOL    HW211655   2.262   4.955   3.457
 3586SOL     OW11656   0.986   0.695   5.930
 3586SOL    HW111657   0.994   0.788   5.964
 3586SOL    HW211658   1.030   0.688   5.840
 3587SOL     OW11659   3.443   6.771   6.368
 3587SOL    HW111660   3.431   6.673   6.387
 3587SOL    HW211661   3.374   6.801   6.303
 3588SOL     OW11662   2.516   2.356   5.360
 3588SOL    HW111663   2.478   2.424   5.422
 3588SOL    HW211664   2.458   2.274   5.361
 3589SOL     OW11665   3.910   0.019   4.509
 3589SOL    HW111666   3.987   6.984   4.531
 3589SOL    HW211667   3.895   0.019   4.410
 3590SOL     OW11668   1.083   5.280   6.614
 3590SOL    HW111669   1.078   5.282   6.714
 3590SOL    HW211670   1.171   5.244   6.586
 3591SOL     OW11671   5.262   2.246   5.107
 3591SOL    HW111672   5.187   2.311   5.103
 3591SOL    HW211673   5.345   2.293   5.140
 3592SOL     OW11674   5.325   2.277   1.797
 3592SOL    HW111675   5.235   2.253   1.760
 3592SOL    HW211676   5.379   2.194   1.809
 3593SOL     OW11677   0.941   5.784   4.548
 3593SOL    HW111678   0.949   5.811   4.452
 3593SOL    HW211679   0.963   5.687   4.557
 3594SOL     OW11680   3.889   1.801   4.427
 3594SOL    HW111681   3.919   1.783   4.334
 3594SOL    HW211682   3.861   1.897   4.435
 3595SOL     OW11683   2.238   6.786   5.302
 3595SOL    HW111684   2.199   6.851   5.237
 3595SOL    HW211685   2.337   6.787   5.295
 3596SOL     OW11686   0.455   3.761   3.360
 3596SOL    HW111687   0.376   3.736   3.303
 3596SOL    HW211688   0.520   3.814   3.305
 3597SOL     OW11689   3.978   0.056   3.820
 3597SOL    HW111690   4.052   0.071   3.755
 3597SOL    HW211691   3.901   0.116   3.798
 3598SOL     OW11692   1.742   0.314   0.030
 3598SOL    HW111693   1.788   0.399   0.057
 3598SOL    HW211694   1.809   0.239   0.030
 3599SOL     OW11695   6.715   1.673   4.260
 3599SOL    HW111696   6.814   1.673   4.275
 3599SOL    HW211697   6.679   1.580   4.274
 3600SOL     OW11698   6.515   0.505   1.052
 3600SOL    HW111699   6.473   0.432   1.106
 3600SOL    HW211700   6.556   0.572   1.114
 3601SOL     OW11701   5.721   3.829   6.027
 3601SOL    HW111702   5.730   3.914   6.079
 3601SOL    HW211703   5.627   3.795   6.034
 3602SOL     OW11704   2.845   1.507   1.554
 3602SOL    HW111705   2.776   1.445   1.515
 3602SOL    HW211706   2.858   1.585   1.493
 3603SOL     OW11707   4.201   5.135   4.764
 3603SOL    HW111708   4.181   5.042   4.732
 3603SOL    HW211709   4.277   5.173   4.710
 3604SOL     OW11710   6.412   4.445   3.410
 3604SOL    HW111711   6.494   4.399   3.442
 3604SOL    HW211712   6.333   4.386   3.421
 3605SOL     OW11713   5.982   2.830   6.991
 3605SOL    HW111714   6.007   2.926   7.000
 3605SOL    HW211715   5.934   2.800   0.049
 3606SOL     OW11716   1.560   4.147   3.267
 3606SOL    HW111717   1.510   4.230   3.290
 3606SOL    HW211718   1.652   4.170   3.235
 3607SOL     OW11719   4.397   6.919   7.004
 3607SOL    HW111720   4.358   6.935   0.070
 3607SOL    HW211721   4.324   6.890   6.942
 3608SOL     OW11722   0.775   2.771   3.360
 3608SOL    HW111723   0.676   2.755   3.364
 3608SOL    HW211724   0.800   2.836   3.431
 3609SOL     OW11725   6.955   0.213   4.214
 3609SOL    HW111726   6.863   0.191   4.248
 3609SOL    HW211727   6.991   0.292   4.262
 3610SOL     OW11728   1.821   5.363   5.622
 3610SOL    HW111729   1.885   5.439   5.615
 3610SOL    HW211730   1.729   5.395   5.601
 3611SOL     OW11731   4.511   5.862   5.483
 3611SOL    HW111732   4.549   5.776   5.517
 3611SOL    HW211733   4.411   5.859   5.488
 3612SOL     OW11734   2.242   6.472   1.269
 3612SOL    HW111735   2.265   6.411   1.194
 3612SOL    HW211736   2.265   6.428   1.356
 3613SOL     OW11737   5.093   5.164   6.173
 3613SOL    HW111738   5.110   5.071   6.205
 3613SOL    HW211739   5.054   5.163   6.081
 3614SOL     OW11740   4.126   3.586   4.876
 3614SOL    HW111741   4.172   3.674   4.889
 3614SOL    HW211742   4.152   3.524   4.950
 3615SOL     OW11743   5.889   6.475   6.196
 3615SOL    HW111744   5.800   6.441   6.168
 3615SOL    HW211745   5.957   6.454   6.126
 3616SOL     OW11746   5.829   0.686   4.661
 3616SOL    HW111747   5.853   0.679   4.758
 3616SOL    HW211748   5.892   0.630   4.607
 3617SOL     OW11749   0.096   0.405   0.183
 3617SOL    HW111750   0.121   0.320   0.229
 3617SOL    HW211751   0.005   0.397   0.143
 3618SOL     OW11752   2.898   6.339   6.404
 3618SOL    HW111753   2.960   6.263   6.426
 3618SOL    HW211754   2.905   6.361   6.306
 3619SOL     OW11755   5.160   4.024   3.888
 3619SOL    HW111756   5.152   4.124   3.888
 3619SOL    HW211757   5.257   3.999   3.892
 3620SOL     OW11758   6.315   1.214   4.811
 3620SOL    HW111759   6.280   1.227   4.903
 3620SOL    HW211760   6.411   1.241   4.807
 3621SOL     OW11761   1.478   3.130   5.573
 3621SOL    HW111762   1.508   3.066   5.643
 3621SOL    HW211763   1.523   3.218   5.585
 3622SOL     OW11764   0.566   3.719   1.309
 3622SOL    HW111765   0.558   3.723   1.209
 3622SOL    HW211766   0.569   3.624   1.339
 3623SOL     OW11767   6.748   5.031   4.039
 3623SOL    HW111768   6.779   5.051   4.132
 3623SOL    HW211769   6.663   5.081   4.021
 3624SOL     OW11770   1.931   1.043   2.050
 3624SOL    HW111771   1.893   1.103   2.121
 3624SOL    HW211772   1.957   0.956   2.091
 3625SOL     OW11773   0.585   3.539   4.357
 3625SOL    HW111774   0.486   3.554   4.359
 3625SOL    HW211775   0.604   3.442   4.339
 3626SOL     OW11776   2.745   4.114   5.276
 3626SOL    HW111777   2.660   4.157   5.306
 3626SOL    HW211778   2.732   4.015   5.269
 3627SOL     OW11779   3.418   3.254   4.175
 3627SOL    HW111780   3.334   3.300   4.206
 3627SOL    HW211781   3.474   3.319   4.123
 3628SOL     OW11782   2.854   5.737   3.209
 3628SOL    HW111783   2.883   5.829   3.183
 3628SOL    HW211784   2.931   5.687   3.247
 3629SOL     OW11785   5.241   3.037   5.332
 3629SOL    HW111786   5.184   3.021   5.252
 3629SOL    HW211787   5.258   3.135   5.342
 3630SOL     OW11788   5.538   1.520   4.957
 3630SOL    HW111789   5.551   1.488   4.863
 3630SOL    HW211790   5.593   1.602   4.971
 3631SOL     OW11791   2.210   1.221   3.654
 3631SOL    HW111792   2.252   1.311   3.668
 3631SOL    HW211793   2.250   1.177   3.574
 3632SOL     OW11794   3.995   6.811   6.113
 3632SOL    HW111795   3.980   6.839   6.207
 3632SOL    HW211796   3.938   6.731   6.092
 3633SOL     OW11797   1.314   3.465   5.184
 3633SOL    HW111798   1.324   3.563   5.199
 3633SOL    HW211799   1.314   3.418   5.273
 3634SOL     OW11800   3.267   5.288   6.033
 3634SOL    HW111801   3.314   5.284   6.122
 3634SOL    HW211802   3.333   5.311   5.962
 3635SOL     OW11803   1.596   0.929   5.163
 3635SOL    HW111804   1.514   0.873   5.156
 3635SOL    HW211805   1.662   0.885   5.223
 3636SOL     OW11806   1.369   5.991   6.888
 3636SOL    HW111807   1.274   5.982   6.857
 3636SOL    HW211808   1.426   5.923   6.842
 3637SOL     OW11809   4.842   1.098   1.636
 3637SOL    HW111810   4.821   1.072   1.730
 3637SOL    HW211811   4.886   1.188   1.635
 3638SOL     OW11812   6.075   5.152   3.545
 3638SOL    HW111813   6.056   5.211   3.467
 3638SOL    HW211814   6.153   5.093   3.523
 3639SOL     OW11815   2.652   5.595   0.188
 3639SOL    HW111816   2.614   5.628   0.274
 3639SOL    HW211817   2.637   5.664   0.117
 3640SOL     OW11818   2.218   6.681   1.545
 3640SOL    HW111819   2.263   6.720   1.464
 3640SOL    HW211820   2.265   6.597   1.572
 3641SOL     OW11821   2.371   0.751   4.578
 3641SOL    HW111822   2.393   0.659   4.545
 3641SOL    HW211823   2.272   0.760   4.587
 3642SOL     OW11824   5.824   6.558   1.990
 3642SOL    HW111825   5.764   6.542   2.068
 3642SOL    HW211826   5.914   6.517   2.008
 3643SOL     OW11827   3.701   5.316   5.560
 3643SOL    HW111828   3.624   5.326   5.623
 3643SOL    HW211829   3.782   5.287   5.612
 3644SOL     OW11830   6.924   0.360   0.520
 3644SOL    HW111831   6.892   0.422   0.592
 3644SOL    HW211832   7.008   0.397   0.479
 3645SOL     OW11833   3.627   6.621   2.650
 3645SOL    HW111834   3.716   6.575   2.645
 3645SOL    HW211835   3.640   6.720   2.641
 3646SOL     OW11836   6.728   5.472   4.273
 3646SOL    HW111837   6.815   5.456   4.226
 3646SOL    HW211838   6.716   5.402   4.344
 3647SOL     OW11839   2.478   2.265   1.548
 3647SOL    HW111840   2.536   2.189   1.578
 3647SOL    HW211841   2.484   2.273   1.449
 3648SOL     OW11842   3.032   6.447   3.300
 3648SOL    HW111843   2.959   6.480   3.360
 3648SOL    HW211844   3.093   6.523   3.278
 3649SOL     OW11845   3.373   3.159   2.135
 3649SOL    HW111846   3.417   3.145   2.046
 3649SOL    HW211847   3.360   3.257   2.151
 3650SOL     OW11848   5.363   6.660   1.571
 3650SOL    HW111849   5.445   6.716   1.583
 3650SOL    HW211850   5.305   6.667   1.652
 3651SOL     OW11851   0.919   6.476   2.625
 3651SOL    HW111852   0.930   6.438   2.533
 3651SOL    HW211853   0.949   6.409   2.693
 3652SOL     OW11854   4.708   4.920   3.024
 3652SOL    HW111855   4.732   4.956   3.114
 3652SOL    HW211856   4.760   4.836   3.007
 3653SOL     OW11857   6.477   3.213   4.864
 3653SOL    HW111858   6.397   3.256   4.824
 3653SOL    HW211859   6.552   3.279   4.868
 3654SOL     OW11860   0.893   5.959   1.711
 3654SOL    HW111861   0.964   5.890   1.724
 3654SOL    HW211862   0.853   5.983   1.800
 3655SOL     OW11863   0.211   1.193   3.603
 3655SOL    HW111864   0.177   1.249   3.679
 3655SOL    HW211865   0.165   1.104   3.605
 3656SOL     OW11866   2.575   1.206   2.739
 3656SOL    HW111867   2.482   1.190   2.774
 3656SOL    HW211868   2.625   1.120   2.736
 3657SOL     OW11869   4.410   4.901   2.208
 3657SOL    HW111870   4.496   4.896   2.158
 3657SOL    HW211871   4.358   4.981   2.177
 3658SOL     OW11872   2.238   5.197   5.641
 3658SOL    HW111873   2.173   5.142   5.694
 3658SOL    HW211874   2.198   5.286   5.622
 3659SOL     OW11875   0.980   3.875   0.166
 3659SOL    HW111876   0.963   3.954   0.107
 3659SOL    HW211877   1.004   3.796   0.109
 3660SOL     OW11878   3.934   4.853   0.927
 3660SOL    HW111879   3.942   4.948   0.958
 3660SOL    HW211880   4.017   4.827   0.878
 3661SOL     OW11881   5.054   1.465   1.434
 3661SOL    HW111882   4.981   1.534   1.437
 3661SOL    HW211883   5.117   1.480   1.511
 3662SOL     OW11884   2.668   6.116   5.060
 3662SOL    HW111885   2.612   6.099   4.979
 3662SOL    HW211886   2.646   6.047   5.130
 3663SOL     OW11887   1.552   3.662   5.638
 3663SOL    HW111888   1.582   3.572   5.669
 3663SOL    HW211889   1.499   3.706   5.711
 3664SOL     OW11890   4.124   0.168   1.685
 3664SOL    HW111891   4.036   0.204   1.713
 3664SOL    HW211892   4.122   0.068   1.689
 3665SOL     OW11893   1.516   0.109   5.188
 3665SOL    HW111894   1.488   0.141   5.279
 3665SOL    HW211895   1.446   0.049   5.150
 3666SOL     OW11896   0.882   4.917   4.273
 3666SOL    HW111897   0.931   4.861   4.207
 3666SOL    HW211898   0.839   4.858   4.341
 3667SOL     OW11899   0.205   1.219   6.506
 3667SOL    HW111900   0.201   1.314   6.535
 3667SOL    HW211901   0.301   1.191   6.495
 3668SOL     OW11902   1.600   5.493   1.887
 3668SOL    HW111903   1.511   5.463   1.923
 3668SOL    HW211904   1.618   5.586   1.917
 3669SOL     OW11905   5.807   1.862   3.808
 3669SOL    HW111906   5.832   1.765   3.801
 3669SOL    HW211907   5.862   1.915   3.744
 3670SOL     OW11908   2.324   5.507   6.414
 3670SOL    HW111909   2.331   5.413   6.448
 3670SOL    HW211910   2.230   5.539   6.424
 3671SOL     OW11911   1.628   0.688   3.151
 3671SOL    HW111912   1.707   0.742   3.180
 3671SOL    HW211913   1.570   0.743   3.090
 3672SOL     OW11914   6.718   6.878   0.525
 3672SOL    HW111915   6.774   6.959   0.540
 3672SOL    HW211916   6.774   6.796   0.539
 3673SOL     OW11917   4.262   0.369   6.653
 3673SOL    HW111918   4.231   0.333   6.564
 3673SOL    HW211919   4.217   0.318   6.726
 3674SOL     OW11920   1.217   6.592   0.937
 3674SOL    HW111921   1.168   6.519   0.986
 3674SOL    HW211922   1.261   6.554   0.855
 3675SOL     OW11923   1.925   1.914   4.501
 3675SOL    HW111924   2.003   1.864   4.539
 3675SOL    HW211925   1.909   1.884   4.407
 3676SOL     OW11926   1.689   4.837   3.173
 3676SOL    HW111927   1.771   4.802   3.127
 3676SOL    HW211928   1.677   4.934   3.149
 3677SOL     OW11929   6.637   6.955   3.604
 3677SOL    HW111930   6.677   6.876   3.649
 3677SOL    HW211931   6.694   0.010   3.620
 3678SOL     OW11932   1.532   1.462   3.238
 3678SOL    HW111933   1.555   1.491   3.145
 3678SOL    HW211934   1.452   1.514   3.269
 3679SOL     OW11935   0.119   0.688   1.368
 3679SOL    HW111936   0.053   0.632   1.317
 3679SOL    HW211937   0.148   0.640   1.450
 3680SOL     OW11938   5.972   4.368   4.766
 3680SOL    HW111939   5.967   4.288   4.826
 3680SOL    HW211940   6.037   4.434   4.805
 3681SOL     OW11941   5.514   6.440   4.910
 3681SOL    HW111942   5.472   6.525   4.877
 3681SOL    HW211943   5.562   6.458   4.996
 3682SOL     OW11944   0.678   2.435   6.446
 3682SOL    HW111945   0.601   2.452   6.385
 3682SOL    HW211946   0.741   2.371   6.403
 3683SOL     OW11947   5.368   6.141   3.557
 3683SOL    HW111948   5.407   6.225   3.517
 3683SOL    HW211949   5.442   6.085   3.594
 3684SOL     OW11950   1.681   3.115   0.632
 3684SOL    HW111951   1.661   3.090   0.537
 3684SOL    HW211952   1.778   3.099   0.650
 3685SOL     OW11953   6.474   6.892   6.308
 3685SOL    HW111954   6.514   6.848   6.388
 3685SOL    HW211955   6.518   6.981   6.292
 3686SOL     OW11956   6.117   4.553   1.502
 3686SOL    HW111957   6.116   4.586   1.408
 3686SOL    HW211958   6.085   4.625   1.563
 3687SOL     OW11959   3.471   1.226   0.160
 3687SOL    HW111960   3.421   1.172   0.092
 3687SOL    HW211961   3.408   1.252   0.234
 3688SOL     OW11962   7.020   3.165   0.073
 3688SOL    HW111963   6.941   3.104   0.073
 3688SOL    HW211964   7.021   3.219   0.157
 3689SOL     OW11965   2.969   0.069   3.640
 3689SOL    HW111966   3.008   0.034   3.726
 3689SOL    HW211967   2.904   0.142   3.661
 3690SOL     OW11968   4.266   6.217   5.311
 3690SOL    HW111969   4.253   6.312   5.279
 3690SOL    HW211970   4.178   6.169   5.307
 3691SOL     OW11971   3.194   2.626   6.667
 3691SOL    HW111972   3.286   2.590   6.651
 3691SOL    HW211973   3.155   2.583   6.748
 3692SOL     OW11974   0.885   0.094   6.249
 3692SOL    HW111975   0.932   0.179   6.275
 3692SOL    HW211976   0.804   0.082   6.306
 3693SOL     OW11977   2.416   1.865   3.463
 3693SOL    HW111978   2.417   1.945   3.403
 3693SOL    HW211979   2.509   1.846   3.494
 3694SOL     OW11980   2.155   5.571   2.509
 3694SOL    HW111981   2.093   5.648   2.491
 3694SOL    HW211982   2.121   5.518   2.586
 3695SOL     OW11983   1.765   2.641   1.087
 3695SOL    HW111984   1.776   2.693   1.172
 3695SOL    HW211985   1.794   2.547   1.101
 3696SOL     OW11986   3.254   5.621   5.738
 3696SOL    HW111987   3.300   5.708   5.722
 3696SOL    HW211988   3.292   5.577   5.820
 3697SOL     OW11989   5.509   0.059   4.235
 3697SOL    HW111990   5.444   7.010   4.220
 3697SOL    HW211991   5.544   0.054   4.328
 3698SOL     OW11992   3.070   0.202   6.105
 3698SOL    HW111993   3.108   0.144   6.032
 3698SOL    HW211994   3.115   0.291   6.103
 3699SOL     OW11995   1.430   4.402   2.417
 3699SOL    HW111996   1.383   4.344   2.483
 3699SOL    HW211997   1.464   4.345   2.341
 3700SOL     OW11998   0.264   0.467   3.655
 3700SOL    HW111999   0.292   0.559   3.629
 3700SOL    HW212000   0.338   0.403   3.636
 3701SOL     OW12001   5.557   0.372   3.348
 3701SOL    HW112002   5.515   0.448   3.299
 3701SOL    HW212003   5.656   0.377   3.338
 3702SOL     OW12004   4.591   0.964   6.309
 3702SOL    HW112005   4.596   1.064   6.320
 3702SOL    HW212006   4.678   0.931   6.273
 3703SOL     OW12007   4.353   4.230   0.364
 3703SOL    HW112008   4.366   4.148   0.307
 3703SOL    HW212009   4.258   4.235   0.394
 3704SOL     OW12010   2.437   0.216   2.135
 3704SOL    HW112011   2.420   0.286   2.066
 3704SOL    HW212012   2.534   0.216   2.159
 3705SOL     OW12013   5.726   1.490   4.521
 3705SOL    HW112014   5.787   1.415   4.496
 3705SOL    HW212015   5.637   1.453   4.549
 3706SOL     OW12016   2.426   2.496   3.582
 3706SOL    HW112017   2.376   2.578   3.613
 3706SOL    HW212018   2.386   2.415   3.625
 3707SOL     OW12019   4.339   2.146   5.167
 3707SOL    HW112020   4.420   2.101   5.207
 3707SOL    HW212021   4.321   2.108   5.077
 3708SOL     OW12022   6.248   0.057   5.941
 3708SOL    HW112023   6.178   0.124   5.966
 3708SOL    HW212024   6.209   6.990   5.944
 3709SOL     OW12025   4.703   0.357   0.367
 3709SOL    HW112026   4.683   0.439   0.421
 3709SOL    HW212027   4.799   0.357   0.340
 3710SOL     OW12028   6.950   4.704   0.133
 3710SOL    HW112029   0.002   4.766   0.147
 3710SOL    HW212030   6.977   4.632   0.069
 3711SOL     OW12031   6.808   5.196   2.493
 3711SOL    HW112032   6.773   5.269   2.434
 3711SOL    HW212033   6.810   5.110   2.443
 3712SOL     OW12034   1.352   0.257   0.381
 3712SOL    HW112035   1.404   0.302   0.453
 3712SOL    HW212036   1.391   0.166   0.363
 3713SOL     OW12037   3.676   5.672   6.219
 3713SOL    HW112038   3.683   5.573   6.215
 3713SOL    HW212039   3.581   5.699   6.232
 3714SOL     OW12040   4.404   1.337   5.314
 3714SOL    HW112041   4.336   1.361   5.245
 3714SOL    HW212042   4.473   1.409   5.319
 3715SOL     OW12043   5.608   4.012   3.927
 3715SOL    HW112044   5.657   4.036   4.011
 3715SOL    HW212045   5.673   3.974   3.861
 3716SOL     OW12046   0.706   1.911   4.614
 3716SOL    HW112047   0.632   1.872   4.668
 3716SOL    HW212048   0.705   1.873   4.522
 3717SOL     OW12049   6.280   0.476   6.788
 3717SOL    HW112050   6.369   0.441   6.761
 3717SOL    HW212051   6.251   0.434   6.874
 3718SOL     OW12052   0.877   5.604   0.347
 3718SOL    HW112053   0.831   5.573   0.431
 3718SOL    HW212054   0.884   5.527   0.283
 3719SOL     OW12055   4.006   5.410   6.736
 3719SOL    HW112056   3.980   5.323   6.694
 3719SOL    HW212057   3.984   5.408   6.834
 3720SOL     OW12058   7.023   1.830   6.001
 3720SOL    HW112059   6.937   1.870   6.034
 3720SOL    HW212060   0.047   1.789   6.077
 3721SOL     OW12061   4.530   3.376   0.557
 3721SOL    HW112062   4.565   3.432   0.632
 3721SOL    HW212063   4.529   3.280   0.584
 3722SOL     OW12064   5.866   6.065   1.288
 3722SOL    HW112065   5.922   5.982   1.281
 3722SOL    HW212066   5.777   6.042   1.327
 3723SOL     OW12067   4.331   1.351   0.467
 3723SOL    HW112068   4.345   1.253   0.451
 3723SOL    HW212069   4.236   1.367   0.493
 3724SOL     OW12070   0.007   4.552   5.465
 3724SOL    HW112071   0.102   4.529   5.489
 3724SOL    HW212072   7.014   4.522   5.371
 3725SOL     OW12073   6.576   0.142   0.654
 3725SOL    HW112074   6.479   0.130   0.672
 3725SOL    HW212075   6.612   0.214   0.713
 3726SOL     OW12076   5.934   3.721   1.710
 3726SOL    HW112077   5.864   3.655   1.737
 3726SOL    HW212078   5.905   3.813   1.739
 3727SOL     OW12079   2.471   2.773   5.281
 3727SOL    HW112080   2.453   2.856   5.229
 3727SOL    HW212081   2.416   2.774   5.364
 3728SOL     OW12082   0.451   3.384   6.437
 3728SOL    HW112083   0.425   3.388   6.340
 3728SOL    HW212084   0.447   3.289   6.469
 3729SOL     OW12085   0.208   2.667   3.160
 3729SOL    HW112086   0.242   2.578   3.129
 3729SOL    HW212087   0.278   2.737   3.144
 3730SOL     OW12088   2.684   0.395   1.037
 3730SOL    HW112089   2.644   0.320   0.984
 3730SOL    HW212090   2.617   0.469   1.044
 3731SOL     OW12091   3.217   6.182   6.184
 3731SOL    HW112092   3.157   6.223   6.115
 3731SOL    HW212093   3.282   6.121   6.139
 3732SOL     OW12094   1.980   3.933   4.664
 3732SOL    HW112095   1.985   3.858   4.730
 3732SOL    HW212096   2.004   4.019   4.710
 3733SOL     OW12097   3.058   3.080   1.073
 3733SOL    HW112098   3.087   2.987   1.096
 3733SOL    HW212099   3.103   3.108   0.988
 3734SOL     OW12100   5.177   6.707   3.408
 3734SOL    HW112101   5.144   6.772   3.477
 3734SOL    HW212102   5.175   6.615   3.445
 3735SOL     OW12103   3.390   1.748   1.717
 3735SOL    HW112104   3.359   1.731   1.623
 3735SOL    HW212105   3.352   1.835   1.749
 3736SOL     OW12106   4.427   1.014   5.860
 3736SOL    HW112107   4.453   0.953   5.785
 3736SOL    HW212108   4.501   1.079   5.876
 3737SOL     OW12109   3.791   6.514   3.453
 3737SOL    HW112110   3.863   6.583   3.446
 3737SOL    HW212111   3.725   6.541   3.524
 3738SOL     OW12112   0.349   0.144   4.135
 3738SOL    HW112113   0.269   0.167   4.079
 3738SOL    HW212114   0.361   0.045   4.136
 3739SOL     OW12115   0.988   3.905   1.856
 3739SOL    HW112116   1.067   3.950   1.817
 3739SOL    HW212117   1.014   3.814   1.890
 3740SOL     OW12118   5.552   0.848   7.011
 3740SOL    HW112119   5.494   0.893   0.054
 3740SOL    HW212120   5.518   0.870   6.920
 3741SOL     OW12121   3.507   2.166   6.798
 3741SOL    HW112122   3.432   2.160   6.863
 3741SOL    HW212123   3.470   2.179   6.706
 3742SOL     OW12124   3.289   3.479   5.497
 3742SOL    HW112125   3.256   3.396   5.452
 3742SOL    HW212126   3.302   3.551   5.428
 3743SOL     OW12127   0.832   5.636   6.241
 3743SOL    HW112128   0.824   5.611   6.337
 3743SOL    HW212129   0.920   5.679   6.224
 3744SOL     OW12130   0.049   5.510   3.206
 3744SOL    HW112131   0.087   5.562   3.283
 3744SOL    HW212132   6.984   5.546   3.183
 3745SOL     OW12133   5.225   5.744   1.512
 3745SOL    HW112134   5.292   5.749   1.585
 3745SOL    HW212135   5.201   5.648   1.495
 3746SOL     OW12136   4.430   1.499   2.235
 3746SOL    HW112137   4.393   1.586   2.265
 3746SOL    HW212138   4.364   1.426   2.253
 3747SOL     OW12139   2.385   7.019   0.706
 3747SOL    HW112140   2.288   0.004   0.731
 3747SOL    HW212141   2.399   0.030   0.614
 3748SOL     OW12142   5.417   0.830   2.260
 3748SOL    HW112143   5.346   0.772   2.220
 3748SOL    HW212144   5.507   0.797   2.233
 3749SOL     OW12145   1.605   0.405   4.273
 3749SOL    HW112146   1.696   0.443   4.288
 3749SOL    HW212147   1.605   0.308   4.300
 3750SOL     OW12148   0.262   4.510   6.631
 3750SOL    HW112149   0.223   4.431   6.678
 3750SOL    HW212150   0.263   4.589   6.693
 3751SOL     OW12151   1.589   3.957   1.490
 3751SOL    HW112152   1.640   3.903   1.557
 3751SOL    HW212153   1.632   4.047   1.480
 3752SOL     OW12154   5.667   6.261   0.309
 3752SOL    HW112155   5.675   6.351   0.353
 3752SOL    HW212156   5.757   6.220   0.300
 3753SOL     OW12157   7.011   0.010   3.192
 3753SOL    HW112158   0.035   0.094   3.214
 3753SOL    HW212159   6.970   6.997   3.275
 3754SOL     OW12160   2.149   1.174   1.560
 3754SOL    HW112161   2.148   1.272   1.576
 3754SOL    HW212162   2.241   1.138   1.580
 3755SOL     OW12163   3.201   5.242   4.174
 3755SOL    HW112164   3.114   5.194   4.186
 3755SOL    HW212165   3.245   5.255   4.263
 3756SOL     OW12166   1.644   6.589   0.358
 3756SOL    HW112167   1.582   6.511   0.363
 3756SOL    HW212168   1.623   6.643   0.277
 3757SOL     OW12169   0.616   4.468   1.173
 3757SOL    HW112170   0.704   4.435   1.138
 3757SOL    HW212171   0.621   4.566   1.190
 3758SOL     OW12172   1.983   6.973   3.804
 3758SOL    HW112173   1.966   6.999   3.709
 3758SOL    HW212174   1.999   6.874   3.810
 3759SOL     OW12175   5.280   0.200   4.181
 3759SOL    HW112176   5.364   0.151   4.202
 3759SOL    HW212177   5.288   0.245   4.092
 3760SOL     OW12178   0.767   1.010   2.852
 3760SOL    HW112179   0.853   0.984   2.809
 3760SOL    HW212180   0.779   1.098   2.900
 3761SOL     OW12181   4.452   2.116   5.494
 3761SOL    HW112182   4.376   2.176   5.469
 3761SOL    HW212183   4.456   2.038   5.430
 3762SOL     OW12184   0.306   3.082   3.952
 3762SOL    HW112185   0.338   3.161   3.900
 3762SOL    HW212186   0.319   2.999   3.898
 3763SOL     OW12187   0.822   5.032   6.882
 3763SOL    HW112188   0.759   4.955   6.892
 3763SOL    HW212189   0.902   5.003   6.829
 3764SOL     OW12190   2.941   0.884   2.817
 3764SOL    HW112191   2.871   0.956   2.824
 3764SOL    HW212192   3.030   0.926   2.796
 3765SOL     OW12193   5.370   2.746   2.908
 3765SOL    HW112194   5.329   2.763   2.998
 3765SOL    HW212195   5.316   2.677   2.860
 3766SOL     OW12196   1.446   3.130   1.843
 3766SOL    HW112197   1.413   3.045   1.884
 3766SOL    HW212198   1.379   3.203   1.859
 3767SOL     OW12199   1.832   5.961   5.920
 3767SOL    HW112200   1.897   6.036   5.938
 3767SOL    HW212201   1.767   5.990   5.850
 3768SOL     OW12202   1.508   6.786   2.789
 3768SOL    HW112203   1.437   6.763   2.723
 3768SOL    HW212204   1.560   6.704   2.811
 3769SOL     OW12205   5.245   5.518   4.626
 3769SOL    HW112206   5.318   5.562   4.573
 3769SOL    HW212207   5.158   5.528   4.576
 3770SOL     OW12208   2.752   0.530   1.710
 3770SOL    HW112209   2.760   0.498   1.616
 3770SOL    HW212210   2.735   0.453   1.771
 3771SOL     OW12211   6.649   5.610   5.800
 3771SOL    HW112212   6.662   5.567   5.889
 3771SOL    HW212213   6.714   5.571   5.735
 3772SOL     OW12214   0.894   5.635   1.935
 3772SOL    HW112215   0.894   5.728   1.972
 3772SOL    HW212216   0.988   5.606   1.915
 3773SOL     OW12217   5.260   5.249   6.780
 3773SOL    HW112218   5.165   5.271   6.803
 3773SOL    HW212219   5.293   5.179   6.844
 3774SOL     OW12220   6.430   4.789   2.190
 3774SOL    HW112221   6.420   4.824   2.097
 3774SOL    HW212222   6.524   4.799   2.220
 3775SOL     OW12223   4.847   5.090   5.292
 3775SOL    HW112224   4.897   5.133   5.217
 3775SOL    HW212225   4.854   5.146   5.374
 3776SOL     OW12226   4.487   2.892   6.462
 3776SOL    HW112227   4.489   2.875   6.560
 3776SOL    HW212228   4.560   2.955   6.437
 3777SOL     OW12229   3.063   4.939   4.255
 3777SOL    HW112230   3.005   4.950   4.174
 3777SOL    HW212231   3.156   4.919   4.225
 3778SOL     OW12232   3.582   5.185   6.709
 3778SOL    HW112233   3.661   5.124   6.720
 3778SOL    HW212234   3.497   5.132   6.721
 3779SOL     OW12235   6.715   4.766   6.988
 3779SOL    HW112236   6.722   4.860   6.955
 3779SOL    HW212237   6.797   4.742   0.014
 3780SOL     OW12238   6.114   3.936   2.129
 3780SOL    HW112239   6.187   3.896   2.074
 3780SOL    HW212240   6.154   4.001   2.194
 3781SOL     OW12241   1.318   5.947   5.249
 3781SOL    HW112242   1.306   6.029   5.193
 3781SOL    HW212243   1.370   5.879   5.198
 3782SOL     OW12244   4.189   4.877   0.857
 3782SOL    HW112245   4.154   4.971   0.854
 3782SOL    HW212246   4.221   4.857   0.949
 3783SOL     OW12247   4.641   5.313   4.679
 3783SOL    HW112248   4.739   5.326   4.694
 3783SOL    HW212249   4.610   5.234   4.733
 3784SOL     OW12250   5.419   2.914   5.506
 3784SOL    HW112251   5.381   2.832   5.549
 3784SOL    HW212252   5.357   2.946   5.435
 3785SOL     OW12253   1.013   2.662   2.877
 3785SOL    HW112254   1.106   2.665   2.841
 3785SOL    HW212255   1.011   2.700   2.969
 3786SOL     OW12256   1.990   3.305   4.668
 3786SOL    HW112257   1.939   3.350   4.742
 3786SOL    HW212258   2.027   3.375   4.606
 3787SOL     OW12259   5.120   6.416   4.056
 3787SOL    HW112260   5.124   6.316   4.052
 3787SOL    HW212261   5.206   6.454   4.022
 3788SOL     OW12262   4.961   3.222   6.103
 3788SOL    HW112263   4.906   3.139   6.112
 3788SOL    HW212264   5.052   3.199   6.070
 3789SOL     OW12265   2.395   2.923   1.147
 3789SOL    HW112266   2.371   2.910   1.051
 3789SOL    HW212267   2.444   3.010   1.158
 3790SOL     OW12268   0.753   6.641   1.624
 3790SOL    HW112269   0.839   6.668   1.580
 3790SOL    HW212270   0.762   6.649   1.723
 3791SOL     OW12271   4.864   0.746   4.998
 3791SOL    HW112272   4.911   0.787   5.075
 3791SOL    HW212273   4.924   0.746   4.918
 3792SOL     OW12274   0.035   0.349   4.466
 3792SOL    HW112275   0.120   0.298   4.459
 3792SOL    HW212276   6.997   0.300   4.527
 3793SOL     OW12277   3.734   4.568   0.785
 3793SOL    HW112278   3.642   4.556   0.746
 3793SOL    HW212279   3.734   4.648   0.845
 3794SOL     OW12280   1.663   5.129   6.118
 3794SOL    HW112281   1.621   5.190   6.186
 3794SOL    HW212282   1.628   5.036   6.131
 3795SOL     OW12283   2.865   5.800   0.836
 3795SOL    HW112284   2.961   5.807   0.810
 3795SOL    HW212285   2.827   5.892   0.848
 3796SOL     OW12286   5.024   0.788   0.192
 3796SOL    HW112287   4.940   0.735   0.180
 3796SOL    HW212288   5.088   0.764   0.120
 3797SOL     OW12289   0.383   3.295   1.607
 3797SOL    HW112290   0.357   3.391   1.620
 3797SOL    HW212291   0.472   3.279   1.649
 3798SOL     OW12292   1.170   5.395   3.984
 3798SOL    HW112293   1.138   5.302   3.997
 3798SOL    HW212294   1.112   5.458   4.035
 3799SOL     OW12295   6.999   1.308   3.471
 3799SOL    HW112296   6.980   1.348   3.381
 3799SOL    HW212297   0.066   1.268   3.472
 3800SOL     OW12298   5.595   2.513   2.963
 3800SOL    HW112299   5.532   2.442   2.993
 3800SOL    HW212300   5.544   2.597   2.942
 3801SOL     OW12301   5.564   1.026   0.779
 3801SOL    HW112302   5.600   1.101   0.835
 3801SOL    HW212303   5.617   0.943   0.796
 3802SOL     OW12304   6.295   3.521   1.434
 3802SOL    HW112305   6.244   3.584   1.493
 3802SOL    HW212306   6.375   3.487   1.484
 3803SOL     OW12307   3.895   4.000   4.701
 3803SOL    HW112308   3.970   4.034   4.645
 3803SOL    HW212309   3.861   3.914   4.662
 3804SOL     OW12310   3.680   6.331   3.287
 3804SOL    HW112311   3.691   6.418   3.335
 3804SOL    HW212312   3.770   6.291   3.268
 3805SOL     OW12313   2.568   2.197   6.707
 3805SOL    HW112314   2.552   2.291   6.737
 3805SOL    HW212315   2.646   2.196   6.644
 3806SOL     OW12316   2.340   5.273   1.696
 3806SOL    HW112317   2.256   5.326   1.704
 3806SOL    HW212318   2.318   5.175   1.693
 3807SOL     OW12319   1.494   4.169   3.820
 3807SOL    HW112320   1.450   4.152   3.909
 3807SOL    HW212321   1.503   4.083   3.771
 3808SOL     OW12322   3.077   6.617   5.585
 3808SOL    HW112323   3.038   6.680   5.518
 3808SOL    HW212324   3.175   6.636   5.596
 3809SOL     OW12325   5.678   1.573   1.838
 3809SOL    HW112326   5.733   1.580   1.755
 3809SOL    HW212327   5.734   1.602   1.916
 3810SOL     OW12328   4.488   2.199   3.142
 3810SOL    HW112329   4.394   2.209   3.175
 3810SOL    HW212330   4.512   2.278   3.086
 3811SOL     OW12331   6.890   5.832   5.295
 3811SOL    HW112332   6.889   5.734   5.313
 3811SOL    HW212333   6.869   5.848   5.199
 3812SOL     OW12334   4.595   5.390   0.228
 3812SOL    HW112335   4.501   5.410   0.202
 3812SOL    HW212336   4.600   5.300   0.271
 3813SOL     OW12337   6.043   4.479   0.158
 3813SOL    HW112338   6.033   4.495   0.060
 3813SOL    HW212339   6.135   4.505   0.187
 3814SOL     OW12340   0.025   0.008   4.817
 3814SOL    HW112341   6.972   0.036   4.872
 3814SOL    HW212342   0.075   6.961   4.864
 3815SOL     OW12343   6.244   3.581   6.350
 3815SOL    HW112344   6.251   3.623   6.441
 3815SOL    HW212345   6.303   3.631   6.286
 3816SOL     OW12346   6.562   6.565   1.203
 3816SOL    HW112347   6.608   6.477   1.195
 3816SOL    HW212348   6.629   6.638   1.188
 3817SOL     OW12349   4.413   3.636   1.404
 3817SOL    HW112350   4.339   3.687   1.449
 3817SOL    HW212351   4.498   3.649   1.455
 3818SOL     OW12352   5.698   5.937   2.239
 3818SOL    HW112353   5.623   5.926   2.305
 3818SOL    HW212354   5.737   6.029   2.248
 3819SOL     OW12355   6.179   3.471   3.635
 3819SOL    HW112356   6.239   3.391   3.633
 3819SOL    HW212357   6.232   3.552   3.659
 3820SOL     OW12358   3.363   6.139   5.209
 3820SOL    HW112359   3.454   6.171   5.234
 3820SOL    HW212360   3.299   6.216   5.213
 3821SOL     OW12361   1.524   0.272   0.616
 3821SOL    HW112362   1.555   0.180   0.594
 3821SOL    HW212363   1.431   0.269   0.652
 3822SOL     OW12364   5.106   6.948   2.207
 3822SOL    HW112365   5.172   6.944   2.133
 3822SOL    HW212366   5.146   6.909   2.290
 3823SOL     OW12367   5.726   6.327   5.915
 3823SOL    HW112368   5.793   6.264   5.876
 3823SOL    HW212369   5.722   6.410   5.860
 3824SOL     OW12370   2.477   2.730   0.783
 3824SOL    HW112371   2.454   2.703   0.690
 3824SOL    HW212372   2.547   2.668   0.819
 3825SOL     OW12373   0.651   4.887   5.782
 3825SOL    HW112374   0.667   4.979   5.818
 3825SOL    HW212375   0.617   4.828   5.856
 3826SOL     OW12376   5.368   3.948   3.666
 3826SOL    HW112377   5.422   3.902   3.736
 3826SOL    HW212378   5.289   3.891   3.642
 3827SOL     OW12379   6.709   2.129   0.206
 3827SOL    HW112380   6.675   2.220   0.181
 3827SOL    HW212381   6.633   2.068   0.224
 3828SOL     OW12382   3.876   2.968   3.313
 3828SOL    HW112383   3.791   2.936   3.269
 3828SOL    HW212384   3.886   2.924   3.402
 3829SOL     OW12385   0.434   3.915   2.235
 3829SOL    HW112386   0.516   3.969   2.217
 3829SOL    HW212387   0.460   3.830   2.281
 3830SOL     OW12388   5.933   0.367   3.570
 3830SOL    HW112389   5.934   0.400   3.664
 3830SOL    HW212390   5.938   0.267   3.569
 3831SOL     OW12391   4.427   2.410   3.454
 3831SOL    HW112392   4.518   2.372   3.437
 3831SOL    HW212393   4.435   2.499   3.499
 3832SOL     OW12394   6.884   0.936   3.346
 3832SOL    HW112395   6.811   0.902   3.407
 3832SOL    HW212396   6.905   0.866   3.278
 3833SOL     OW12397   1.199   2.593   5.336
 3833SOL    HW112398   1.173   2.686   5.310
 3833SOL    HW212399   1.259   2.596   5.415
 3834SOL     OW12400   4.976   4.241   0.831
 3834SOL    HW112401   5.010   4.329   0.798
 3834SOL    HW212402   4.945   4.186   0.754
 3835SOL     OW12403   4.492   5.823   5.150
 3835SOL    HW112404   4.470   5.914   5.118
 3835SOL    HW212405   4.556   5.779   5.086
 3836SOL     OW12406   6.681   6.060   5.376
 3836SOL    HW112407   6.653   6.156   5.374
 3836SOL    HW212408   6.772   6.051   5.336
 3837SOL     OW12409   4.354   4.630   6.011
 3837SOL    HW112410   4.375   4.538   6.042
 3837SOL    HW212411   4.272   4.628   5.954
 3838SOL     OW12412   0.302   0.580   4.151
 3838SOL    HW112413   0.274   0.574   4.055
 3838SOL    HW212414   0.224   0.556   4.210
 3839SOL     OW12415   5.112   0.491   3.939
 3839SOL    HW112416   5.061   0.491   4.025
 3839SOL    HW212417   5.174   0.412   3.938
 3840SOL     OW12418   3.236   0.939   6.626
 3840SOL    HW112419   3.252   1.025   6.675
 3840SOL    HW212420   3.217   0.867   6.693
 3841SOL     OW12421   5.975   4.474   4.174
 3841SOL    HW112422   5.877   4.457   4.166
 3841SOL    HW212423   5.991   4.544   4.243
 3842SOL     OW12424   1.772   4.126   5.612
 3842SOL    HW112425   1.754   4.039   5.657
 3842SOL    HW212426   1.692   4.186   5.623
 3843SOL     OW12427   4.854   1.836   6.621
 3843SOL    HW112428   4.915   1.765   6.587
 3843SOL    HW212429   4.760   1.815   6.593
 3844SOL     OW12430   0.276   0.043   0.972
 3844SOL    HW112431   0.299   6.993   1.034
 3844SOL    HW212432   0.177   0.059   0.974
 3845SOL     OW12433   1.960   5.242   0.592
 3845SOL    HW112434   1.988   5.202   0.505
 3845SOL    HW212435   1.905   5.176   0.644
 3846SOL     OW12436   0.418   2.774   3.002
 3846SOL    HW112437   0.429   2.688   2.953
 3846SOL    HW212438   0.508   2.812   3.025
 3847SOL     OW12439   0.040   2.163   6.951
 3847SOL    HW112440   0.105   2.216   7.005
 3847SOL    HW212441   6.975   2.206   6.957
 3848SOL     OW12442   5.497   4.275   2.182
 3848SOL    HW112443   5.557   4.197   2.198
 3848SOL    HW212444   5.510   4.310   2.089
 3849SOL     OW12445   6.529   5.219   6.374
 3849SOL    HW112446   6.480   5.244   6.290
 3849SOL    HW212447   6.568   5.128   6.364
 3850SOL     OW12448   2.900   2.233   1.706
 3850SOL    HW112449   2.930   2.287   1.627
 3850SOL    HW212450   2.885   2.294   1.784
 3851SOL     OW12451   0.351   6.337   2.567
 3851SOL    HW112452   0.385   6.412   2.623
 3851SOL    HW212453   0.261   6.309   2.601
 3852SOL     OW12454   1.772   0.078   5.129
 3852SOL    HW112455   1.687   0.125   5.155
 3852SOL    HW212456   1.850   0.135   5.153
 3853SOL     OW12457   2.888   0.022   3.079
 3853SOL    HW112458   2.865   0.033   3.175
 3853SOL    HW212459   2.806   0.037   3.023
 3854SOL     OW12460   0.490   2.521   2.018
 3854SOL    HW112461   0.569   2.481   2.063
 3854SOL    HW212462   0.442   2.450   1.965
 3855SOL     OW12463   3.711   6.927   0.480
 3855SOL    HW112464   3.688   6.867   0.557
 3855SOL    HW212465   3.809   6.946   0.481
 3856SOL     OW12466   0.370   2.608   6.544
 3856SOL    HW112467   0.431   2.687   6.546
 3856SOL    HW212468   0.289   2.626   6.600
 3857SOL     OW12469   2.316   0.412   6.073
 3857SOL    HW112470   2.299   0.368   6.161
 3857SOL    HW212471   2.228   0.433   6.029
 3858SOL     OW12472   5.009   0.482   4.201
 3858SOL    HW112473   4.992   0.419   4.278
 3858SOL    HW212474   5.013   0.576   4.235
 3859SOL     OW12475   6.122   6.911   1.628
 3859SOL    HW112476   6.039   6.936   1.678
 3859SOL    HW212477   6.197   6.898   1.692
 3860SOL     OW12478   1.547   6.679   4.045
 3860SOL    HW112479   1.556   6.618   4.125
 3860SOL    HW212480   1.638   6.707   4.014
 3861SOL     OW12481   2.924   5.305   1.731
 3861SOL    HW112482   2.944   5.402   1.745
 3861SOL    HW212483   3.008   5.252   1.742
 3862SOL     OW12484   1.890   0.893   4.100
 3862SOL    HW112485   1.943   0.962   4.150
 3862SOL    HW212486   1.842   0.834   4.165
 3863SOL     OW12487   3.216   0.059   0.431
 3863SOL    HW112488   3.159   0.070   0.350
 3863SOL    HW212489   3.305   0.023   0.404
 3864SOL     OW12490   1.876   0.410   4.882
 3864SOL    HW112491   1.817   0.357   4.822
 3864SOL    HW212492   1.947   0.454   4.827
 3865SOL     OW12493   4.192   1.525   0.716
 3865SOL    HW112494   4.231   1.600   0.662
 3865SOL    HW212495   4.116   1.484   0.666
 3866SOL     OW12496   2.717   1.640   6.347
 3866SOL    HW112497   2.789   1.675   6.408
 3866SOL    HW212498   2.676   1.558   6.387
 3867SOL     OW12499   0.912   2.794   1.977
 3867SOL    HW112500   0.959   2.748   2.053
 3867SOL    HW212501   0.844   2.732   1.938
 3868SOL     OW12502   4.744   0.996   0.054
 3868SOL    HW112503   4.744   0.897   0.063
 3868SOL    HW212504   4.806   1.023   7.006
 3869SOL     OW12505   5.089   1.813   4.118
 3869SOL    HW112506   5.059   1.885   4.180
 3869SOL    HW212507   5.086   1.725   4.166
 3870SOL     OW12508   0.140   0.731   4.943
 3870SOL    HW112509   0.201   0.700   5.015
 3870SOL    HW212510   0.194   0.768   4.867
 3871SOL     OW12511   2.749   5.657   4.481
 3871SOL    HW112512   2.741   5.725   4.553
 3871SOL    HW212513   2.777   5.569   4.521
 3872SOL     OW12514   2.888   3.543   5.672
 3872SOL    HW112515   2.960   3.589   5.620
 3872SOL    HW212516   2.837   3.482   5.611
 3873SOL     OW12517   4.293   1.737   0.577
 3873SOL    HW112518   4.285   1.772   0.484
 3873SOL    HW212519   4.374   1.776   0.621
 3874SOL     OW12520   2.491   1.152   0.167
 3874SOL    HW112521   2.443   1.068   0.142
 3874SOL    HW212522   2.523   1.146   0.262
 3875SOL     OW12523   1.167   1.923   6.290
 3875SOL    HW112524   1.134   1.904   6.382
 3875SOL    HW212525   1.226   1.849   6.259
 3876SOL     OW12526   3.867   5.225   2.084
 3876SOL    HW112527   3.904   5.147   2.134
 3876SOL    HW212528   3.833   5.293   2.149
 3877SOL     OW12529   6.863   1.521   6.764
 3877SOL    HW112530   6.870   1.574   6.848
 3877SOL    HW212531   6.935   1.452   6.762
 3878SOL     OW12532   5.257   0.693   4.406
 3878SOL    HW112533   5.292   0.607   4.368
 3878SOL    HW212534   5.157   0.690   4.407
 3879SOL     OW12535   6.051   5.857   0.573
 3879SOL    HW112536   5.973   5.794   0.576
 3879SOL    HW212537   6.061   5.904   0.661
 3880SOL     OW12538   4.294   4.728   4.044
 3880SOL    HW112539   4.250   4.715   4.133
 3880SOL    HW212540   4.320   4.824   4.033
 3881SOL     OW12541   0.694   3.476   0.232
 3881SOL    HW112542   0.670   3.443   0.140
 3881SOL    HW212543   0.747   3.406   0.280
 3882SOL     OW12544   0.626   1.987   6.465
 3882SOL    HW112545   0.529   1.983   6.488
 3882SOL    HW212546   0.637   2.023   6.372
 3883SOL     OW12547   4.939   5.574   3.458
 3883SOL    HW112548   4.888   5.493   3.430
 3883SOL    HW212549   5.013   5.547   3.520
 3884SOL     OW12550   0.396   4.370   2.009
 3884SOL    HW112551   0.484   4.384   1.963
 3884SOL    HW212552   0.396   4.420   2.096
 3885SOL     OW12553   5.325   5.442   2.850
 3885SOL    HW112554   5.301   5.462   2.945
 3885SOL    HW212555   5.283   5.511   2.790
 3886SOL     OW12556   3.034   6.412   5.739
 3886SOL    HW112557   3.036   6.327   5.687
 3886SOL    HW212558   3.051   6.489   5.678
 3887SOL     OW12559   1.012   6.645   2.268
 3887SOL    HW112560   1.013   6.549   2.295
 3887SOL    HW212561   1.010   6.703   2.349
 3888SOL     OW12562   6.079   5.171   4.078
 3888SOL    HW112563   6.046   5.124   3.997
 3888SOL    HW212564   6.028   5.257   4.090
 3889SOL     OW12565   4.783   3.810   0.489
 3889SOL    HW112566   4.847   3.761   0.548
 3889SOL    HW212567   4.833   3.870   0.427
 3890SOL     OW12568   5.292   3.139   4.512
 3890SOL    HW112569   5.296   3.052   4.561
 3890SOL    HW212570   5.255   3.209   4.573
 3891SOL     OW12571   5.753   5.876   3.022
 3891SOL    HW112572   5.678   5.826   3.065
 3891SOL    HW212573   5.770   5.840   2.931
 3892SOL     OW12574   6.930   2.020   1.200
 3892SOL    HW112575   6.981   2.000   1.117
 3892SOL    HW212576   6.912   2.118   1.206
 3893SOL     OW12577   3.814   3.854   2.883
 3893SOL    HW112578   3.888   3.801   2.923
 3893SOL    HW212579   3.767   3.906   2.954
 3894SOL     OW12580   4.528   0.574   5.555
 3894SOL    HW112581   4.477   0.513   5.493
 3894SOL    HW212582   4.620   0.589   5.520
 3895SOL     OW12583   1.287   0.769   4.206
 3895SOL    HW112584   1.228   0.760   4.286
 3895SOL    HW212585   1.231   0.788   4.126
 3896SOL     OW12586   0.815   0.879   6.892
 3896SOL    HW112587   0.840   0.795   6.938
 3896SOL    HW212588   0.820   0.956   6.956
 3897SOL     OW12589   4.390   6.407   1.445
 3897SOL    HW112590   4.456   6.457   1.388
 3897SOL    HW212591   4.433   6.384   1.532
 3898SOL     OW12592   3.937   2.902   0.591
 3898SOL    HW112593   3.899   2.811   0.608
 3898SOL    HW212594   4.019   2.915   0.646
 3899SOL     OW12595   3.010   6.933   5.881
 3899SOL    HW112596   2.910   6.934   5.895
 3899SOL    HW212597   3.044   0.002   5.885
 3900SOL     OW12598   5.237   3.756   3.181
 3900SOL    HW112599   5.316   3.788   3.130
 3900SOL    HW212600   5.194   3.833   3.229
 3901SOL     OW12601   2.576   0.019   6.849
 3901SOL    HW112602   2.527   0.066   6.775
 3901SOL    HW212603   2.607   0.086   6.917
 3902SOL     OW12604   6.119   3.141   2.967
 3902SOL    HW112605   6.180   3.195   2.909
 3902SOL    HW212606   6.098   3.054   2.921
 3903SOL     OW12607   3.296   4.648   6.769
 3903SOL    HW112608   3.220   4.590   6.800
 3903SOL    HW212609   3.300   4.646   6.669
 3904SOL     OW12610   1.180   0.642   0.370
 3904SOL    HW112611   1.141   0.569   0.427
 3904SOL    HW212612   1.268   0.613   0.334
 3905SOL     OW12613   6.483   5.692   5.048
 3905SOL    HW112614   6.495   5.686   4.949
 3905SOL    HW212615   6.522   5.611   5.092
 3906SOL     OW12616   6.929   6.227   5.285
 3906SOL    HW112617   7.021   6.189   5.296
 3906SOL    HW212618   6.921   6.312   5.335
 3907SOL     OW12619   6.705   1.859   4.049
 3907SOL    HW112620   6.703   1.952   4.084
 3907SOL    HW212621   6.726   1.795   4.124
 3908SOL     OW12622   2.148   2.971   6.085
 3908SOL    HW112623   2.159   2.991   6.182
 3908SOL    HW212624   2.062   2.923   6.070
 3909SOL     OW12625   5.674   5.157   3.937
 3909SOL    HW112626   5.674   5.086   3.867
 3909SOL    HW212627   5.711   5.121   4.022
 3910SOL     OW12628   4.042   3.762   2.998
 3910SOL    HW112629   4.140   3.778   2.994
 3910SOL    HW212630   4.008   3.782   3.089
 3911SOL     OW12631   6.310   2.064   5.721
 3911SOL    HW112632   6.376   1.989   5.713
 3911SOL    HW212633   6.224   2.037   5.678
 3912SOL     OW12634   5.523   3.054   6.656
 3912SOL    HW112635   5.572   3.056   6.743
 3912SOL    HW212636   5.424   3.055   6.673
 3913SOL     OW12637   0.940   6.734   1.040
 3913SOL    HW112638   0.970   6.692   1.125
 3913SOL    HW212639   0.843   6.759   1.047
 3914SOL     OW12640   2.968   5.577   5.754
 3914SOL    HW112641   3.066   5.561   5.770
 3914SOL    HW212642   2.915   5.514   5.811
 3915SOL     OW12643   6.293   5.939   1.348
 3915SOL    HW112644   6.235   5.958   1.427
 3915SOL    HW212645   6.273   6.005   1.275
 3916SOL     OW12646   0.995   0.416   3.035
 3916SOL    HW112647   1.028   0.322   3.038
 3916SOL    HW212648   1.012   0.454   2.944
 3917SOL     OW12649   1.877   0.440   6.804
 3917SOL    HW112650   1.856   0.490   6.720
 3917SOL    HW212651   1.942   0.492   6.859
 3918SOL     OW12652   5.750   3.705   0.964
 3918SOL    HW112653   5.811   3.782   0.946
 3918SOL    HW212654   5.728   3.659   0.878
 3919SOL     OW12655   3.347   6.295   0.359
 3919SOL    HW112656   3.290   6.376   0.365
 3919SOL    HW212657   3.314   6.226   0.424
 3920SOL     OW12658   1.968   1.531   6.739
 3920SOL    HW112659   1.923   1.611   6.699
 3920SOL    HW212660   2.045   1.560   6.796
 3921SOL     OW12661   1.470   3.923   1.957
 3921SOL    HW112662   1.440   3.916   2.052
 3921SOL    HW212663   1.389   3.927   1.897
 3922SOL     OW12664   1.124   4.478   1.022
 3922SOL    HW112665   1.209   4.487   1.074
 3922SOL    HW212666   1.076   4.566   1.022
 3923SOL     OW12667   6.835   0.231   0.263
 3923SOL    HW112668   6.840   0.323   0.223
 3923SOL    HW212669   6.887   0.229   0.348
 3924SOL     OW12670   6.777   4.847   4.789
 3924SOL    HW112671   6.690   4.807   4.759
 3924SOL    HW212672   6.832   4.869   4.709
 3925SOL     OW12673   1.371   5.113   2.253
 3925SOL    HW112674   1.311   5.070   2.321
 3925SOL    HW212675   1.316   5.144   2.176
 3926SOL     OW12676   4.029   4.814   2.105
 3926SOL    HW112677   3.938   4.812   2.063
 3926SOL    HW212678   4.021   4.787   2.202
 3927SOL     OW12679   0.590   3.424   5.975
 3927SOL    HW112680   0.637   3.337   5.965
 3927SOL    HW212681   0.627   3.490   5.910
 3928SOL     OW12682   5.390   5.721   6.338
 3928SOL    HW112683   5.391   5.670   6.252
 3928SOL    HW212684   5.295   5.733   6.369
 3929SOL     OW12685   1.216   1.865   4.659
 3929SOL    HW112686   1.124   1.827   4.654
 3929SOL    HW212687   1.241   1.876   4.755
 3930SOL     OW12688   2.106   1.575   3.826
 3930SOL    HW112689   2.188   1.549   3.776
 3930SOL    HW212690   2.075   1.665   3.794
 3931SOL     OW12691   5.614   1.276   1.698
 3931SOL    HW112692   5.613   1.354   1.635
 3931SOL    HW212693   5.568   1.198   1.657
 3932SOL     OW12694   1.654   2.038   3.833
 3932SOL    HW112695   1.642   1.956   3.889
 3932SOL    HW212696   1.622   2.118   3.883
 3933SOL     OW12697   0.800   6.737   5.103
 3933SOL    HW112698   0.894   6.729   5.136
 3933SOL    HW212699   0.745   6.662   5.141
 3934SOL     OW12700   5.648   0.240   6.516
 3934SOL    HW112701   5.690   0.156   6.482
 3934SOL    HW212702   5.711   0.317   6.501
 3935SOL     OW12703   4.772   0.725   0.525
 3935SOL    HW112704   4.754   0.797   0.592
 3935SOL    HW212705   4.714   0.646   0.545
 3936SOL     OW12706   0.212   5.062   3.101
 3936SOL    HW112707   0.257   4.985   3.145
 3936SOL    HW212708   0.145   5.103   3.164
 3937SOL     OW12709   0.274   1.242   2.587
 3937SOL    HW112710   0.235   1.187   2.512
 3937SOL    HW212711   0.371   1.221   2.596
 3938SOL     OW12712   6.905   2.426   1.898
 3938SOL    HW112713   6.871   2.382   1.815
 3938SOL    HW212714   6.938   2.355   1.961
 3939SOL     OW12715   2.766   1.803   1.644
 3939SOL    HW112716   2.834   1.831   1.711
 3939SOL    HW212717   2.747   1.706   1.654
 3940SOL     OW12718   4.195   2.901   1.413
 3940SOL    HW112719   4.291   2.883   1.436
 3940SOL    HW212720   4.157   2.822   1.365
 3941SOL     OW12721   4.560   4.162   6.411
 3941SOL    HW112722   4.588   4.100   6.338
 3941SOL    HW212723   4.499   4.232   6.375
 3942SOL     OW12724   6.493   6.487   6.290
 3942SOL    HW112725   6.522   6.542   6.368
 3942SOL    HW212726   6.394   6.497   6.278
 3943SOL     OW12727   0.168   3.407   4.129
 3943SOL    HW112728   0.215   3.389   4.042
 3943SOL    HW212729   0.134   3.321   4.167
 3944SOL     OW12730   5.170   2.474   4.824
 3944SOL    HW112731   5.252   2.422   4.801
 3944SOL    HW212732   5.117   2.492   4.741
 3945SOL     OW12733   0.143   0.551   0.560
 3945SOL    HW112734   0.069   0.589   0.616
 3945SOL    HW212735   0.166   0.616   0.487
 3946SOL     OW12736   4.378   4.726   3.193
 3946SOL    HW112737   4.418   4.645   3.150
 3946SOL    HW212738   4.403   4.728   3.290
 3947SOL     OW12739   6.032   5.409   6.833
 3947SOL    HW112740   5.986   5.463   6.763
 3947SOL    HW212741   6.098   5.467   6.881
 3948SOL     OW12742   6.417   4.407   0.921
 3948SOL    HW112743   6.396   4.500   0.950
 3948SOL    HW212744   6.334   4.351   0.924
 3949SOL     OW12745   5.274   6.193   3.072
 3949SOL    HW112746   5.246   6.282   3.107
 3949SOL    HW212747   5.200   6.128   3.083
 3950SOL     OW12748   1.472   6.122   0.369
 3950SOL    HW112749   1.451   6.106   0.465
 3950SOL    HW212750   1.537   6.052   0.337
 3951SOL     OW12751   5.565   7.015   1.945
 3951SOL    HW112752   5.633   6.945   1.963
 3951SOL    HW212753   5.544   7.018   1.847
 3952SOL     OW12754   6.100   2.168   0.117
 3952SOL    HW112755   6.196   2.149   0.096
 3952SOL    HW212756   6.088   2.173   0.216
 3953SOL     OW12757   3.410   4.165   2.909
 3953SOL    HW112758   3.347   4.223   2.960
 3953SOL    HW212759   3.359   4.108   2.844
 3954SOL     OW12760   3.896   4.771   5.643
 3954SOL    HW112761   3.919   4.709   5.718
 3954SOL    HW212762   3.817   4.827   5.669
 3955SOL     OW12763   4.201   0.940   4.650
 3955SOL    HW112764   4.146   1.023   4.643
 3955SOL    HW212765   4.215   0.917   4.746
 3956SOL     OW12766   1.520   1.209   1.313
 3956SOL    HW112767   1.550   1.298   1.345
 3956SOL    HW212768   1.508   1.148   1.392
 3957SOL     OW12769   3.509   0.914   4.661
 3957SOL    HW112770   3.448   0.982   4.701
 3957SOL    HW212771   3.474   0.822   4.678
 3958SOL     OW12772   5.585   0.719   5.444
 3958SOL    HW112773   5.512   0.781   5.416
 3958SOL    HW212774   5.612   0.661   5.367
 3959SOL     OW12775   4.686   5.573   0.842
 3959SOL    HW112776   4.697   5.568   0.942
 3959SOL    HW212777   4.647   5.662   0.818
 3960SOL     OW12778   5.240   2.338   4.396
 3960SOL    HW112779   5.330   2.301   4.374
 3960SOL    HW212780   5.242   2.437   4.387
 3961SOL     OW12781   5.686   6.140   3.616
 3961SOL    HW112782   5.773   6.092   3.606
 3961SOL    HW212783   5.649   6.162   3.526
 3962SOL     OW12784   6.932   5.580   5.339
 3962SOL    HW112785   6.928   5.493   5.289
 3962SOL    HW212786   0.003   5.604   5.354
 3963SOL     OW12787   4.462   6.795   1.948
 3963SOL    HW112788   4.517   6.859   2.002
 3963SOL    HW212789   4.365   6.811   1.966
 3964SOL     OW12790   5.533   3.312   3.324
 3964SOL    HW112791   5.452   3.263   3.357
 3964SOL    HW212792   5.547   3.394   3.379
 3965SOL     OW12793   4.922   3.939   4.629
 3965SOL    HW112794   4.934   3.897   4.720
 3965SOL    HW212795   5.011   3.966   4.592
 3966SOL     OW12796   2.735   5.972   6.502
 3966SOL    HW112797   2.795   5.962   6.423
 3966SOL    HW212798   2.710   6.068   6.514
 3967SOL     OW12799   2.012   4.723   2.861
 3967SOL    HW112800   2.071   4.757   2.787
 3967SOL    HW212801   1.951   4.653   2.826
 3968SOL     OW12802   4.065   6.900   0.591
 3968SOL    HW112803   4.043   6.835   0.518
 3968SOL    HW212804   4.051   6.993   0.560
 3969SOL     OW12805   0.664   5.173   2.473
 3969SOL    HW112806   0.663   5.271   2.493
 3969SOL    HW212807   0.741   5.130   2.520
 3970SOL     OW12808   5.340   6.026   2.572
 3970SOL    HW112809   5.255   5.977   2.587
 3970SOL    HW212810   5.368   6.072   2.657
 3971SOL     OW12811   2.519   5.652   4.081
 3971SOL    HW112812   2.509   5.728   4.145
 3971SOL    HW212813   2.533   5.687   3.989
 3972SOL     OW12814   1.997   3.728   0.267
 3972SOL    HW112815   2.075   3.708   0.207
 3972SOL    HW212816   1.946   3.644   0.284
 3973SOL     OW12817   1.325   5.551   0.377
 3973SOL    HW112818   1.303   5.555   0.474
 3973SOL    HW212819   1.289   5.632   0.330
 3974SOL     OW12820   1.949   0.822   5.085
 3974SOL    HW112821   1.897   0.833   5.000
 3974SOL    HW212822   2.041   0.858   5.073
 3975SOL     OW12823   5.719   2.313   6.303
 3975SOL    HW112824   5.783   2.356   6.367
 3975SOL    HW212825   5.697   2.378   6.230
 3976SOL     OW12826   2.107   5.471   2.272
 3976SOL    HW112827   2.161   5.511   2.346
 3976SOL    HW212828   2.155   5.393   2.234
 3977SOL     OW12829   0.973   3.694   6.489
 3977SOL    HW112830   1.060   3.719   6.448
 3977SOL    HW212831   0.927   3.777   6.523
 3978SOL     OW12832   6.559   4.754   3.668
 3978SOL    HW112833   6.506   4.742   3.584
 3978SOL    HW212834   6.645   4.703   3.661
 3979SOL     OW12835   3.957   6.935   6.363
 3979SOL    HW112836   3.986   6.868   6.431
 3979SOL    HW212837   3.969   0.002   6.400
 3980SOL     OW12838   5.886   6.405   5.599
 3980SOL    HW112839   5.875   6.318   5.647
 3980SOL    HW212840   5.852   6.479   5.657
 3981SOL     OW12841   4.703   6.763   0.473
 3981SOL    HW112842   4.648   6.822   0.532
 3981SOL    HW212843   4.687   6.667   0.497
 3982SOL     OW12844   3.212   5.885   2.451
 3982SOL    HW112845   3.273   5.834   2.389
 3982SOL    HW212846   3.264   5.956   2.498
 3983SOL     OW12847   3.617   5.839   3.619
 3983SOL    HW112848   3.531   5.857   3.572
 3983SOL    HW212849   3.614   5.880   3.710
 3984SOL     OW12850   6.771   2.936   3.037
 3984SOL    HW112851   6.750   2.977   3.126
 3984SOL    HW212852   6.690   2.888   3.003
 3985SOL     OW12853   4.269   5.485   6.914
 3985SOL    HW112854   4.239   5.390   6.908
 3985SOL    HW212855   4.202   5.545   6.870
 3986SOL     OW12856   4.844   0.596   2.016
 3986SOL    HW112857   4.880   0.619   1.925
 3986SOL    HW212858   4.907   0.532   2.061
 3987SOL     OW12859   3.369   5.121   4.898
 3987SOL    HW112860   3.386   5.031   4.937
 3987SOL    HW212861   3.310   5.112   4.817
 3988SOL     OW12862   4.192   5.414   0.773
 3988SOL    HW112863   4.119   5.414   0.704
 3988SOL    HW212864   4.255   5.489   0.755
 3989SOL     OW12865   5.739   2.001   0.107
 3989SOL    HW112866   5.799   2.047   0.041
 3989SOL    HW212867   5.652   1.978   0.063
 3990SOL     OW12868   6.089   2.115   2.222
 3990SOL    HW112869   5.994   2.132   2.193
 3990SOL    HW212870   6.138   2.202   2.227
 3991SOL     OW12871   6.951   0.750   3.141
 3991SOL    HW112872   6.978   0.661   3.177
 3991SOL    HW212873   6.955   0.749   3.041
 3992SOL     OW12874   2.888   1.630   1.303
 3992SOL    HW112875   2.789   1.645   1.310
 3992SOL    HW212876   2.914   1.619   1.207
 3993SOL     OW12877   1.388   2.865   1.145
 3993SOL    HW112878   1.460   2.904   1.203
 3993SOL    HW212879   1.409   2.770   1.125
 3994SOL     OW12880   2.570   6.081   4.797
 3994SOL    HW112881   2.483   6.123   4.772
 3994SOL    HW212882   2.645   6.134   4.758
 3995SOL     OW12883   1.710   2.654   4.871
 3995SOL    HW112884   1.780   2.655   4.800
 3995SOL    HW212885   1.737   2.589   4.943
 3996SOL     OW12886   0.009   6.311   4.933
 3996SOL    HW112887   6.960   6.276   4.876
 3996SOL    HW212888   7.002   6.319   5.028
 3997SOL     OW12889   5.330   0.180   4.701
 3997SOL    HW112890   5.308   0.104   4.640
 3997SOL    HW212891   5.363   0.257   4.647
 3998SOL     OW12892   4.151   2.299   3.810
 3998SOL    HW112893   4.104   2.384   3.785
 3998SOL    HW212894   4.244   2.319   3.839
 3999SOL     OW12895   5.380   2.335   4.703
 3999SOL    HW112896   5.413   2.341   4.609
 3999SOL    HW212897   5.424   2.405   4.759
 4000SOL     OW12898   4.182   0.123   3.644
 4000SOL    HW112899   4.173   0.081   3.554
 4000SOL    HW212900   4.142   0.215   3.642
 4001SOL     OW12901   1.227   2.277   3.445
 4001SOL    HW112902   1.290   2.279   3.367
 4001SOL    HW212903   1.207   2.182   3.469
 4002SOL     OW12904   2.060   3.708   1.993
 4002SOL    HW112905   2.126   3.644   2.032
 4002SOL    HW212906   2.029   3.673   1.904
 4003SOL     OW12907   3.774   1.440   4.900
 4003SOL    HW112908   3.870   1.452   4.876
 4003SOL    HW212909   3.730   1.529   4.909
 4004SOL     OW12910   6.916   1.701   5.760
 4004SOL    HW112911   6.961   1.737   5.842
 4004SOL    HW212912   6.884   1.776   5.703
 4005SOL     OW12913   5.747   5.323   5.615
 4005SOL    HW112914   5.689   5.401   5.639
 4005SOL    HW212915   5.701   5.238   5.639
 4006SOL     OW12916   3.441   6.345   2.720
 4006SOL    HW112917   3.514   6.288   2.757
 4006SOL    HW212918   3.480   6.415   2.661
 4007SOL     OW12919   6.546   2.027   6.563
 4007SOL    HW112920   6.601   2.088   6.619
 4007SOL    HW212921   6.551   2.055   6.467
 4008SOL     OW12922   2.719   2.422   5.180
 4008SOL    HW112923   2.635   2.461   5.140
 4008SOL    HW212924   2.749   2.480   5.255
 4009SOL     OW12925   3.695   2.858   2.549
 4009SOL    HW112926   3.637   2.778   2.567
 4009SOL    HW212927   3.671   2.897   2.460
 4010SOL     OW12928   1.993   3.002   6.353
 4010SOL    HW112929   2.027   3.042   6.438
 4010SOL    HW212930   1.995   2.902   6.360
 4011SOL     OW12931   0.676   2.707   1.042
 4011SOL    HW112932   0.720   2.702   1.132
 4011SOL    HW212933   0.639   2.799   1.028
 4012SOL     OW12934   6.314   3.005   3.766
 4012SOL    HW112935   6.350   3.013   3.673
 4012SOL    HW212936   6.219   3.035   3.767
 4013SOL     OW12937   4.310   2.187   3.361
 4013SOL    HW112938   4.355   2.265   3.405
 4013SOL    HW212939   4.214   2.185   3.389
 4014SOL     OW12940   5.608   5.779   2.008
 4014SOL    HW112941   5.626   5.835   2.089
 4014SOL    HW212942   5.547   5.704   2.033
 4015SOL     OW12943   4.538   3.260   6.910
 4015SOL    HW112944   4.534   3.301   6.819
 4015SOL    HW212945   4.614   3.194   6.913
 4016SOL     OW12946   3.250   6.239   4.737
 4016SOL    HW112947   3.248   6.153   4.788
 4016SOL    HW212948   3.257   6.219   4.639
 4017SOL     OW12949   6.567   6.477   6.637
 4017SOL    HW112950   6.474   6.505   6.657
 4017SOL    HW212951   6.612   6.448   6.722
 4018SOL     OW12952   2.673   6.492   0.368
 4018SOL    HW112953   2.683   6.501   0.269
 4018SOL    HW212954   2.599   6.551   0.400
 4019SOL     OW12955   5.066   5.198   3.326
 4019SOL    HW112956   5.092   5.200   3.423
 4019SOL    HW212957   5.101   5.114   3.284
 4020SOL     OW12958   5.050   2.414   5.197
 4020SOL    HW112959   4.998   2.499   5.201
 4020SOL    HW212960   4.988   2.336   5.203
 4021SOL     OW12961   4.124   4.889   0.094
 4021SOL    HW112962   4.194   4.946   0.137
 4021SOL    HW212963   4.110   4.806   0.149
 4022SOL     OW12964   5.353   0.717   0.952
 4022SOL    HW112965   5.346   0.766   0.865
 4022SOL    HW212966   5.294   0.637   0.950
 4023SOL     OW12967   6.917   0.362   5.684
 4023SOL    HW112968   6.974   0.381   5.765
 4023SOL    HW212969   6.937   0.270   5.651
 4024SOL     OW12970   4.115   4.883   4.692
 4024SOL    HW112971   4.150   4.801   4.737
 4024SOL    HW212972   4.023   4.903   4.725
 4025SOL     OW12973   1.395   4.493   2.840
 4025SOL    HW112974   1.331   4.497   2.916
 4025SOL    HW212975   1.475   4.440   2.866
 4026SOL     OW12976   4.944   0.150   4.776
 4026SOL    HW112977   4.873   0.080   4.785
 4026SOL    HW212978   4.902   0.241   4.778
 4027SOL     OW12979   4.377   4.909   1.843
 4027SOL    HW112980   4.298   4.967   1.865
 4027SOL    HW212981   4.457   4.967   1.826
 4028SOL     OW12982   2.449   6.641   3.572
 4028SOL    HW112983   2.470   6.684   3.484
 4028SOL    HW212984   2.359   6.671   3.603
 4029SOL     OW12985   1.776   3.793   3.815
 4029SOL    HW112986   1.771   3.854   3.894
 4029SOL    HW212987   1.860   3.739   3.820
 4030SOL     OW12988   1.307   1.415   6.335
 4030SOL    HW112989   1.229   1.416   6.274
 4030SOL    HW212990   1.303   1.334   6.394
 4031SOL     OW12991   5.462   5.887   4.048
 4031SOL    HW112992   5.508   5.947   3.983
 4031SOL    HW212993   5.526   5.815   4.077
 4032SOL     OW12994   4.444   6.929   4.750
 4032SOL    HW112995   4.392   7.014   4.763
 4032SOL    HW212996   4.414   6.860   4.815
 4033SOL     OW12997   3.385   3.654   5.716
 4033SOL    HW112998   3.320   3.608   5.655
 4033SOL    HW212999   3.437   3.586   5.768
 4034SOL     OW13000   5.833   3.024   4.599
 4034SOL    HW113001   5.736   3.036   4.575
 4034SOL    HW213002   5.847   2.931   4.632
 4035SOL     OW13003   0.668   5.384   0.964
 4035SOL    HW113004   0.594   5.442   0.929
 4035SOL    HW213005   0.685   5.310   0.900
 4036SOL     OW13006   6.397   6.127   2.433
 4036SOL    HW113007   6.312   6.101   2.388
 4036SOL    HW213008   6.408   6.073   2.517
 4037SOL     OW13009   6.836   4.244   6.233
 4037SOL    HW113010   6.751   4.286   6.264
 4037SOL    HW213011   6.856   4.276   6.140
 4038SOL     OW13012   6.472   5.149   3.356
 4038SOL    HW113013   6.446   5.245   3.341
 4038SOL    HW213014   6.552   5.146   3.415
 4039SOL     OW13015   4.013   6.212   0.979
 4039SOL    HW113016   3.998   6.266   1.062
 4039SOL    HW213017   3.991   6.268   0.899
 4040SOL     OW13018   3.571   6.212   0.635
 4040SOL    HW113019   3.635   6.289   0.631
 4040SOL    HW213020   3.560   6.184   0.731
 4041SOL     OW13021   1.024   6.965   3.380
 4041SOL    HW113022   1.084   0.010   3.343
 4041SOL    HW213023   0.967   7.004   3.453
 4042SOL     OW13024   5.962   5.478   1.803
 4042SOL    HW113025   5.921   5.485   1.712
 4042SOL    HW213026   5.912   5.410   1.857
 4043SOL     OW13027   6.392   4.126   2.039
 4043SOL    HW113028   6.317   4.174   1.994
 4043SOL    HW213029   6.394   4.152   2.136
 4044SOL     OW13030   6.588   5.497   3.076
 4044SOL    HW113031   6.550   5.467   2.988
 4044SOL    HW213032   6.545   5.583   3.104
 4045SOL     OW13033   2.373   4.468   5.982
 4045SOL    HW113034   2.375   4.372   5.955
 4045SOL    HW213035   2.286   4.508   5.954
 4046SOL     OW13036   0.334   2.923   0.730
 4046SOL    HW113037   0.427   2.925   0.767
 4046SOL    HW213038   0.333   2.966   0.640
 4047SOL     OW13039   3.127   3.856   1.964
 4047SOL    HW113040   3.090   3.781   2.018
 4047SOL    HW213041   3.220   3.875   1.993
 4048SOL     OW13042   4.651   2.309   1.350
 4048SOL    HW113043   4.560   2.279   1.321
 4048SOL    HW213044   4.714   2.303   1.272
 4049SOL     OW13045   6.866   0.918   5.639
 4049SOL    HW113046   6.904   1.008   5.619
 4049SOL    HW213047   6.934   0.863   5.688
 4050SOL     OW13048   2.298   0.737   1.505
 4050SOL    HW113049   2.322   0.668   1.437
 4050SOL    HW213050   2.203   0.723   1.535
 4051SOL     OW13051   1.202   4.273   0.868
 4051SOL    HW113052   1.293   4.239   0.895
 4051SOL    HW213053   1.167   4.333   0.941
 4052SOL     OW13054   1.663   6.335   1.574
 4052SOL    HW113055   1.728   6.290   1.512
 4052SOL    HW213056   1.648   6.429   1.543
 4053SOL     OW13057   3.283   4.904   3.494
 4053SOL    HW113058   3.200   4.907   3.549
 4053SOL    HW213059   3.327   4.815   3.503
 4054SOL     OW13060   5.173   1.534   6.917
 4054SOL    HW113061   5.155   1.514   6.820
 4054SOL    HW213062   5.271   1.525   6.934
 4055SOL     OW13063   4.414   2.477   0.986
 4055SOL    HW113064   4.427   2.556   0.927
 4055SOL    HW213065   4.395   2.508   1.079
 4056SOL     OW13066   3.751   2.502   1.115
 4056SOL    HW113067   3.693   2.438   1.064
 4056SOL    HW213068   3.708   2.521   1.204
 4057SOL     OW13069   6.270   2.198   0.639
 4057SOL    HW113070   6.199   2.268   0.630
 4057SOL    HW213071   6.359   2.239   0.620
 4058SOL     OW13072   1.475   1.745   4.707
 4058SOL    HW113073   1.388   1.783   4.675
 4058SOL    HW213074   1.549   1.808   4.682
 4059SOL     OW13075   6.157   2.314   5.395
 4059SOL    HW113076   6.150   2.302   5.296
 4059SOL    HW213077   6.240   2.269   5.428
 4060SOL     OW13078   3.548   5.854   5.099
 4060SOL    HW113079   3.598   5.940   5.093
 4060SOL    HW213080   3.457   5.871   5.138
 4061SOL     OW13081   2.499   2.893   1.443
 4061SOL    HW113082   2.495   2.967   1.376
 4061SOL    HW213083   2.456   2.923   1.528
 4062SOL     OW13084   3.822   6.448   2.627
 4062SOL    HW113085   3.918   6.444   2.653
 4062SOL    HW213086   3.770   6.383   2.683
 4063SOL     OW13087   2.348   4.787   6.544
 4063SOL    HW113088   2.256   4.827   6.542
 4063SOL    HW213089   2.357   4.729   6.625
 4064SOL     OW13090   5.957   6.757   3.960
 4064SOL    HW113091   5.956   6.689   4.033
 4064SOL    HW213092   6.030   6.823   3.977
 4065SOL     OW13093   6.887   4.664   6.734
 4065SOL    HW113094   6.966   4.667   6.673
 4065SOL    HW213095   6.855   4.757   6.753
 4066SOL     OW13096   5.923   5.611   1.332
 4066SOL    HW113097   5.854   5.652   1.391
 4066SOL    HW213098   5.916   5.511   1.337
 4067SOL     OW13099   5.866   1.281   1.800
 4067SOL    HW113100   5.908   1.245   1.716
 4067SOL    HW213101   5.767   1.281   1.790
 4068SOL     OW13102   5.782   1.650   5.109
 4068SOL    HW113103   5.825   1.680   5.024
 4068SOL    HW213104   5.847   1.660   5.184
 4069SOL     OW13105   6.936   6.293   0.323
 4069SOL    HW113106   6.994   6.282   0.404
 4069SOL    HW213107   6.952   6.383   0.282
 4070SOL     OW13108   6.942   3.497   3.394
 4070SOL    HW113109   6.960   3.435   3.318
 4070SOL    HW213110   0.001   3.512   3.446
 4071SOL     OW13111   2.588   0.498   3.792
 4071SOL    HW113112   2.610   0.595   3.778
 4071SOL    HW213113   2.504   0.476   3.743
 4072SOL     OW13114   0.952   0.071   3.839
 4072SOL    HW113115   0.983   7.006   3.868
 4072SOL    HW213116   0.855   0.081   3.860
 4073SOL     OW13117   2.492   4.914   1.807
 4073SOL    HW113118   2.569   4.978   1.811
 4073SOL    HW213119   2.526   4.820   1.815
 4074SOL     OW13120   0.647   2.586   0.306
 4074SOL    HW113121   0.747   2.583   0.303
 4074SOL    HW213122   0.611   2.492   0.311
 4075SOL     OW13123   5.289   0.077   3.616
 4075SOL    HW113124   5.317   0.171   3.597
 4075SOL    HW213125   5.197   0.078   3.656
 4076SOL     OW13126   1.957   2.402   3.319
 4076SOL    HW113127   2.046   2.375   3.282
 4076SOL    HW213128   1.957   2.499   3.340
 4077SOL     OW13129   3.557   0.823   0.728
 4077SOL    HW113130   3.605   0.781   0.651
 4077SOL    HW213131   3.469   0.777   0.742
 4078SOL     OW13132   4.938   3.790   2.909
 4078SOL    HW113133   4.983   3.863   2.858
 4078SOL    HW213134   4.887   3.731   2.845
 4079SOL     OW13135   6.309   0.127   4.469
 4079SOL    HW113136   6.357   0.042   4.447
 4079SOL    HW213137   6.235   0.141   4.403
 4080SOL     OW13138   3.661   2.857   3.184
 4080SOL    HW113139   3.690   2.761   3.191
 4080SOL    HW213140   3.637   2.878   3.090
 4081SOL     OW13141   3.025   2.144   6.826
 4081SOL    HW113142   2.991   2.050   6.818
 4081SOL    HW213143   2.984   2.201   6.755
 4082SOL     OW13144   1.062   1.968   5.691
 4082SOL    HW113145   1.091   1.881   5.650
 4082SOL    HW213146   1.143   2.022   5.714
 4083SOL     OW13147   6.025   5.379   2.377
 4083SOL    HW113148   6.116   5.347   2.352
 4083SOL    HW213149   5.957   5.332   2.320
 4084SOL     OW13150   5.006   0.430   2.378
 4084SOL    HW113151   5.085   0.478   2.415
 4084SOL    HW213152   4.959   0.381   2.451
 4085SOL     OW13153   2.531   4.554   2.751
 4085SOL    HW113154   2.594   4.619   2.793
 4085SOL    HW213155   2.500   4.489   2.821
 4086SOL     OW13156   5.727   4.825   5.193
 4086SOL    HW113157   5.628   4.809   5.192
 4086SOL    HW213158   5.767   4.790   5.109
 4087SOL     OW13159   2.035   0.754   1.599
 4087SOL    HW113160   1.954   0.701   1.624
 4087SOL    HW213161   2.047   0.829   1.663
 4088SOL     OW13162   0.158   1.984   5.812
 4088SOL    HW113163   0.213   1.918   5.761
 4088SOL    HW213164   0.097   1.935   5.874
 4089SOL     OW13165   0.915   1.058   2.476
 4089SOL    HW113166   0.982   1.126   2.506
 4089SOL    HW213167   0.895   0.995   2.551
 4090SOL     OW13168   2.744   2.816   5.682
 4090SOL    HW113169   2.666   2.830   5.743
 4090SOL    HW213170   2.711   2.797   5.589
 4091SOL     OW13171   3.345   6.133   2.032
 4091SOL    HW113172   3.303   6.141   2.122
 4091SOL    HW213173   3.401   6.214   2.015
 4092SOL     OW13174   5.301   2.120   6.220
 4092SOL    HW113175   5.382   2.129   6.279
 4092SOL    HW213176   5.318   2.051   6.150
 4093SOL     OW13177   5.515   4.029   3.443
 4093SOL    HW113178   5.477   4.013   3.534
 4093SOL    HW213179   5.548   3.942   3.406
 4094SOL     OW13180   6.901   6.806   0.224
 4094SOL    HW113181   6.854   6.750   0.156
 4094SOL    HW213182   6.897   6.903   0.197
 4095SOL     OW13183   1.659   5.081   0.751
 4095SOL    HW113184   1.716   5.044   0.678
 4095SOL    HW213185   1.606   5.007   0.792
 4096SOL     OW13186   0.579   0.384   6.710
 4096SOL    HW113187   0.603   0.370   6.806
 4096SOL    HW213188   0.620   0.312   6.654
 4097SOL     OW13189   0.543   3.552   5.091
 4097SOL    HW113190   0.603   3.534   5.013
 4097SOL    HW213191   0.490   3.470   5.113
 4098SOL     OW13192   0.904   5.904   2.125
 4098SOL    HW113193   0.999   5.933   2.132
 4098SOL    HW213194   0.843   5.982   2.142
 4099SOL     OW13195   6.327   3.243   5.662
 4099SOL    HW113196   6.333   3.320   5.599
 4099SOL    HW213197   6.399   3.252   5.731
 4100SOL     OW13198   2.392   1.174   3.182
 4100SOL    HW113199   2.342   1.180   3.268
 4100SOL    HW213200   2.422   1.265   3.155
 4101SOL     OW13201   6.697   6.059   6.713
 4101SOL    HW113202   6.711   6.018   6.622
 4101SOL    HW213203   6.676   5.987   6.779
 4102SOL     OW13204   1.289   5.782   0.204
 4102SOL    HW113205   1.290   5.882   0.203
 4102SOL    HW213206   1.277   5.748   0.111
 4103SOL     OW13207   2.179   5.814   2.924
 4103SOL    HW113208   2.227   5.874   2.989
 4103SOL    HW213209   2.190   5.719   2.953
 4104SOL     OW13210   1.575   6.194   5.157
 4104SOL    HW113211   1.548   6.106   5.118
 4104SOL    HW213212   1.493   6.246   5.181
 4105SOL     OW13213   4.234   7.004   2.098
 4105SOL    HW113214   4.291   0.058   2.074
 4105SOL    HW213215   4.284   6.947   2.164
 4106SOL     OW13216   1.204   7.009   2.134
 4106SOL    HW113217   1.259   0.021   2.209
 4106SOL    HW213218   1.129   6.954   2.171
 4107SOL     OW13219   1.692   0.717   0.794
 4107SOL    HW113220   1.759   0.718   0.868
 4107SOL    HW213221   1.667   0.811   0.770
 4108SOL     OW13222   6.395   6.167   5.748
 4108SOL    HW113223   6.369   6.071   5.744
 4108SOL    HW213224   6.436   6.195   5.661
 4109SOL     OW13225   5.255   6.319   4.637
 4109SOL    HW113226   5.268   6.343   4.733
 4109SOL    HW213227   5.157   6.316   4.617
 4110SOL     OW13228   4.675   2.958   0.384
 4110SOL    HW113229   4.733   3.022   0.333
 4110SOL    HW213230   4.580   2.971   0.357
 4111SOL     OW13231   5.734   5.033   4.194
 4111SOL    HW113232   5.802   5.062   4.262
 4111SOL    HW213233   5.746   4.935   4.177
 4112SOL     OW13234   4.624   5.523   4.133
 4112SOL    HW113235   4.587   5.608   4.097
 4112SOL    HW213236   4.559   5.482   4.198
 4113SOL     OW13237   4.401   5.243   4.583
 4113SOL    HW113238   4.482   5.293   4.614
 4113SOL    HW213239   4.379   5.269   4.489
 4114SOL     OW13240   0.170   1.037   1.773
 4114SOL    HW113241   0.070   1.032   1.774
 4114SOL    HW213242   0.200   1.125   1.809
 4115SOL     OW13243   4.324   5.882   3.542
 4115SOL    HW113244   4.245   5.835   3.503
 4115SOL    HW213245   4.368   5.824   3.610
 4116SOL     OW13246   5.760   3.476   3.701
 4116SOL    HW113247   5.805   3.408   3.759
 4116SOL    HW213248   5.695   3.529   3.755
 4117SOL     OW13249   0.498   1.040   3.582
 4117SOL    HW113250   0.564   1.076   3.517
 4117SOL    HW213251   0.423   0.996   3.533
 4118SOL     OW13252   1.287   0.071   1.355
 4118SOL    HW113253   1.342   7.017   1.381
 4118SOL    HW213254   1.209   0.040   1.300
 4119SOL     OW13255   6.693   0.228   4.328
 4119SOL    HW113256   6.695   0.306   4.266
 4119SOL    HW213257   6.627   0.245   4.402
 4120SOL     OW13258   2.144   0.607   5.848
 4120SOL    HW113259   2.239   0.600   5.877
 4120SOL    HW213260   2.086   0.627   5.926
 4121SOL     OW13261   6.652   0.983   2.245
 4121SOL    HW113262   6.626   0.886   2.250
 4121SOL    HW213263   6.700   1.008   2.329
 4122SOL     OW13264   0.833   5.224   3.233
 4122SOL    HW113265   0.819   5.217   3.332
 4122SOL    HW213266   0.902   5.293   3.214
 4123SOL     OW13267   5.481   4.434   1.216
 4123SOL    HW113268   5.399   4.383   1.241
 4123SOL    HW213269   5.549   4.425   1.289
 4124SOL     OW13270   6.221   6.800   6.931
 4124SOL    HW113271   6.260   6.798   7.022
 4124SOL    HW213272   6.121   6.791   6.937
 4125SOL     OW13273   6.732   2.830   6.987
 4125SOL    HW113274   6.667   2.799   6.917
 4125SOL    HW213275   6.728   2.767   0.040
 4126SOL     OW13276   1.154   3.950   4.311
 4126SOL    HW113277   1.186   4.030   4.261
 4126SOL    HW213278   1.056   3.938   4.295
 4127SOL     OW13279   5.473   2.495   4.144
 4127SOL    HW113280   5.392   2.445   4.113
 4127SOL    HW213281   5.453   2.538   4.232
 4128SOL     OW13282   6.305   2.761   6.545
 4128SOL    HW113283   6.207   2.775   6.564
 4128SOL    HW213284   6.317   2.673   6.499
 4129SOL     OW13285   2.810   1.365   1.045
 4129SOL    HW113286   2.832   1.462   1.052
 4129SOL    HW213287   2.753   1.349   0.964
 4130SOL     OW13288   5.789   2.472   0.655
 4130SOL    HW113289   5.771   2.563   0.694
 4130SOL    HW213290   5.773   2.403   0.725
 4131SOL     OW13291   4.617   6.496   3.256
 4131SOL    HW113292   4.564   6.446   3.324
 4131SOL    HW213293   4.713   6.501   3.284
 4132SOL     OW13294   6.865   4.712   3.297
 4132SOL    HW113295   6.808   4.632   3.276
 4132SOL    HW213296   6.838   4.789   3.240
 4133SOL     OW13297   5.388   6.153   2.813
 4133SOL    HW113298   5.337   6.156   2.899
 4133SOL    HW213299   5.486   6.152   2.833
 4134SOL     OW13300   1.689   3.411   1.379
 4134SOL    HW113301   1.687   3.467   1.296
 4134SOL    HW213302   1.597   3.403   1.416
 4135SOL     OW13303   6.022   1.219   0.925
 4135SOL    HW113304   5.973   1.133   0.937
 4135SOL    HW213305   6.102   1.221   0.985
 4136SOL     OW13306   0.515   4.686   0.595
 4136SOL    HW113307   0.543   4.747   0.668
 4136SOL    HW213308   0.517   4.735   0.508
 4137SOL     OW13309   0.361   2.990   6.114
 4137SOL    HW113310   0.444   3.020   6.160
 4137SOL    HW213311   0.318   2.917   6.167
 4138SOL     OW13312   4.634   6.840   6.408
 4138SOL    HW113313   4.705   6.843   6.478
 4138SOL    HW213314   4.612   6.933   6.377
 4139SOL     OW13315   1.886   4.209   2.621
 4139SOL    HW113316   1.973   4.167   2.595
 4139SOL    HW213317   1.904   4.293   2.673
 4140SOL     OW13318   2.249   7.000   6.723
 4140SOL    HW113319   2.160   7.013   6.681
 4140SOL    HW213320   2.306   0.056   6.705
 4141SOL     OW13321   4.898   1.371   6.085
 4141SOL    HW113322   4.853   1.460   6.081
 4141SOL    HW213323   4.839   1.301   6.044
 4142SOL     OW13324   6.431   5.388   1.186
 4142SOL    HW113325   6.420   5.423   1.094
 4142SOL    HW213326   6.529   5.382   1.208
 4143SOL     OW13327   5.881   4.189   6.614
 4143SOL    HW113328   5.883   4.267   6.552
 4143SOL    HW213329   5.862   4.221   6.707
 4144SOL     OW13330   4.512   0.865   1.778
 4144SOL    HW113331   4.569   0.812   1.716
 4144SOL    HW213332   4.487   0.951   1.734
 4145SOL     OW13333   5.598   0.268   1.407
 4145SOL    HW113334   5.541   0.187   1.397
 4145SOL    HW213335   5.665   0.253   1.480
 4146SOL     OW13336   4.322   0.280   1.514
 4146SOL    HW113337   4.274   0.216   1.574
 4146SOL    HW213338   4.413   0.299   1.552
 4147SOL     OW13339   4.716   5.165   7.021
 4147SOL    HW113340   4.702   5.261   6.999
 4147SOL    HW213341   4.781   5.157   0.072
 4148SOL     OW13342   3.072   1.631   5.762
 4148SOL    HW113343   3.043   1.567   5.833
 4148SOL    HW213344   3.119   1.708   5.805
 4149SOL     OW13345   1.496   3.847   6.383
 4149SOL    HW113346   1.545   3.885   6.462
 4149SOL    HW213347   1.403   3.822   6.411
 4150SOL     OW13348   5.483   1.506   0.300
 4150SOL    HW113349   5.390   1.480   0.274
 4150SOL    HW213350   5.483   1.599   0.337
 4151SOL     OW13351   2.408   5.863   4.907
 4151SOL    HW113352   2.446   5.821   4.990
 4151SOL    HW213353   2.477   5.922   4.865
 4152SOL     OW13354   2.674   3.891   1.207
 4152SOL    HW113355   2.708   3.975   1.249
 4152SOL    HW213356   2.723   3.813   1.244
 4153SOL     OW13357   6.955   5.657   2.103
 4153SOL    HW113358   6.932   5.752   2.083
 4153SOL    HW213359   6.946   5.639   2.201
 4154SOL     OW13360   0.346   6.752   3.699
 4154SOL    HW113361   0.370   6.847   3.721
 4154SOL    HW213362   0.370   6.734   3.604
 4155SOL     OW13363   6.745   0.480   1.774
 4155SOL    HW113364   6.650   0.498   1.799
 4155SOL    HW213365   6.786   0.418   1.841
 4156SOL     OW13366   0.343   4.776   5.284
 4156SOL    HW113367   0.290   4.723   5.218
 4156SOL    HW213368   0.281   4.833   5.339
 4157SOL     OW13369   5.451   6.132   0.871
 4157SOL    HW113370   5.514   6.147   0.795
 4157SOL    HW213371   5.393   6.053   0.851
 4158SOL     OW13372   0.593   2.989   0.953
 4158SOL    HW113373   0.525   3.042   1.003
 4158SOL    HW213374   0.683   3.004   0.994
 4159SOL     OW13375   3.271   0.803   4.185
 4159SOL    HW113376   3.331   0.753   4.121
 4159SOL    HW213377   3.321   0.882   4.222
 4160SOL     OW13378   1.562   6.400   6.151
 4160SOL    HW113379   1.487   6.364   6.095
 4160SOL    HW213380   1.631   6.440   6.091
 4161SOL     OW13381   3.521   3.219   3.135
 4161SOL    HW113382   3.611   3.202   3.176
 4161SOL    HW213383   3.452   3.221   3.207
 4162SOL     OW13384   5.330   5.618   1.231
 4162SOL    HW113385   5.360   5.594   1.139
 4162SOL    HW213386   5.300   5.713   1.234
 4163SOL     OW13387   3.869   5.632   1.675
 4163SOL    HW113388   3.932   5.663   1.604
 4163SOL    HW213389   3.780   5.675   1.662
 4164SOL     OW13390   5.410   1.556   6.523
 4164SOL    HW113391   5.435   1.492   6.595
 4164SOL    HW213392   5.470   1.636   6.527
 4165SOL     OW13393   3.713   1.478   4.411
 4165SOL    HW113394   3.758   1.389   4.405
 4165SOL    HW213395   3.692   1.511   4.319
 4166SOL     OW13396   6.643   1.915   1.483
 4166SOL    HW113397   6.727   1.874   1.448
 4166SOL    HW213398   6.573   1.914   1.411
 4167SOL     OW13399   3.821   5.149   4.605
 4167SOL    HW113400   3.864   5.109   4.686
 4167SOL    HW213401   3.875   5.126   4.524
 4168SOL     OW13402   5.725   4.193   0.196
 4168SOL    HW113403   5.716   4.184   0.096
 4168SOL    HW213404   5.640   4.228   0.234
 4169SOL     OW13405   5.190   3.485   6.744
 4169SOL    HW113406   5.283   3.476   6.707
 4169SOL    HW213407   5.124   3.491   6.668
 4170SOL     OW13408   1.019   2.657   5.692
 4170SOL    HW113409   1.021   2.733   5.758
 4170SOL    HW213410   1.110   2.646   5.653
 4171SOL     OW13411   0.339   1.764   6.383
 4171SOL    HW113412   0.343   1.852   6.431
 4171SOL    HW213413   0.431   1.728   6.372
 4172SOL     OW13414   2.837   2.213   6.599
 4172SOL    HW113415   2.832   2.142   6.528
 4172SOL    HW213416   2.851   2.302   6.556
 4173SOL     OW13417   4.540   1.445   5.961
 4173SOL    HW113418   4.544   1.463   6.059
 4173SOL    HW213419   4.447   1.462   5.927
 4174SOL     OW13420   4.193   6.139   3.942
 4174SOL    HW113421   4.169   6.187   3.858
 4174SOL    HW213422   4.239   6.053   3.920
 4175SOL     OW13423   1.751   4.745   6.175
 4175SOL    HW113424   1.665   4.780   6.138
 4175SOL    HW213425   1.734   4.703   6.265
 4176SOL     OW13426   5.182   6.797   5.802
 4176SOL    HW113427   5.164   6.856   5.723
 4176SOL    HW213428   5.156   6.844   5.886
 4177SOL     OW13429   4.432   4.914   2.976
 4177SOL    HW113430   4.529   4.912   3.001
 4177SOL    HW213431   4.381   4.850   3.034
 4178SOL     OW13432   3.966   6.389   1.215
 4178SOL    HW113433   3.878   6.363   1.255
 4178SOL    HW213434   4.040   6.367   1.280
 4179SOL     OW13435   4.429   2.560   6.972
 4179SOL    HW113436   4.518   2.579   6.932
 4179SOL    HW213437   4.396   2.642   7.020
 4180SOL     OW13438   4.053   3.695   0.335
 4180SOL    HW113439   4.050   3.630   0.259
 4180SOL    HW213440   4.143   3.739   0.337
 4181SOL     OW13441   5.789   6.572   5.770
 4181SOL    HW113442   5.702   6.620   5.784
 4181SOL    HW213443   5.855   6.603   5.838
 4182SOL     OW13444   0.778   5.762   5.353
 4182SOL    HW113445   0.834   5.715   5.284
 4182SOL    HW213446   0.713   5.696   5.392
 4183SOL     OW13447   4.499   1.816   0.756
 4183SOL    HW113448   4.487   1.760   0.838
 4183SOL    HW213449   4.585   1.791   0.711
 4184SOL     OW13450   3.599   5.756   3.260
 4184SOL    HW113451   3.652   5.838   3.283
 4184SOL    HW213452   3.546   5.727   3.339
 4185SOL     OW13453   4.817   4.092   3.349
 4185SOL    HW113454   4.745   4.161   3.355
 4185SOL    HW213455   4.817   4.051   3.258
 4186SOL     OW13456   2.118   5.863   0.346
 4186SOL    HW113457   2.030   5.911   0.350
 4186SOL    HW213458   2.169   5.894   0.266
 4187SOL     OW13459   2.417   3.610   5.972
 4187SOL    HW113460   2.373   3.527   6.008
 4187SOL    HW213461   2.348   3.666   5.924
 4188SOL     OW13462   4.524   6.974   6.718
 4188SOL    HW113463   4.458   0.012   6.760
 4188SOL    HW213464   4.482   6.885   6.704
 4189SOL     OW13465   4.505   4.785   3.427
 4189SOL    HW113466   4.500   4.882   3.402
 4189SOL    HW213467   4.546   4.776   3.517
 4190SOL     OW13468   6.030   6.657   1.557
 4190SOL    HW113469   6.060   6.748   1.584
 4190SOL    HW213470   5.943   6.663   1.507
 4191SOL     OW13471   4.347   3.384   6.692
 4191SOL    HW113472   4.439   3.424   6.694
 4191SOL    HW213473   4.280   3.453   6.720
 4192SOL     OW13474   1.516   3.768   6.700
 4192SOL    HW113475   1.578   3.839   6.667
 4192SOL    HW213476   1.545   3.679   6.665
 4193SOL     OW13477   0.362   0.140   0.112
 4193SOL    HW113478   0.327   0.125   0.019
 4193SOL    HW213479   0.286   0.155   0.174
 4194SOL     OW13480   4.725   1.636   5.816
 4194SOL    HW113481   4.652   1.568   5.813
 4194SOL    HW213482   4.753   1.660   5.723
 4195SOL     OW13483   2.990   6.688   0.993
 4195SOL    HW113484   3.060   6.724   0.931
 4195SOL    HW213485   2.909   6.747   0.991
 4196SOL     OW13486   6.516   2.689   2.638
 4196SOL    HW113487   6.522   2.613   2.702
 4196SOL    HW213488   6.601   2.695   2.585
 4197SOL     OW13489   3.316   1.064   0.018
 4197SOL    HW113490   3.350   0.974   0.046
 4197SOL    HW213491   3.218   1.069   0.036
 4198SOL     OW13492   5.982   2.472   1.951
 4198SOL    HW113493   6.039   2.430   1.880
 4198SOL    HW213494   5.886   2.448   1.935
 4199SOL     OW13495   0.132   3.844   6.668
 4199SOL    HW113496   0.195   3.824   6.593
 4199SOL    HW213497   0.047   3.881   6.630
 4200SOL     OW13498   4.739   1.953   4.054
 4200SOL    HW113499   4.688   1.921   4.133
 4200SOL    HW213500   4.832   1.977   4.082
 4201SOL     OW13501   6.211   6.881   4.405
 4201SOL    HW113502   6.218   6.846   4.498
 4201SOL    HW213503   6.219   6.805   4.340
 4202SOL     OW13504   4.526   3.905   1.695
 4202SOL    HW113505   4.592   3.959   1.748
 4202SOL    HW213506   4.434   3.939   1.712
 4203SOL     OW13507   5.899   4.308   5.638
 4203SOL    HW113508   5.862   4.324   5.730
 4203SOL    HW213509   5.847   4.236   5.593
 4204SOL     OW13510   1.870   4.116   6.684
 4204SOL    HW113511   1.797   4.126   6.752
 4204SOL    HW213512   1.853   4.178   6.607
 4205SOL     OW13513   4.364   6.479   6.568
 4205SOL    HW113514   4.434   6.411   6.548
 4205SOL    HW213515   4.289   6.437   6.618
 4206SOL     OW13516   2.186   1.832   4.104
 4206SOL    HW113517   2.223   1.754   4.155
 4206SOL    HW213518   2.087   1.833   4.112
 4207SOL     OW13519   0.680   2.572   3.022
 4207SOL    HW113520   0.595   2.544   2.975
 4207SOL    HW213521   0.720   2.649   2.973
 4208SOL     OW13522   1.856   2.027   3.626
 4208SOL    HW113523   1.776   2.017   3.686
 4208SOL    HW213524   1.832   2.000   3.533
 4209SOL     OW13525   6.893   5.921   2.050
 4209SOL    HW113526   6.969   5.983   2.028
 4209SOL    HW213527   6.807   5.970   2.040
 4210SOL     OW13528   2.942   4.318   5.337
 4210SOL    HW113529   2.929   4.398   5.278
 4210SOL    HW213530   2.867   4.253   5.321
 4211SOL     OW13531   3.752   2.664   5.474
 4211SOL    HW113532   3.779   2.756   5.447
 4211SOL    HW213533   3.829   2.602   5.462
 4212SOL     OW13534   6.971   2.109   2.772
 4212SOL    HW113535   6.917   2.142   2.695
 4212SOL    HW213536   6.922   2.124   2.857
 4213SOL     OW13537   3.738   0.196   3.796
 4213SOL    HW113538   3.666   0.134   3.764
 4213SOL    HW213539   3.738   0.279   3.740
 4214SOL     OW13540   6.804   5.633   3.209
 4214SOL    HW113541   6.801   5.733   3.196
 4214SOL    HW213542   6.752   5.589   3.137
 4215SOL     OW13543   6.085   0.006   5.725
 4215SOL    HW113544   6.090   0.081   5.658
 4215SOL    HW213545   6.119   6.947   5.684
 4216SOL     OW13546   2.769   5.299   2.046
 4216SOL    HW113547   2.700   5.305   1.974
 4216SOL    HW213548   2.850   5.253   2.011
 4217SOL     OW13549   1.233   0.219   3.032
 4217SOL    HW113550   1.213   0.224   3.130
 4217SOL    HW213551   1.268   0.128   3.010
 4218SOL     OW13552   2.487   0.935   1.483
 4218SOL    HW113553   2.426   0.856   1.470
 4218SOL    HW213554   2.567   0.907   1.535
 4219SOL     OW13555   3.705   5.229   2.995
 4219SOL    HW113556   3.608   5.249   2.982
 4219SOL    HW213557   3.757   5.315   2.994
 4220SOL     OW13558   5.680   1.646   1.190
 4220SOL    HW113559   5.639   1.693   1.111
 4220SOL    HW213560   5.734   1.712   1.242
 4221SOL     OW13561   0.721   6.089   0.879
 4221SOL    HW113562   0.770   6.076   0.793
 4221SOL    HW213563   0.774   6.048   0.953
 4222SOL     OW13564   4.910   3.489   4.240
 4222SOL    HW113565   4.875   3.578   4.208
 4222SOL    HW213566   4.920   3.491   4.339
 4223SOL     OW13567   3.450   3.798   2.967
 4223SOL    HW113568   3.391   3.792   2.886
 4223SOL    HW213569   3.525   3.861   2.949
 4224SOL     OW13570   4.795   4.777   4.561
 4224SOL    HW113571   4.760   4.719   4.488
 4224SOL    HW213572   4.872   4.831   4.528
 4225SOL     OW13573   1.187   1.712   5.937
 4225SOL    HW113574   1.106   1.766   5.961
 4225SOL    HW213575   1.207   1.723   5.840
 4226SOL     OW13576   0.453   5.349   5.036
 4226SOL    HW113577   0.480   5.278   5.101
 4226SOL    HW213578   0.509   5.430   5.051
 4227SOL     OW13579   5.178   5.286   2.060
 4227SOL    HW113580   5.084   5.261   2.083
 4227SOL    HW213581   5.237   5.206   2.068
 4228SOL     OW13582   1.507   4.603   4.300
 4228SOL    HW113583   1.568   4.646   4.232
 4228SOL    HW213584   1.538   4.510   4.318
 4229SOL     OW13585   5.273   5.526   5.316
 4229SOL    HW113586   5.283   5.580   5.400
 4229SOL    HW213587   5.342   5.454   5.315
 4230SOL     OW13588   6.905   1.126   1.769
 4230SOL    HW113589   6.947   1.195   1.827
 4230SOL    HW213590   6.823   1.090   1.813
 4231SOL     OW13591   0.165   1.644   6.198
 4231SOL    HW113592   0.214   1.703   6.262
 4231SOL    HW213593   0.212   1.557   6.190
 4232SOL     OW13594   1.614   4.816   4.114
 4232SOL    HW113595   1.656   4.837   4.202
 4232SOL    HW213596   1.558   4.893   4.084
 4233SOL     OW13597   5.045   5.456   2.377
 4233SOL    HW113598   5.113   5.386   2.402
 4233SOL    HW213599   4.971   5.457   2.444
 4234SOL     OW13600   3.916   5.096   5.539
 4234SOL    HW113601   3.887   5.094   5.444
 4234SOL    HW213602   4.015   5.113   5.544
 4235SOL     OW13603   6.989   5.932   6.004
 4235SOL    HW113604   0.039   5.978   5.957
 4235SOL    HW213605   6.943   5.996   6.065
 4236SOL     OW13606   0.678   5.552   3.207
 4236SOL    HW113607   0.709   5.593   3.292
 4236SOL    HW213608   0.627   5.468   3.227
 4237SOL     OW13609   0.242   4.606   4.245
 4237SOL    HW113610   0.198   4.517   4.256
 4237SOL    HW213611   0.233   4.636   4.150
 4238SOL     OW13612   3.471   6.386   2.049
 4238SOL    HW113613   3.564   6.386   2.012
 4238SOL    HW213614   3.475   6.384   2.149
 4239SOL     OW13615   4.415   1.659   3.956
 4239SOL    HW113616   4.358   1.739   3.936
 4239SOL    HW213617   4.474   1.641   3.877
 4240SOL     OW13618   5.744   6.574   1.679
 4240SOL    HW113619   5.764   6.488   1.633
 4240SOL    HW213620   5.796   6.580   1.764
 4241SOL     OW13621   6.650   4.248   0.397
 4241SOL    HW113622   6.642   4.164   0.451
 4241SOL    HW213623   6.571   4.256   0.337
 4242SOL     OW13624   3.066   2.192   3.129
 4242SOL    HW113625   2.995   2.249   3.171
 4242SOL    HW213626   3.132   2.164   3.198
 4243SOL     OW13627   4.624   1.601   2.965
 4243SOL    HW113628   4.538   1.638   3.002
 4243SOL    HW213629   4.605   1.551   2.881
 4244SOL     OW13630   3.453   2.860   4.929
 4244SOL    HW113631   3.547   2.862   4.894
 4244SOL    HW213632   3.392   2.822   4.859
 4245SOL     OW13633   5.949   0.347   0.062
 4245SOL    HW113634   5.884   0.312   7.020
 4245SOL    HW213635   5.904   0.416   0.119
 4246SOL     OW13636   0.076   3.861   0.160
 4246SOL    HW113637   0.136   3.936   0.186
 4246SOL    HW213638   0.123   3.802   0.094
 4247SOL     OW13639   0.605   5.599   5.060
 4247SOL    HW113640   0.557   5.646   5.134
 4247SOL    HW213641   0.684   5.550   5.098
 4248SOL     OW13642   2.082   4.163   5.905
 4248SOL    HW113643   1.993   4.207   5.898
 4248SOL    HW213644   2.141   4.217   5.966
 4249SOL     OW13645   5.279   4.375   5.436
 4249SOL    HW113646   5.305   4.456   5.488
 4249SOL    HW213647   5.288   4.294   5.493
 4250SOL     OW13648   1.469   4.716   3.320
 4250SOL    HW113649   1.459   4.618   3.303
 4250SOL    HW213650   1.550   4.749   3.271
 4251SOL     OW13651   5.188   4.254   0.340
 4251SOL    HW113652   5.144   4.342   0.325
 4251SOL    HW213653   5.223   4.250   0.434
 4252SOL     OW13654   0.233   5.456   5.583
 4252SOL    HW113655   0.314   5.412   5.545
 4252SOL    HW213656   0.151   5.418   5.539
 4253SOL     OW13657   3.950   6.482   3.041
 4253SOL    HW113658   3.875   6.548   3.043
 4253SOL    HW213659   3.993   6.483   2.951
 4254SOL     OW13660   3.130   4.132   1.680
 4254SOL    HW113661   3.078   4.087   1.608
 4254SOL    HW213662   3.094   4.107   1.770
 4255SOL     OW13663   0.848   2.503   4.580
 4255SOL    HW113664   0.763   2.483   4.628
 4255SOL    HW213665   0.833   2.572   4.510
 4256SOL     OW13666   2.068   0.960   1.769
 4256SOL    HW113667   2.129   0.963   1.848
 4256SOL    HW213668   2.096   1.029   1.703
 4257SOL     OW13669   4.100   2.201   4.860
 4257SOL    HW113670   4.130   2.267   4.929
 4257SOL    HW213671   4.125   2.108   4.889
 4258SOL     OW13672   5.204   6.375   2.696
 4258SOL    HW113673   5.236   6.459   2.740
 4258SOL    HW213674   5.249   6.296   2.737
 4259SOL     OW13675   1.511   2.866   0.660
 4259SOL    HW113676   1.455   2.946   0.679
 4259SOL    HW213677   1.576   2.851   0.735
 4260SOL     OW13678   4.049   5.759   3.462
 4260SOL    HW113679   4.006   5.837   3.508
 4260SOL    HW213680   4.060   5.779   3.365
 4261SOL     OW13681   1.742   1.141   2.896
 4261SOL    HW113682   1.771   1.204   2.968
 4261SOL    HW213683   1.736   1.191   2.809
 4262SOL     OW13684   0.177   6.321   6.256
 4262SOL    HW113685   0.115   6.242   6.256
 4262SOL    HW213686   0.240   6.313   6.179
 4263SOL     OW13687   4.033   5.243   6.477
 4263SOL    HW113688   4.065   5.326   6.432
 4263SOL    HW213689   3.963   5.200   6.421
 4264SOL     OW13690   0.146   0.412   0.826
 4264SOL    HW113691   0.168   0.323   0.786
 4264SOL    HW213692   0.187   0.485   0.770
 4265SOL     OW13693   1.007   2.969   0.118
 4265SOL    HW113694   0.907   2.977   0.119
 4265SOL    HW213695   1.032   2.876   0.145
 4266SOL     OW13696   3.333   4.410   1.326
 4266SOL    HW113697   3.254   4.460   1.362
 4266SOL    HW213698   3.370   4.351   1.398
 4267SOL     OW13699   2.098   4.383   6.183
 4267SOL    HW113700   2.014   4.398   6.131
 4267SOL    HW213701   2.164   4.455   6.160
 4268SOL     OW13702   1.841   0.631   0.454
 4268SOL    HW113703   1.893   0.697   0.509
 4268SOL    HW213704   1.789   0.571   0.514
 4269SOL     OW13705   2.797   3.776   0.742
 4269SOL    HW113706   2.762   3.792   0.650
 4269SOL    HW213707   2.768   3.685   0.773
 4270SOL     OW13708   4.123   2.821   5.999
 4270SOL    HW113709   4.147   2.912   6.033
 4270SOL    HW213710   4.028   2.819   5.970
 4271SOL     OW13711   1.105   0.277   0.482
 4271SOL    HW113712   1.198   0.265   0.448
 4271SOL    HW213713   1.107   0.327   0.568
 4272SOL     OW13714   0.176   4.263   3.603
 4272SOL    HW113715   0.204   4.254   3.698
 4272SOL    HW213716   0.190   4.357   3.572
 4273SOL     OW13717   5.606   6.036   4.641
 4273SOL    HW113718   5.636   6.099   4.711
 4273SOL    HW213719   5.616   6.078   4.551
 4274SOL     OW13720   2.057   0.342   4.111
 4274SOL    HW113721   2.061   0.246   4.085
 4274SOL    HW213722   2.034   0.397   4.031
 4275SOL     OW13723   1.610   6.847   6.459
 4275SOL    HW113724   1.652   6.859   6.369
 4275SOL    HW213725   1.627   6.928   6.515
 4276SOL     OW13726   2.064   4.460   2.635
 4276SOL    HW113727   2.096   4.462   2.730
 4276SOL    HW213728   2.140   4.480   2.574
 4277SOL     OW13729   0.661   5.436   4.806
 4277SOL    HW113730   0.729   5.381   4.855
 4277SOL    HW213731   0.587   5.377   4.775
 4278SOL     OW13732   0.928   6.501   5.722
 4278SOL    HW113733   0.875   6.456   5.650
 4278SOL    HW213734   0.926   6.600   5.707
 4279SOL     OW13735   2.936   5.720   4.287
 4279SOL    HW113736   2.884   5.687   4.208
 4279SOL    HW213737   2.884   5.703   4.370
 4280SOL     OW13738   4.859   3.381   3.772
 4280SOL    HW113739   4.944   3.361   3.723
 4280SOL    HW213740   4.785   3.392   3.706
 4281SOL     OW13741   2.616   3.864   5.369
 4281SOL    HW113742   2.615   3.857   5.469
 4281SOL    HW213743   2.529   3.900   5.337
 4282SOL     OW13744   0.864   3.355   1.076
 4282SOL    HW113745   0.962   3.370   1.092
 4282SOL    HW213746   0.828   3.429   1.019
 4283SOL     OW13747   2.199   0.582   3.887
 4283SOL    HW113748   2.277   0.546   3.938
 4283SOL    HW213749   2.178   0.675   3.918
 4284SOL     OW13750   6.246   1.753   3.240
 4284SOL    HW113751   6.211   1.693   3.168
 4284SOL    HW213752   6.192   1.837   3.243
 4285SOL     OW13753   0.812   6.470   4.918
 4285SOL    HW113754   0.754   6.507   4.845
 4285SOL    HW213755   0.908   6.472   4.888
 4286SOL     OW13756   5.694   5.752   0.011
 4286SOL    HW113757   5.656   5.788   6.951
 4286SOL    HW213758   5.634   5.680   0.046
 4287SOL     OW13759   3.960   6.263   5.032
 4287SOL    HW113760   3.981   6.351   5.074
 4287SOL    HW213761   3.905   6.276   4.950
 4288SOL     OW13762   1.551   6.449   2.967
 4288SOL    HW113763   1.585   6.520   3.028
 4288SOL    HW213764   1.627   6.393   2.935
 4289SOL     OW13765   5.994   3.612   0.806
 4289SOL    HW113766   6.086   3.573   0.813
 4289SOL    HW213767   5.938   3.554   0.747
 4290SOL     OW13768   2.368   1.188   2.506
 4290SOL    HW113769   2.343   1.119   2.573
 4290SOL    HW213770   2.422   1.260   2.550
 4291SOL     OW13771   6.540   4.502   1.210
 4291SOL    HW113772   6.548   4.522   1.308
 4291SOL    HW213773   6.543   4.588   1.158
 4292SOL     OW13774   5.893   6.020   6.050
 4292SOL    HW113775   5.937   6.073   6.123
 4292SOL    HW213776   5.959   5.958   6.009
 4293SOL     OW13777   0.276   2.447   6.344
 4293SOL    HW113778   0.307   2.508   6.417
 4293SOL    HW213779   0.305   2.354   6.364
 4294SOL     OW13780   4.997   2.147   6.150
 4294SOL    HW113781   4.964   2.241   6.163
 4294SOL    HW213782   5.093   2.148   6.124
 4295SOL     OW13783   3.825   6.260   4.797
 4295SOL    HW113784   3.770   6.181   4.771
 4295SOL    HW213785   3.765   6.340   4.805
 4296SOL     OW13786   2.494   1.071   1.985
 4296SOL    HW113787   2.398   1.053   1.963
 4296SOL    HW213788   2.552   1.034   1.913
 4297SOL     OW13789   5.728   0.863   6.739
 4297SOL    HW113790   5.635   0.845   6.707
 4297SOL    HW213791   5.763   0.946   6.696
 4298SOL     OW13792   2.899   5.078   1.373
 4298SOL    HW113793   2.846   5.147   1.422
 4298SOL    HW213794   2.994   5.108   1.366
 4299SOL     OW13795   1.165   4.330   6.282
 4299SOL    HW113796   1.199   4.403   6.341
 4299SOL    HW213797   1.242   4.285   6.237
 4300SOL     OW13798   5.779   0.251   6.192
 4300SOL    HW113799   5.749   0.157   6.203
 4300SOL    HW213800   5.859   0.267   6.250
 4301SOL     OW13801   2.711   1.425   0.434
 4301SOL    HW113802   2.622   1.464   0.414
 4301SOL    HW213803   2.780   1.469   0.377
 4302SOL     OW13804   1.121   6.736   6.689
 4302SOL    HW113805   1.196   6.748   6.753
 4302SOL    HW213806   1.040   6.704   6.738
 4303SOL     OW13807   0.047   3.998   1.805
 4303SOL    HW113808   0.112   4.057   1.755
 4303SOL    HW213809   0.008   3.931   1.742
 4304SOL     OW13810   3.544   2.805   5.183
 4304SOL    HW113811   3.613   2.877   5.195
 4304SOL    HW213812   3.505   2.812   5.091
 4305SOL     OW13813   6.240   1.246   5.078
 4305SOL    HW113814   6.267   1.176   5.144
 4305SOL    HW213815   6.142   1.264   5.086
 4306SOL     OW13816   6.300   6.195   6.785
 4306SOL    HW113817   6.389   6.185   6.740
 4306SOL    HW213818   6.269   6.290   6.776
 4307SOL     OW13819   5.083   3.663   6.933
 4307SOL    HW113820   5.065   3.752   6.891
 4307SOL    HW213821   5.130   3.604   6.868
 4308SOL     OW13822   4.573   6.722   5.063
 4308SOL    HW113823   4.604   6.724   5.158
 4308SOL    HW213824   4.611   6.640   5.018
 4309SOL     OW13825   1.345   1.008   0.911
 4309SOL    HW113826   1.265   1.067   0.919
 4309SOL    HW213827   1.401   1.015   0.994
 4310SOL     OW13828   1.375   0.831   2.705
 4310SOL    HW113829   1.340   0.800   2.617
 4310SOL    HW213830   1.326   0.914   2.733
 4311SOL     OW13831   1.505   5.906   4.392
 4311SOL    HW113832   1.542   5.813   4.396
 4311SOL    HW213833   1.467   5.923   4.301
 4312SOL     OW13834   1.402   5.121   1.495
 4312SOL    HW113835   1.310   5.099   1.527
 4312SOL    HW213836   1.469   5.067   1.545
 4313SOL     OW13837   5.030   0.346   1.823
 4313SOL    HW113838   4.931   0.359   1.815
 4313SOL    HW213839   5.070   0.424   1.870
 4314SOL     OW13840   5.513   3.397   3.035
 4314SOL    HW113841   5.415   3.381   3.046
 4314SOL    HW213842   5.563   3.347   3.105
 4315SOL     OW13843   2.142   1.767   1.972
 4315SOL    HW113844   2.067   1.814   1.925
 4315SOL    HW213845   2.163   1.814   2.057
 4316SOL     OW13846   0.347   0.675   2.378
 4316SOL    HW113847   0.415   0.605   2.355
 4316SOL    HW213848   0.270   0.668   2.314
 4317SOL     OW13849   4.073   0.397   3.563
 4317SOL    HW113850   4.091   0.488   3.602
 4317SOL    HW213851   4.136   0.380   3.487
 4318SOL     OW13852   0.031   3.125   4.165
 4318SOL    HW113853   0.056   3.125   4.068
 4318SOL    HW213854   0.086   3.057   4.213
 4319SOL     OW13855   2.503   3.366   5.743
 4319SOL    HW113856   2.575   3.301   5.766
 4319SOL    HW213857   2.538   3.435   5.680
 4320SOL     OW13858   0.756   6.122   2.961
 4320SOL    HW113859   0.832   6.163   3.013
 4320SOL    HW213860   0.707   6.195   2.913
 4321SOL     OW13861   0.564   0.851   4.950
 4321SOL    HW113862   0.487   0.802   4.909
 4321SOL    HW213863   0.537   0.887   5.039
 4322SOL     OW13864   5.640   1.212   0.586
 4322SOL    HW113865   5.600   1.132   0.630
 4322SOL    HW213866   5.617   1.294   0.638
 4323SOL     OW13867   6.662   2.259   3.574
 4323SOL    HW113868   6.709   2.312   3.646
 4323SOL    HW213869   6.655   2.315   3.491
 4324SOL     OW13870   6.112   3.323   6.007
 4324SOL    HW113871   6.094   3.257   5.935
 4324SOL    HW213872   6.026   3.365   6.037
 4325SOL     OW13873   1.785   1.774   5.420
 4325SOL    HW113874   1.717   1.788   5.348
 4325SOL    HW213875   1.833   1.688   5.405
 4326SOL     OW13876   5.949   2.090   5.835
 4326SOL    HW113877   5.897   2.171   5.807
 4326SOL    HW213878   6.029   2.119   5.889
 4327SOL     OW13879   5.337   0.309   3.501
 4327SOL    HW113880   5.324   0.395   3.550
 4327SOL    HW213881   5.427   0.309   3.457
 4328SOL     OW13882   5.487   5.150   0.653
 4328SOL    HW113883   5.517   5.061   0.619
 4328SOL    HW213884   5.388   5.155   0.653
 4329SOL     OW13885   4.026   1.605   6.174
 4329SOL    HW113886   4.026   1.584   6.272
 4329SOL    HW213887   3.934   1.633   6.147
 4330SOL     OW13888   1.003   0.324   6.334
 4330SOL    HW113889   1.058   0.384   6.277
 4330SOL    HW213890   1.000   0.359   6.428
 4331SOL     OW13891   5.451   2.699   0.846
 4331SOL    HW113892   5.474   2.602   0.843
 4331SOL    HW213893   5.378   2.713   0.913
 4332SOL     OW13894   5.229   3.560   1.619
 4332SOL    HW113895   5.201   3.655   1.633
 4332SOL    HW213896   5.160   3.512   1.564
 4333SOL     OW13897   5.222   1.765   5.624
 4333SOL    HW113898   5.210   1.675   5.668
 4333SOL    HW213899   5.302   1.762   5.564
 4334SOL     OW13900   4.741   0.283   1.813
 4334SOL    HW113901   4.661   0.312   1.866
 4334SOL    HW213902   4.763   0.188   1.836
 4335SOL     OW13903   3.361   4.124   5.780
 4335SOL    HW113904   3.274   4.075   5.782
 4335SOL    HW213905   3.349   4.215   5.820
 4336SOL     OW13906   1.575   6.584   4.605
 4336SOL    HW113907   1.586   6.579   4.704
 4336SOL    HW213908   1.647   6.530   4.561
 4337SOL     OW13909   0.805   5.081   0.392
 4337SOL    HW113910   0.844   5.089   0.300
 4337SOL    HW213911   0.855   5.142   0.454
 4338SOL     OW13912   6.556   6.234   3.767
 4338SOL    HW113913   6.654   6.239   3.746
 4338SOL    HW213914   6.503   6.255   3.685
 4339SOL     OW13915   6.223   1.046   6.536
 4339SOL    HW113916   6.295   1.069   6.601
 4339SOL    HW213917   6.173   1.129   6.511
 4340SOL     OW13918   4.907   3.214   2.136
 4340SOL    HW113919   4.998   3.174   2.131
 4340SOL    HW213920   4.839   3.146   2.107
 4341SOL     OW13921   0.848   3.685   0.340
 4341SOL    HW113922   0.906   3.728   0.271
 4341SOL    HW213923   0.822   3.593   0.309
 4342SOL     OW13924   6.869   2.661   2.761
 4342SOL    HW113925   6.929   2.587   2.791
 4342SOL    HW213926   6.809   2.688   2.836
 4343SOL     OW13927   2.264   1.426   1.637
 4343SOL    HW113928   2.297   1.403   1.728
 4343SOL    HW213929   2.341   1.428   1.573
 4344SOL     OW13930   2.154   3.735   3.291
 4344SOL    HW113931   2.193   3.815   3.247
 4344SOL    HW213932   2.087   3.693   3.230
 4345SOL     OW13933   2.403   1.501   5.898
 4345SOL    HW113934   2.331   1.442   5.864
 4345SOL    HW213935   2.381   1.530   5.992
 4346SOL     OW13936   0.457   2.818   1.638
 4346SOL    HW113937   0.502   2.892   1.588
 4346SOL    HW213938   0.520   2.783   1.709
 4347SOL     OW13939   5.995   6.002   2.521
 4347SOL    HW113940   6.019   6.077   2.582
 4347SOL    HW213941   6.067   5.933   2.522
 4348SOL     OW13942   1.101   3.908   6.936
 4348SOL    HW113943   1.111   3.958   7.022
 4348SOL    HW213944   1.182   3.851   6.920
 4349SOL     OW13945   0.088   0.341   2.785
 4349SOL    HW113946   0.150   0.262   2.778
 4349SOL    HW213947   7.020   0.312   2.764
 4350SOL     OW13948   4.991   1.265   3.622
 4350SOL    HW113949   5.086   1.287   3.644
 4350SOL    HW213950   4.932   1.290   3.698
 4351SOL     OW13951   2.905   6.087   0.554
 4351SOL    HW113952   2.913   6.009   0.492
 4351SOL    HW213953   2.827   6.143   0.527
 4352SOL     OW13954   6.156   1.736   2.384
 4352SOL    HW113955   6.087   1.677   2.426
 4352SOL    HW213956   6.182   1.699   2.295
 4353SOL     OW13957   2.955   5.505   1.084
 4353SOL    HW113958   2.959   5.475   0.989
 4353SOL    HW213959   2.883   5.454   1.132
 4354SOL     OW13960   1.868   0.636   1.022
 4354SOL    HW113961   1.968   0.641   1.025
 4354SOL    HW213962   1.836   0.567   1.086
 4355SOL     OW13963   4.577   0.988   0.881
 4355SOL    HW113964   4.534   1.064   0.930
 4355SOL    HW213965   4.632   0.935   0.945
 4356SOL     OW13966   3.656   4.405   0.223
 4356SOL    HW113967   3.650   4.390   0.124
 4356SOL    HW213968   3.748   4.435   0.246
 4357SOL     OW13969   6.494   0.732   6.533
 4357SOL    HW113970   6.442   0.653   6.500
 4357SOL    HW213971   6.486   0.807   6.467
 4358SOL     OW13972   6.726   0.940   1.856
 4358SOL    HW113973   6.771   0.884   1.925
 4358SOL    HW213974   6.746   0.904   1.765
 4359SOL     OW13975   6.671   2.590   4.325
 4359SOL    HW113976   6.600   2.631   4.269
 4359SOL    HW213977   6.729   2.532   4.269
 4360SOL     OW13978   2.210   3.252   1.256
 4360SOL    HW113979   2.122   3.296   1.275
 4360SOL    HW213980   2.223   3.246   1.157
 4361SOL     OW13981   5.495   1.785   1.937
 4361SOL    HW113982   5.532   1.793   2.029
 4361SOL    HW213983   5.556   1.727   1.882
 4362SOL     OW13984   5.521   4.207   3.245
 4362SOL    HW113985   5.615   4.239   3.228
 4362SOL    HW213986   5.523   4.136   3.316
 4363SOL     OW13987   4.764   1.172   5.965
 4363SOL    HW113988   4.742   1.203   5.873
 4363SOL    HW213989   4.766   1.072   5.967
 4364SOL     OW13990   3.481   3.624   5.147
 4364SOL    HW113991   3.504   3.582   5.059
 4364SOL    HW213992   3.534   3.580   5.220
 4365SOL     OW13993   3.154   1.463   1.304
 4365SOL    HW113994   3.162   1.435   1.400
 4365SOL    HW213995   3.079   1.529   1.295
 4366SOL     OW13996   5.055   5.098   1.088
 4366SOL    HW113997   5.018   5.141   1.169
 4366SOL    HW213998   5.143   5.139   1.065
 4367SOL     OW13999   0.395   6.366   0.555
 4367SOL    HW114000   0.476   6.424   0.549
 4367SOL    HW214001   0.411   6.281   0.504
 4368SOL     OW14002   4.969   3.739   2.016
 4368SOL    HW114003   5.003   3.742   2.110
 4368SOL    HW214004   4.949   3.645   1.991
 4369SOL     OW14005   3.541   5.658   2.050
 4369SOL    HW114006   3.624   5.670   1.995
 4369SOL    HW214007   3.526   5.561   2.068
 4370SOL     OW14008   5.566   4.676   2.620
 4370SOL    HW114009   5.606   4.591   2.653
 4370SOL    HW214010   5.638   4.736   2.586
 4371SOL     OW14011   0.125   2.112   1.981
 4371SOL    HW114012   0.058   2.158   2.040
 4371SOL    HW214013   0.192   2.065   2.038
 4372SOL     OW14014   4.581   0.360   3.382
 4372SOL    HW114015   4.639   0.279   3.382
 4372SOL    HW214016   4.611   0.424   3.311
 4373SOL     OW14017   6.611   1.858   6.223
 4373SOL    HW114018   6.544   1.790   6.255
 4373SOL    HW214019   6.672   1.882   6.298
 4374SOL     OW14020   3.410   1.934   1.221
 4374SOL    HW114021   3.360   1.920   1.135
 4374SOL    HW214022   3.382   1.865   1.287
 4375SOL     OW14023   3.612   6.618   3.740
 4375SOL    HW114024   3.694   6.596   3.793
 4375SOL    HW214025   3.606   6.717   3.727
 4376SOL     OW14026   6.389   2.158   4.300
 4376SOL    HW114027   6.353   2.094   4.231
 4376SOL    HW214028   6.313   2.196   4.353
 4377SOL     OW14029   6.228   5.368   6.598
 4377SOL    HW114030   6.218   5.268   6.596
 4377SOL    HW214031   6.205   5.401   6.689
 4378SOL     OW14032   2.362   1.483   3.677
 4378SOL    HW114033   2.366   1.442   3.586
 4378SOL    HW214034   2.454   1.495   3.713
 4379SOL     OW14035   2.991   1.878   5.464
 4379SOL    HW114036   2.959   1.913   5.376
 4379SOL    HW214037   3.033   1.789   5.450
 4380SOL     OW14038   0.493   1.752   2.424
 4380SOL    HW114039   0.498   1.712   2.516
 4380SOL    HW214040   0.436   1.835   2.428
 4381SOL     OW14041   1.826   6.045   6.556
 4381SOL    HW114042   1.760   5.972   6.571
 4381SOL    HW214043   1.781   6.122   6.510
 4382SOL     OW14044   0.398   4.387   4.759
 4382SOL    HW114045   0.444   4.344   4.682
 4382SOL    HW214046   0.305   4.351   4.767
 4383SOL     OW14047   6.448   3.790   6.850
 4383SOL    HW114048   6.489   3.807   6.760
 4383SOL    HW214049   6.494   3.713   6.893
 4384SOL     OW14050   5.632   6.738   3.617
 4384SOL    HW114051   5.679   6.825   3.632
 4384SOL    HW214052   5.569   6.747   3.540
 4385SOL     OW14053   4.545   1.652   5.500
 4385SOL    HW114054   4.643   1.646   5.482
 4385SOL    HW214055   4.509   1.561   5.521
 4386SOL     OW14056   1.897   3.891   5.252
 4386SOL    HW114057   1.971   3.958   5.241
 4386SOL    HW214058   1.864   3.893   5.346
 4387SOL     OW14059   6.054   2.084   0.791
 4387SOL    HW114060   6.000   2.046   0.716
 4387SOL    HW214061   6.133   2.133   0.755
 4388SOL     OW14062   4.823   3.895   6.778
 4388SOL    HW114063   4.764   3.951   6.720
 4388SOL    HW214064   4.829   3.803   6.740
 4389SOL     OW14065   0.892   3.052   0.579
 4389SOL    HW114066   0.942   3.060   0.493
 4389SOL    HW214067   0.795   3.071   0.563
 4390SOL     OW14068   0.000   1.368   0.615
 4390SOL    HW114069   0.043   1.345   0.702
 4390SOL    HW214070   6.958   1.298   0.591
 4391SOL     OW14071   1.516   5.833   0.838
 4391SOL    HW114072   1.541   5.850   0.934
 4391SOL    HW214073   1.571   5.758   0.802
 4392SOL     OW14074   1.288   3.317   5.409
 4392SOL    HW114075   1.347   3.242   5.439
 4392SOL    HW214076   1.201   3.312   5.459
 4393SOL     OW14077   5.081   0.655   1.851
 4393SOL    HW114078   5.061   0.753   1.847
 4393SOL    HW214079   5.150   0.638   1.922
 4394SOL     OW14080   1.114   0.393   2.463
 4394SOL    HW114081   1.093   0.306   2.508
 4394SOL    HW214082   1.038   0.456   2.475
 4395SOL     OW14083   2.245   4.578   1.744
 4395SOL    HW114084   2.249   4.654   1.809
 4395SOL    HW214085   2.301   4.503   1.778
 4396SOL     OW14086   2.965   1.225   2.641
 4396SOL    HW114087   2.940   1.277   2.559
 4396SOL    HW214088   3.061   1.241   2.663
 4397SOL     OW14089   3.274   1.860   4.446
 4397SOL    HW114090   3.251   1.951   4.481
 4397SOL    HW214091   3.318   1.807   4.519
 4398SOL     OW14092   1.787   3.173   5.286
 4398SOL    HW114093   1.776   3.110   5.210
 4398SOL    HW214094   1.723   3.249   5.275
 4399SOL     OW14095   2.604   6.363   2.065
 4399SOL    HW114096   2.632   6.316   1.981
 4399SOL    HW214097   2.514   6.404   2.052
 4400SOL     OW14098   1.943   5.637   4.534
 4400SOL    HW114099   1.939   5.538   4.553
 4400SOL    HW214100   1.894   5.686   4.606
 4401SOL     OW14101   3.399   6.430   6.685
 4401SOL    HW114102   3.320   6.396   6.735
 4401SOL    HW214103   3.425   6.520   6.721
 4402SOL     OW14104   1.647   0.422   2.914
 4402SOL    HW114105   1.650   0.489   2.988
 4402SOL    HW214106   1.571   0.444   2.852
 4403SOL     OW14107   0.680   5.012   1.802
 4403SOL    HW114108   0.774   5.014   1.835
 4403SOL    HW214109   0.642   5.104   1.804
 4404SOL     OW14110   6.838   6.615   6.382
 4404SOL    HW114111   6.934   6.601   6.407
 4404SOL    HW214112   6.807   6.539   6.325
 4405SOL     OW14113   1.882   5.625   2.274
 4405SOL    HW114114   1.906   5.681   2.354
 4405SOL    HW214115   1.956   5.559   2.256
 4406SOL     OW14116   5.634   4.024   2.218
 4406SOL    HW114117   5.711   3.988   2.271
 4406SOL    HW214118   5.589   3.949   2.169
 4407SOL     OW14119   6.039   6.826   1.228
 4407SOL    HW114120   6.136   6.841   1.215
 4407SOL    HW214121   6.024   6.734   1.266
 4408SOL     OW14122   4.028   0.995   0.054
 4408SOL    HW114123   3.972   1.058   0.000
 4408SOL    HW214124   3.968   0.941   0.114
 4409SOL     OW14125   3.049   0.588   3.439
 4409SOL    HW114126   3.074   0.494   3.415
 4409SOL    HW214127   2.978   0.586   3.510
 4410SOL     OW14128   0.149   6.809   0.754
 4410SOL    HW114129   0.071   6.872   0.752
 4410SOL    HW214130   0.118   6.715   0.741
 4411SOL     OW14131   4.016   4.593   5.269
 4411SOL    HW114132   4.105   4.566   5.234
 4411SOL    HW214133   3.973   4.516   5.316
 4412SOL     OW14134   4.443   6.358   1.714
 4412SOL    HW114135   4.474   6.360   1.809
 4412SOL    HW214136   4.406   6.267   1.693
 4413SOL     OW14137   4.790   5.776   4.055
 4413SOL    HW114138   4.791   5.794   3.957
 4413SOL    HW214139   4.697   5.758   4.085
 4414SOL     OW14140   5.333   4.006   1.679
 4414SOL    HW114141   5.269   3.930   1.678
 4414SOL    HW214142   5.389   4.002   1.762
 4415SOL     OW14143   1.742   3.165   2.059
 4415SOL    HW114144   1.729   3.168   1.960
 4415SOL    HW214145   1.783   3.077   2.085
 4416SOL     OW14146   5.094   2.506   3.325
 4416SOL    HW114147   5.026   2.463   3.383
 4416SOL    HW214148   5.058   2.514   3.232
 4417SOL     OW14149   6.790   4.028   2.214
 4417SOL    HW114150   6.821   4.095   2.147
 4417SOL    HW214151   6.718   4.068   2.270
 4418SOL     OW14152   6.518   6.812   5.607
 4418SOL    HW114153   6.576   6.731   5.604
 4418SOL    HW214154   6.494   6.839   5.514
 4419SOL     OW14155   6.492   5.611   6.839
 4419SOL    HW114156   6.508   5.579   6.746
 4419SOL    HW214157   6.507   5.709   6.844
 4420SOL     OW14158   3.667   1.952   0.915
 4420SOL    HW114159   3.691   1.963   1.011
 4420SOL    HW214160   3.624   2.036   0.881
 4421SOL     OW14161   1.770   2.846   7.012
 4421SOL    HW114162   1.860   2.889   7.001
 4421SOL    HW214163   1.779   2.747   7.003
 4422SOL     OW14164   6.705   3.342   6.370
 4422SOL    HW114165   6.683   3.426   6.420
 4422SOL    HW214166   6.712   3.362   6.272
 4423SOL     OW14167   6.432   4.373   5.229
 4423SOL    HW114168   6.526   4.339   5.235
 4423SOL    HW214169   6.399   4.396   5.320
 4424SOL     OW14170   4.879   5.768   2.447
 4424SOL    HW114171   4.872   5.696   2.515
 4424SOL    HW214172   4.822   5.846   2.473
 4425SOL     OW14173   1.201   5.375   1.376
 4425SOL    HW114174   1.167   5.340   1.463
 4425SOL    HW214175   1.187   5.474   1.371
 4426SOL     OW14176   0.307   0.675   4.503
 4426SOL    HW114177   0.289   0.765   4.545
 4426SOL    HW214178   0.236   0.655   4.436
 4427SOL     OW14179   2.422   5.673   1.999
 4427SOL    HW114180   2.333   5.655   1.957
 4427SOL    HW214181   2.424   5.634   2.091
 4428SOL     OW14182   5.749   5.715   3.376
 4428SOL    HW114183   5.681   5.724   3.304
 4428SOL    HW214184   5.746   5.622   3.412
 4429SOL     OW14185   2.917   6.035   3.443
 4429SOL    HW114186   2.820   6.055   3.443
 4429SOL    HW214187   2.952   6.038   3.349
 4430SOL     OW14188   5.813   4.085   5.499
 4430SOL    HW114189   5.747   4.017   5.531
 4430SOL    HW214190   5.767   4.150   5.439
 4431SOL     OW14191   4.106   6.565   4.512
 4431SOL    HW114192   4.193   6.519   4.526
 4431SOL    HW214193   4.047   6.508   4.454
 4432SOL     OW14194   0.896   3.861   6.081
 4432SOL    HW114195   0.841   3.933   6.124
 4432SOL    HW214196   0.993   3.878   6.098
 4433SOL     OW14197   0.713   1.079   4.874
 4433SOL    HW114198   0.672   1.167   4.898
 4433SOL    HW214199   0.654   1.005   4.905
 4434SOL     OW14200   6.993   0.431   2.395
 4434SOL    HW114201   0.001   0.340   2.418
 4434SOL    HW214202   6.997   0.491   2.475
 4435SOL     OW14203   2.254   3.679   0.640
 4435SOL    HW114204   2.286   3.768   0.672
 4435SOL    HW214205   2.296   3.607   0.694
 4436SOL     OW14206   4.284   2.472   1.816
 4436SOL    HW114207   4.241   2.550   1.770
 4436SOL    HW214208   4.219   2.396   1.819
 4437SOL     OW14209   6.545   4.311   0.040
 4437SOL    HW114210   6.487   4.279   0.115
 4437SOL    HW214211   6.574   4.405   0.058
 4438SOL     OW14212   4.146   1.102   5.024
 4438SOL    HW114213   4.196   1.018   5.001
 4438SOL    HW214214   4.079   1.082   5.095
 4439SOL     OW14215   2.569   5.828   2.903
 4439SOL    HW114216   2.595   5.919   2.933
 4439SOL    HW214217   2.649   5.780   2.866
 4440SOL     OW14218   1.585   4.425   6.427
 4440SOL    HW114219   1.508   4.374   6.464
 4440SOL    HW214220   1.577   4.430   6.327
 4441SOL     OW14221   6.956   2.524   0.986
 4441SOL    HW114222   6.919   2.614   0.963
 4441SOL    HW214223   6.949   2.510   1.084
 4442SOL     OW14224   1.883   5.315   0.170
 4442SOL    HW114225   1.937   5.399   0.172
 4442SOL    HW214226   1.912   5.259   0.092
 4443SOL     OW14227   0.565   5.570   5.786
 4443SOL    HW114228   0.624   5.563   5.867
 4443SOL    HW214229   0.493   5.637   5.803
 4444SOL     OW14230   6.166   5.458   0.552
 4444SOL    HW114231   6.222   5.537   0.529
 4444SOL    HW214232   6.177   5.435   0.649
 4445SOL     OW14233   1.202   4.624   0.352
 4445SOL    HW114234   1.110   4.602   0.382
 4445SOL    HW214235   1.265   4.616   0.430
 4446SOL     OW14236   4.518   1.708   1.236
 4446SOL    HW114237   4.597   1.646   1.237
 4446SOL    HW214238   4.469   1.699   1.149
 4447SOL     OW14239   4.263   5.764   6.059
 4447SOL    HW114240   4.182   5.823   6.050
 4447SOL    HW214241   4.323   5.800   6.130
 4448SOL     OW14242   3.750   6.646   1.276
 4448SOL    HW114243   3.756   6.619   1.180
 4448SOL    HW214244   3.799   6.580   1.333
 4449SOL     OW14245   3.600   1.579   5.846
 4449SOL    HW114246   3.539   1.502   5.866
 4449SOL    HW214247   3.547   1.663   5.837
 4450SOL     OW14248   2.614   6.454   0.098
 4450SOL    HW114249   2.635   6.462   0.001
 4450SOL    HW214250   2.539   6.516   0.121
 4451SOL     OW14251   4.285   5.060   3.434
 4451SOL    HW114252   4.363   5.071   3.372
 4451SOL    HW214253   4.318   5.030   3.523
 4452SOL     OW14254   4.962   5.910   4.255
 4452SOL    HW114255   5.058   5.900   4.229
 4452SOL    HW214256   4.904   5.871   4.184
 4453SOL     OW14257   0.134   4.787   0.401
 4453SOL    HW114258   0.174   4.702   0.433
 4453SOL    HW214259   0.035   4.785   0.416
 4454SOL     OW14260   1.152   2.526   0.417
 4454SOL    HW114261   1.128   2.490   0.506
 4454SOL    HW214262   1.234   2.480   0.383
 4455SOL     OW14263   1.584   0.186   4.401
 4455SOL    HW114264   1.603   0.104   4.346
 4455SOL    HW214265   1.494   0.177   4.444
 4456SOL     OW14266   2.347   6.929   3.794
 4456SOL    HW114267   2.414   6.965   3.728
 4456SOL    HW214268   2.292   6.858   3.750
 4457SOL     OW14269   1.688   1.944   4.656
 4457SOL    HW114270   1.728   1.937   4.747
 4457SOL    HW214271   1.760   1.949   4.587
 4458SOL     OW14272   1.061   3.336   6.281
 4458SOL    HW114273   1.067   3.251   6.229
 4458SOL    HW214274   0.964   3.359   6.295
 4459SOL     OW14275   0.632   3.155   3.054
 4459SOL    HW114276   0.555   3.206   3.017
 4459SOL    HW214277   0.713   3.171   2.998
 4460SOL     OW14278   0.150   2.336   4.676
 4460SOL    HW114279   0.092   2.286   4.741
 4460SOL    HW214280   0.092   2.382   4.609
 4461SOL     OW14281   2.117   0.500   0.868
 4461SOL    HW114282   2.023   0.526   0.890
 4461SOL    HW214283   2.121   0.465   0.775
 4462SOL     OW14284   6.376   4.246   2.885
 4462SOL    HW114285   6.468   4.284   2.881
 4462SOL    HW214286   6.325   4.275   2.804
 4463SOL     OW14287   5.881   1.694   0.225
 4463SOL    HW114288   5.859   1.712   0.321
 4463SOL    HW214289   5.831   1.759   0.167
 4464SOL     OW14290   0.242   4.170   1.636
 4464SOL    HW114291   0.292   4.159   1.722
 4464SOL    HW214292   0.271   4.099   1.571
 4465SOL     OW14293   3.773   5.130   1.848
 4465SOL    HW114294   3.675   5.152   1.851
 4465SOL    HW214295   3.822   5.185   1.916
 4466SOL     OW14296   0.652   2.687   2.244
 4466SOL    HW114297   0.698   2.758   2.298
 4466SOL    HW214298   0.553   2.697   2.254
 4467SOL     OW14299   5.427   4.880   2.501
 4467SOL    HW114300   5.335   4.882   2.463
 4467SOL    HW214301   5.435   4.805   2.566
 4468SOL     OW14302   1.715   3.146   1.787
 4468SOL    HW114303   1.619   3.132   1.813
 4468SOL    HW214304   1.722   3.153   1.688
 4469SOL     OW14305   2.260   5.690   1.529
 4469SOL    HW114306   2.359   5.680   1.542
 4469SOL    HW214307   2.238   5.676   1.432
 4470SOL     OW14308   0.934   0.130   2.796
 4470SOL    HW114309   0.902   0.208   2.850
 4470SOL    HW214310   0.971   0.060   2.858
 4471SOL     OW14311   1.139   6.760   6.305
 4471SOL    HW114312   1.191   6.703   6.369
 4471SOL    HW214313   1.061   6.800   6.354
 4472SOL     OW14314   1.870   2.662   0.420
 4472SOL    HW114315   1.791   2.704   0.376
 4472SOL    HW214316   1.932   2.733   0.453
 4473SOL     OW14317   0.252   3.686   4.793
 4473SOL    HW114318   0.337   3.660   4.748
 4473SOL    HW214319   0.176   3.633   4.755
 4474SOL     OW14320   3.055   5.772   1.083
 4474SOL    HW114321   3.022   5.680   1.062
 4474SOL    HW214322   3.008   5.807   1.164
 4475SOL     OW14323   1.406   4.080   0.687
 4475SOL    HW114324   1.410   4.086   0.787
 4475SOL    HW214325   1.445   3.993   0.657
 4476SOL     OW14326   5.558   1.109   3.941
 4476SOL    HW114327   5.492   1.184   3.936
 4476SOL    HW214328   5.532   1.048   4.015
 4477SOL     OW14329   0.296   1.061   4.888
 4477SOL    HW114330   0.372   1.027   4.944
 4477SOL    HW214331   0.332   1.102   4.804
 4478SOL     OW14332   1.569   0.276   1.718
 4478SOL    HW114333   1.582   0.354   1.657
 4478SOL    HW214334   1.473   0.249   1.718
 4479SOL     OW14335   1.916   2.065   0.080
 4479SOL    HW114336   1.970   2.081   0.163
 4479SOL    HW214337   1.890   1.969   0.075
 4480SOL     OW14338   0.453   6.691   3.413
 4480SOL    HW114339   0.463   6.601   3.370
 4480SOL    HW214340   0.544   6.729   3.432
 4481SOL     OW14341   2.127   3.939   5.729
 4481SOL    HW114342   2.099   4.007   5.797
 4481SOL    HW214343   2.151   3.985   5.644
 4482SOL     OW14344   1.841   0.077   1.474
 4482SOL    HW114345   1.882   0.007   1.415
 4482SOL    HW214346   1.759   0.040   1.518
 4483SOL     OW14347   1.311   3.503   0.911
 4483SOL    HW114348   1.342   3.408   0.913
 4483SOL    HW214349   1.212   3.506   0.925
 4484SOL     OW14350   2.557   0.857   6.779
 4484SOL    HW114351   2.646   0.890   6.748
 4484SOL    HW214352   2.506   0.932   6.819
 4485SOL     OW14353   6.816   2.576   5.285
 4485SOL    HW114354   6.793   2.639   5.359
 4485SOL    HW214355   6.735   2.561   5.227
 4486SOL     OW14356   5.179   4.639   4.403
 4486SOL    HW114357   5.174   4.616   4.306
 4486SOL    HW214358   5.109   4.587   4.453
 4487SOL     OW14359   0.506   2.841   6.630
 4487SOL    HW114360   0.478   2.845   6.726
 4487SOL    HW214361   0.581   2.775   6.621
 4488SOL     OW14362   0.067   3.970   3.537
 4488SOL    HW114363   7.006   4.011   3.506
 4488SOL    HW214364   0.139   4.040   3.538
 4489SOL     OW14365   3.780   6.064   6.185
 4489SOL    HW114366   3.776   6.024   6.277
 4489SOL    HW214367   3.839   6.008   6.127
 4490SOL     OW14368   5.215   1.350   1.869
 4490SOL    HW114369   5.141   1.405   1.909
 4490SOL    HW214370   5.301   1.374   1.912
 4491SOL     OW14371   1.038   3.244   3.274
 4491SOL    HW114372   1.025   3.342   3.289
 4491SOL    HW214373   0.950   3.197   3.285
 4492SOL     OW14374   6.995   1.204   2.329
 4492SOL    HW114375   0.013   1.142   2.262
 4492SOL    HW214376   6.956   1.282   2.281
 4493SOL     OW14377   4.944   1.253   5.606
 4493SOL    HW114378   4.935   1.341   5.559
 4493SOL    HW214379   4.867   1.240   5.668
 4494SOL     OW14380   1.285   0.689   2.125
 4494SOL    HW114381   1.287   0.786   2.100
 4494SOL    HW214382   1.364   0.643   2.086
 4495SOL     OW14383   4.311   6.529   0.996
 4495SOL    HW114384   4.367   6.457   1.036
 4495SOL    HW214385   4.339   6.618   1.032
 4496SOL     OW14386   3.000   6.406   5.330
 4496SOL    HW114387   2.971   6.347   5.405
 4496SOL    HW214388   3.016   6.499   5.364
 4497SOL     OW14389   3.976   0.773   6.054
 4497SOL    HW114390   3.982   0.830   5.972
 4497SOL    HW214391   3.959   0.832   6.134
 4498SOL     OW14392   0.695   5.010   4.584
 4498SOL    HW114393   0.749   4.926   4.577
 4498SOL    HW214394   0.658   5.033   4.494
 4499SOL     OW14395   5.907   1.217   2.389
 4499SOL    HW114396   5.817   1.254   2.366
 4499SOL    HW214397   5.923   1.134   2.336
 4500SOL     OW14398   4.197   5.903   0.609
 4500SOL    HW114399   4.154   5.928   0.696
 4500SOL    HW214400   4.228   5.985   0.562
 4501SOL     OW14401   5.902   0.881   2.467
 4501SOL    HW114402   5.810   0.847   2.485
 4501SOL    HW214403   5.905   0.925   2.377
 4502SOL     OW14404   0.466   4.149   6.767
 4502SOL    HW114405   0.420   4.076   6.818
 4502SOL    HW214406   0.447   4.139   6.670
 4503SOL     OW14407   3.501   1.555   2.467
 4503SOL    HW114408   3.547   1.502   2.538
 4503SOL    HW214409   3.531   1.650   2.472
 4504SOL     OW14410   0.646   2.453   3.291
 4504SOL    HW114411   0.716   2.383   3.275
 4504SOL    HW214412   0.643   2.516   3.213
 4505SOL     OW14413   5.971   3.335   3.836
 4505SOL    HW114414   6.033   3.392   3.783
 4505SOL    HW214415   5.952   3.378   3.924
 4506SOL     OW14416   4.653   4.085   6.682
 4506SOL    HW114417   4.588   4.109   6.753
 4506SOL    HW214418   4.612   4.103   6.592
 4507SOL     OW14419   6.357   2.421   3.540
 4507SOL    HW114420   6.338   2.324   3.550
 4507SOL    HW214421   6.384   2.441   3.446
 4508SOL     OW14422   0.058   5.112   0.306
 4508SOL    HW114423   0.052   5.079   0.400
 4508SOL    HW214424   0.056   5.034   0.243
 4509SOL     OW14425   5.211   2.282   2.139
 4509SOL    HW114426   5.308   2.258   2.136
 4509SOL    HW214427   5.192   2.353   2.071
 4510SOL     OW14428   4.301   1.787   4.340
 4510SOL    HW114429   4.266   1.778   4.433
 4510SOL    HW214430   4.256   1.719   4.281
 4511SOL     OW14431   6.775   4.916   6.636
 4511SOL    HW114432   6.702   4.906   6.703
 4511SOL    HW214433   6.835   4.992   6.664
 4512SOL     OW14434   3.334   2.955   5.694
 4512SOL    HW114435   3.256   2.991   5.745
 4512SOL    HW214436   3.301   2.891   5.625
 4513SOL     OW14437   0.165   0.168   0.293
 4513SOL    HW114438   0.132   0.081   0.330
 4513SOL    HW214439   0.220   0.215   0.362
 4514SOL     OW14440   4.751   4.925   6.610
 4514SOL    HW114441   4.808   5.005   6.630
 4514SOL    HW214442   4.688   4.947   6.536
 4515SOL     OW14443   3.843   0.867   6.345
 4515SOL    HW114444   3.932   0.907   6.325
 4515SOL    HW214445   3.776   0.940   6.362
 4516SOL     OW14446   3.088   2.668   5.868
 4516SOL    HW114447   3.078   2.764   5.843
 4516SOL    HW214448   3.121   2.616   5.790
 4517SOL     OW14449   4.552   0.799   4.203
 4517SOL    HW114450   4.567   0.898   4.198
 4517SOL    HW214451   4.614   0.753   4.139
 4518SOL     OW14452   0.136   6.533   0.806
 4518SOL    HW114453   0.042   6.519   0.837
 4518SOL    HW214454   0.182   6.444   0.799
 4519SOL     OW14455   4.837   6.732   6.898
 4519SOL    HW114456   4.903   6.765   6.964
 4519SOL    HW214457   4.845   6.633   6.888
 4520SOL     OW14458   4.625   5.397   5.110
 4520SOL    HW114459   4.580   5.481   5.139
 4520SOL    HW214460   4.576   5.318   5.147
 4521SOL     OW14461   4.464   2.097   4.045
 4521SOL    HW114462   4.540   2.039   4.016
 4521SOL    HW214463   4.392   2.039   4.086
 4522SOL     OW14464   5.762   3.806   3.788
 4522SOL    HW114465   5.789   3.817   3.692
 4522SOL    HW214466   5.842   3.785   3.844
 4523SOL     OW14467   6.664   3.043   6.388
 4523SOL    HW114468   6.694   3.137   6.395
 4523SOL    HW214469   6.601   3.022   6.464
 4524SOL     OW14470   2.046   3.795   2.523
 4524SOL    HW114471   2.090   3.732   2.460
 4524SOL    HW214472   2.084   3.887   2.510
 4525SOL     OW14473   4.066   2.632   5.626
 4525SOL    HW114474   4.003   2.568   5.582
 4525SOL    HW214475   4.113   2.586   5.701
 4526SOL     OW14476   1.017   0.223   5.451
 4526SOL    HW114477   1.030   0.171   5.366
 4526SOL    HW214478   1.043   0.318   5.436
 4527SOL     OW14479   0.457   1.735   3.093
 4527SOL    HW114480   0.551   1.771   3.091
 4527SOL    HW214481   0.419   1.747   3.185
 4528SOL     OW14482   5.222   0.648   4.787
 4528SOL    HW114483   5.245   0.595   4.705
 4528SOL    HW214484   5.188   0.587   4.859
 4529SOL     OW14485   2.048   1.845   3.733
 4529SOL    HW114486   2.057   1.877   3.827
 4529SOL    HW214487   1.968   1.889   3.691
 4530SOL     OW14488   3.877   5.737   6.400
 4530SOL    HW114489   3.834   5.703   6.484
 4530SOL    HW214490   3.807   5.751   6.330
 4531SOL     OW14491   1.408   6.400   5.226
 4531SOL    HW114492   1.318   6.439   5.248
 4531SOL    HW214493   1.479   6.457   5.268
 4532SOL     OW14494   6.727   1.562   2.591
 4532SOL    HW114495   6.725   1.635   2.523
 4532SOL    HW214496   6.662   1.490   2.564
 4533SOL     OW14497   2.772   6.830   1.699
 4533SOL    HW114498   2.867   6.862   1.688
 4533SOL    HW214499   2.713   6.877   1.634
 4534SOL     OW14500   5.733   1.380   4.144
 4534SOL    HW114501   5.741   1.284   4.117
 4534SOL    HW214502   5.641   1.398   4.178
 4535SOL     OW14503   2.308   0.471   6.939
 4535SOL    HW114504   2.311   0.378   6.974
 4535SOL    HW214505   2.326   0.470   6.841
 4536SOL     OW14506   3.482   0.935   5.490
 4536SOL    HW114507   3.565   0.987   5.471
 4536SOL    HW214508   3.438   0.971   5.572
 4537SOL     OW14509   3.024   3.152   3.117
 4537SOL    HW114510   2.949   3.217   3.122
 4537SOL    HW214511   3.054   3.128   3.209
 4538SOL     OW14512   0.817   2.486   0.586
 4538SOL    HW114513   0.733   2.472   0.533
 4538SOL    HW214514   0.838   2.584   0.589
 4539SOL     OW14515   1.765   5.768   4.743
 4539SOL    HW114516   1.777   5.862   4.773
 4539SOL    HW214517   1.669   5.751   4.722
 4540SOL     OW14518   1.384   1.659   0.153
 4540SOL    HW114519   1.392   1.757   0.139
 4540SOL    HW214520   1.472   1.623   0.185
 4541SOL     OW14521   4.025   3.153   6.907
 4541SOL    HW114522   3.932   3.138   6.873
 4541SOL    HW214523   4.049   3.079   6.970
 4542SOL     OW14524   0.558   1.505   6.459
 4542SOL    HW114525   0.606   1.418   6.462
 4542SOL    HW214526   0.605   1.567   6.397
 4543SOL     OW14527   3.934   1.953   0.831
 4543SOL    HW114528   3.838   1.924   0.844
 4543SOL    HW214529   3.972   1.905   0.752
 4544SOL     OW14530   4.630   6.866   1.005
 4544SOL    HW114531   4.599   6.951   1.050
 4544SOL    HW214532   4.557   6.797   1.012
 4545SOL     OW14533   2.545   3.000   5.742
 4545SOL    HW114534   2.481   2.953   5.803
 4545SOL    HW214535   2.506   3.005   5.650
 4546SOL     OW14536   3.978   0.180   6.046
 4546SOL    HW114537   3.975   0.273   6.083
 4546SOL    HW214538   4.046   0.127   6.096
 4547SOL     OW14539   0.421   0.374   7.011
 4547SOL    HW114540   0.416   0.310   0.063
 4547SOL    HW214541   0.515   0.409   7.003
 4548SOL     OW14542   3.203   1.179   2.063
 4548SOL    HW114543   3.110   1.156   2.035
 4548SOL    HW214544   3.252   1.096   2.089
 4549SOL     OW14545   0.093   3.591   3.824
 4549SOL    HW114546   0.138   3.506   3.853
 4549SOL    HW214547   0.163   3.658   3.796
 4550SOL     OW14548   1.821   6.028   5.162
 4550SOL    HW114549   1.782   5.936   5.160
 4550SOL    HW214550   1.750   6.095   5.139
 4551SOL     OW14551   3.310   2.411   5.875
 4551SOL    HW114552   3.303   2.466   5.792
 4551SOL    HW214553   3.306   2.471   5.956
 4552SOL     OW14554   4.217   0.959   0.286
 4552SOL    HW114555   4.304   1.007   0.300
 4552SOL    HW214556   4.174   0.993   0.202
 4553SOL     OW14557   0.422   6.326   0.204
 4553SOL    HW114558   0.361   6.367   0.271
 4553SOL    HW214559   0.416   6.227   0.209
 4554SOL     OW14560   5.988   0.036   2.924
 4554SOL    HW114561   5.919   0.029   2.996
 4554SOL    HW214562   5.950   0.001   2.838
 4555SOL     OW14563   0.726   0.988   1.560
 4555SOL    HW114564   0.769   0.961   1.473
 4555SOL    HW214565   0.728   0.910   1.623
 4556SOL     OW14566   5.137   4.543   4.120
 4556SOL    HW114567   5.059   4.486   4.097
 4556SOL    HW214568   5.214   4.485   4.147
 4557SOL     OW14569   0.070   5.124   4.319
 4557SOL    HW114570   0.085   5.033   4.358
 4557SOL    HW214571   0.114   5.129   4.229
 4558SOL     OW14572   1.347   3.941   4.933
 4558SOL    HW114573   1.316   3.918   4.841
 4558SOL    HW214574   1.399   3.865   4.970
 4559SOL     OW14575   0.037   3.074   3.866
 4559SOL    HW114576   0.014   2.989   3.819
 4559SOL    HW214577   0.134   3.074   3.890
 4560SOL     OW14578   5.993   4.389   3.001
 4560SOL    HW114579   6.078   4.347   3.035
 4560SOL    HW214580   6.002   4.488   3.006
 4561SOL     OW14581   4.875   2.403   3.793
 4561SOL    HW114582   4.895   2.306   3.806
 4561SOL    HW214583   4.788   2.413   3.745
 4562SOL     OW14584   3.785   1.357   0.401
 4562SOL    HW114585   3.740   1.284   0.451
 4562SOL    HW214586   3.755   1.356   0.305
 4563SOL     OW14587   0.614   4.423   1.851
 4563SOL    HW114588   0.669   4.497   1.815
 4563SOL    HW214589   0.673   4.346   1.875
 4564SOL     OW14590   2.210   3.914   2.898
 4564SOL    HW114591   2.133   3.951   2.951
 4564SOL    HW214592   2.257   3.989   2.853
 4565SOL     OW14593   1.789   6.866   5.773
 4565SOL    HW114594   1.832   6.846   5.861
 4565SOL    HW214595   1.745   6.783   5.737
 4566SOL     OW14596   6.767   4.454   3.245
 4566SOL    HW114597   6.687   4.396   3.231
 4566SOL    HW214598   6.841   4.399   3.286
 4567SOL     OW14599   0.092   6.893   6.592
 4567SOL    HW114600   0.093   6.988   6.622
 4567SOL    HW214601   0.161   6.880   6.520
 4568SOL     OW14602   1.015   5.158   4.021
 4568SOL    HW114603   0.928   5.204   4.041
 4568SOL    HW214604   1.005   5.105   3.937
 4569SOL     OW14605   1.793   1.416   2.995
 4569SOL    HW114606   1.700   1.454   2.985
 4569SOL    HW214607   1.854   1.488   3.028
 4570SOL     OW14608   4.878   4.995   1.375
 4570SOL    HW114609   4.853   5.077   1.425
 4570SOL    HW214610   4.889   5.016   1.278
 4571SOL     OW14611   2.604   3.790   5.890
 4571SOL    HW114612   2.566   3.704   5.923
 4571SOL    HW214613   2.540   3.865   5.909
 4572SOL     OW14614   3.993   2.994   1.844
 4572SOL    HW114615   4.027   3.062   1.779
 4572SOL    HW214616   3.971   2.909   1.796
 4573SOL     OW14617   2.759   4.848   0.288
 4573SOL    HW114618   2.810   4.918   0.337
 4573SOL    HW214619   2.697   4.801   0.351
 4574SOL     OW14620   4.931   0.959   2.319
 4574SOL    HW114621   4.963   1.050   2.346
 4574SOL    HW214622   4.944   0.895   2.395
 4575SOL     OW14623   0.350   0.814   5.513
 4575SOL    HW114624   0.388   0.906   5.498
 4575SOL    HW214625   0.317   0.778   5.426
 4576SOL     OW14626   3.477   3.842   6.873
 4576SOL    HW114627   3.383   3.818   6.896
 4576SOL    HW214628   3.528   3.760   6.850
 4577SOL     OW14629   0.574   1.803   1.908
 4577SOL    HW114630   0.523   1.815   1.823
 4577SOL    HW214631   0.514   1.818   1.986
 4578SOL     OW14632   1.745   1.244   2.640
 4578SOL    HW114633   1.816   1.190   2.595
 4578SOL    HW214634   1.666   1.254   2.579
 4579SOL     OW14635   4.712   0.812   3.511
 4579SOL    HW114636   4.641   0.795   3.580
 4579SOL    HW214637   4.775   0.735   3.509
 4580SOL     OW14638   0.367   1.354   0.564
 4580SOL    HW114639   0.308   1.336   0.643
 4580SOL    HW214640   0.425   1.433   0.583
 4581SOL     OW14641   2.860   0.569   1.178
 4581SOL    HW114642   2.957   0.567   1.155
 4581SOL    HW214643   2.811   0.505   1.120
 4582SOL     OW14644   6.998   0.704   3.495
 4582SOL    HW114645   0.037   0.641   3.452
 4582SOL    HW214646   6.956   0.761   3.424
 4583SOL     OW14647   1.893   0.095   0.005
 4583SOL    HW114648   1.993   0.092   0.001
 4583SOL    HW214649   1.859   0.022   0.064
 4584SOL     OW14650   0.296   1.838   4.515
 4584SOL    HW114651   0.331   1.829   4.422
 4584SOL    HW214652   0.223   1.771   4.530
 4585SOL     OW14653   1.622   3.099   3.292
 4585SOL    HW114654   1.633   3.025   3.358
 4585SOL    HW214655   1.616   3.186   3.340
 4586SOL     OW14656   6.300   4.765   6.304
 4586SOL    HW114657   6.343   4.855   6.301
 4586SOL    HW214658   6.372   4.695   6.310
 4587SOL     OW14659   3.858   3.938   5.615
 4587SOL    HW114660   3.859   3.999   5.695
 4587SOL    HW214661   3.764   3.927   5.583
 4588SOL     OW14662   3.228   4.063   6.475
 4588SOL    HW114663   3.284   4.089   6.397
 4588SOL    HW214664   3.246   3.967   6.499
 4589SOL     OW14665   5.841   6.163   2.261
 4589SOL    HW114666   5.899   6.120   2.330
 4589SOL    HW214667   5.834   6.261   2.280
 4590SOL     OW14668   3.301   5.692   1.241
 4590SOL    HW114669   3.253   5.614   1.282
 4590SOL    HW214670   3.237   5.742   1.182
 4591SOL     OW14671   2.411   1.162   5.020
 4591SOL    HW114672   2.450   1.135   4.932
 4591SOL    HW214673   2.382   1.258   5.016
 4592SOL     OW14674   2.723   1.828   3.561
 4592SOL    HW114675   2.689   1.746   3.607
 4592SOL    HW214676   2.807   1.808   3.512
 4593SOL     OW14677   1.327   6.368   4.448
 4593SOL    HW114678   1.300   6.453   4.404
 4593SOL    HW214679   1.248   6.327   4.494
 4594SOL     OW14680   1.974   6.288   3.699
 4594SOL    HW114681   1.927   6.221   3.642
 4594SOL    HW214682   1.918   6.311   3.778
 4595SOL     OW14683   5.586   1.766   6.522
 4595SOL    HW114684   5.675   1.725   6.502
 4595SOL    HW214685   5.563   1.832   6.450
 4596SOL     OW14686   0.897   0.893   2.222
 4596SOL    HW114687   0.922   0.906   2.318
 4596SOL    HW214688   0.895   0.982   2.176
 4597SOL     OW14689   2.477   5.662   0.580
 4597SOL    HW114690   2.575   5.662   0.599
 4597SOL    HW214691   2.427   5.686   0.664
 4598SOL     OW14692   1.031   4.047   0.413
 4598SOL    HW114693   1.096   3.995   0.470
 4598SOL    HW214694   1.003   3.991   0.335
 4599SOL     OW14695   3.609   6.627   1.840
 4599SOL    HW114696   3.654   6.547   1.880
 4599SOL    HW214697   3.667   6.707   1.852
 4600SOL     OW14698   0.437   6.967   6.560
 4600SOL    HW114699   0.445   6.955   6.658
 4600SOL    HW214700   0.359   6.915   6.526
 4601SOL     OW14701   1.960   0.563   5.384
 4601SOL    HW114702   1.874   0.518   5.406
 4601SOL    HW214703   1.961   0.587   5.287
 4602SOL     OW14704   3.233   1.785   6.166
 4602SOL    HW114705   3.158   1.839   6.204
 4602SOL    HW214706   3.300   1.767   6.238
 4603SOL     OW14707   3.943   6.788   0.851
 4603SOL    HW114708   3.966   6.867   0.793
 4603SOL    HW214709   4.015   6.775   0.918
 4604SOL     OW14710   6.811   7.007   3.849
 4604SOL    HW114711   6.770   0.068   3.820
 4604SOL    HW214712   6.858   7.019   3.936
 4605SOL     OW14713   3.998   0.685   1.382
 4605SOL    HW114714   3.927   0.744   1.420
 4605SOL    HW214715   4.007   0.604   1.440
 4606SOL     OW14716   6.898   6.853   5.277
 4606SOL    HW114717   6.984   6.899   5.255
 4606SOL    HW214718   6.823   6.919   5.270
 4607SOL     OW14719   1.818   1.639   0.635
 4607SOL    HW114720   1.874   1.576   0.581
 4607SOL    HW214721   1.767   1.699   0.574
 4608SOL     OW14722   6.971   3.002   4.531
 4608SOL    HW114723   6.893   2.963   4.481
 4608SOL    HW214724   6.999   2.938   4.603
 4609SOL     OW14725   5.018   5.633   6.846
 4609SOL    HW114726   5.101   5.674   6.809
 4609SOL    HW214727   5.004   5.542   6.805
 4610SOL     OW14728   5.136   4.890   0.553
 4610SOL    HW114729   5.212   4.830   0.581
 4610SOL    HW214730   5.058   4.834   0.525
 4611SOL     OW14731   6.979   1.151   6.389
 4611SOL    HW114732   0.036   1.186   6.435
 4611SOL    HW214733   6.992   1.157   6.290
 4612SOL     OW14734   2.433   1.580   2.302
 4612SOL    HW114735   2.333   1.583   2.295
 4612SOL    HW214736   2.471   1.669   2.280
 4613SOL     OW14737   1.408   4.997   1.789
 4613SOL    HW114738   1.346   4.960   1.720
 4613SOL    HW214739   1.384   4.960   1.879
 4614SOL     OW14740   6.760   4.566   3.640
 4614SOL    HW114741   6.852   4.598   3.617
 4614SOL    HW214742   6.758   4.536   3.735
 4615SOL     OW14743   1.807   4.264   6.468
 4615SOL    HW114744   1.736   4.335   6.471
 4615SOL    HW214745   1.816   4.230   6.374
 4616SOL     OW14746   1.146   3.608   6.160
 4616SOL    HW114747   1.113   3.520   6.125
 4616SOL    HW214748   1.127   3.615   6.258
 4617SOL     OW14749   0.209   2.873   3.570
 4617SOL    HW114750   0.291   2.822   3.596
 4617SOL    HW214751   0.233   2.967   3.546
 4618SOL     OW14752   1.895   3.569   5.776
 4618SOL    HW114753   1.851   3.602   5.860
 4618SOL    HW214754   1.882   3.470   5.769
 4619SOL     OW14755   4.513   5.957   6.151
 4619SOL    HW114756   4.573   5.963   6.072
 4619SOL    HW214757   4.568   5.948   6.234
 4620SOL     OW14758   0.487   4.609   1.474
 4620SOL    HW114759   0.506   4.511   1.486
 4620SOL    HW214760   0.426   4.621   1.396
 4621SOL     OW14761   3.151   0.407   2.948
 4621SOL    HW114762   3.095   0.361   2.879
 4621SOL    HW214763   3.232   0.351   2.967
 4622SOL     OW14764   5.381   6.957   0.457
 4622SOL    HW114765   5.358   0.022   0.495
 4622SOL    HW214766   5.479   6.942   0.466
 4623SOL     OW14767   3.322   5.069   2.567
 4623SOL    HW114768   3.364   4.997   2.511
 4623SOL    HW214769   3.343   5.052   2.663
 4624SOL     OW14770   4.664   1.634   1.615
 4624SOL    HW114771   4.664   1.733   1.604
 4624SOL    HW214772   4.702   1.610   1.704
 4625SOL     OW14773   1.484   6.117   1.658
 4625SOL    HW114774   1.554   6.074   1.715
 4625SOL    HW214775   1.518   6.204   1.622
 4626SOL     OW14776   4.244   3.247   1.864
 4626SOL    HW114777   4.194   3.256   1.778
 4626SOL    HW214778   4.325   3.305   1.862
 4627SOL     OW14779   5.578   6.880   4.836
 4627SOL    HW114780   5.645   6.910   4.768
 4627SOL    HW214781   5.556   6.957   4.897
 4628SOL     OW14782   5.742   4.585   3.225
 4628SOL    HW114783   5.749   4.485   3.227
 4628SOL    HW214784   5.729   4.615   3.130
 4629SOL     OW14785   1.756   5.630   6.896
 4629SOL    HW114786   1.829   5.580   6.849
 4629SOL    HW214787   1.774   5.630   6.994
 4630SOL     OW14788   1.804   3.586   1.579
 4630SOL    HW114789   1.779   3.521   1.507
 4630SOL    HW214790   1.759   3.561   1.664
 4631SOL     OW14791   6.671   1.077   2.962
 4631SOL    HW114792   6.738   1.117   3.025
 4631SOL    HW214793   6.662   0.979   2.982
 4632SOL     OW14794   2.849   5.356   3.000
 4632SOL    HW114795   2.940   5.318   2.985
 4632SOL    HW214796   2.781   5.299   2.953
 4633SOL     OW14797   5.022   2.491   4.593
 4633SOL    HW114798   5.028   2.413   4.531
 4633SOL    HW214799   4.936   2.540   4.578
 4634SOL     OW14800   3.996   3.159   4.779
 4634SOL    HW114801   4.021   3.080   4.723
 4634SOL    HW214802   3.957   3.128   4.866
 4635SOL     OW14803   4.629   5.643   2.333
 4635SOL    HW114804   4.706   5.690   2.376
 4635SOL    HW214805   4.639   5.545   2.345
 4636SOL     OW14806   1.600   5.365   6.830
 4636SOL    HW114807   1.645   5.435   6.886
 4636SOL    HW214808   1.625   5.274   6.863
 4637SOL     OW14809   2.401   2.200   3.328
 4637SOL    HW114810   2.431   2.219   3.422
 4637SOL    HW214811   2.471   2.147   3.281
 4638SOL     OW14812   4.075   4.698   0.284
 4638SOL    HW114813   4.144   4.718   0.353
 4638SOL    HW214814   4.024   4.616   0.311
 4639SOL     OW14815   3.828   2.075   1.813
 4639SOL    HW114816   3.754   2.021   1.772
 4639SOL    HW214817   3.788   2.144   1.874
 4640SOL     OW14818   6.242   3.341   0.391
 4640SOL    HW114819   6.157   3.391   0.373
 4640SOL    HW214820   6.316   3.384   0.340
 4641SOL     OW14821   1.489   5.489   4.544
 4641SOL    HW114822   1.440   5.547   4.609
 4641SOL    HW214823   1.585   5.517   4.539
 4642SOL     OW14824   6.632   1.356   5.178
 4642SOL    HW114825   6.657   1.443   5.221
 4642SOL    HW214826   6.543   1.327   5.211
 4643SOL     OW14827   0.367   1.391   6.935
 4643SOL    HW114828   0.311   1.469   6.907
 4643SOL    HW214829   0.314   1.332   6.996
 4644SOL     OW14830   1.279   0.341   0.127
 4644SOL    HW114831   1.277   0.289   0.213
 4644SOL    HW214832   1.201   0.316   0.071
 4645SOL     OW14833   6.315   1.726   4.945
 4645SOL    HW114834   6.354   1.791   4.880
 4645SOL    HW214835   6.229   1.763   4.982
 4646SOL     OW14836   1.994   4.184   3.277
 4646SOL    HW114837   1.929   4.135   3.335
 4646SOL    HW214838   2.075   4.208   3.331
 4647SOL     OW14839   1.636   6.118   2.014
 4647SOL    HW114840   1.684   6.032   2.035
 4647SOL    HW214841   1.690   6.195   2.047
 4648SOL     OW14842   3.114   0.924   4.669
 4648SOL    HW114843   3.127   0.973   4.755
 4648SOL    HW214844   3.034   0.864   4.676
 4649SOL     OW14845   5.947   1.964   0.574
 4649SOL    HW114846   5.896   1.885   0.542
 4649SOL    HW214847   6.041   1.959   0.541
 4650SOL     OW14848   4.812   5.880   1.105
 4650SOL    HW114849   4.895   5.922   1.069
 4650SOL    HW214850   4.837   5.800   1.160
 4651SOL     OW14851   0.216   4.121   6.096
 4651SOL    HW114852   0.137   4.093   6.040
 4651SOL    HW214853   0.184   4.167   6.179
 4652SOL     OW14854   6.959   0.097   5.567
 4652SOL    HW114855   0.027   0.130   5.581
 4652SOL    HW214856   6.956   7.023   5.582
 4653SOL     OW14857   6.988   5.587   1.116
 4653SOL    HW114858   6.899   5.567   1.157
 4653SOL    HW214859   0.017   5.503   1.112
 4654SOL     OW14860   0.469   0.743   5.873
 4654SOL    HW114861   0.485   0.694   5.788
 4654SOL    HW214862   0.406   0.690   5.930
 4655SOL     OW14863   5.487   3.562   2.589
 4655SOL    HW114864   5.506   3.588   2.684
 4655SOL    HW214865   5.569   3.523   2.548
 4656SOL     OW14866   6.757   1.170   2.078
 4656SOL    HW114867   6.668   1.206   2.050
 4656SOL    HW214868   6.745   1.102   2.150
 4657SOL     OW14869   3.685   1.393   2.885
 4657SOL    HW114870   3.730   1.475   2.917
 4657SOL    HW214871   3.749   1.338   2.831
 4658SOL     OW14872   1.325   1.916   6.602
 4658SOL    HW114873   1.373   2.003   6.588
 4658SOL    HW214874   1.347   1.881   6.693
 4659SOL     OW14875   2.024   4.488   0.591
 4659SOL    HW114876   2.048   4.411   0.532
 4659SOL    HW214877   2.102   4.512   0.648
 4660SOL     OW14878   0.780   5.338   4.046
 4660SOL    HW114879   0.704   5.278   4.020
 4660SOL    HW214880   0.753   5.433   4.036
 4661SOL     OW14881   0.784   1.717   5.892
 4661SOL    HW114882   0.843   1.793   5.919
 4661SOL    HW214883   0.812   1.684   5.802
 4662SOL     OW14884   2.404   6.945   6.008
 4662SOL    HW114885   2.415   0.019   5.998
 4662SOL    HW214886   2.371   6.906   5.922
 4663SOL     OW14887   1.331   6.988   0.383
 4663SOL    HW114888   1.391   6.908   0.369
 4663SOL    HW214889   1.302   6.991   0.478
 4664SOL     OW14890   5.823   0.083   5.829
 4664SOL    HW114891   5.741   0.095   5.773
 4664SOL    HW214892   5.890   0.028   5.779
 4665SOL     OW14893   0.359   0.522   3.306
 4665SOL    HW114894   0.444   0.574   3.305
 4665SOL    HW214895   0.347   0.478   3.395
 4666SOL     OW14896   1.599   2.245   5.985
 4666SOL    HW114897   1.622   2.276   5.892
 4666SOL    HW214898   1.683   2.240   6.040
 4667SOL     OW14899   7.011   3.267   0.665
 4667SOL    HW114900   0.006   3.175   0.631
 4667SOL    HW214901   6.915   3.289   0.647
 4668SOL     OW14902   5.018   2.201   4.469
 4668SOL    HW114903   5.114   2.213   4.444
 4668SOL    HW214904   5.011   2.145   4.552
 4669SOL     OW14905   5.153   0.014   6.337
 4669SOL    HW114906   5.214   0.064   6.276
 4669SOL    HW214907   5.180   0.030   6.432
 4670SOL     OW14908   0.278   3.553   6.570
 4670SOL    HW114909   0.330   3.512   6.495
 4670SOL    HW214910   0.182   3.524   6.563
 4671SOL     OW14911   0.017   2.948   2.097
 4671SOL    HW114912   7.007   3.004   2.172
 4671SOL    HW214913   6.970   2.885   2.066
 4672SOL     OW14914   3.078   3.806   0.292
 4672SOL    HW114915   3.082   3.883   0.356
 4672SOL    HW214916   2.998   3.816   0.233
 4673SOL     OW14917   6.019   0.899   0.365
 4673SOL    HW114918   6.022   0.991   0.404
 4673SOL    HW214919   6.034   0.832   0.437
 4674SOL     OW14920   1.042   3.036   0.801
 4674SOL    HW114921   1.127   3.084   0.781
 4674SOL    HW214922   0.984   3.035   0.720
 4675SOL     OW14923   2.003   5.470   6.860
 4675SOL    HW114924   1.977   5.374   6.848
 4675SOL    HW214925   2.066   5.479   6.937
 4676SOL     OW14926   0.681   6.395   4.324
 4676SOL    HW114927   0.597   6.365   4.279
 4676SOL    HW214928   0.706   6.328   4.395
 4677SOL     OW14929   3.921   6.965   0.153
 4677SOL    HW114930   3.869   6.917   0.082
 4677SOL    HW214931   3.940   6.902   0.229
 4678SOL     OW14932   1.919   4.169   0.397
 4678SOL    HW114933   1.887   4.146   0.305
 4678SOL    HW214934   2.016   4.148   0.405
 4679SOL     OW14935   2.471   6.773   5.631
 4679SOL    HW114936   2.372   6.776   5.647
 4679SOL    HW214937   2.519   6.778   5.719
 4680SOL     OW14938   1.551   4.698   6.746
 4680SOL    HW114939   1.607   4.682   6.827
 4680SOL    HW214940   1.592   4.771   6.691
 4681SOL     OW14941   6.683   5.946   4.248
 4681SOL    HW114942   6.667   5.847   4.246
 4681SOL    HW214943   6.709   5.977   4.157
 4682SOL     OW14944   3.097   6.114   0.743
 4682SOL    HW114945   3.177   6.119   0.683
 4682SOL    HW214946   3.015   6.097   0.688
 4683SOL     OW14947   0.145   4.638   3.273
 4683SOL    HW114948   0.163   4.561   3.334
 4683SOL    HW214949   0.053   4.674   3.291
 4684SOL     OW14950   1.578   1.477   5.117
 4684SOL    HW114951   1.619   1.427   5.194
 4684SOL    HW214952   1.498   1.427   5.084
 4685SOL     OW14953   4.882   4.624   5.415
 4685SOL    HW114954   4.907   4.714   5.381
 4685SOL    HW214955   4.934   4.554   5.366
 4686SOL     OW14956   5.402   6.168   0.274
 4686SOL    HW114957   5.495   6.202   0.292
 4686SOL    HW214958   5.402   6.068   0.275
 4687SOL     OW14959   5.109   6.610   4.231
 4687SOL    HW114960   5.101   6.542   4.158
 4687SOL    HW214961   5.046   6.587   4.305
 4688SOL     OW14962   0.869   1.836   0.424
 4688SOL    HW114963   0.911   1.853   0.513
 4688SOL    HW214964   0.933   1.784   0.367
 4689SOL     OW14965   2.055   5.125   4.690
 4689SOL    HW114966   2.131   5.185   4.666
 4689SOL    HW214967   2.058   5.105   4.788
 4690SOL     OW14968   1.808   1.133   0.605
 4690SOL    HW114969   1.741   1.131   0.679
 4690SOL    HW214970   1.860   1.047   0.605
 4691SOL     OW14971   3.679   4.815   0.117
 4691SOL    HW114972   3.654   4.818   0.213
 4691SOL    HW214973   3.747   4.886   0.097
 4692SOL     OW14974   0.685   5.902   3.266
 4692SOL    HW114975   0.681   5.810   3.305
 4692SOL    HW214976   0.679   5.896   3.166
 4693SOL     OW14977   0.813   0.846   3.783
 4693SOL    HW114978   0.769   0.864   3.872
 4693SOL    HW214979   0.909   0.824   3.798
 4694SOL     OW14980   1.040   1.060   5.743
 4694SOL    HW114981   1.003   1.002   5.816
 4694SOL    HW214982   1.032   1.156   5.769
 4695SOL     OW14983   3.123   3.074   1.691
 4695SOL    HW114984   3.159   3.039   1.777
 4695SOL    HW214985   3.109   2.998   1.627
 4696SOL     OW14986   6.176   3.774   0.190
 4696SOL    HW114987   6.242   3.848   0.209
 4696SOL    HW214988   6.089   3.796   0.235
 4697SOL     OW14989   1.216   5.544   6.554
 4697SOL    HW114990   1.260   5.503   6.633
 4697SOL    HW214991   1.144   5.482   6.520
 4698SOL     OW14992   6.250   3.749   2.503
 4698SOL    HW114993   6.221   3.723   2.595
 4698SOL    HW214994   6.169   3.767   2.447
 4699SOL     OW14995   6.700   0.006   3.012
 4699SOL    HW114996   6.771   6.964   3.032
 4699SOL    HW214997   6.684   0.009   2.913
 4700SOL     OW14998   5.459   6.786   6.816
 4700SOL    HW114999   5.555   6.814   6.826
 4700SOL    HW215000   5.444   6.699   6.863
 4701SOL     OW15001   0.815   1.065   0.057
 4701SOL    HW115002   0.826   1.162   0.036
 4701SOL    HW215003   0.738   1.053   0.120
 4702SOL     OW15004   2.764   3.362   0.151
 4702SOL    HW115005   2.782   3.389   0.246
 4702SOL    HW215006   2.804   3.430   0.089
 4703SOL     OW15007   1.250   0.839   1.534
 4703SOL    HW115008   1.158   0.806   1.554
 4703SOL    HW215009   1.302   0.766   1.490
 4704SOL     OW15010   4.724   6.833   0.130
 4704SOL    HW115011   4.677   6.903   0.183
 4704SOL    HW215012   4.799   6.794   0.184
 4705SOL     OW15013   3.184   4.062   4.118
 4705SOL    HW115014   3.161   4.122   4.042
 4705SOL    HW215015   3.282   4.067   4.136
 4706SOL     OW15016   4.869   4.948   0.788
 4706SOL    HW115017   4.928   4.933   0.868
 4706SOL    HW215018   4.776   4.966   0.819
 4707SOL     OW15019   3.595   5.977   1.434
 4707SOL    HW115020   3.532   6.050   1.408
 4707SOL    HW215021   3.608   5.915   1.357
 4708SOL     OW15022   1.747   3.046   2.841
 4708SOL    HW115023   1.702   2.985   2.775
 4708SOL    HW215024   1.678   3.104   2.885
 4709SOL     OW15025   2.631   3.887   0.258
 4709SOL    HW115026   2.549   3.851   0.212
 4709SOL    HW215027   2.620   3.985   0.274
 4710SOL     OW15028   5.006   2.904   1.425
 4710SOL    HW115029   4.923   2.920   1.479
 4710SOL    HW215030   5.085   2.945   1.471
 4711SOL     OW15031   2.796   6.637   2.911
 4711SOL    HW115032   2.844   6.573   2.850
 4711SOL    HW215033   2.767   6.717   2.859
 4712SOL     OW15034   1.657   4.197   6.846
 4712SOL    HW115035   1.597   4.122   6.875
 4712SOL    HW215036   1.618   4.284   6.876
 4713SOL     OW15037   2.079   5.741   1.224
 4713SOL    HW115038   2.052   5.649   1.198
 4713SOL    HW215039   2.175   5.755   1.202
 4714SOL     OW15040   2.857   1.960   0.766
 4714SOL    HW115041   2.869   1.918   0.856
 4714SOL    HW215042   2.881   2.057   0.771
 4715SOL     OW15043   5.235   4.166   4.739
 4715SOL    HW115044   5.203   4.250   4.782
 4715SOL    HW215045   5.229   4.091   4.805
 4716SOL     OW15046   2.462   5.148   0.542
 4716SOL    HW115047   2.389   5.215   0.525
 4716SOL    HW215048   2.539   5.168   0.481
 4717SOL     OW15049   1.614   5.483   4.077
 4717SOL    HW115050   1.697   5.487   4.132
 4717SOL    HW215051   1.625   5.542   3.997
 4718SOL     OW15052   5.479   1.018   6.483
 4718SOL    HW115053   5.432   1.104   6.463
 4718SOL    HW215054   5.551   1.004   6.415
 4719SOL     OW15055   4.722   3.157   1.693
 4719SOL    HW115056   4.666   3.119   1.767
 4719SOL    HW215057   4.702   3.255   1.683
 4720SOL     OW15058   2.878   1.180   3.934
 4720SOL    HW115059   2.951   1.164   4.000
 4720SOL    HW215060   2.794   1.204   3.983
 4721SOL     OW15061   1.262   1.747   0.962
 4721SOL    HW115062   1.357   1.765   0.989
 4721SOL    HW215063   1.223   1.678   1.024
 4722SOL     OW15064   3.282   0.464   2.428
 4722SOL    HW115065   3.322   0.465   2.519
 4722SOL    HW215066   3.183   0.452   2.435
 4723SOL     OW15067   2.763   0.104   5.784
 4723SOL    HW115068   2.784   0.018   5.738
 4723SOL    HW215069   2.682   0.092   5.842
 4724SOL     OW15070   4.100   4.896   1.667
 4724SOL    HW115071   4.122   4.808   1.709
 4724SOL    HW215072   4.138   4.970   1.723
 4725SOL     OW15073   5.637   5.139   3.193
 4725SOL    HW115074   5.720   5.100   3.233
 4725SOL    HW215075   5.648   5.146   3.094
 4726SOL     OW15076   0.198   5.686   5.323
 4726SOL    HW115077   0.183   5.696   5.422
 4726SOL    HW215078   0.296   5.676   5.305
 4727SOL     OW15079   6.108   6.233   0.963
 4727SOL    HW115080   6.052   6.239   1.046
 4727SOL    HW215081   6.097   6.317   0.909
 4728SOL     OW15082   0.248   0.574   7.018
 4728SOL    HW115083   0.170   0.556   0.052
 4728SOL    HW215084   0.315   0.500   0.004
 4729SOL     OW15085   2.740   0.419   0.415
 4729SOL    HW115086   2.771   0.482   0.487
 4729SOL    HW215087   2.742   0.466   0.327
 4730SOL     OW15088   1.833   0.584   5.119
 4730SOL    HW115089   1.866   0.674   5.091
 4730SOL    HW215090   1.842   0.520   5.043
 4731SOL     OW15091   5.468   2.011   7.012
 4731SOL    HW115092   5.461   1.967   6.923
 4731SOL    HW215093   5.403   1.969   0.050
 4732SOL     OW15094   0.137   1.652   0.134
 4732SOL    HW115095   0.198   1.731   0.123
 4732SOL    HW215096   0.185   1.580   0.185
 4733SOL     OW15097   6.654   3.483   4.009
 4733SOL    HW115098   6.703   3.482   3.922
 4733SOL    HW215099   6.718   3.501   4.084
 4734SOL     OW15100   4.670   4.422   5.967
 4734SOL    HW115101   4.662   4.378   5.877
 4734SOL    HW215102   4.744   4.488   5.965
 4735SOL     OW15103   0.303   4.494   3.507
 4735SOL    HW115104   0.282   4.579   3.555
 4735SOL    HW215105   0.400   4.495   3.481
 4736SOL     OW15106   2.223   6.972   1.372
 4736SOL    HW115107   2.237   0.030   1.317
 4736SOL    HW215108   2.283   6.900   1.338
 4737SOL     OW15109   3.453   5.142   1.725
 4737SOL    HW115110   3.413   5.052   1.745
 4737SOL    HW215111   3.488   5.143   1.632
 4738SOL     OW15112   6.843   6.256   2.783
 4738SOL    HW115113   6.797   6.179   2.739
 4738SOL    HW215114   6.801   6.273   2.872
 4739SOL     OW15115   4.316   6.937   1.275
 4739SOL    HW115116   4.303   6.872   1.350
 4739SOL    HW215117   4.238   7.000   1.271
 4740SOL     OW15118   0.393   2.184   3.796
 4740SOL    HW115119   0.386   2.271   3.845
 4740SOL    HW215120   0.434   2.115   3.855
 4741SOL     OW15121   3.669   3.402   1.155
 4741SOL    HW115122   3.740   3.407   1.084
 4741SOL    HW215123   3.671   3.312   1.199
 4742SOL     OW15124   4.124   1.076   0.543
 4742SOL    HW115125   4.200   1.037   0.596
 4742SOL    HW215126   4.115   1.028   0.456
 4743SOL     OW15127   1.772   6.067   0.707
 4743SOL    HW115128   1.766   6.006   0.628
 4743SOL    HW215129   1.815   6.153   0.680
 4744SOL     OW15130   1.763   5.580   1.671
 4744SOL    HW115131   1.790   5.549   1.762
 4744SOL    HW215132   1.758   5.501   1.609
 4745SOL     OW15133   1.631   3.356   6.964
 4745SOL    HW115134   1.639   3.267   6.921
 4745SOL    HW215135   1.665   3.427   6.901
 4746SOL     OW15136   5.070   5.741   3.948
 4746SOL    HW115137   5.088   5.783   3.859
 4746SOL    HW215138   4.973   5.747   3.968
 4747SOL     OW15139   2.707   0.798   6.359
 4747SOL    HW115140   2.716   0.716   6.302
 4747SOL    HW215141   2.798   0.833   6.381
 4748SOL     OW15142   1.990   6.809   1.589
 4748SOL    HW115143   2.027   6.898   1.561
 4748SOL    HW215144   2.057   6.737   1.568
 4749SOL     OW15145   2.201   1.873   0.872
 4749SOL    HW115146   2.276   1.851   0.933
 4749SOL    HW215147   2.130   1.804   0.881
 4750SOL     OW15148   4.717   3.276   5.768
 4750SOL    HW115149   4.695   3.183   5.798
 4750SOL    HW215150   4.658   3.341   5.816
 4751SOL     OW15151   5.022   1.696   3.441
 4751SOL    HW115152   4.986   1.733   3.526
 4751SOL    HW215153   4.975   1.737   3.364
 4752SOL     OW15154   5.556   1.399   6.723
 4752SOL    HW115155   5.581   1.305   6.697
 4752SOL    HW215156   5.640   1.451   6.741
 4753SOL     OW15157   3.271   6.471   4.884
 4753SOL    HW115158   3.265   6.554   4.828
 4753SOL    HW215159   3.282   6.391   4.825
 4754SOL     OW15160   4.683   4.696   6.931
 4754SOL    HW115161   4.698   4.705   6.832
 4754SOL    HW215162   4.586   4.707   6.951
 4755SOL     OW15163   0.828   1.165   1.116
 4755SOL    HW115164   0.861   1.120   1.033
 4755SOL    HW215165   0.772   1.101   1.168
 4756SOL     OW15166   6.947   3.675   5.692
 4756SOL    HW115167   0.009   3.724   5.690
 4756SOL    HW215168   6.894   3.698   5.610
 4757SOL     OW15169   2.150   3.595   0.092
 4757SOL    HW115170   2.231   3.589   0.033
 4757SOL    HW215171   2.078   3.535   0.056
 4758SOL     OW15172   2.390   5.583   3.501
 4758SOL    HW115173   2.291   5.580   3.498
 4758SOL    HW215174   2.425   5.501   3.546
 4759SOL     OW15175   0.487   6.421   1.907
 4759SOL    HW115176   0.541   6.498   1.941
 4759SOL    HW215177   0.431   6.452   1.830
 4760SOL     OW15178   1.958   5.628   0.804
 4760SOL    HW115179   1.905   5.713   0.812
 4760SOL    HW215180   1.951   5.593   0.710
 4761SOL     OW15181   5.087   6.992   1.916
 4761SOL    HW115182   5.181   7.025   1.924
 4761SOL    HW215183   5.073   6.953   1.824
 4762SOL     OW15184   1.388   0.080   2.548
 4762SOL    HW115185   1.308   0.118   2.594
 4762SOL    HW215186   1.465   0.077   2.612
 4763SOL     OW15187   5.806   5.679   2.193
 4763SOL    HW115188   5.776   5.761   2.241
 4763SOL    HW215189   5.822   5.700   2.097
 4764SOL     OW15190   4.826   3.166   0.217
 4764SOL    HW115191   4.742   3.201   0.176
 4764SOL    HW215192   4.835   3.201   0.310
 4765SOL     OW15193   4.342   1.835   6.088
 4765SOL    HW115194   4.295   1.757   6.046
 4765SOL    HW215195   4.387   1.888   6.017
 4766SOL     OW15196   1.153   0.918   4.654
 4766SOL    HW115197   1.065   0.935   4.611
 4766SOL    HW215198   1.187   0.828   4.626
 4767SOL     OW15199   2.135   4.813   3.744
 4767SOL    HW115200   2.120   4.825   3.646
 4767SOL    HW215201   2.141   4.903   3.788
 4768SOL     OW15202   4.716   2.177   6.351
 4768SOL    HW115203   4.703   2.218   6.261
 4768SOL    HW215204   4.632   2.186   6.405
 4769SOL     OW15205   1.407   3.093   0.717
 4769SOL    HW115206   1.354   3.139   0.645
 4769SOL    HW215207   1.504   3.112   0.705
 4770SOL     OW15208   0.002   1.588   3.598
 4770SOL    HW115209   7.013   1.654   3.525
 4770SOL    HW215210   6.940   1.543   3.620
 4771SOL     OW15211   1.770   0.092   4.036
 4771SOL    HW115212   1.742   0.188   4.040
 4771SOL    HW215213   1.870   0.086   4.040
 4772SOL     OW15214   2.555   5.530   2.890
 4772SOL    HW115215   2.535   5.623   2.920
 4772SOL    HW215216   2.605   5.532   2.804
 4773SOL     OW15217   3.013   5.210   4.816
 4773SOL    HW115218   2.989   5.305   4.797
 4773SOL    HW215219   3.014   5.195   4.915
 4774SOL     OW15220   0.972   4.137   0.859
 4774SOL    HW115221   1.053   4.197   0.866
 4774SOL    HW215222   0.930   4.149   0.769
 4775SOL     OW15223   6.035   5.457   4.982
 4775SOL    HW115224   6.068   5.452   5.077
 4775SOL    HW215225   6.113   5.468   4.921
 4776SOL     OW15226   0.290   1.795   5.188
 4776SOL    HW115227   0.193   1.822   5.186
 4776SOL    HW215228   0.299   1.704   5.149
 4777SOL     OW15229   1.412   6.868   3.384
 4777SOL    HW115230   1.363   6.824   3.310
 4777SOL    HW215231   1.403   6.967   3.377
 4778SOL     OW15232   1.611   0.786   0.104
 4778SOL    HW115233   1.704   0.765   0.074
 4778SOL    HW215234   1.559   0.822   0.027
 4779SOL     OW15235   5.029   0.866   4.822
 4779SOL    HW115236   5.052   0.963   4.814
 4779SOL    HW215237   5.098   0.811   4.776
 4780SOL     OW15238   4.735   2.749   4.354
 4780SOL    HW115239   4.751   2.708   4.444
 4780SOL    HW215240   4.779   2.839   4.351
 4781SOL     OW15241   0.959   4.967   1.900
 4781SOL    HW115242   0.965   5.065   1.917
 4781SOL    HW215243   0.998   4.917   1.977
 4782SOL     OW15244   0.086   6.479   4.242
 4782SOL    HW115245   0.168   6.511   4.194
 4782SOL    HW215246   0.041   6.408   4.187
 4783SOL     OW15247   6.994   3.562   6.381
 4783SOL    HW115248   6.924   3.611   6.433
 4783SOL    HW215249   0.022   3.627   6.327
 4784SOL     OW15250   5.315   3.578   0.204
 4784SOL    HW115251   5.340   3.552   0.111
 4784SOL    HW215252   5.224   3.619   0.204
 4785SOL     OW15253   0.793   0.362   3.858
 4785SOL    HW115254   0.876   0.341   3.806
 4785SOL    HW215255   0.754   0.448   3.823
 4786SOL     OW15256   0.732   5.799   0.110
 4786SOL    HW115257   0.664   5.805   0.183
 4786SOL    HW215258   0.741   5.704   0.080
 4787SOL     OW15259   4.788   1.215   4.712
 4787SOL    HW115260   4.713   1.170   4.662
 4787SOL    HW215261   4.799   1.170   4.801
 4788SOL     OW15262   0.061   6.299   0.546
 4788SOL    HW115263   0.135   6.301   0.613
 4788SOL    HW215264   7.003   6.335   0.587
 4789SOL     OW15265   6.239   1.327   2.770
 4789SOL    HW115266   6.198   1.258   2.711
 4789SOL    HW215267   6.304   1.284   2.833
 4790SOL     OW15268   6.970   2.045   4.542
 4790SOL    HW115269   0.024   2.105   4.532
 4790SOL    HW215270   6.926   2.033   4.453
 4791SOL     OW15271   0.704   0.337   6.970
 4791SOL    HW115272   0.727   0.370   0.036
 4791SOL    HW215273   0.770   0.267   6.942
 4792SOL     OW15274   1.763   3.641   2.112
 4792SOL    HW115275   1.793   3.733   2.137
 4792SOL    HW215276   1.842   3.587   2.083
 4793SOL     OW15277   1.196   4.363   5.441
 4793SOL    HW115278   1.148   4.345   5.527
 4793SOL    HW215279   1.165   4.450   5.403
 4794SOL     OW15280   5.031   1.896   5.193
 4794SOL    HW115281   4.978   1.980   5.202
 4794SOL    HW215282   5.065   1.889   5.099
 4795SOL     OW15283   6.627   1.432   6.284
 4795SOL    HW115284   6.704   1.460   6.228
 4795SOL    HW215285   6.566   1.511   6.300
 4796SOL     OW15286   4.661   1.439   4.795
 4796SOL    HW115287   4.668   1.493   4.879
 4796SOL    HW215288   4.714   1.354   4.806
 4797SOL     OW15289   2.283   4.884   6.257
 4797SOL    HW115290   2.314   4.933   6.175
 4797SOL    HW215291   2.359   4.879   6.323
 4798SOL     OW15292   3.669   5.863   0.507
 4798SOL    HW115293   3.625   5.861   0.417
 4798SOL    HW215294   3.765   5.835   0.497
 4799SOL     OW15295   4.397   2.684   0.344
 4799SOL    HW115296   4.360   2.592   0.330
 4799SOL    HW215297   4.428   2.721   0.257
 4800SOL     OW15298   1.055   4.515   0.060
 4800SOL    HW115299   1.009   4.505   0.149
 4800SOL    HW215300   1.005   4.463   7.017
 4801SOL     OW15301   5.438   2.060   2.945
 4801SOL    HW115302   5.415   2.004   2.866
 4801SOL    HW215303   5.426   2.007   3.029
 4802SOL     OW15304   6.847   0.219   4.594
 4802SOL    HW115305   6.764   0.247   4.547
 4802SOL    HW215306   6.841   0.242   4.691
 4803SOL     OW15307   4.856   4.112   5.582
 4803SOL    HW115308   4.781   4.165   5.622
 4803SOL    HW215309   4.940   4.166   5.586
 4804SOL     OW15310   5.247   2.201   0.743
 4804SOL    HW115311   5.190   2.119   0.737
 4804SOL    HW215312   5.189   2.281   0.753
 4805SOL     OW15313   5.893   1.207   0.235
 4805SOL    HW115314   5.798   1.186   0.260
 4805SOL    HW215315   5.895   1.238   0.140
 4806SOL     OW15316   1.305   1.667   3.006
 4806SOL    HW115317   1.240   1.592   3.012
 4806SOL    HW215318   1.299   1.710   2.916
 4807SOL     OW15319   6.587   4.254   6.342
 4807SOL    HW115320   6.590   4.213   6.433
 4807SOL    HW215321   6.518   4.327   6.341
 4808SOL     OW15322   3.785   5.707   2.375
 4808SOL    HW115323   3.831   5.700   2.286
 4808SOL    HW215324   3.690   5.734   2.362
 4809SOL     OW15325   2.998   3.957   1.493
 4809SOL    HW115326   3.094   3.941   1.471
 4809SOL    HW215327   2.975   3.907   1.577
 4810SOL     OW15328   1.853   5.278   4.021
 4810SOL    HW115329   1.846   5.378   4.020
 4810SOL    HW215330   1.784   5.240   4.081
 4811SOL     OW15331   3.652   3.506   4.550
 4811SOL    HW115332   3.692   3.459   4.629
 4811SOL    HW215333   3.694   3.471   4.466
 4812SOL     OW15334   1.792   6.254   3.005
 4812SOL    HW115335   1.818   6.278   3.098
 4812SOL    HW215336   1.837   6.317   2.941
 4813SOL     OW15337   0.616   2.411   4.978
 4813SOL    HW115338   0.655   2.319   4.977
 4813SOL    HW215339   0.516   2.404   4.985
 4814SOL     OW15340   6.557   3.248   0.833
 4814SOL    HW115341   6.629   3.309   0.801
 4814SOL    HW215342   6.468   3.284   0.807
 4815SOL     OW15343   6.187   4.681   2.146
 4815SOL    HW115344   6.167   4.727   2.059
 4815SOL    HW215345   6.273   4.717   2.184
 4816SOL     OW15346   2.979   0.627   2.646
 4816SOL    HW115347   3.061   0.674   2.680
 4816SOL    HW215348   3.007   0.550   2.589
 4817SOL     OW15349   4.388   2.257   1.305
 4817SOL    HW115350   4.376   2.179   1.244
 4817SOL    HW215351   4.299   2.300   1.321
 4818SOL     OW15352   4.435   7.019   4.180
 4818SOL    HW115353   4.366   6.960   4.223
 4818SOL    HW215354   4.438   0.082   4.227
 4819SOL     OW15355   3.066   0.853   0.614
 4819SOL    HW115356   3.047   0.951   0.610
 4819SOL    HW215357   3.101   0.822   0.525
 4820SOL     OW15358   6.387   4.075   1.613
 4820SOL    HW115359   6.326   4.150   1.638
 4820SOL    HW215360   6.409   4.081   1.516
 4821SOL     OW15361   6.961   5.692   1.748
 4821SOL    HW115362   7.007   5.772   1.712
 4821SOL    HW215363   7.020   5.612   1.738
 4822SOL     OW15364   0.819   4.269   1.892
 4822SOL    HW115365   0.880   4.266   1.813
 4822SOL    HW215366   0.851   4.203   1.960
 4823SOL     OW15367   0.768   1.480   3.559
 4823SOL    HW115368   0.813   1.452   3.643
 4823SOL    HW215369   0.835   1.520   3.496
 4824SOL     OW15370   6.040   2.561   2.202
 4824SOL    HW115371   5.955   2.552   2.253
 4824SOL    HW215372   6.029   2.522   2.111
 4825SOL     OW15373   0.613   3.266   4.290
 4825SOL    HW115374   0.564   3.181   4.307
 4825SOL    HW215375   0.707   3.246   4.262
 4826SOL     OW15376   0.048   6.554   6.993
 4826SOL    HW115377   0.053   6.595   6.902
 4826SOL    HW215378   0.136   6.512   7.016
 4827SOL     OW15379   5.022   1.665   0.043
 4827SOL    HW115380   5.091   1.618   7.014
 4827SOL    HW215381   4.954   1.707   7.008
 4828SOL     OW15382   5.119   3.880   6.627
 4828SOL    HW115383   5.115   3.935   6.710
 4828SOL    HW215384   5.041   3.817   6.624
 4829SOL     OW15385   3.850   0.284   4.913
 4829SOL    HW115386   3.893   0.323   4.995
 4829SOL    HW215387   3.892   0.324   4.832
 4830SOL     OW15388   4.746   5.720   5.290
 4830SOL    HW115389   4.685   5.657   5.338
 4830SOL    HW215390   4.724   5.720   5.192
 4831SOL     OW15391   5.932   3.435   6.858
 4831SOL    HW115392   5.882   3.464   6.940
 4831SOL    HW215393   6.023   3.476   6.858
 4832SOL     OW15394   1.832   2.556   6.004
 4832SOL    HW115395   1.758   2.621   5.985
 4832SOL    HW215396   1.806   2.466   5.971
 4833SOL     OW15397   6.349   1.877   3.589
 4833SOL    HW115398   6.383   1.796   3.542
 4833SOL    HW215399   6.353   1.863   3.688
 4834SOL     OW15400   5.818   0.413   3.309
 4834SOL    HW115401   5.880   0.487   3.332
 4834SOL    HW215402   5.863   0.325   3.324
 4835SOL     OW15403   1.314   1.045   5.933
 4835SOL    HW115404   1.247   1.110   5.899
 4835SOL    HW215405   1.289   1.018   6.026
 4836SOL     OW15406   5.755   2.924   2.271
 4836SOL    HW115407   5.659   2.953   2.277
 4836SOL    HW215408   5.786   2.930   2.176
 4837SOL     OW15409   0.522   4.157   0.990
 4837SOL    HW115410   0.587   4.223   0.953
 4837SOL    HW215411   0.524   4.161   1.090
 4838SOL     OW15412   3.139   5.181   2.248
 4838SOL    HW115413   3.070   5.184   2.176
 4838SOL    HW215414   3.100   5.217   2.333
 4839SOL     OW15415   0.731   0.131   6.609
 4839SOL    HW115416   0.826   0.105   6.625
 4839SOL    HW215417   0.701   0.095   6.520
 4840SOL     OW15418   6.221   6.549   6.125
 4840SOL    HW115419   6.303   6.606   6.114
 4840SOL    HW215420   6.202   6.537   6.222
 4841SOL     OW15421   2.119   5.441   1.723
 4841SOL    HW115422   2.081   5.481   1.807
 4841SOL    HW215423   2.183   5.506   1.682
 4842SOL     OW15424   3.428   6.429   1.381
 4842SOL    HW115425   3.371   6.478   1.315
 4842SOL    HW215426   3.407   6.332   1.378
 4843SOL     OW15427   1.326   2.959   6.640
 4843SOL    HW115428   1.346   2.882   6.700
 4843SOL    HW215429   1.323   2.928   6.545
 4844SOL     OW15430   0.467   1.765   5.403
 4844SOL    HW115431   0.393   1.790   5.341
 4844SOL    HW215432   0.465   1.667   5.421
 4845SOL     OW15433   5.659   5.703   3.679
 4845SOL    HW115434   5.712   5.697   3.764
 4845SOL    HW215435   5.564   5.677   3.697
 4846SOL     OW15436   0.195   5.072   6.831
 4846SOL    HW115437   0.120   5.024   6.785
 4846SOL    HW215438   0.164   5.163   6.859
 4847SOL     OW15439   5.106   2.728   4.902
 4847SOL    HW115440   5.192   2.733   4.953
 4847SOL    HW215441   5.082   2.632   4.886
 4848SOL     OW15442   2.455   1.954   1.798
 4848SOL    HW115443   2.542   1.998   1.818
 4848SOL    HW215444   2.439   1.955   1.699
 4849SOL     OW15445   1.587   6.338   5.777
 4849SOL    HW115446   1.507   6.398   5.769
 4849SOL    HW215447   1.558   6.248   5.812
 4850SOL     OW15448   4.047   6.914   3.433
 4850SOL    HW115449   4.104   6.944   3.357
 4850SOL    HW215450   3.951   6.937   3.415
 4851SOL     OW15451   4.907   1.119   5.187
 4851SOL    HW115452   4.836   1.124   5.257
 4851SOL    HW215453   4.995   1.099   5.231
 4852SOL     OW15454   1.407   1.946   1.775
 4852SOL    HW115455   1.494   1.934   1.822
 4852SOL    HW215456   1.382   2.042   1.774
 4853SOL     OW15457   3.447   2.035   1.562
 4853SOL    HW115458   3.460   2.132   1.583
 4853SOL    HW215459   3.523   1.982   1.600
 4854SOL     OW15460   3.488   6.902   6.877
 4854SOL    HW115461   3.555   6.916   6.950
 4854SOL    HW215462   3.396   6.918   6.912
 4855SOL     OW15463   6.653   3.148   2.766
 4855SOL    HW115464   6.639   3.176   2.671
 4855SOL    HW215465   6.740   3.186   2.799
 4856SOL     OW15466   1.619   4.341   2.925
 4856SOL    HW115467   1.550   4.270   2.915
 4856SOL    HW215468   1.668   4.330   3.011
 4857SOL     OW15469   0.097   1.281   5.967
 4857SOL    HW115470   0.184   1.326   5.990
 4857SOL    HW215471   0.063   1.318   5.880
 4858SOL     OW15472   1.557   0.841   3.945
 4858SOL    HW115473   1.605   0.908   4.002
 4858SOL    HW215474   1.595   0.842   3.853
 4859SOL     OW15475   3.677   5.406   6.219
 4859SOL    HW115476   3.656   5.322   6.168
 4859SOL    HW215477   3.661   5.391   6.316
 4860SOL     OW15478   4.160   3.972   0.886
 4860SOL    HW115479   4.172   3.888   0.939
 4860SOL    HW215480   4.134   3.948   0.792
 4861SOL     OW15481   4.845   3.926   6.482
 4861SOL    HW115482   4.897   3.966   6.558
 4861SOL    HW215483   4.823   3.998   6.416
 4862SOL     OW15484   0.514   6.511   0.957
 4862SOL    HW115485   0.500   6.462   1.042
 4862SOL    HW215486   0.583   6.463   0.901
 4863SOL     OW15487   4.986   4.550   6.649
 4863SOL    HW115488   5.065   4.506   6.606
 4863SOL    HW215489   4.968   4.508   6.738
 4864SOL     OW15490   3.218   1.376   4.018
 4864SOL    HW115491   3.150   1.313   4.055
 4864SOL    HW215492   3.215   1.372   3.918
 4865SOL     OW15493   1.627   6.994   5.410
 4865SOL    HW115494   1.535   6.955   5.409
 4865SOL    HW215495   1.636   0.035   5.336
 4866SOL     OW15496   6.642   4.107   6.568
 4866SOL    HW115497   6.604   4.132   6.657
 4866SOL    HW215498   6.622   4.011   6.549
 4867SOL     OW15499   4.814   0.876   2.863
 4867SOL    HW115500   4.793   0.820   2.943
 4867SOL    HW215501   4.770   0.835   2.782
 4868SOL     OW15502   6.843   4.459   0.547
 4868SOL    HW115503   6.928   4.412   0.571
 4868SOL    HW215504   6.785   4.398   0.493
 4869SOL     OW15505   0.666   1.399   1.116
 4869SOL    HW115506   0.576   1.382   1.078
 4869SOL    HW215507   0.720   1.315   1.113
 4870SOL     OW15508   0.203   6.695   1.618
 4870SOL    HW115509   0.161   6.685   1.708
 4870SOL    HW215510   0.284   6.754   1.625
 4871SOL     OW15511   1.368   1.416   3.602
 4871SOL    HW115512   1.432   1.363   3.658
 4871SOL    HW215513   1.414   1.499   3.568
 4872SOL     OW15514   6.071   6.440   2.586
 4872SOL    HW115515   6.099   6.535   2.600
 4872SOL    HW215516   6.003   6.436   2.513
 4873SOL     OW15517   6.478   5.345   5.063
 4873SOL    HW115518   6.485   5.391   5.152
 4873SOL    HW215519   6.557   5.368   5.007
 4874SOL     OW15520   4.741   2.885   3.204
 4874SOL    HW115521   4.716   2.974   3.242
 4874SOL    HW215522   4.682   2.815   3.243
 4875SOL     OW15523   5.987   6.331   5.069
 4875SOL    HW115524   5.914   6.263   5.073
 4875SOL    HW215525   5.985   6.387   5.151
 4876SOL     OW15526   0.832   1.125   2.077
 4876SOL    HW115527   0.739   1.090   2.062
 4876SOL    HW215528   0.831   1.225   2.075
 4877SOL     OW15529   6.223   1.461   6.513
 4877SOL    HW115530   6.183   1.485   6.602
 4877SOL    HW215531   6.235   1.544   6.459
 4878SOL     OW15532   6.574   3.574   2.167
 4878SOL    HW115533   6.643   3.643   2.189
 4878SOL    HW215534   6.495   3.585   2.228
 4879SOL     OW15535   5.359   1.130   2.720
 4879SOL    HW115536   5.419   1.057   2.753
 4879SOL    HW215537   5.352   1.201   2.790
 4880SOL     OW15538   6.750   3.097   6.982
 4880SOL    HW115539   6.731   2.999   6.997
 4880SOL    HW215540   6.726   3.120   6.887
 4881SOL     OW15541   1.795   2.822   1.657
 4881SOL    HW115542   1.868   2.833   1.725
 4881SOL    HW215543   1.709   2.857   1.694
 4882SOL     OW15544   5.006   2.549   3.968
 4882SOL    HW115545   4.947   2.537   4.048
 4882SOL    HW215546   4.969   2.496   3.892
 4883SOL     OW15547   5.938   4.583   0.654
 4883SOL    HW115548   6.001   4.508   0.679
 4883SOL    HW215549   5.857   4.578   0.712
 4884SOL     OW15550   1.788   0.986   1.719
 4884SOL    HW115551   1.791   0.962   1.622
 4884SOL    HW215552   1.880   1.008   1.750
 4885SOL     OW15553   1.304   4.385   6.789
 4885SOL    HW115554   1.353   4.370   6.875
 4885SOL    HW215555   1.278   4.481   6.782
 4886SOL     OW15556   2.961   0.668   1.861
 4886SOL    HW115557   2.890   0.642   1.794
 4886SOL    HW215558   3.009   0.586   1.891
 4887SOL     OW15559   5.337   6.422   0.157
 4887SOL    HW115560   5.240   6.398   0.164
 4887SOL    HW215561   5.392   6.338   0.153
 4888SOL     OW15562   4.418   0.204   2.631
 4888SOL    HW115563   4.517   0.190   2.625
 4888SOL    HW215564   4.374   0.121   2.665
 4889SOL     OW15565   6.580   3.398   4.529
 4889SOL    HW115566   6.585   3.305   4.494
 4889SOL    HW215567   6.620   3.462   4.463
 4890SOL     OW15568   6.546   1.535   4.648
 4890SOL    HW115569   6.598   1.619   4.632
 4890SOL    HW215570   6.562   1.471   4.573
 4891SOL     OW15571   2.973   5.171   7.005
 4891SOL    HW115572   2.931   5.251   6.960
 4891SOL    HW215573   3.032   5.124   6.939
 4892SOL     OW15574   4.857   5.159   2.576
 4892SOL    HW115575   4.917   5.086   2.545
 4892SOL    HW215576   4.895   5.200   2.659
 4893SOL     OW15577   1.148   3.363   1.132
 4893SOL    HW115578   1.183   3.315   1.052
 4893SOL    HW215579   1.183   3.319   1.215
 4894SOL     OW15580   4.894   6.250   1.737
 4894SOL    HW115581   4.992   6.239   1.749
 4894SOL    HW215582   4.864   6.336   1.778
 4895SOL     OW15583   0.270   4.450   5.533
 4895SOL    HW115584   0.333   4.467   5.457
 4895SOL    HW215585   0.292   4.363   5.577
 4896SOL     OW15586   2.766   5.070   4.800
 4896SOL    HW115587   2.713   5.122   4.867
 4896SOL    HW215588   2.824   5.132   4.747
 4897SOL     OW15589   1.845   0.817   4.818
 4897SOL    HW115590   1.797   0.742   4.773
 4897SOL    HW215591   1.782   0.894   4.832
 4898SOL     OW15592   4.892   1.797   3.680
 4898SOL    HW115593   4.838   1.880   3.696
 4898SOL    HW215594   4.971   1.797   3.742
 4899SOL     OW15595   6.426   6.684   1.684
 4899SOL    HW115596   6.378   6.729   1.759
 4899SOL    HW215597   6.448   6.751   1.613
 4900SOL     OW15598   4.060   6.189   6.027
 4900SOL    HW115599   4.126   6.184   6.102
 4900SOL    HW215600   3.990   6.257   6.049
 4901SOL     OW15601   1.243   0.640   6.775
 4901SOL    HW115602   1.330   0.592   6.764
 4901SOL    HW215603   1.174   0.576   6.808
 4902SOL     OW15604   2.811   6.916   5.613
 4902SOL    HW115605   2.883   6.956   5.556
 4902SOL    HW215606   2.844   6.830   5.653
 4903SOL     OW15607   5.237   3.435   3.089
 4903SOL    HW115608   5.198   3.356   3.136
 4903SOL    HW215609   5.179   3.515   3.106
 4904SOL     OW15610   1.410   0.317   1.317
 4904SOL    HW115611   1.361   0.234   1.345
 4904SOL    HW215612   1.379   0.394   1.373
 4905SOL     OW15613   2.503   6.993   3.139
 4905SOL    HW115614   2.519   6.900   3.108
 4905SOL    HW215615   2.568   7.016   3.211
 4906SOL     OW15616   4.987   3.767   4.850
 4906SOL    HW115617   5.011   3.726   4.762
 4906SOL    HW215618   4.942   3.699   4.907
 4907SOL     OW15619   4.203   2.519   6.806
 4907SOL    HW115620   4.225   2.426   6.776
 4907SOL    HW215621   4.253   2.539   6.890
 4908SOL     OW15622   3.678   6.895   0.035
 4908SOL    HW115623   3.669   6.824   0.105
 4908SOL    HW215624   3.643   6.982   0.071
 4909SOL     OW15625   5.330   4.893   4.391
 4909SOL    HW115626   5.348   4.926   4.298
 4909SOL    HW215627   5.297   4.799   4.387
 4910SOL     OW15628   4.069   2.407   6.415
 4910SOL    HW115629   4.098   2.485   6.470
 4910SOL    HW215630   4.149   2.358   6.381
 4911SOL     OW15631   6.610   4.208   2.621
 4911SOL    HW115632   6.698   4.187   2.664
 4911SOL    HW215633   6.579   4.298   2.652
 4912SOL     OW15634   5.878   2.723   4.169
 4912SOL    HW115635   5.822   2.749   4.248
 4912SOL    HW215636   5.822   2.671   4.105
 4913SOL     OW15637   0.527   4.169   4.901
 4913SOL    HW115638   0.491   4.249   4.853
 4913SOL    HW215639   0.622   4.155   4.876
 4914SOL     OW15640   4.039   0.430   4.010
 4914SOL    HW115641   4.033   0.421   4.109
 4914SOL    HW215642   4.099   0.358   3.974
 4915SOL     OW15643   3.933   5.368   5.698
 4915SOL    HW115644   3.921   5.367   5.797
 4915SOL    HW215645   4.010   5.309   5.673
 4916SOL     OW15646   5.759   2.268   3.618
 4916SOL    HW115647   5.793   2.331   3.687
 4916SOL    HW215648   5.667   2.237   3.642
 4917SOL     OW15649   3.663   6.735   0.254
 4917SOL    HW115650   3.703   6.788   0.329
 4917SOL    HW215651   3.637   6.644   0.287
 4918SOL     OW15652   5.674   5.014   3.481
 4918SOL    HW115653   5.597   5.071   3.510
 4918SOL    HW215654   5.641   4.943   3.420
 4919SOL     OW15655   3.271   3.497   1.941
 4919SOL    HW115656   3.296   3.530   1.850
 4919SOL    HW215657   3.204   3.560   1.982
 4920SOL     OW15658   5.960   1.658   6.090
 4920SOL    HW115659   5.959   1.560   6.071
 4920SOL    HW215660   5.953   1.709   6.004
 4921SOL     OW15661   0.189   6.985   1.851
 4921SOL    HW115662   0.144   6.949   1.770
 4921SOL    HW215663   0.150   0.049   1.875
 4922SOL     OW15664   3.339   1.355   6.155
 4922SOL    HW115665   3.396   1.366   6.073
 4922SOL    HW215666   3.269   1.286   6.138
 4923SOL     OW15667   3.657   1.923   1.675
 4923SOL    HW115668   3.728   1.865   1.634
 4923SOL    HW215669   3.628   1.883   1.762
 4924SOL     OW15670   2.203   0.951   5.106
 4924SOL    HW115671   2.280   1.008   5.077
 4924SOL    HW215672   2.238   0.869   5.152
 4925SOL     OW15673   5.548   5.738   3.208
 4925SOL    HW115674   5.504   5.680   3.140
 4925SOL    HW215675   5.481   5.803   3.245
 4926SOL     OW15676   5.309   2.752   1.736
 4926SOL    HW115677   5.267   2.781   1.650
 4926SOL    HW215678   5.303   2.653   1.744
 4927SOL     OW15679   2.950   1.273   0.245
 4927SOL    HW115680   2.890   1.353   0.245
 4927SOL    HW215681   2.902   1.194   0.282
 4928SOL     OW15682   6.902   2.417   0.730
 4928SOL    HW115683   6.814   2.465   0.737
 4928SOL    HW215684   6.963   2.449   0.802
 4929SOL     OW15685   0.303   6.682   5.083
 4929SOL    HW115686   0.401   6.701   5.093
 4929SOL    HW215687   0.291   6.589   5.046
 4930SOL     OW15688   4.822   5.561   2.716
 4930SOL    HW115689   4.867   5.625   2.779
 4930SOL    HW215690   4.724   5.560   2.735
 4931SOL     OW15691   6.950   6.968   0.826
 4931SOL    HW115692   6.921   7.004   0.738
 4931SOL    HW215693   6.912   6.876   0.839
 4932SOL     OW15694   3.265   2.872   2.375
 4932SOL    HW115695   3.359   2.901   2.392
 4932SOL    HW215696   3.260   2.827   2.286
 4933SOL     OW15697   1.147   0.320   5.916
 4933SOL    HW115698   1.058   0.364   5.916
 4933SOL    HW215699   1.215   0.380   5.959
 4934SOL     OW15700   3.832   6.792   1.880
 4934SOL    HW115701   3.858   6.742   1.962
 4934SOL    HW215702   3.894   6.869   1.866
 4935SOL     OW15703   0.468   0.966   5.166
 4935SOL    HW115704   0.479   1.062   5.194
 4935SOL    HW215705   0.373   0.938   5.180
 4936SOL     OW15706   4.646   2.338   0.910
 4936SOL    HW115707   4.606   2.246   0.911
 4936SOL    HW215708   4.578   2.403   0.944
 4937SOL     OW15709   4.586   2.649   5.065
 4937SOL    HW115710   4.560   2.553   5.057
 4937SOL    HW215711   4.581   2.678   5.160
 4938SOL     OW15712   3.499   4.849   6.691
 4938SOL    HW115713   3.583   4.833   6.743
 4938SOL    HW215714   3.446   4.765   6.688
 4939SOL     OW15715   4.897   3.716   6.288
 4939SOL    HW115716   4.886   3.775   6.367
 4939SOL    HW215717   4.943   3.768   6.215
 4940SOL     OW15718   2.246   6.446   3.769
 4940SOL    HW115719   2.187   6.370   3.743
 4940SOL    HW215720   2.228   6.525   3.709
 4941SOL     OW15721   5.589   0.621   0.647
 4941SOL    HW115722   5.597   0.652   0.552
 4941SOL    HW215723   5.652   0.673   0.704
 4942SOL     OW15724   4.873   2.842   6.320
 4942SOL    HW115725   4.859   2.897   6.238
 4942SOL    HW215726   4.869   2.745   6.296
 4943SOL     OW15727   5.273   2.725   1.403
 4943SOL    HW115728   5.186   2.737   1.356
 4943SOL    HW215729   5.280   2.631   1.437
 4944SOL     OW15730   2.101   4.138   2.088
 4944SOL    HW115731   2.156   4.063   2.125
 4944SOL    HW215732   2.061   4.189   2.163
 4945SOL     OW15733   6.891   6.248   4.410
 4945SOL    HW115734   6.918   6.194   4.330
 4945SOL    HW215735   6.792   6.246   4.420
 4946SOL     OW15736   0.149   4.183   2.164
 4946SOL    HW115737   0.072   4.204   2.103
 4946SOL    HW215738   0.206   4.113   2.122
 4947SOL     OW15739   6.885   0.802   1.101
 4947SOL    HW115740   6.793   0.799   1.061
 4947SOL    HW215741   6.901   0.893   1.140
 4948SOL     OW15742   2.528   1.366   2.171
 4948SOL    HW115743   2.519   1.302   2.248
 4948SOL    HW215744   2.507   1.458   2.202
 4949SOL     OW15745   5.293   2.618   4.561
 4949SOL    HW115746   5.286   2.666   4.474
 4949SOL    HW215747   5.206   2.573   4.581
 4950SOL     OW15748   3.440   4.889   5.054
 4950SOL    HW115749   3.357   4.918   5.101
 4950SOL    HW215750   3.514   4.879   5.121
 4951SOL     OW15751   4.400   1.958   3.733
 4951SOL    HW115752   4.370   1.906   3.653
 4951SOL    HW215753   4.348   1.928   3.813
 4952SOL     OW15754   6.980   4.473   4.887
 4952SOL    HW115755   6.902   4.467   4.823
 4952SOL    HW215756   6.994   4.568   4.913
 4953SOL     OW15757   1.897   4.939   2.299
 4953SOL    HW115758   1.835   4.990   2.239
 4953SOL    HW215759   1.846   4.903   2.377
 4954SOL     OW15760   6.127   6.405   0.326
 4954SOL    HW115761   6.179   6.427   0.408
 4954SOL    HW215762   6.071   6.483   0.300
 4955SOL     OW15763   1.579   1.017   1.101
 4955SOL    HW115764   1.563   1.066   1.187
 4955SOL    HW215765   1.599   0.921   1.121
 4956SOL     OW15766   6.101   6.291   4.043
 4956SOL    HW115767   6.010   6.251   4.054
 4956SOL    HW215768   6.103   6.347   3.960
 4957SOL     OW15769   2.151   6.001   3.762
 4957SOL    HW115770   2.137   6.007   3.861
 4957SOL    HW215771   2.125   6.088   3.720
 4958SOL     OW15772   0.287   6.720   6.458
 4958SOL    HW115773   0.323   6.680   6.542
 4958SOL    HW215774   0.228   6.653   6.412
 4959SOL     OW15775   0.416   1.603   6.679
 4959SOL    HW115776   0.475   1.574   6.603
 4959SOL    HW215777   0.453   1.684   6.722
 4960SOL     OW15778   3.957   6.836   5.447
 4960SOL    HW115779   3.977   6.930   5.471
 4960SOL    HW215780   3.872   6.807   5.491
 4961SOL     OW15781   4.517   0.925   5.257
 4961SOL    HW115782   4.483   0.951   5.167
 4961SOL    HW215783   4.554   0.832   5.253
 4962SOL     OW15784   6.619   2.213   1.850
 4962SOL    HW115785   6.573   2.301   1.844
 4962SOL    HW215786   6.604   2.161   1.766
 4963SOL     OW15787   6.876   4.878   1.006
 4963SOL    HW115788   6.874   4.792   1.056
 4963SOL    HW215789   6.881   4.860   0.908
 4964SOL     OW15790   3.764   6.660   3.147
 4964SOL    HW115791   3.765   6.586   3.214
 4964SOL    HW215792   3.696   6.729   3.174
 4965SOL     OW15793   6.851   6.184   4.728
 4965SOL    HW115794   6.763   6.139   4.716
 4965SOL    HW215795   6.902   6.183   4.642
 4966SOL     OW15796   4.006   5.522   4.507
 4966SOL    HW115797   4.034   5.479   4.593
 4966SOL    HW215798   4.047   5.472   4.431
 4967SOL     OW15799   5.790   1.978   6.279
 4967SOL    HW115800   5.839   2.026   6.207
 4967SOL    HW215801   5.697   2.014   6.287
 4968SOL     OW15802   5.612   4.437   0.018
 4968SOL    HW115803   5.693   4.455   0.075
 4968SOL    HW215804   5.611   4.341   7.017
 4969SOL     OW15805   0.932   1.757   1.343
 4969SOL    HW115806   0.982   1.828   1.294
 4969SOL    HW215807   0.855   1.725   1.288
 4970SOL     OW15808   1.828   2.984   5.847
 4970SOL    HW115809   1.805   2.988   5.944
 4970SOL    HW215810   1.922   2.952   5.836
 4971SOL     OW15811   6.852   5.374   3.989
 4971SOL    HW115812   6.848   5.289   4.042
 4971SOL    HW215813   6.910   5.360   3.908
 4972SOL     OW15814   1.969   2.362   5.346
 4972SOL    HW115815   1.922   2.285   5.303
 4972SOL    HW215816   2.003   2.334   5.436
 4973SOL     OW15817   5.536   5.624   2.945
 4973SOL    HW115818   5.499   5.538   2.911
 4973SOL    HW215819   5.515   5.697   2.880
 4974SOL     OW15820   4.362   6.323   0.120
 4974SOL    HW115821   4.414   6.259   0.176
 4974SOL    HW215822   4.425   6.378   0.065
 4975SOL     OW15823   4.583   6.192   0.314
 4975SOL    HW115824   4.588   6.093   0.325
 4975SOL    HW215825   4.619   6.238   0.395
 4976SOL     OW15826   2.703   0.697   4.121
 4976SOL    HW115827   2.750   0.728   4.038
 4976SOL    HW215828   2.701   0.597   4.123
 4977SOL     OW15829   2.909   2.706   0.249
 4977SOL    HW115830   2.892   2.609   0.233
 4977SOL    HW215831   2.889   2.729   0.344
 4978SOL     OW15832   6.225   4.293   6.772
 4978SOL    HW115833   6.283   4.257   6.699
 4978SOL    HW215834   6.188   4.382   6.745
 4979SOL     OW15835   1.929   1.812   3.999
 4979SOL    HW115836   1.843   1.784   3.957
 4979SOL    HW215837   1.911   1.868   4.079
 4980SOL     OW15838   2.372   4.819   3.083
 4980SOL    HW115839   2.433   4.747   3.114
 4980SOL    HW215840   2.417   4.872   3.010
 4981SOL     OW15841   4.773   6.388   5.303
 4981SOL    HW115842   4.703   6.320   5.324
 4981SOL    HW215843   4.835   6.398   5.381
 4982SOL     OW15844   3.088   2.224   0.463
 4982SOL    HW115845   3.001   2.197   0.421
 4982SOL    HW215846   3.160   2.225   0.393
 4983SOL     OW15847   6.503   2.687   4.811
 4983SOL    HW115848   6.542   2.660   4.724
 4983SOL    HW215849   6.483   2.785   4.810
 4984SOL     OW15850   4.997   4.282   3.063
 4984SOL    HW115851   5.073   4.259   3.124
 4984SOL    HW215852   4.995   4.217   2.987
 4985SOL     OW15853   5.214   4.347   1.900
 4985SOL    HW115854   5.304   4.384   1.923
 4985SOL    HW215855   5.213   4.320   1.804
 4986SOL     OW15856   4.450   4.490   3.429
 4986SOL    HW115857   4.512   4.562   3.398
 4986SOL    HW215858   4.356   4.526   3.433
 4987SOL     OW15859   0.631   3.428   0.714
 4987SOL    HW115860   0.717   3.448   0.760
 4987SOL    HW215861   0.603   3.507   0.660
 4988SOL     OW15862   1.600   2.222   5.168
 4988SOL    HW115863   1.605   2.233   5.069
 4988SOL    HW215864   1.584   2.311   5.211
 4989SOL     OW15865   0.038   1.042   0.827
 4989SOL    HW115866   6.980   1.094   0.842
 4989SOL    HW215867   0.057   0.985   0.906
 4990SOL     OW15868   1.079   2.112   6.105
 4990SOL    HW115869   1.094   2.208   6.129
 4990SOL    HW215870   1.113   2.054   6.179
 4991SOL     OW15871   2.402   1.845   5.076
 4991SOL    HW115872   2.455   1.885   5.151
 4991SOL    HW215873   2.415   1.900   4.993
 4992SOL     OW15874   4.235   0.457   4.440
 4992SOL    HW115875   4.187   0.459   4.352
 4992SOL    HW215876   4.249   0.550   4.473
 4993SOL     OW15877   1.717   6.341   4.173
 4993SOL    HW115878   1.713   6.242   4.163
 4993SOL    HW215879   1.624   6.378   4.173
 4994SOL     OW15880   0.304   6.755   2.554
 4994SOL    HW115881   0.366   6.777   2.478
 4994SOL    HW215882   0.227   6.819   2.553
 4995SOL     OW15883   6.055   3.125   5.828
 4995SOL    HW115884   5.968   3.083   5.804
 4995SOL    HW215885   6.130   3.068   5.794
 4996SOL     OW15886   0.113   1.780   3.845
 4996SOL    HW115887   0.129   1.840   3.766
 4996SOL    HW215888   0.015   1.766   3.856
 4997SOL     OW15889   0.293   2.258   4.172
 4997SOL    HW115890   0.326   2.178   4.222
 4997SOL    HW215891   0.197   2.273   4.193
 4998SOL     OW15892   0.913   5.350   5.560
 4998SOL    HW115893   0.929   5.404   5.643
 4998SOL    HW215894   0.902   5.253   5.585
 4999SOL     OW15895   6.529   4.860   1.087
 4999SOL    HW115896   6.609   4.903   1.044
 4999SOL    HW215897   6.522   4.891   1.182
 5000SOL     OW15898   7.018   5.549   4.121
 5000SOL    HW115899   6.977   5.500   4.045
 5000SOL    HW215900   0.068   5.495   4.159
 5001SOL     OW15901   4.592   4.663   5.416
 5001SOL    HW115902   4.584   4.606   5.498
 5001SOL    HW215903   4.689   4.685   5.400
 5002SOL     OW15904   2.069   2.443   1.600
 5002SOL    HW115905   1.976   2.454   1.636
 5002SOL    HW215906   2.063   2.405   1.508
 5003SOL     OW15907   6.480   5.121   4.020
 5003SOL    HW115908   6.467   5.102   4.117
 5003SOL    HW215909   6.410   5.184   3.988
 5004SOL     OW15910   2.757   4.310   6.316
 5004SOL    HW115911   2.825   4.376   6.285
 5004SOL    HW215912   2.669   4.329   6.272
 5005SOL     OW15913   4.587   1.743   0.371
 5005SOL    HW115914   4.489   1.748   0.352
 5005SOL    HW215915   4.625   1.663   0.326
 5006SOL     OW15916   5.127   4.709   2.505
 5006SOL    HW115917   5.084   4.666   2.425
 5006SOL    HW215918   5.200   4.650   2.539
 5007SOL     OW15919   3.770   1.462   5.390
 5007SOL    HW115920   3.685   1.410   5.382
 5007SOL    HW215921   3.748   1.560   5.392
 5008SOL     OW15922   6.275   0.635   3.477
 5008SOL    HW115923   6.281   0.557   3.539
 5008SOL    HW215924   6.351   0.631   3.412
 5009SOL     OW15925   1.867   5.601   1.929
 5009SOL    HW115926   1.798   5.531   1.950
 5009SOL    HW215927   1.823   5.690   1.922
 5010SOL     OW15928   3.602   3.078   5.685
 5010SOL    HW115929   3.513   3.048   5.718
 5010SOL    HW215930   3.656   3.112   5.762
 5011SOL     OW15931   1.266   2.681   3.879
 5011SOL    HW115932   1.363   2.701   3.864
 5011SOL    HW215933   1.212   2.715   3.802
 5012SOL     OW15934   5.648   3.062   6.922
 5012SOL    HW115935   5.729   3.111   6.888
 5012SOL    HW215936   5.583   3.129   6.959
 5013SOL     OW15937   4.844   2.001   5.667
 5013SOL    HW115938   4.906   1.957   5.602
 5013SOL    HW215939   4.876   1.984   5.760
 5014SOL     OW15940   6.631   5.657   6.563
 5014SOL    HW115941   6.542   5.702   6.549
 5014SOL    HW215942   6.665   5.623   6.476
 5015SOL     OW15943   5.435   2.058   4.022
 5015SOL    HW115944   5.411   2.101   3.935
 5015SOL    HW215945   5.516   2.103   4.060
 5016SOL     OW15946   2.338   6.240   2.413
 5016SOL    HW115947   2.422   6.277   2.452
 5016SOL    HW215948   2.262   6.254   2.477
 5017SOL     OW15949   1.032   2.138   2.215
 5017SOL    HW115950   1.123   2.099   2.232
 5017SOL    HW215951   1.020   2.220   2.272
 5018SOL     OW15952   6.994   4.965   3.924
 5018SOL    HW115953   6.983   5.031   3.849
 5018SOL    HW215954   6.909   4.958   3.975
 5019SOL     OW15955   2.525   5.288   5.635
 5019SOL    HW115956   2.547   5.384   5.647
 5019SOL    HW215957   2.425   5.277   5.632
 5020SOL     OW15958   4.330   5.074   0.090
 5020SOL    HW115959   4.418   5.089   0.045
 5020SOL    HW215960   4.259   5.124   0.041
 5021SOL     OW15961   2.440   4.047   5.615
 5021SOL    HW115962   2.428   4.092   5.526
 5021SOL    HW215963   2.415   3.951   5.608
 5022SOL     OW15964   2.188   3.572   1.090
 5022SOL    HW115965   2.178   3.566   1.189
 5022SOL    HW215966   2.128   3.645   1.055
 5023SOL     OW15967   0.043   2.703   4.192
 5023SOL    HW115968   0.057   2.749   4.104
 5023SOL    HW215969   0.094   2.618   4.193
 5024SOL     OW15970   4.889   3.508   5.676
 5024SOL    HW115971   4.985   3.509   5.706
 5024SOL    HW215972   4.853   3.415   5.683
 5025SOL     OW15973   6.499   0.975   3.636
 5025SOL    HW115974   6.407   0.942   3.615
 5025SOL    HW215975   6.508   1.071   3.608
 5026SOL     OW15976   0.784   6.346   3.219
 5026SOL    HW115977   0.872   6.331   3.263
 5026SOL    HW215978   0.785   6.432   3.169
 5027SOL     OW15979   0.585   6.165   3.930
 5027SOL    HW115980   0.574   6.091   3.864
 5027SOL    HW215981   0.495   6.198   3.959
 5028SOL     OW15982   0.568   0.049   2.968
 5028SOL    HW115983   0.665   0.048   2.944
 5028SOL    HW215984   0.535   0.143   2.969
 5029SOL     OW15985   6.641   1.178   3.534
 5029SOL    HW115986   6.661   1.250   3.600
 5029SOL    HW215987   6.700   1.099   3.551
 5030SOL     OW15988   2.277   5.923   0.136
 5030SOL    HW115989   2.353   5.871   0.174
 5030SOL    HW215990   2.230   5.868   0.067
 5031SOL     OW15991   5.306   0.859   6.319
 5031SOL    HW115992   5.345   0.923   6.384
 5031SOL    HW215993   5.320   0.894   6.226
 5032SOL     OW15994   1.520   5.898   2.362
 5032SOL    HW115995   1.544   5.854   2.276
 5032SOL    HW215996   1.466   5.980   2.343
 5033SOL     OW15997   0.659   3.762   5.155
 5033SOL    HW115998   0.652   3.776   5.254
 5033SOL    HW215999   0.621   3.672   5.131
 5034SOL     OW16000   6.446   4.080   6.179
 5034SOL    HW116001   6.478   4.116   6.091
 5034SOL    HW216002   6.497   4.123   6.253
 5035SOL     OW16003   6.590   4.695   1.418
 5035SOL    HW116004   6.686   4.724   1.415
 5035SOL    HW216005   6.581   4.613   1.474
 5036SOL     OW16006   1.317   0.786   2.380
 5036SOL    HW116007   1.281   0.765   2.289
 5036SOL    HW216008   1.399   0.842   2.371
 5037SOL     OW16009   4.751   2.816   2.939
 5037SOL    HW116010   4.726   2.873   3.017
 5037SOL    HW216011   4.847   2.833   2.914
 5038SOL     OW16012   2.999   5.595   5.119
 5038SOL    HW116013   3.069   5.613   5.050
 5038SOL    HW216014   3.023   5.642   5.204
 5039SOL     OW16015   1.469   2.000   2.655
 5039SOL    HW116016   1.447   1.975   2.750
 5039SOL    HW216017   1.410   2.075   2.626
 5040SOL     OW16018   3.003   3.374   5.846
 5040SOL    HW116019   2.953   3.378   5.932
 5040SOL    HW216020   2.972   3.447   5.785
 5041SOL     OW16021   0.484   5.719   0.697
 5041SOL    HW116022   0.395   5.763   0.698
 5041SOL    HW216023   0.552   5.779   0.739
 5042SOL     OW16024   5.594   1.528   5.862
 5042SOL    HW116025   5.535   1.516   5.782
 5042SOL    HW216026   5.685   1.558   5.832
 5043SOL     OW16027   5.086   6.562   3.771
 5043SOL    HW116028   5.156   6.569   3.842
 5043SOL    HW216029   5.094   6.473   3.726
 5044SOL     OW16030   5.698   4.843   1.709
 5044SOL    HW116031   5.718   4.764   1.768
 5044SOL    HW216032   5.641   4.813   1.632
 5045SOL     OW16033   5.516   3.706   4.886
 5045SOL    HW116034   5.485   3.612   4.875
 5045SOL    HW216035   5.512   3.754   4.798
 5046SOL     OW16036   3.808   3.288   5.725
 5046SOL    HW116037   3.878   3.217   5.718
 5046SOL    HW216038   3.823   3.356   5.653
 5047SOL     OW16039   0.388   1.957   2.079
 5047SOL    HW116040   0.356   1.863   2.068
 5047SOL    HW216041   0.333   2.003   2.148
 5048SOL     OW16042   5.905   3.491   1.359
 5048SOL    HW116043   5.886   3.588   1.346
 5048SOL    HW216044   5.824   3.438   1.332
 5049SOL     OW16045   0.743   2.124   1.554
 5049SOL    HW116046   0.804   2.121   1.475
 5049SOL    HW216047   0.747   2.037   1.603
 5050SOL     OW16048   1.652   4.338   0.433
 5050SOL    HW116049   1.697   4.272   0.373
 5050SOL    HW216050   1.570   4.297   0.472
 5051SOL     OW16051   2.644   3.500   6.645
 5051SOL    HW116052   2.605   3.533   6.559
 5051SOL    HW216053   2.609   3.556   6.721
 5052SOL     OW16054   5.841   3.088   0.710
 5052SOL    HW116055   5.886   3.172   0.739
 5052SOL    HW216056   5.743   3.105   0.696
 5053SOL     OW16057   1.622   4.070   1.155
 5053SOL    HW116058   1.610   4.005   1.079
 5053SOL    HW216059   1.703   4.045   1.207
 5054SOL     OW16060   3.956   6.161   5.323
 5054SOL    HW116061   3.983   6.174   5.228
 5054SOL    HW216062   3.862   6.193   5.336
 5055SOL     OW16063   1.245   1.985   3.960
 5055SOL    HW116064   1.172   2.049   3.986
 5055SOL    HW216065   1.283   2.013   3.872
 5056SOL     OW16066   3.137   2.161   5.596
 5056SOL    HW116067   3.155   2.188   5.691
 5056SOL    HW216068   3.218   2.115   5.559
 5057SOL     OW16069   0.154   4.062   3.094
 5057SOL    HW116070   0.210   4.066   3.177
 5057SOL    HW216071   0.193   4.123   3.025
 5058SOL     OW16072   3.534   1.931   0.500
 5058SOL    HW116073   3.536   1.850   0.558
 5058SOL    HW216074   3.594   1.918   0.421
 5059SOL     OW16075   4.774   2.215   3.116
 5059SOL    HW116076   4.692   2.159   3.130
 5059SOL    HW216077   4.757   2.281   3.043
 5060SOL     OW16078   6.948   3.360   5.617
 5060SOL    HW116079   6.904   3.395   5.699
 5060SOL    HW216080   6.949   3.260   5.619
 5061SOL     OW16081   4.389   2.805   6.030
 5061SOL    HW116082   4.353   2.838   5.942
 5061SOL    HW216083   4.315   2.762   6.082
 5062SOL     OW16084   5.356   1.110   3.304
 5062SOL    HW116085   5.266   1.092   3.343
 5062SOL    HW216086   5.376   1.208   3.308
 5063SOL     OW16087   1.193   1.247   1.446
 5063SOL    HW116088   1.097   1.233   1.472
 5063SOL    HW216089   1.220   1.341   1.465
 5064SOL     OW16090   5.644   4.970   1.094
 5064SOL    HW116091   5.688   4.950   1.007
 5064SOL    HW216092   5.614   4.884   1.136
 5065SOL     OW16093   2.625   1.493   2.480
 5065SOL    HW116094   2.681   1.420   2.442
 5065SOL    HW216095   2.561   1.526   2.411
 5066SOL     OW16096   1.531   5.334   2.618
 5066SOL    HW116097   1.596   5.403   2.588
 5066SOL    HW216098   1.563   5.244   2.590
 5067SOL     OW16099   5.703   3.068   1.649
 5067SOL    HW116100   5.720   3.008   1.571
 5067SOL    HW216101   5.787   3.118   1.672
 5068SOL     OW16102   1.534   6.186   0.803
 5068SOL    HW116103   1.567   6.270   0.847
 5068SOL    HW216104   1.611   6.135   0.767
 5069SOL     OW16105   4.595   5.458   5.498
 5069SOL    HW116106   4.595   5.535   5.561
 5069SOL    HW216107   4.575   5.491   5.406
 5070SOL     OW16108   5.846   3.397   5.844
 5070SOL    HW116109   5.854   3.478   5.901
 5070SOL    HW216110   5.930   3.385   5.790
 5071SOL     OW16111   2.573   6.216   3.054
 5071SOL    HW116112   2.612   6.125   3.068
 5071SOL    HW216113   2.477   6.216   3.084
 5072SOL     OW16114   0.930   1.214   1.579
 5072SOL    HW116115   0.927   1.218   1.679
 5072SOL    HW216116   0.859   1.152   1.545
 5073SOL     OW16117   1.943   1.091   3.538
 5073SOL    HW116118   2.015   1.134   3.593
 5073SOL    HW216119   1.857   1.092   3.588
 5074SOL     OW16120   3.168   2.170   1.473
 5074SOL    HW116121   3.083   2.147   1.427
 5074SOL    HW216122   3.230   2.092   1.471
 5075SOL     OW16123   6.179   2.643   0.525
 5075SOL    HW116124   6.192   2.694   0.610
 5075SOL    HW216125   6.200   2.703   0.447
 5076SOL     OW16126   0.010   1.171   5.559
 5076SOL    HW116127   0.105   1.140   5.559
 5076SOL    HW216128   7.022   1.241   5.629
 5077SOL     OW16129   0.892   4.249   3.614
 5077SOL    HW116130   0.952   4.170   3.597
 5077SOL    HW216131   0.907   4.282   3.707
 5078SOL     OW16132   6.519   2.579   3.693
 5078SOL    HW116133   6.464   2.522   3.632
 5078SOL    HW216134   6.581   2.522   3.747
 5079SOL     OW16135   1.571   3.595   4.678
 5079SOL    HW116136   1.472   3.584   4.667
 5079SOL    HW216137   1.589   3.647   4.761
 5080SOL     OW16138   6.130   5.998   6.711
 5080SOL    HW116139   6.089   6.019   6.623
 5080SOL    HW216140   6.206   6.060   6.728
 5081SOL     OW16141   2.457   4.698   5.216
 5081SOL    HW116142   2.424   4.791   5.232
 5081SOL    HW216143   2.557   4.696   5.221
 5082SOL     OW16144   5.644   5.865   1.316
 5082SOL    HW116145   5.627   5.903   1.225
 5082SOL    HW216146   5.614   5.770   1.318
 5083SOL     OW16147   2.145   0.253   3.649
 5083SOL    HW116148   2.073   0.293   3.706
 5083SOL    HW216149   2.113   0.167   3.609
 5084SOL     OW16150   3.619   4.650   5.758
 5084SOL    HW116151   3.550   4.672   5.689
 5084SOL    HW216152   3.657   4.735   5.796
 5085SOL     OW16153   0.526   4.670   5.576
 5085SOL    HW116154   0.526   4.608   5.497
 5085SOL    HW216155   0.536   4.764   5.545
 5086SOL     OW16156   1.279   4.788   2.487
 5086SOL    HW116157   1.306   4.718   2.420
 5086SOL    HW216158   1.358   4.811   2.544
 5087SOL     OW16159   0.081   4.742   2.017
 5087SOL    HW116160   7.012   4.742   2.051
 5087SOL    HW216161   0.093   4.668   1.952
 5088SOL     OW16162   4.726   5.371   2.408
 5088SOL    HW116163   4.654   5.313   2.369
 5088SOL    HW216164   4.770   5.321   2.483
 5089SOL     OW16165   5.179   6.273   6.245
 5089SOL    HW116166   5.279   6.265   6.252
 5089SOL    HW216167   5.148   6.229   6.161
 5090SOL     OW16168   2.759   6.672   4.633
 5090SOL    HW116169   2.672   6.642   4.593
 5090SOL    HW216170   2.793   6.601   4.695
 5091SOL     OW16171   6.840   6.234   6.044
 5091SOL    HW116172   6.904   6.189   6.106
 5091SOL    HW216173   6.807   6.319   6.086
 5092SOL     OW16174   3.874   3.607   4.171
 5092SOL    HW116175   3.827   3.567   4.092
 5092SOL    HW216176   3.921   3.535   4.222
 5093SOL     OW16177   2.620   2.352   2.858
 5093SOL    HW116178   2.545   2.287   2.843
 5093SOL    HW216179   2.692   2.334   2.791
 5094SOL     OW16180   1.803   6.041   4.793
 5094SOL    HW116181   1.845   6.128   4.820
 5094SOL    HW216182   1.801   6.036   4.693
 5095SOL     OW16183   6.830   1.173   3.148
 5095SOL    HW116184   6.905   1.237   3.133
 5095SOL    HW216185   6.855   1.110   3.222
 5096SOL     OW16186   6.479   3.271   5.890
 5096SOL    HW116187   6.553   3.206   5.868
 5096SOL    HW216188   6.434   3.243   5.974
 5097SOL     OW16189   0.504   0.615   5.608
 5097SOL    HW116190   0.594   0.649   5.635
 5097SOL    HW216191   0.446   0.691   5.581
 5098SOL     OW16192   3.163   2.717   0.167
 5098SOL    HW116193   3.091   2.703   0.234
 5098SOL    HW216194   3.250   2.735   0.213
 5099SOL     OW16195   1.812   6.116   2.396
 5099SOL    HW116196   1.801   6.024   2.434
 5099SOL    HW216197   1.891   6.118   2.335
 5100SOL     OW16198   5.353   3.483   2.317
 5100SOL    HW116199   5.377   3.444   2.406
 5100SOL    HW216200   5.354   3.411   2.248
 5101SOL     OW16201   3.262   0.406   4.722
 5101SOL    HW116202   3.310   0.342   4.662
 5101SOL    HW216203   3.174   0.366   4.749
 5102SOL     OW16204   5.389   5.351   5.023
 5102SOL    HW116205   5.350   5.270   4.979
 5102SOL    HW216206   5.375   5.344   5.122
 5103SOL     OW16207   0.725   0.592   5.946
 5103SOL    HW116208   0.800   0.657   5.958
 5103SOL    HW216209   0.643   0.641   5.916
 5104SOL     OW16210   4.050   3.345   3.151
 5104SOL    HW116211   4.046   3.248   3.128
 5104SOL    HW216212   4.045   3.400   3.068
 5105SOL     OW16213   4.341   3.118   0.066
 5105SOL    HW116214   4.408   3.157   0.003
 5105SOL    HW216215   4.268   3.072   0.015
 5106SOL     OW16216   3.684   1.461   1.314
 5106SOL    HW116217   3.747   1.539   1.309
 5106SOL    HW216218   3.595   1.493   1.346
 5107SOL     OW16219   6.268   5.176   0.959
 5107SOL    HW116220   6.269   5.138   1.052
 5107SOL    HW216221   6.249   5.274   0.964
 5108SOL     OW16222   3.520   4.727   1.192
 5108SOL    HW116223   3.490   4.632   1.181
 5108SOL    HW216224   3.601   4.744   1.136
 5109SOL     OW16225   1.322   2.609   2.790
 5109SOL    HW116226   1.407   2.597   2.739
 5109SOL    HW216227   1.329   2.690   2.848
 5110SOL     OW16228   4.861   6.754   5.269
 5110SOL    HW116229   4.946   6.702   5.279
 5110SOL    HW216230   4.881   6.852   5.264
 5111SOL     OW16231   1.195   5.714   5.544
 5111SOL    HW116232   1.234   5.692   5.633
 5111SOL    HW216233   1.265   5.759   5.488
 5112SOL     OW16234   1.354   6.154   3.527
 5112SOL    HW116235   1.356   6.056   3.504
 5112SOL    HW216236   1.428   6.201   3.478
 5113SOL     OW16237   1.911   4.130   0.912
 5113SOL    HW116238   1.918   4.220   0.953
 5113SOL    HW216239   1.863   4.137   0.824
 5114SOL     OW16240   4.282   4.554   1.367
 5114SOL    HW116241   4.345   4.560   1.445
 5114SOL    HW216242   4.334   4.539   1.283
 5115SOL     OW16243   1.509   3.833   0.588
 5115SOL    HW116244   1.509   3.736   0.564
 5115SOL    HW216245   1.585   3.852   0.650
 5116SOL     OW16246   0.563   6.699   5.001
 5116SOL    HW116247   0.658   6.726   5.017
 5116SOL    HW216248   0.561   6.617   4.943
 5117SOL     OW16249   0.171   2.406   3.527
 5117SOL    HW116250   0.100   2.336   3.523
 5117SOL    HW216251   0.253   2.374   3.479
 5118SOL     OW16252   4.481   5.721   0.292
 5118SOL    HW116253   4.489   5.677   0.382
 5118SOL    HW216254   4.428   5.663   0.231
 5119SOL     OW16255   5.807   1.737   0.488
 5119SOL    HW116256   5.730   1.751   0.551
 5119SOL    HW216257   5.868   1.668   0.525
 5120SOL     OW16258   5.194   6.851   6.805
 5120SOL    HW116259   5.168   6.768   6.757
 5120SOL    HW216260   5.289   6.843   6.836
 5121SOL     OW16261   1.312   3.384   6.384
 5121SOL    HW116262   1.341   3.391   6.289
 5121SOL    HW216263   1.218   3.352   6.389
 5122SOL     OW16264   4.790   4.388   3.604
 5122SOL    HW116265   4.810   4.461   3.539
 5122SOL    HW216266   4.718   4.418   3.667
 5123SOL     OW16267   5.093   3.020   2.434
 5123SOL    HW116268   5.003   2.997   2.471
 5123SOL    HW216269   5.088   3.106   2.384
 5124SOL     OW16270   1.391   6.122   4.865
 5124SOL    HW116271   1.298   6.094   4.888
 5124SOL    HW216272   1.396   6.151   4.770
 5125SOL     OW16273   6.359   1.919   3.859
 5125SOL    HW116274   6.288   1.990   3.858
 5125SOL    HW216275   6.449   1.961   3.851
 5126SOL     OW16276   1.741   0.718   2.188
 5126SOL    HW116277   1.666   0.669   2.233
 5126SOL    HW216278   1.812   0.740   2.255
 5127SOL     OW16279   2.691   6.133   6.811
 5127SOL    HW116280   2.703   6.033   6.808
 5127SOL    HW216281   2.668   6.166   6.720
 5128SOL     OW16282   5.318   0.136   1.825
 5128SOL    HW116283   5.299   0.217   1.770
 5128SOL    HW216284   5.389   0.081   1.780
 5129SOL     OW16285   6.456   6.823   0.422
 5129SOL    HW116286   6.539   6.863   0.460
 5129SOL    HW216287   6.422   6.752   0.484
 5130SOL     OW16288   6.140   5.039   2.359
 5130SOL    HW116289   6.108   5.067   2.268
 5130SOL    HW216290   6.236   5.066   2.370
 5131SOL     OW16291   2.063   2.328   2.643
 5131SOL    HW116292   2.108   2.262   2.703
 5131SOL    HW216293   2.003   2.280   2.579
 5132SOL     OW16294   2.553   5.918   5.224
 5132SOL    HW116295   2.460   5.950   5.245
 5132SOL    HW216296   2.552   5.820   5.207
 5133SOL     OW16297   3.368   6.009   5.471
 5133SOL    HW116298   3.450   5.952   5.482
 5133SOL    HW216299   3.349   6.021   5.373
 5134SOL     OW16300   6.522   3.581   6.266
 5134SOL    HW116301   6.506   3.500   6.209
 5134SOL    HW216302   6.478   3.661   6.224
 5135SOL     OW16303   6.320   1.452   4.368
 5135SOL    HW116304   6.316   1.376   4.303
 5135SOL    HW216305   6.254   1.436   4.441
 5136SOL     OW16306   3.947   2.176   5.852
 5136SOL    HW116307   3.856   2.136   5.842
 5136SOL    HW216308   3.988   2.143   5.937
 5137SOL     OW16309   3.447   3.190   0.153
 5137SOL    HW116310   3.542   3.158   0.154
 5137SOL    HW216311   3.443   3.281   0.195
 5138SOL     OW16312   2.381   3.376   6.320
 5138SOL    HW116313   2.285   3.399   6.337
 5138SOL    HW216314   2.439   3.453   6.349
 5139SOL     OW16315   0.531   0.119   3.439
 5139SOL    HW116316   0.464   0.088   3.372
 5139SOL    HW216317   0.554   0.044   3.500
 5140SOL     OW16318   3.042   2.873   1.413
 5140SOL    HW116319   2.983   2.953   1.422
 5140SOL    HW216320   2.998   2.793   1.453
 5141SOL     OW16321   0.631   4.470   6.096
 5141SOL    HW116322   0.664   4.476   6.190
 5141SOL    HW216323   0.668   4.387   6.053
 5142SOL     OW16324   6.059   2.899   2.843
 5142SOL    HW116325   6.044   2.803   2.868
 5142SOL    HW216326   6.030   2.914   2.748
 5143SOL     OW16327   6.838   5.354   5.171
 5143SOL    HW116328   6.822   5.421   5.099
 5143SOL    HW216329   6.776   5.277   5.160
 5144SOL     OW16330   1.823   1.501   5.010
 5144SOL    HW116331   1.835   1.560   4.930
 5144SOL    HW216332   1.733   1.516   5.050
 5145SOL     OW16333   3.478   5.316   5.823
 5145SOL    HW116334   3.550   5.385   5.813
 5145SOL    HW216335   3.424   5.313   5.739
 5146SOL     OW16336   2.496   5.026   0.084
 5146SOL    HW116337   2.529   4.937   0.116
 5146SOL    HW216338   2.506   5.093   0.158
 5147SOL     OW16339   6.705   5.342   6.566
 5147SOL    HW116340   6.699   5.440   6.553
 5147SOL    HW216341   6.633   5.297   6.513
 5148SOL     OW16342   0.447   0.469   0.778
 5148SOL    HW116343   0.467   0.374   0.799
 5148SOL    HW216344   0.480   0.527   0.853
 5149SOL     OW16345   0.307   0.940   6.042
 5149SOL    HW116346   0.286   1.003   5.968
 5149SOL    HW216347   0.240   0.865   6.042
 5150SOL     OW16348   2.448   5.460   4.488
 5150SOL    HW116349   2.374   5.482   4.424
 5150SOL    HW216350   2.472   5.542   4.540
 5151SOL     OW16351   4.177   0.946   5.559
 5151SOL    HW116352   4.249   1.004   5.521
 5151SOL    HW216353   4.217   0.863   5.597
 5152SOL     OW16354   0.454   4.877   0.244
 5152SOL    HW116355   0.442   4.944   0.171
 5152SOL    HW216356   0.485   4.924   0.327
 5153SOL     OW16357   1.931   2.172   1.101
 5153SOL    HW116358   1.978   2.135   1.181
 5153SOL    HW216359   1.931   2.105   1.027
 5154SOL     OW16360   1.840   4.337   5.778
 5154SOL    HW116361   1.766   4.404   5.787
 5154SOL    HW216362   1.822   4.277   5.700
 5155SOL     OW16363   3.637   0.461   2.595
 5155SOL    HW116364   3.660   0.437   2.689
 5155SOL    HW216365   3.717   0.499   2.550
 5156SOL     OW16366   5.452   2.497   6.255
 5156SOL    HW116367   5.470   2.508   6.352
 5156SOL    HW216368   5.539   2.482   6.207
 5157SOL     OW16369   6.273   2.432   4.249
 5157SOL    HW116370   6.219   2.510   4.278
 5157SOL    HW216371   6.274   2.363   4.322
 5158SOL     OW16372   3.789   0.541   1.167
 5158SOL    HW116373   3.798   0.636   1.196
 5158SOL    HW216374   3.715   0.532   1.101
 5159SOL     OW16375   2.179   3.613   4.958
 5159SOL    HW116376   2.216   3.533   5.004
 5159SOL    HW216377   2.250   3.653   4.899
 5160SOL     OW16378   1.902   2.576   4.241
 5160SOL    HW116379   1.889   2.488   4.196
 5160SOL    HW216380   1.820   2.599   4.293
 5161SOL     OW16381   2.105   3.103   6.569
 5161SOL    HW116382   2.063   3.080   6.656
 5161SOL    HW216383   2.184   3.044   6.554
 5162SOL     OW16384   6.553   5.144   4.613
 5162SOL    HW116385   6.479   5.134   4.680
 5162SOL    HW216386   6.554   5.064   4.553
 5163SOL     OW16387   5.618   4.078   0.871
 5163SOL    HW116388   5.627   4.029   0.958
 5163SOL    HW216389   5.572   4.019   0.805
 5164SOL     OW16390   5.884   5.891   5.768
 5164SOL    HW116391   5.942   5.847   5.836
 5164SOL    HW216392   5.867   5.827   5.693
 5165SOL     OW16393   6.329   3.818   4.664
 5165SOL    HW116394   6.300   3.821   4.760
 5165SOL    HW216395   6.350   3.724   4.638
 5166SOL     OW16396   1.510   6.934   1.969
 5166SOL    HW116397   1.436   6.959   2.031
 5166SOL    HW216398   1.502   6.837   1.945
 5167SOL     OW16399   1.688   0.353   5.396
 5167SOL    HW116400   1.591   0.374   5.382
 5167SOL    HW216401   1.701   0.315   5.488
 5168SOL     OW16402   4.110   2.068   2.837
 5168SOL    HW116403   4.017   2.077   2.801
 5168SOL    HW216404   4.169   2.029   2.766
 5169SOL     OW16405   4.295   4.286   6.667
 5169SOL    HW116406   4.257   4.241   6.586
 5169SOL    HW216407   4.319   4.217   6.735
 5170SOL     OW16408   4.116   5.375   4.311
 5170SOL    HW116409   4.026   5.359   4.270
 5170SOL    HW216410   4.164   5.287   4.319
 5171SOL     OW16411   2.617   4.878   4.669
 5171SOL    HW116412   2.659   4.941   4.734
 5171SOL    HW216413   2.608   4.787   4.711
 5172SOL     OW16414   1.772   4.580   0.326
 5172SOL    HW116415   1.745   4.513   0.395
 5172SOL    HW216416   1.787   4.535   0.239
 5173SOL     OW16417   6.883   2.736   6.064
 5173SOL    HW116418   6.974   2.696   6.052
 5173SOL    HW216419   6.857   2.732   6.160
 5174SOL     OW16420   1.776   4.810   5.826
 5174SOL    HW116421   1.833   4.885   5.857
 5174SOL    HW216422   1.768   4.813   5.727
 5175SOL     OW16423   0.208   5.363   5.943
 5175SOL    HW116424   0.129   5.321   5.899
 5175SOL    HW216425   0.217   5.458   5.913
 5176SOL     OW16426   4.970   4.205   5.888
 5176SOL    HW116427   4.924   4.270   5.948
 5176SOL    HW216428   4.912   4.125   5.874
 5177SOL     OW16429   5.374   5.774   5.909
 5177SOL    HW116430   5.341   5.845   5.846
 5177SOL    HW216431   5.474   5.773   5.909
 5178SOL     OW16432   2.548   2.375   1.306
 5178SOL    HW116433   2.505   2.464   1.324
 5178SOL    HW216434   2.550   2.358   1.208
 5179SOL     OW16435   3.059   6.164   5.602
 5179SOL    HW116436   2.974   6.185   5.555
 5179SOL    HW216437   3.107   6.091   5.552
 5180SOL     OW16438   3.268   1.661   6.888
 5180SOL    HW116439   3.273   1.574   6.938
 5180SOL    HW216440   3.220   1.729   6.944
 5181SOL     OW16441   2.746   5.842   2.494
 5181SOL    HW116442   2.736   5.937   2.466
 5181SOL    HW216443   2.799   5.792   2.424
 5182SOL     OW16444   4.636   3.832   1.454
 5182SOL    HW116445   4.598   3.859   1.542
 5182SOL    HW216446   4.657   3.914   1.400
 5183SOL     OW16447   3.943   0.988   3.515
 5183SOL    HW116448   4.042   0.995   3.532
 5183SOL    HW216449   3.914   0.893   3.526
 5184SOL     OW16450   1.201   2.122   2.928
 5184SOL    HW116451   1.113   2.103   2.972
 5184SOL    HW216452   1.226   2.217   2.944
 5185SOL     OW16453   3.661   0.173   1.651
 5185SOL    HW116454   3.632   0.205   1.741
 5185SOL    HW216455   3.583   0.169   1.589
 5186SOL     OW16456   5.561   4.923   0.115
 5186SOL    HW116457   5.483   4.867   0.145
 5186SOL    HW216458   5.645   4.889   0.157
 5187SOL     OW16459   5.013   1.580   4.678
 5187SOL    HW116460   5.105   1.608   4.648
 5187SOL    HW216461   4.947   1.651   4.655
 5188SOL     OW16462   1.035   2.534   3.425
 5188SOL    HW116463   1.119   2.483   3.444
 5188SOL    HW216464   1.001   2.510   3.334
 5189SOL     OW16465   4.421   5.916   0.005
 5189SOL    HW116466   4.349   5.859   6.990
 5189SOL    HW216467   4.391   5.951   0.093
 5190SOL     OW16468   1.885   2.818   2.509
 5190SOL    HW116469   1.960   2.828   2.575
 5190SOL    HW216470   1.912   2.752   2.439
 5191SOL     OW16471   5.411   0.469   2.243
 5191SOL    HW116472   5.457   0.394   2.196
 5191SOL    HW216473   5.359   0.523   2.176
 5192SOL     OW16474   6.012   4.376   1.886
 5192SOL    HW116475   6.023   4.325   1.972
 5192SOL    HW216476   5.938   4.335   1.833
 5193SOL     OW16477   4.647   4.300   2.174
 5193SOL    HW116478   4.711   4.224   2.172
 5193SOL    HW216479   4.583   4.293   2.098
 5194SOL     OW16480   5.014   1.319   0.381
 5194SOL    HW116481   5.019   1.353   0.474
 5194SOL    HW216482   5.007   1.219   0.382
 5195SOL     OW16483   6.235   6.361   5.211
 5195SOL    HW116484   6.166   6.351   5.140
 5195SOL    HW216485   6.204   6.315   5.294
 5196SOL     OW16486   6.816   3.757   2.277
 5196SOL    HW116487   6.915   3.749   2.288
 5196SOL    HW216488   6.791   3.853   2.262
 5197SOL     OW16489   3.348   5.645   5.404
 5197SOL    HW116490   3.430   5.694   5.434
 5197SOL    HW216491   3.285   5.636   5.480
 5198SOL     OW16492   4.031   1.136   4.742
 5198SOL    HW116493   4.026   1.146   4.842
 5198SOL    HW216494   3.953   1.084   4.710
 5199SOL     OW16495   0.340   5.487   1.577
 5199SOL    HW116496   0.414   5.538   1.619
 5199SOL    HW216497   0.314   5.530   1.490
 5200SOL     OW16498   6.648   0.216   5.018
 5200SOL    HW116499   6.591   0.243   5.096
 5200SOL    HW216500   6.590   0.178   4.946
 5201SOL     OW16501   5.712   4.762   5.552
 5201SOL    HW116502   5.621   4.778   5.512
 5201SOL    HW216503   5.754   4.683   5.508
 5202SOL     OW16504   3.913   3.026   5.814
 5202SOL    HW116505   3.884   2.936   5.848
 5202SOL    HW216506   4.011   3.024   5.794
 5203SOL     OW16507   1.563   0.249   5.981
 5203SOL    HW116508   1.493   0.309   5.943
 5203SOL    HW216509   1.591   0.183   5.911
 5204SOL     OW16510   1.986   0.786   1.323
 5204SOL    HW116511   2.031   0.829   1.402
 5204SOL    HW216512   1.958   0.694   1.347
 5205SOL     OW16513   6.891   0.308   1.565
 5205SOL    HW116514   6.972   0.272   1.519
 5205SOL    HW216515   6.849   0.237   1.621
 5206SOL     OW16516   1.258   4.409   4.064
 5206SOL    HW116517   1.299   4.435   3.977
 5206SOL    HW216518   1.230   4.492   4.114
 5207SOL     OW16519   5.544   6.627   4.717
 5207SOL    HW116520   5.630   6.584   4.746
 5207SOL    HW216521   5.555   6.727   4.719
 5208SOL     OW16522   6.581   2.044   0.489
 5208SOL    HW116523   6.675   2.019   0.512
 5208SOL    HW216524   6.563   2.023   0.393
 5209SOL     OW16525   5.471   6.521   3.658
 5209SOL    HW116526   5.530   6.460   3.710
 5209SOL    HW216527   5.518   6.608   3.643
 5210SOL     OW16528   5.637   4.657   1.177
 5210SOL    HW116529   5.664   4.696   1.264
 5210SOL    HW216530   5.569   4.585   1.192
 5211SOL     OW16531   5.070   2.953   5.121
 5211SOL    HW116532   5.093   2.870   5.070
 5211SOL    HW216533   4.983   2.939   5.169
 5212SOL     OW16534   0.147   3.954   0.697
 5212SOL    HW116535   0.080   3.958   0.623
 5212SOL    HW216536   0.223   4.015   0.676
 5213SOL     OW16537   3.906   3.331   2.729
 5213SOL    HW116538   3.954   3.343   2.642
 5213SOL    HW216539   3.965   3.361   2.804
 5214SOL     OW16540   5.543   3.381   5.785
 5214SOL    HW116541   5.459   3.334   5.758
 5214SOL    HW216542   5.567   3.358   5.879
 5215SOL     OW16543   0.162   4.935   5.421
 5215SOL    HW116544   0.157   4.964   5.517
 5215SOL    HW216545   0.175   5.015   5.363
 5216SOL     OW16546   5.559   4.615   1.531
 5216SOL    HW116547   5.569   4.522   1.565
 5216SOL    HW216548   5.484   4.660   1.578
 5217SOL     OW16549   4.656   0.048   2.618
 5217SOL    HW116550   4.753   0.059   2.639
 5217SOL    HW216551   4.616   7.008   2.682
 5218SOL     OW16552   6.305   0.088   0.697
 5218SOL    HW116553   6.255   0.014   0.743
 5218SOL    HW216554   6.261   0.175   0.717
 5219SOL     OW16555   3.530   1.369   5.242
 5219SOL    HW116556   3.545   1.312   5.162
 5219SOL    HW216557   3.506   1.462   5.213
 5220SOL     OW16558   2.421   5.007   4.510
 5220SOL    HW116559   2.362   4.928   4.500
 5220SOL    HW216560   2.496   4.985   4.574
 5221SOL     OW16561   5.155   6.114   1.337
 5221SOL    HW116562   5.077   6.141   1.394
 5221SOL    HW216563   5.195   6.196   1.295
 5222SOL     OW16564   6.815   3.375   2.181
 5222SOL    HW116565   6.837   3.455   2.126
 5222SOL    HW216566   6.719   3.352   2.169
 5223SOL     OW16567   6.289   2.718   0.759
 5223SOL    HW116568   6.281   2.621   0.785
 5223SOL    HW216569   6.347   2.765   0.825
 5224SOL     OW16570   1.196   1.909   4.941
 5224SOL    HW116571   1.236   1.850   5.012
 5224SOL    HW216572   1.096   1.903   4.946
 5225SOL     OW16573   6.858   2.055   5.129
 5225SOL    HW116574   6.777   2.078   5.075
 5225SOL    HW216575   6.902   2.138   5.160
 5226SOL     OW16576   0.083   6.160   4.522
 5226SOL    HW116577   0.024   6.219   4.467
 5226SOL    HW216578   0.162   6.213   4.553
 5227SOL     OW16579   0.949   3.472   6.006
 5227SOL    HW116580   0.874   3.538   6.011
 5227SOL    HW216581   0.917   3.382   6.038
 5228SOL     OW16582   1.219   1.942   5.312
 5228SOL    HW116583   1.133   1.892   5.298
 5228SOL    HW216584   1.287   1.879   5.349
 5229SOL     OW16585   3.429   2.021   6.037
 5229SOL    HW116586   3.490   2.054   6.109
 5229SOL    HW216587   3.341   2.068   6.044
 5230SOL     OW16588   6.662   0.764   2.456
 5230SOL    HW116589   6.731   0.709   2.408
 5230SOL    HW216590   6.579   0.711   2.467
 5231SOL     OW16591   6.529   3.906   2.404
 5231SOL    HW116592   6.573   3.996   2.417
 5231SOL    HW216593   6.538   3.878   2.309
 5232SOL     OW16594   1.739   2.316   5.757
 5232SOL    HW116595   1.784   2.404   5.738
 5232SOL    HW216596   1.779   2.245   5.699
 5233SOL     OW16597   3.772   6.958   3.397
 5233SOL    HW116598   3.717   6.943   3.479
 5233SOL    HW216599   3.765   0.028   3.369
 5234SOL     OW16600   2.782   2.803   6.202
 5234SOL    HW116601   2.721   2.866   6.154
 5234SOL    HW216602   2.812   2.731   6.139
 5235SOL     OW16603   2.281   1.743   1.704
 5235SOL    HW116604   2.349   1.790   1.760
 5235SOL    HW216605   2.246   1.664   1.754
 5236SOL     OW16606   3.066   4.844   2.034
 5236SOL    HW116607   2.997   4.835   2.106
 5236SOL    HW216608   3.036   4.795   1.952
 5237SOL     OW16609   1.821   1.756   1.767
 5237SOL    HW116610   1.779   1.732   1.679
 5237SOL    HW216611   1.909   1.800   1.751
 5238SOL     OW16612   6.764   0.479   3.017
 5238SOL    HW116613   6.769   0.384   3.050
 5238SOL    HW216614   6.677   0.492   2.969
 5239SOL     OW16615   2.461   4.266   1.193
 5239SOL    HW116616   2.406   4.238   1.272
 5239SOL    HW216617   2.514   4.348   1.216
 5240SOL     OW16618   2.268   4.192   6.306
 5240SOL    HW116619   2.211   4.269   6.279
 5240SOL    HW216620   2.219   4.135   6.372
 5241SOL     OW16621   2.244   6.791   2.597
 5241SOL    HW116622   2.230   6.885   2.566
 5241SOL    HW216623   2.156   6.750   2.622
 5242SOL     OW16624   3.681   6.882   5.999
 5242SOL    HW116625   3.702   6.858   6.094
 5242SOL    HW216626   3.729   6.967   5.975
 5243SOL     OW16627   2.679   5.963   3.125
 5243SOL    HW116628   2.623   5.880   3.133
 5243SOL    HW216629   2.769   5.946   3.165
 5244SOL     OW16630   4.234   0.909   6.754
 5244SOL    HW116631   4.212   0.865   6.841
 5244SOL    HW216632   4.155   0.961   6.722
 5245SOL     OW16633   2.984   4.068   1.900
 5245SOL    HW116634   3.033   3.986   1.929
 5245SOL    HW216635   2.946   4.115   1.980
 5246SOL     OW16636   5.850   3.818   6.273
 5246SOL    HW116637   5.766   3.805   6.326
 5246SOL    HW216638   5.840   3.776   6.183
 5247SOL     OW16639   5.154   1.541   6.635
 5247SOL    HW116640   5.232   1.550   6.574
 5247SOL    HW216641   5.072   1.578   6.592
 5248SOL     OW16642   5.202   1.394   3.769
 5248SOL    HW116643   5.193   1.463   3.698
 5248SOL    HW216644   5.267   1.324   3.740
 5249SOL     OW16645   0.120   5.045   1.172
 5249SOL    HW116646   0.048   5.026   1.240
 5249SOL    HW216647   0.163   5.133   1.193
 5250SOL     OW16648   2.787   5.338   1.192
 5250SOL    HW116649   2.804   5.336   1.290
 5250SOL    HW216650   2.697   5.298   1.173
 5251SOL     OW16651   0.198   4.703   6.799
 5251SOL    HW116652   0.143   4.786   6.802
 5251SOL    HW216653   0.218   4.673   6.892
 5252SOL     OW16654   4.031   5.734   2.724
 5252SOL    HW116655   4.118   5.709   2.682
 5252SOL    HW216656   3.960   5.669   2.698
 5253SOL     OW16657   0.365   6.132   5.010
 5253SOL    HW116658   0.305   6.077   5.068
 5253SOL    HW216659   0.347   6.112   4.914
 5254SOL     OW16660   4.491   5.824   2.679
 5254SOL    HW116661   4.529   5.733   2.666
 5254SOL    HW216662   4.544   5.890   2.624
 5255SOL     OW16663   6.507   1.879   5.749
 5255SOL    HW116664   6.480   1.854   5.842
 5255SOL    HW216665   6.579   1.817   5.718
 5256SOL     OW16666   5.556   1.713   2.877
 5256SOL    HW116667   5.654   1.719   2.894
 5256SOL    HW216668   5.529   1.786   2.814
 5257SOL     OW16669   4.612   2.036   6.701
 5257SOL    HW116670   4.708   2.051   6.677
 5257SOL    HW216671   4.569   2.124   6.724
 5258SOL     OW16672   4.719   1.600   5.042
 5258SOL    HW116673   4.729   1.521   5.102
 5258SOL    HW216674   4.632   1.645   5.060
 5259SOL     OW16675   5.521   5.300   3.747
 5259SOL    HW116676   5.533   5.221   3.807
 5259SOL    HW216677   5.550   5.383   3.795
 5260SOL     OW16678   1.988   5.748   1.616
 5260SOL    HW116679   2.078   5.717   1.586
 5260SOL    HW216680   1.919   5.679   1.595
 5261SOL     OW16681   5.912   4.777   7.019
 5261SOL    HW116682   5.842   4.772   0.065
 5261SOL    HW216683   5.965   4.861   0.005
 5262SOL     OW16684   1.584   1.165   1.743
 5262SOL    HW116685   1.516   1.126   1.682
 5262SOL    HW216686   1.665   1.107   1.745
 5263SOL     OW16687   2.135   6.258   2.996
 5263SOL    HW116688   2.077   6.339   3.004
 5263SOL    HW216689   2.085   6.186   2.948
 5264SOL     OW16690   6.530   2.725   1.804
 5264SOL    HW116691   6.507   2.821   1.791
 5264SOL    HW216692   6.629   2.716   1.818
 5265SOL     OW16693   6.459   5.924   5.556
 5265SOL    HW116694   6.391   5.851   5.542
 5265SOL    HW216695   6.441   5.999   5.492
 5266SOL     OW16696   1.389   6.876   6.127
 5266SOL    HW116697   1.328   6.833   6.194
 5266SOL    HW216698   1.483   6.846   6.143
 5267SOL     OW16699   5.643   1.860   4.023
 5267SOL    HW116700   5.707   1.848   3.947
 5267SOL    HW216701   5.583   1.938   4.005
 5268SOL     OW16702   5.384   0.090   6.186
 5268SOL    HW116703   5.404   0.174   6.134
 5268SOL    HW216704   5.469   0.040   6.201
 5269SOL     OW16705   1.342   0.708   3.832
 5269SOL    HW116706   1.418   0.748   3.883
 5269SOL    HW216707   1.334   0.611   3.855
 5270SOL     OW16708   0.624   2.118   6.192
 5270SOL    HW116709   0.632   2.201   6.136
 5270SOL    HW216710   0.640   2.037   6.134
 5271SOL     OW16711   1.358   4.985   4.253
 5271SOL    HW116712   1.272   4.968   4.301
 5271SOL    HW216713   1.425   5.024   4.316
 5272SOL     OW16714   4.162   0.558   6.375
 5272SOL    HW116715   4.231   0.595   6.437
 5272SOL    HW216716   4.175   0.597   6.284
 5273SOL     OW16717   2.956   1.492   2.798
 5273SOL    HW116718   2.903   1.537   2.726
 5273SOL    HW216719   3.051   1.482   2.768
 5274SOL     OW16720   5.269   4.968   1.259
 5274SOL    HW116721   5.265   4.961   1.159
 5274SOL    HW216722   5.346   5.027   1.285
 5275SOL     OW16723   5.326   1.605   6.252
 5275SOL    HW116724   5.343   1.577   6.346
 5275SOL    HW216725   5.242   1.659   6.248
 5276SOL     OW16726   4.080   6.431   1.632
 5276SOL    HW116727   4.111   6.377   1.554
 5276SOL    HW216728   4.118   6.393   1.717
 5277SOL     OW16729   2.247   3.008   1.875
 5277SOL    HW116730   2.291   2.946   1.940
 5277SOL    HW216731   2.237   3.099   1.917
 5278SOL     OW16732   3.482   3.059   2.392
 5278SOL    HW116733   3.447   3.085   2.302
 5278SOL    HW216734   3.575   3.094   2.403
 5279SOL     OW16735   1.652   6.040   3.026
 5279SOL    HW116736   1.694   6.127   3.000
 5279SOL    HW216737   1.552   6.051   3.029
 5280SOL     OW16738   3.795   1.022   4.623
 5280SOL    HW116739   3.799   1.062   4.532
 5280SOL    HW216740   3.742   0.937   4.620
 5281SOL     OW16741   7.010   2.423   3.874
 5281SOL    HW116742   0.052   2.497   3.876
 5281SOL    HW216743   0.023   2.345   3.825
 5282SOL     OW16744   4.882   2.261   1.161
 5282SOL    HW116745   4.872   2.163   1.141
 5282SOL    HW216746   4.876   2.313   1.077
 5283SOL     OW16747   4.590   4.639   6.317
 5283SOL    HW116748   4.594   4.707   6.390
 5283SOL    HW216749   4.638   4.674   6.236
 5284SOL     OW16750   5.025   3.013   3.824
 5284SOL    HW116751   5.040   2.919   3.855
 5284SOL    HW216752   4.950   3.053   3.876
 5285SOL     OW16753   4.319   6.443   2.479
 5285SOL    HW116754   4.320   6.534   2.522
 5285SOL    HW216755   4.313   6.373   2.550
 5286SOL     OW16756   2.066   4.884   1.892
 5286SOL    HW116757   1.979   4.867   1.847
 5286SOL    HW216758   2.065   4.974   1.934
 5287SOL     OW16759   0.507   1.114   2.533
 5287SOL    HW116760   0.583   1.171   2.501
 5287SOL    HW216761   0.504   1.030   2.480
 5288SOL     OW16762   4.350   0.393   0.512
 5288SOL    HW116763   4.287   0.418   0.585
 5288SOL    HW216764   4.313   0.422   0.424
 5289SOL     OW16765   1.355   6.138   1.411
 5289SOL    HW116766   1.381   6.123   1.506
 5289SOL    HW216767   1.258   6.118   1.398
 5290SOL     OW16768   5.999   5.732   0.115
 5290SOL    HW116769   6.008   5.816   0.169
 5290SOL    HW216770   5.906   5.725   0.079
 5291SOL     OW16771   1.077   5.784   6.560
 5291SOL    HW116772   1.121   5.694   6.563
 5291SOL    HW216773   1.081   5.826   6.650
 5292SOL     OW16774   5.481   1.464   1.025
 5292SOL    HW116775   5.505   1.555   0.993
 5292SOL    HW216776   5.510   1.453   1.120
 5293SOL     OW16777   1.437   1.584   4.501
 5293SOL    HW116778   1.368   1.631   4.447
 5293SOL    HW216779   1.455   1.635   4.585
 5294SOL     OW16780   4.155   3.069   6.097
 5294SOL    HW116781   4.071   3.124   6.091
 5294SOL    HW216782   4.169   3.040   6.191
 5295SOL     OW16783   6.374   1.759   2.559
 5295SOL    HW116784   6.308   1.709   2.503
 5295SOL    HW216785   6.354   1.857   2.554
 5296SOL     OW16786   0.466   3.150   6.588
 5296SOL    HW116787   0.540   3.090   6.617
 5296SOL    HW216788   0.380   3.117   6.627
 5297SOL     OW16789   1.249   2.639   1.881
 5297SOL    HW116790   1.155   2.613   1.859
 5297SOL    HW216791   1.304   2.642   1.798
 5298SOL     OW16792   1.218   4.504   1.833
 5298SOL    HW116793   1.287   4.568   1.800
 5298SOL    HW216794   1.251   4.461   1.917
 5299SOL     OW16795   2.872   0.170   0.985
 5299SOL    HW116796   2.947   0.130   0.932
 5299SOL    HW216797   2.899   0.261   1.017
 5300SOL     OW16798   0.331   5.277   4.061
 5300SOL    HW116799   0.295   5.185   4.045
 5300SOL    HW216800   0.294   5.312   4.147
 5301SOL     OW16801   4.501   0.236   6.966
 5301SOL    HW116802   4.576   0.170   6.974
 5301SOL    HW216803   4.512   0.288   6.881
 5302SOL     OW16804   6.572   4.059   3.356
 5302SOL    HW116805   6.541   4.077   3.449
 5302SOL    HW216806   6.545   3.967   3.329
 5303SOL     OW16807   1.839   4.932   3.411
 5303SOL    HW116808   1.916   4.962   3.355
 5303SOL    HW216809   1.778   4.876   3.356
 5304SOL     OW16810   4.595   3.052   5.815
 5304SOL    HW116811   4.559   3.050   5.908
 5304SOL    HW216812   4.644   2.967   5.797
 5305SOL     OW16813   3.269   1.507   4.246
 5305SOL    HW116814   3.270   1.468   4.154
 5305SOL    HW216815   3.334   1.458   4.304
 5306SOL     OW16816   2.285   6.464   4.568
 5306SOL    HW116817   2.214   6.452   4.498
 5306SOL    HW216818   2.242   6.482   4.656
 5307SOL     OW16819   4.631   0.123   0.239
 5307SOL    HW116820   4.669   0.199   0.292
 5307SOL    HW216821   4.532   0.126   0.241
 5308SOL     OW16822   6.302   1.418   1.804
 5308SOL    HW116823   6.209   1.455   1.804
 5308SOL    HW216824   6.344   1.434   1.714
 5309SOL     OW16825   3.855   3.759   5.029
 5309SOL    HW116826   3.797   3.727   4.954
 5309SOL    HW216827   3.948   3.774   4.995
 5310SOL     OW16828   5.331   2.960   0.685
 5310SOL    HW116829   5.242   2.946   0.728
 5310SOL    HW216830   5.353   2.883   0.626
 5311SOL     OW16831   0.351   6.351   6.798
 5311SOL    HW116832   0.325   6.335   6.703
 5311SOL    HW216833   0.366   6.262   6.843
 5312SOL     OW16834   0.473   3.214   2.026
 5312SOL    HW116835   0.388   3.174   1.993
 5312SOL    HW216836   0.498   3.293   1.971
 5313SOL     OW16837   0.462   5.982   0.864
 5313SOL    HW116838   0.420   5.961   0.952
 5313SOL    HW216839   0.558   6.004   0.877
 5314SOL     OW16840   3.617   5.212   1.440
 5314SOL    HW116841   3.690   5.252   1.385
 5314SOL    HW216842   3.547   5.282   1.459
 5315SOL     OW16843   5.447   2.349   2.321
 5315SOL    HW116844   5.349   2.372   2.326
 5315SOL    HW216845   5.488   2.393   2.242
 5316SOL     OW16846   5.580   5.388   4.031
 5316SOL    HW116847   5.581   5.374   4.130
 5316SOL    HW216848   5.636   5.319   3.987
 5317SOL     OW16849   6.746   5.445   2.368
 5317SOL    HW116850   6.694   5.432   2.283
 5317SOL    HW216851   6.800   5.529   2.362
 5318SOL     OW16852   0.478   2.782   4.107
 5318SOL    HW116853   0.562   2.825   4.072
 5318SOL    HW216854   0.475   2.791   4.207
 5319SOL     OW16855   3.282   6.757   2.692
 5319SOL    HW116856   3.247   6.687   2.630
 5319SOL    HW216857   3.316   6.835   2.639
 5320SOL     OW16858   6.918   3.208   6.624
 5320SOL    HW116859   6.947   3.230   6.531
 5320SOL    HW216860   6.822   3.234   6.636
 5321SOL     OW16861   2.645   4.328   6.583
 5321SOL    HW116862   2.560   4.356   6.538
 5321SOL    HW216863   2.719   4.323   6.515
 5322SOL     OW16864   2.294   5.779   1.056
 5322SOL    HW116865   2.218   5.827   1.013
 5322SOL    HW216866   2.379   5.801   1.008
 5323SOL     OW16867   5.437   3.119   0.272
 5323SOL    HW116868   5.527   3.083   0.298
 5323SOL    HW216869   5.436   3.218   0.289
 5324SOL     OW16870   4.086   2.697   1.285
 5324SOL    HW116871   4.141   2.627   1.240
 5324SOL    HW216872   3.998   2.658   1.312
 5325SOL     OW16873   4.029   6.146   4.644
 5325SOL    HW116874   3.968   6.196   4.705
 5325SOL    HW216875   4.000   6.050   4.639
 5326SOL     OW16876   0.534   0.463   2.384
 5326SOL    HW116877   0.571   0.479   2.476
 5326SOL    HW216878   0.509   0.366   2.375
 5327SOL     OW16879   6.956   0.659   3.784
 5327SOL    HW116880   6.960   0.674   3.685
 5327SOL    HW216881   6.937   0.745   3.830
 5328SOL     OW16882   3.819   5.024   0.025
 5328SOL    HW116883   3.917   5.008   0.009
 5328SOL    HW216884   3.768   5.006   6.966
 5329SOL     OW16885   0.287   5.554   6.481
 5329SOL    HW116886   0.279   5.456   6.501
 5329SOL    HW216887   0.359   5.568   6.413
 5330SOL     OW16888   3.503   4.613   0.441
 5330SOL    HW116889   3.438   4.583   0.511
 5330SOL    HW216890   3.512   4.543   0.371
 5331SOL     OW16891   5.509   1.212   6.979
 5331SOL    HW116892   5.498   1.307   6.949
 5331SOL    HW216893   5.463   1.152   6.914
 5332SOL     OW16894   6.320   3.104   0.310
 5332SOL    HW116895   6.255   3.171   0.346
 5332SOL    HW216896   6.409   3.148   0.296
 5333SOL     OW16897   1.083   0.841   3.808
 5333SOL    HW116898   1.043   0.778   3.875
 5333SOL    HW216899   1.182   0.825   3.803
 5334SOL     OW16900   3.153   6.283   1.604
 5334SOL    HW116901   3.056   6.301   1.586
 5334SOL    HW216902   3.204   6.369   1.599
 5335SOL     OW16903   0.060   4.564   2.257
 5335SOL    HW116904   0.111   4.481   2.275
 5335SOL    HW216905   0.071   4.590   2.161
 5336SOL     OW16906   1.785   3.599   5.129
 5336SOL    HW116907   1.798   3.691   5.093
 5336SOL    HW216908   1.789   3.601   5.229
 5337SOL     OW16909   6.647   3.216   1.277
 5337SOL    HW116910   6.733   3.180   1.239
 5337SOL    HW216911   6.587   3.140   1.301
 5338SOL     OW16912   6.917   3.195   1.219
 5338SOL    HW116913   6.945   3.208   1.124
 5338SOL    HW216914   6.991   3.226   1.279
 5339SOL     OW16915   5.609   2.897   2.785
 5339SOL    HW116916   5.525   2.859   2.823
 5339SOL    HW216917   5.651   2.830   2.724
 5340SOL     OW16918   5.032   3.190   1.711
 5340SOL    HW116919   5.080   3.246   1.779
 5340SOL    HW216920   4.948   3.236   1.684
 5341SOL     OW16921   4.933   4.926   3.502
 5341SOL    HW116922   4.858   4.970   3.550
 5341SOL    HW216923   4.925   4.942   3.404
 5342SOL     OW16924   6.300   5.994   4.563
 5342SOL    HW116925   6.258   5.908   4.535
 5342SOL    HW216926   6.351   6.033   4.486
 5343SOL     OW16927   3.812   3.444   6.745
 5343SOL    HW116928   3.829   3.475   6.652
 5343SOL    HW216929   3.833   3.517   6.810
 5344SOL     OW16930   6.575   1.877   6.848
 5344SOL    HW116931   6.663   1.879   6.896
 5344SOL    HW216932   6.583   1.817   6.769
 5345SOL     OW16933   3.385   1.564   0.200
 5345SOL    HW116934   3.363   1.485   0.143
 5345SOL    HW216935   3.441   1.628   0.147
 5346SOL     OW16936   2.758   6.672   3.370
 5346SOL    HW116937   2.815   6.634   3.443
 5346SOL    HW216938   2.671   6.624   3.366
 5347SOL     OW16939   5.630   1.833   5.208
 5347SOL    HW116940   5.673   1.757   5.160
 5347SOL    HW216941   5.678   1.850   5.294
 5348SOL     OW16942   4.809   2.898   5.252
 5348SOL    HW116943   4.817   2.857   5.344
 5348SOL    HW216944   4.716   2.930   5.238
 5349SOL     OW16945   1.164   4.207   1.290
 5349SOL    HW116946   1.175   4.136   1.360
 5349SOL    HW216947   1.091   4.180   1.228
 5350SOL     OW16948   0.782   6.585   5.960
 5350SOL    HW116949   0.823   6.661   6.011
 5350SOL    HW216950   0.851   6.545   5.899
 5351SOL     OW16951   0.380   5.714   3.320
 5351SOL    HW116952   0.367   5.719   3.221
 5351SOL    HW216953   0.461   5.658   3.340
 5352SOL     OW16954   1.331   2.721   5.804
 5352SOL    HW116955   1.333   2.651   5.733
 5352SOL    HW216956   1.264   2.791   5.779
 5353SOL     OW16957   3.052   6.421   3.767
 5353SOL    HW116958   2.981   6.437   3.835
 5353SOL    HW216959   3.081   6.508   3.727
 5354SOL     OW16960   3.948   5.954   1.942
 5354SOL    HW116961   4.022   5.952   1.875
 5354SOL    HW216962   3.948   5.868   1.993
 5355SOL     OW16963   5.139   5.849   5.253
 5355SOL    HW116964   5.161   5.938   5.293
 5355SOL    HW216965   5.150   5.853   5.153
 5356SOL     OW16966   1.218   6.573   1.504
 5356SOL    HW116967   1.250   6.593   1.412
 5356SOL    HW216968   1.153   6.644   1.533
 5357SOL     OW16969   6.319   3.362   2.648
 5357SOL    HW116970   6.369   3.443   2.616
 5357SOL    HW216971   6.310   3.296   2.573
 5358SOL     OW16972   6.017   0.874   6.445
 5358SOL    HW116973   6.106   0.908   6.474
 5358SOL    HW216974   6.030   0.806   6.373
 5359SOL     OW16975   2.914   2.227   0.027
 5359SOL    HW116976   2.844   2.157   0.043
 5359SOL    HW216977   2.972   2.199   6.975
 5360SOL     OW16978   5.592   6.052   3.900
 5360SOL    HW116979   5.617   6.037   3.804
 5360SOL    HW216980   5.561   6.147   3.912
 5361SOL     OW16981   1.798   3.804   3.223
 5361SOL    HW116982   1.865   3.779   3.152
 5361SOL    HW216983   1.801   3.735   3.295
 5362SOL     OW16984   6.665   1.333   3.297
 5362SOL    HW116985   6.703   1.271   3.229
 5362SOL    HW216986   6.646   1.283   3.381
 5363SOL     OW16987   5.626   5.700   4.140
 5363SOL    HW116988   5.665   5.695   4.231
 5363SOL    HW216989   5.642   5.614   4.091
 5364SOL     OW16990   4.746   2.398   2.191
 5364SOL    HW116991   4.685   2.330   2.231
 5364SOL    HW216992   4.692   2.474   2.155
 5365SOL     OW16993   3.224   3.961   5.529
 5365SOL    HW116994   3.246   3.899   5.454
 5365SOL    HW216995   3.297   4.028   5.540
 5366SOL     OW16996   0.743   4.917   3.358
 5366SOL    HW116997   0.828   4.969   3.357
 5366SOL    HW216998   0.681   4.952   3.288
 5367SOL     OW16999   6.012   6.285   1.210
 5367SOL    HW117000   5.979   6.194   1.236
 5367SOL    HW217001   6.089   6.311   1.268
 5368SOL     OW17002   0.170   5.404   5.111
 5368SOL    HW117003   0.260   5.363   5.096
 5368SOL    HW217004   0.117   5.346   5.173
 5369SOL     OW17005   4.402   6.965   2.778
 5369SOL    HW117006   4.309   6.931   2.768
 5369SOL    HW217007   4.403   0.021   2.837
 5370SOL     OW17008   2.545   2.113   0.732
 5370SOL    HW117009   2.457   2.068   0.715
 5370SOL    HW217010   2.599   2.114   0.648
 5371SOL     OW17011   5.765   5.487   3.519
 5371SOL    HW117012   5.734   5.570   3.566
 5371SOL    HW217013   5.747   5.408   3.578
 5372SOL     OW17014   1.594   0.425   3.767
 5372SOL    HW117015   1.677   0.417   3.712
 5372SOL    HW217016   1.618   0.456   3.859
 5373SOL     OW17017   3.287   0.754   6.863
 5373SOL    HW117018   3.286   0.683   6.792
 5373SOL    HW217019   3.322   0.716   6.948
 5374SOL     OW17020   1.326   3.917   1.339
 5374SOL    HW117021   1.382   3.956   1.411
 5374SOL    HW217022   1.374   3.922   1.251
 5375SOL     OW17023   2.633   4.656   4.816
 5375SOL    HW117024   2.567   4.601   4.868
 5375SOL    HW217025   2.724   4.642   4.853
 5376SOL     OW17026   1.112   0.869   1.165
 5376SOL    HW117027   1.080   0.919   1.084
 5376SOL    HW217028   1.194   0.914   1.202
 5377SOL     OW17029   0.654   2.277   2.306
 5377SOL    HW117030   0.630   2.208   2.238
 5377SOL    HW217031   0.649   2.237   2.398
 5378SOL     OW17032   5.350   6.981   2.665
 5378SOL    HW117033   5.424   6.972   2.732
 5378SOL    HW217034   5.296   0.038   2.686
 5379SOL     OW17035   2.424   2.033   3.700
 5379SOL    HW117036   2.398   1.961   3.637
 5379SOL    HW217037   2.510   2.075   3.670
 5380SOL     OW17038   4.852   6.559   1.181
 5380SOL    HW117039   4.872   6.553   1.279
 5380SOL    HW217040   4.871   6.471   1.138
 5381SOL     OW17041   3.402   2.110   3.114
 5381SOL    HW117042   3.339   2.149   3.180
 5381SOL    HW217043   3.489   2.087   3.159
 5382SOL     OW17044   4.237   0.394   2.568
 5382SOL    HW117045   4.200   0.444   2.646
 5382SOL    HW217046   4.297   0.321   2.600
 5383SOL     OW17047   2.387   3.527   5.326
 5383SOL    HW117048   2.378   3.612   5.274
 5383SOL    HW217049   2.296   3.495   5.354
 5384SOL     OW17050   4.920   6.978   6.210
 5384SOL    HW117051   5.011   6.987   6.251
 5384SOL    HW217052   4.869   0.038   6.223
 5385SOL     OW17053   3.041   3.265   0.062
 5385SOL    HW117054   3.112   3.222   0.007
 5385SOL    HW217055   3.080   3.298   0.148
 5386SOL     OW17056   4.034   5.060   3.528
 5386SOL    HW117057   4.132   5.063   3.509
 5386SOL    HW217058   3.984   5.041   3.444
 5387SOL     OW17059   1.084   2.384   4.209
 5387SOL    HW117060   1.068   2.336   4.295
 5387SOL    HW217061   1.171   2.353   4.170
 5388SOL     OW17062   6.815   6.312   3.747
 5388SOL    HW117063   6.910   6.330   3.773
 5388SOL    HW217064   6.781   6.389   3.693
 5389SOL     OW17065   5.355   1.655   4.304
 5389SOL    HW117066   5.419   1.684   4.232
 5389SOL    HW217067   5.268   1.629   4.262
 5390SOL     OW17068   5.571   3.525   3.480
 5390SOL    HW117069   5.513   3.570   3.547
 5390SOL    HW217070   5.654   3.490   3.525
 5391SOL     OW17071   4.722   2.563   1.433
 5391SOL    HW117072   4.693   2.467   1.432
 5391SOL    HW217073   4.722   2.598   1.339
 5392SOL     OW17074   5.286   0.425   4.358
 5392SOL    HW117075   5.193   0.423   4.394
 5392SOL    HW217076   5.298   0.352   4.291
 5393SOL     OW17077   3.917   1.415   3.473
 5393SOL    HW117078   4.004   1.422   3.522
 5393SOL    HW217079   3.856   1.354   3.523
 5394SOL     OW17080   6.946   2.826   2.364
 5394SOL    HW117081   0.002   2.802   2.418
 5394SOL    HW217082   6.941   2.925   2.354
 5395SOL     OW17083   0.179   1.201   1.157
 5395SOL    HW117084   0.126   1.273   1.112
 5395SOL    HW217085   0.193   1.225   1.253
 5396SOL     OW17086   4.072   2.469   1.032
 5396SOL    HW117087   3.992   2.453   1.090
 5396SOL    HW217088   4.131   2.388   1.033
 5397SOL     OW17089   0.169   0.466   1.898
 5397SOL    HW117090   0.098   0.495   1.962
 5397SOL    HW217091   0.151   0.506   1.808
 5398SOL     OW17092   6.102   2.496   3.478
 5398SOL    HW117093   6.048   2.434   3.420
 5398SOL    HW217094   6.187   2.451   3.505
 5399SOL     OW17095   2.239   3.086   0.686
 5399SOL    HW117096   2.263   3.088   0.589
 5399SOL    HW217097   2.317   3.053   0.739
 5400SOL     OW17098   5.296   3.082   1.366
 5400SOL    HW117099   5.305   3.011   1.295
 5400SOL    HW217100   5.257   3.165   1.326
 5401SOL     OW17101   5.224   2.990   1.600
 5401SOL    HW117102   5.273   3.031   1.523
 5401SOL    HW217103   5.163   3.058   1.641
 5402SOL     OW17104   1.606   5.806   1.880
 5402SOL    HW117105   1.669   5.851   1.817
 5402SOL    HW217106   1.522   5.781   1.831
 5403SOL     OW17107   5.924   2.134   6.117
 5403SOL    HW117108   6.009   2.092   6.086
 5403SOL    HW217109   5.944   2.207   6.182
 5404SOL     OW17110   4.756   6.534   0.217
 5404SOL    HW117111   4.823   6.517   0.145
 5404SOL    HW217112   4.792   6.503   0.305
 5405SOL     OW17113   0.199   5.298   6.531
 5405SOL    HW117114   0.258   5.222   6.557
 5405SOL    HW217115   0.110   5.287   6.575
 5406SOL     OW17116   2.561   0.789   5.268
 5406SOL    HW117117   2.575   0.873   5.215
 5406SOL    HW217118   2.478   0.744   5.238
 5407SOL     OW17119   1.886   0.231   2.893
 5407SOL    HW117120   1.827   0.308   2.914
 5407SOL    HW217121   1.917   0.238   2.798
 5408SOL     OW17122   1.955   2.207   4.576
 5408SOL    HW117123   1.945   2.238   4.671
 5408SOL    HW217124   1.970   2.108   4.575
 5409SOL     OW17125   0.840   3.237   2.852
 5409SOL    HW117126   0.864   3.160   2.793
 5409SOL    HW217127   0.814   3.316   2.796
 5410SOL     OW17128   6.015   2.169   0.361
 5410SOL    HW117129   5.973   2.087   0.398
 5410SOL    HW217130   5.947   2.242   0.354
 5411SOL     OW17131   3.141   5.330   1.480
 5411SOL    HW117132   3.204   5.285   1.417
 5411SOL    HW217133   3.098   5.408   1.435
 5412SOL     OW17134   1.492   2.335   5.586
 5412SOL    HW117135   1.565   2.378   5.639
 5412SOL    HW217136   1.486   2.238   5.611
 5413SOL     OW17137   6.962   5.558   5.852
 5413SOL    HW117138   0.034   5.577   5.839
 5413SOL    HW217139   6.914   5.570   5.765
 5414SOL     OW17140   5.397   5.312   5.941
 5414SOL    HW117141   5.412   5.306   6.040
 5414SOL    HW217142   5.405   5.221   5.900
 5415SOL     OW17143   1.595   1.519   6.316
 5415SOL    HW117144   1.625   1.434   6.273
 5415SOL    HW217145   1.496   1.516   6.332
 5416SOL     OW17146   3.487   5.834   6.439
 5416SOL    HW117147   3.439   5.756   6.479
 5416SOL    HW217148   3.462   5.917   6.488
 5417SOL     OW17149   5.727   0.128   2.396
 5417SOL    HW117150   5.651   0.185   2.364
 5417SOL    HW217151   5.751   0.154   2.489
 5418SOL     OW17152   0.472   3.817   5.633
 5418SOL    HW117153   0.481   3.902   5.581
 5418SOL    HW217154   0.503   3.831   5.727
 5419SOL     OW17155   3.742   1.262   6.036
 5419SOL    HW117156   3.693   1.349   6.047
 5419SOL    HW217157   3.840   1.280   6.025
 5420SOL     OW17158   1.540   2.278   0.838
 5420SOL    HW117159   1.491   2.340   0.899
 5420SOL    HW217160   1.501   2.186   0.845
 5421SOL     OW17161   4.170   5.112   1.824
 5421SOL    HW117162   4.232   5.177   1.867
 5421SOL    HW217163   4.091   5.160   1.786
 5422SOL     OW17164   2.674   6.149   3.396
 5422SOL    HW117165   2.655   6.239   3.436
 5422SOL    HW217166   2.664   6.153   3.297
 5423SOL     OW17167   4.202   6.725   1.427
 5423SOL    HW117168   4.115   6.746   1.383
 5423SOL    HW217169   4.235   6.636   1.396
 5424SOL     OW17170   3.900   3.811   5.346
 5424SOL    HW117171   3.989   3.765   5.347
 5424SOL    HW217172   3.884   3.855   5.434
 5425SOL     OW17173   1.544   5.245   5.299
 5425SOL    HW117174   1.523   5.221   5.204
 5425SOL    HW217175   1.642   5.241   5.313
 5426SOL     OW17176   0.834   4.274   6.900
 5426SOL    HW117177   0.751   4.330   6.893
 5426SOL    HW217178   0.826   4.214   6.979
 5427SOL     OW17179   4.897   2.313   0.327
 5427SOL    HW117180   4.837   2.302   0.407
 5427SOL    HW217181   4.857   2.381   0.266
 5428SOL     OW17182   4.565   5.738   2.935
 5428SOL    HW117183   4.550   5.755   2.838
 5428SOL    HW217184   4.494   5.679   2.971
 5429SOL     OW17185   2.310   6.504   4.033
 5429SOL    HW117186   2.281   6.592   4.070
 5429SOL    HW217187   2.287   6.499   3.936
 5430SOL     OW17188   1.263   4.184   5.086
 5430SOL    HW117189   1.318   4.114   5.041
 5430SOL    HW217190   1.216   4.239   5.017
 5431SOL     OW17191   4.983   4.423   1.281
 5431SOL    HW117192   5.030   4.511   1.288
 5431SOL    HW217193   4.975   4.397   1.185
 5432SOL     OW17194   0.445   5.066   6.266
 5432SOL    HW117195   0.446   5.111   6.355
 5432SOL    HW217196   0.496   5.121   6.199
 5433SOL     OW17197   2.922   6.970   1.167
 5433SOL    HW117198   3.021   6.983   1.172
 5433SOL    HW217199   2.881   0.020   1.115
 5434SOL     OW17200   5.159   6.134   4.068
 5434SOL    HW117201   5.205   6.123   3.980
 5434SOL    HW217202   5.167   6.049   4.121
 5435SOL     OW17203   6.822   3.778   6.502
 5435SOL    HW117204   6.839   3.799   6.598
 5435SOL    HW217205   6.811   3.863   6.450
 5436SOL     OW17206   1.918   4.449   1.951
 5436SOL    HW117207   1.835   4.502   1.933
 5436SOL    HW217208   1.971   4.442   1.866
 5437SOL     OW17209   3.242   6.117   0.159
 5437SOL    HW117210   3.281   6.143   0.247
 5437SOL    HW217211   3.195   6.196   0.119
 5438SOL     OW17212   5.788   6.974   2.724
 5438SOL    HW117213   5.696   6.956   2.759
 5438SOL    HW217214   5.791   0.039   2.682
 5439SOL     OW17215   1.709   4.111   1.900
 5439SOL    HW117216   1.658   4.026   1.913
 5439SOL    HW217217   1.734   4.150   1.988
 5440SOL     OW17218   6.250   0.148   3.878
 5440SOL    HW117219   6.316   0.124   3.807
 5440SOL    HW217220   6.159   0.115   3.852
 5441SOL     OW17221   5.803   2.056   4.679
 5441SOL    HW117222   5.765   2.019   4.764
 5441SOL    HW217223   5.747   2.025   4.602
 5442SOL     OW17224   2.461   0.139   6.635
 5442SOL    HW117225   2.505   0.227   6.620
 5442SOL    HW217226   2.445   0.095   6.547
 5443SOL     OW17227   5.949   0.597   3.438
 5443SOL    HW117228   5.945   0.505   3.477
 5443SOL    HW217229   6.044   0.625   3.427
 5444SOL     OW17230   0.952   1.357   5.817
 5444SOL    HW117231   0.917   1.445   5.850
 5444SOL    HW217232   1.045   1.344   5.852
 5445SOL     OW17233   6.066   6.696   5.141
 5445SOL    HW117234   5.973   6.729   5.157
 5445SOL    HW217235   6.119   6.767   5.094
 5446SOL     OW17236   1.508   5.105   5.643
 5446SOL    HW117237   1.425   5.054   5.621
 5446SOL    HW217238   1.567   5.109   5.562
 5447SOL     OW17239   6.403   2.183   1.219
 5447SOL    HW117240   6.404   2.113   1.147
 5447SOL    HW217241   6.357   2.146   1.300
 5448SOL     OW17242   6.377   4.921   1.942
 5448SOL    HW117243   6.401   5.000   1.885
 5448SOL    HW217244   6.283   4.931   1.975
 5449SOL     OW17245   1.966   6.779   1.898
 5449SOL    HW117246   1.961   6.864   1.949
 5449SOL    HW217247   1.964   6.799   1.800
 5450SOL     OW17248   4.616   5.646   1.491
 5450SOL    HW117249   4.536   5.682   1.441
 5450SOL    HW217250   4.604   5.664   1.589
 5451SOL     OW17251   0.456   6.440   3.681
 5451SOL    HW117252   0.479   6.537   3.672
 5451SOL    HW217253   0.493   6.390   3.603
 5452SOL     OW17254   2.430   4.391   2.942
 5452SOL    HW117255   2.358   4.435   2.996
 5452SOL    HW217256   2.494   4.344   3.004
 5453SOL     OW17257   5.781   4.758   4.121
 5453SOL    HW117258   5.683   4.742   4.111
 5453SOL    HW217259   5.827   4.733   4.037
 5454SOL     OW17260   5.772   4.292   2.454
 5454SOL    HW117261   5.725   4.205   2.467
 5454SOL    HW217262   5.856   4.293   2.508
 5455SOL     OW17263   2.701   2.216   3.088
 5455SOL    HW117264   2.619   2.160   3.091
 5455SOL    HW217265   2.694   2.282   3.014
 5456SOL     OW17266   5.509   2.446   0.834
 5456SOL    HW117267   5.434   2.382   0.848
 5456SOL    HW217268   5.595   2.396   0.825
 5457SOL     OW17269   0.026   1.348   0.075
 5457SOL    HW117270   0.033   1.328   7.003
 5457SOL    HW217271   0.003   1.444   0.088
 5458SOL     OW17272   5.619   4.634   5.779
 5458SOL    HW117273   5.676   4.669   5.704
 5458SOL    HW217274   5.611   4.704   5.850
 5459SOL     OW17275   2.219   3.125   5.214
 5459SOL    HW117276   2.136   3.071   5.204
 5459SOL    HW217277   2.298   3.071   5.187
 5460SOL     OW17278   0.363   0.676   1.198
 5460SOL    HW117279   0.318   0.601   1.149
 5460SOL    HW217280   0.294   0.733   1.242
 5461SOL     OW17281   6.116   1.531   6.748
 5461SOL    HW117282   6.088   1.625   6.727
 5461SOL    HW217283   6.131   1.521   6.846
 5462SOL     OW17284   5.104   5.439   6.151
 5462SOL    HW117285   5.095   5.341   6.134
 5462SOL    HW217286   5.197   5.469   6.127
 5463SOL     OW17287   1.872   5.028   5.996
 5463SOL    HW117288   1.937   5.026   6.072
 5463SOL    HW217289   1.798   5.091   6.018
 5464SOL     OW17290   2.196   5.388   4.674
 5464SOL    HW117291   2.289   5.421   4.657
 5464SOL    HW217292   2.169   5.412   4.767
 5465SOL     OW17293   0.496   0.434   4.968
 5465SOL    HW117294   0.463   0.528   4.967
 5465SOL    HW217295   0.448   0.381   4.898
 5466SOL     OW17296   5.022   2.265   4.937
 5466SOL    HW117297   5.060   2.352   4.905
 5466SOL    HW217298   5.096   2.200   4.953
 5467SOL     OW17299   6.073   3.462   4.250
 5467SOL    HW117300   6.166   3.432   4.231
 5467SOL    HW217301   6.036   3.508   4.169
 5468SOL     OW17302   6.936   2.683   1.586
 5468SOL    HW117303   0.005   2.659   1.610
 5468SOL    HW217304   6.923   2.782   1.597
 5469SOL     OW17305   3.997   2.079   3.820
 5469SOL    HW117306   4.055   2.161   3.814
 5469SOL    HW217307   3.927   2.083   3.749
 5470SOL     OW17308   3.423   5.047   3.291
 5470SOL    HW117309   3.507   5.063   3.343
 5470SOL    HW217310   3.352   5.010   3.352
 5471SOL     OW17311   5.550   0.981   2.884
 5471SOL    HW117312   5.509   1.010   2.970
 5471SOL    HW217313   5.644   1.014   2.879
 5472SOL     OW17314   2.409   3.703   6.666
 5472SOL    HW117315   2.357   3.735   6.587
 5472SOL    HW217316   2.502   3.741   6.663
 5473SOL     OW17317   2.873   4.748   2.209
 5473SOL    HW117318   2.828   4.701   2.285
 5473SOL    HW217319   2.862   4.694   2.125
 5474SOL     OW17320   1.119   4.837   2.121
 5474SOL    HW117321   1.217   4.837   2.102
 5474SOL    HW217322   1.077   4.755   2.082
 5475SOL     OW17323   1.229   1.015   5.395
 5475SOL    HW117324   1.288   1.018   5.314
 5475SOL    HW217325   1.272   0.958   5.465
 5476SOL     OW17326   2.081   0.795   4.658
 5476SOL    HW117327   2.120   0.883   4.687
 5476SOL    HW217328   1.982   0.799   4.666
 5477SOL     OW17329   2.259   3.041   2.954
 5477SOL    HW117330   2.257   2.942   2.951
 5477SOL    HW217331   2.169   3.077   2.930
 5478SOL     OW17332   6.015   4.009   5.923
 5478SOL    HW117333   6.101   4.050   5.894
 5478SOL    HW217334   5.971   4.069   5.990
 5479SOL     OW17335   5.655   3.243   4.354
 5479SOL    HW117336   5.734   3.286   4.397
 5479SOL    HW217337   5.574   3.300   4.369
 5480SOL     OW17338   1.274   3.522   4.603
 5480SOL    HW117339   1.227   3.457   4.663
 5480SOL    HW217340   1.262   3.495   4.508
 5481SOL     OW17341   3.933   1.209   6.439
 5481SOL    HW117342   3.999   1.220   6.366
 5481SOL    HW217343   3.848   1.256   6.414
 5482SOL     OW17344   5.473   3.744   2.235
 5482SOL    HW117345   5.448   3.662   2.286
 5482SOL    HW217346   5.503   3.719   2.143
 5483SOL     OW17347   6.504   2.832   0.331
 5483SOL    HW117348   6.405   2.817   0.339
 5483SOL    HW217349   6.540   2.866   0.418
 5484SOL     OW17350   6.413   0.558   5.495
 5484SOL    HW117351   6.486   0.491   5.512
 5484SOL    HW217352   6.409   0.578   5.397
 5485SOL     OW17353   3.109   0.544   4.445
 5485SOL    HW117354   3.047   0.533   4.522
 5485SOL    HW217355   3.168   0.624   4.460
 5486SOL     OW17356   1.139   0.646   3.541
 5486SOL    HW117357   1.116   0.656   3.638
 5486SOL    HW217358   1.222   0.591   3.531
 5487SOL     OW17359   4.098   5.277   1.419
 5487SOL    HW117360   4.000   5.292   1.403
 5487SOL    HW217361   4.137   5.358   1.463
 5488SOL     OW17362   4.690   1.314   5.732
 5488SOL    HW117363   4.635   1.329   5.814
 5488SOL    HW217364   4.645   1.356   5.653
 5489SOL     OW17365   6.627   4.437   2.279
 5489SOL    HW117366   6.546   4.456   2.334
 5489SOL    HW217367   6.707   4.481   2.319
 5490SOL     OW17368   2.611   1.964   6.249
 5490SOL    HW117369   2.531   1.990   6.195
 5490SOL    HW217370   2.684   1.934   6.187
 5491SOL     OW17371   0.531   5.819   2.630
 5491SOL    HW117372   0.443   5.821   2.678
 5491SOL    HW217373   0.519   5.857   2.538
 5492SOL     OW17374   1.201   1.462   4.606
 5492SOL    HW117375   1.223   1.372   4.642
 5492SOL    HW217376   1.284   1.504   4.567
 5493SOL     OW17377   2.975   1.764   0.586
 5493SOL    HW117378   2.950   1.828   0.659
 5493SOL    HW217379   3.045   1.805   0.528
 5494SOL     OW17380   5.933   2.978   2.468
 5494SOL    HW117381   5.890   3.015   2.550
 5494SOL    HW217382   5.863   2.962   2.398
 5495SOL     OW17383   3.758   3.009   4.230
 5495SOL    HW117384   3.658   3.009   4.240
 5495SOL    HW217385   3.784   3.068   4.154
 5496SOL     OW17386   4.908   5.199   2.152
 5496SOL    HW117387   4.881   5.227   2.244
 5496SOL    HW217388   4.911   5.099   2.147
 5497SOL     OW17389   5.563   0.252   0.946
 5497SOL    HW117390   5.651   0.295   0.926
 5497SOL    HW217391   5.495   0.282   0.879
 5498SOL     OW17392   4.197   1.320   4.592
 5498SOL    HW117393   4.175   1.333   4.495
 5498SOL    HW217394   4.123   1.270   4.637
 5499SOL     OW17395   0.516   1.414   5.652
 5499SOL    HW117396   0.572   1.383   5.729
 5499SOL    HW217397   0.419   1.407   5.677
 5500SOL     OW17398   1.742   6.412   0.887
 5500SOL    HW117399   1.734   6.393   0.985
 5500SOL    HW217400   1.837   6.396   0.858
 5501SOL     OW17401   2.884   0.837   2.501
 5501SOL    HW117402   2.912   0.756   2.552
 5501SOL    HW217403   2.964   0.888   2.470
 5502SOL     OW17404   4.419   2.998   0.302
 5502SOL    HW117405   4.373   3.021   0.388
 5502SOL    HW217406   4.386   3.058   0.229
 5503SOL     OW17407   0.186   6.609   4.639
 5503SOL    HW117408   0.107   6.577   4.587
 5503SOL    HW217409   0.156   6.670   4.712
 5504SOL     OW17410   2.783   2.066   4.320
 5504SOL    HW117411   2.801   2.025   4.231
 5504SOL    HW217412   2.694   2.036   4.354
 5505SOL     OW17413   3.830   4.627   6.769
 5505SOL    HW117414   3.752   4.636   6.831
 5505SOL    HW217415   3.915   4.641   6.819
 5506SOL     OW17416   6.964   6.670   6.107
 5506SOL    HW117417   7.000   6.732   6.037
 5506SOL    HW217418   6.873   6.700   6.134
 5507SOL     OW17419   3.461   5.679   4.587
 5507SOL    HW117420   3.561   5.689   4.586
 5507SOL    HW217421   3.431   5.634   4.504
 5508SOL     OW17422   1.420   0.563   5.673
 5508SOL    HW117423   1.502   0.577   5.618
 5508SOL    HW217424   1.367   0.648   5.674
 5509SOL     OW17425   6.241   6.976   6.399
 5509SOL    HW117426   6.164   6.979   6.334
 5509SOL    HW217427   6.319   6.931   6.356
 5510SOL     OW17428   6.064   0.824   6.123
 5510SOL    HW117429   6.145   0.854   6.173
 5510SOL    HW217430   6.092   0.770   6.043
 5511SOL     OW17431   6.952   2.567   1.269
 5511SOL    HW117432   6.987   2.511   1.343
 5511SOL    HW217433   6.889   2.636   1.306
 5512SOL     OW17434   0.453   0.686   0.388
 5512SOL    HW117435   0.372   0.650   0.342
 5512SOL    HW217436   0.493   0.615   0.445
 5513SOL     OW17437   2.798   5.799   5.055
 5513SOL    HW117438   2.744   5.825   5.135
 5513SOL    HW217439   2.847   5.714   5.075
 5514SOL     OW17440   5.810   5.697   3.886
 5514SOL    HW117441   5.849   5.628   3.947
 5514SOL    HW217442   5.828   5.788   3.924
 5515SOL     OW17443   6.622   3.780   3.328
 5515SOL    HW117444   6.648   3.800   3.233
 5515SOL    HW217445   6.598   3.684   3.337
 5516SOL     OW17446   1.160   3.068   6.147
 5516SOL    HW117447   1.250   3.032   6.170
 5516SOL    HW217448   1.145   3.061   6.048
 5517SOL     OW17449   2.602   0.982   2.222
 5517SOL    HW117450   2.564   1.006   2.132
 5517SOL    HW217451   2.688   1.031   2.236
 5518SOL     OW17452   5.475   4.711   5.207
 5518SOL    HW117453   5.432   4.740   5.292
 5518SOL    HW217454   5.508   4.617   5.217
 5519SOL     OW17455   5.460   3.831   3.054
 5519SOL    HW117456   5.475   3.777   2.971
 5519SOL    HW217457   5.434   3.924   3.029
 5520SOL     OW17458   2.012   2.853   0.559
 5520SOL    HW117459   2.046   2.791   0.630
 5520SOL    HW217460   2.012   2.947   0.594
 5521SOL     OW17461   5.259   5.470   0.753
 5521SOL    HW117462   5.170   5.439   0.719
 5521SOL    HW217463   5.269   5.443   0.849
 5522SOL     OW17464   1.931   2.916   2.158
 5522SOL    HW117465   1.955   2.936   2.253
 5522SOL    HW217466   2.002   2.950   2.098
 5523SOL     OW17467   3.604   0.812   1.765
 5523SOL    HW117468   3.609   0.725   1.716
 5523SOL    HW217469   3.520   0.815   1.819
 5524SOL     OW17470   5.891   6.163   5.780
 5524SOL    HW117471   5.905   6.065   5.792
 5524SOL    HW217472   5.980   6.209   5.774
 5525SOL     OW17473   6.391   5.809   3.723
 5525SOL    HW117474   6.339   5.779   3.643
 5525SOL    HW217475   6.329   5.831   3.798
 5526SOL     OW17476   5.324   3.223   5.003
 5526SOL    HW117477   5.358   3.144   4.952
 5526SOL    HW217478   5.229   3.206   5.031
 5527SOL     OW17479   1.982   3.406   6.989
 5527SOL    HW117480   2.039   3.373   6.914
 5527SOL    HW217481   1.886   3.381   6.971
 5528SOL     OW17482   6.712   3.624   2.927
 5528SOL    HW117483   6.629   3.663   2.886
 5528SOL    HW217484   6.768   3.697   2.966
 5529SOL     OW17485   0.700   1.166   4.271
 5529SOL    HW117486   0.652   1.248   4.241
 5529SOL    HW217487   0.792   1.191   4.302
 5530SOL     OW17488   0.035   3.703   6.876
 5530SOL    HW117489   0.082   3.761   6.809
 5530SOL    HW217490   0.076   3.612   6.874
 5531SOL     OW17491   1.748   2.832   6.581
 5531SOL    HW117492   1.710   2.741   6.593
 5531SOL    HW217493   1.817   2.831   6.509
 5532SOL     OW17494   2.045   2.273   1.382
 5532SOL    HW117495   2.058   2.202   1.451
 5532SOL    HW217496   2.127   2.279   1.324
 5533SOL     OW17497   3.528   0.261   0.505
 5533SOL    HW117498   3.620   0.287   0.476
 5533SOL    HW217499   3.468   0.257   0.425
 5534SOL     OW17500   6.937   3.963   5.296
 5534SOL    HW117501   6.894   4.022   5.228
 5534SOL    HW217502   0.010   3.957   5.278
 5535SOL     OW17503   6.361   3.156   3.987
 5535SOL    HW117504   6.344   3.082   3.923
 5535SOL    HW217505   6.459   3.174   3.992
 5536SOL     OW17506   3.001   0.599   3.857
 5536SOL    HW117507   3.015   0.668   3.928
 5536SOL    HW217508   3.022   0.509   3.893
 5537SOL     OW17509   4.034   1.554   4.891
 5537SOL    HW117510   4.118   1.501   4.896
 5537SOL    HW217511   4.039   1.617   4.813
 5538SOL     OW17512   5.306   2.465   2.631
 5538SOL    HW117513   5.291   2.501   2.539
 5538SOL    HW217514   5.348   2.375   2.625
 5539SOL     OW17515   2.532   6.824   7.001
 5539SOL    HW117516   2.566   6.905   6.953
 5539SOL    HW217517   2.543   6.743   6.942
 5540SOL     OW17518   5.088   0.257   5.574
 5540SOL    HW117519   5.072   0.278   5.477
 5540SOL    HW217520   5.039   0.174   5.599
 5541SOL     OW17521   5.019   3.427   0.114
 5541SOL    HW117522   4.927   3.425   0.152
 5541SOL    HW217523   5.025   3.498   0.044
 5542SOL     OW17524   4.407   4.511   0.404
 5542SOL    HW117525   4.362   4.422   0.401
 5542SOL    HW217526   4.438   4.530   0.497
 5543SOL     OW17527   1.443   0.459   6.733
 5543SOL    HW117528   1.517   0.433   6.672
 5543SOL    HW217529   1.446   0.403   6.816
 5544SOL     OW17530   3.587   5.025   0.626
 5544SOL    HW117531   3.539   5.111   0.642
 5544SOL    HW217532   3.678   5.029   0.668
 5545SOL     OW17533   5.164   1.083   4.140
 5545SOL    HW117534   5.214   1.105   4.224
 5545SOL    HW217535   5.067   1.077   4.160
 5546SOL     OW17536   0.395   4.855   4.456
 5546SOL    HW117537   0.319   4.833   4.395
 5546SOL    HW217538   0.400   4.786   4.529
 5547SOL     OW17539   4.997   2.078   4.718
 5547SOL    HW117540   4.966   2.138   4.793
 5547SOL    HW217541   4.995   1.983   4.749
 5548SOL     OW17542   0.582   4.888   5.092
 5548SOL    HW117543   0.570   4.948   5.012
 5548SOL    HW217544   0.493   4.853   5.120
 5549SOL     OW17545   4.352   2.847   0.554
 5549SOL    HW117546   4.402   2.815   0.634
 5549SOL    HW217547   4.388   2.803   0.472
 5550SOL     OW17548   2.336   4.113   1.704
 5550SOL    HW117549   2.311   4.184   1.771
 5550SOL    HW217550   2.281   4.031   1.720
 5551SOL     OW17551   1.827   5.332   2.781
 5551SOL    HW117552   1.845   5.307   2.686
 5551SOL    HW217553   1.859   5.258   2.841
 5552SOL     OW17554   0.849   6.702   0.109
 5552SOL    HW117555   0.924   6.704   0.043
 5552SOL    HW217556   0.885   6.676   0.199
 5553SOL     OW17557   5.356   0.593   0.196
 5553SOL    HW117558   5.295   0.515   0.210
 5553SOL    HW217559   5.325   0.646   0.117
 5554SOL     OW17560   6.862   1.811   1.371
 5554SOL    HW117561   6.880   1.872   1.293
 5554SOL    HW217562   6.926   1.734   1.368
 5555SOL     OW17563   1.397   5.017   2.976
 5555SOL    HW117564   1.353   5.089   3.028
 5555SOL    HW217565   1.329   4.971   2.918
 5556SOL     OW17566   6.929   0.874   4.328
 5556SOL    HW117567   7.018   0.914   4.346
 5556SOL    HW217568   6.857   0.933   4.365
 5557SOL     OW17569   3.769   5.952   3.280
 5557SOL    HW117570   3.723   6.033   3.317
 5557SOL    HW217571   3.805   5.972   3.188
 5558SOL     OW17572   4.141   3.961   0.005
 5558SOL    HW117573   4.049   3.973   0.041
 5558SOL    HW217574   4.203   3.933   0.078
 5559SOL     OW17575   3.414   1.249   2.539
 5559SOL    HW117576   3.406   1.320   2.609
 5559SOL    HW217577   3.346   1.265   2.468
 5560SOL     OW17578   0.560   5.179   3.941
 5560SOL    HW117579   0.553   5.160   3.843
 5560SOL    HW217580   0.479   5.230   3.971
 5561SOL     OW17581   3.272   6.474   2.951
 5561SOL    HW117582   3.219   6.424   2.882
 5561SOL    HW217583   3.367   6.480   2.922
 5562SOL     OW17584   3.468   3.591   0.995
 5562SOL    HW117585   3.557   3.589   1.041
 5562SOL    HW217586   3.464   3.518   0.927
 5563SOL     OW17587   2.377   4.435   2.524
 5563SOL    HW117588   2.442   4.464   2.594
 5563SOL    HW217589   2.331   4.516   2.487
 5564SOL     OW17590   5.083   0.589   5.975
 5564SOL    HW117591   5.161   0.529   5.961
 5564SOL    HW217592   4.998   0.538   5.960
 5565SOL     OW17593   3.424   1.459   6.384
 5565SOL    HW117594   3.400   1.453   6.287
 5565SOL    HW217595   3.347   1.498   6.434
 5566SOL     OW17596   1.613   4.007   6.580
 5566SOL    HW117597   1.541   4.065   6.618
 5566SOL    HW217598   1.701   4.056   6.585
 5567SOL     OW17599   0.584   4.174   0.535
 5567SOL    HW117600   0.506   4.126   0.496
 5567SOL    HW217601   0.570   4.273   0.525
 5568SOL     OW17602   4.687   4.455   1.197
 5568SOL    HW117603   4.698   4.364   1.157
 5568SOL    HW217604   4.764   4.473   1.258
 5569SOL     OW17605   2.197   2.774   2.985
 5569SOL    HW117606   2.109   2.821   2.994
 5569SOL    HW217607   2.218   2.726   3.070
 5570SOL     OW17608   6.924   3.860   2.000
 5570SOL    HW117609   6.921   3.900   2.091
 5570SOL    HW217610   6.984   3.914   1.941
 5571SOL     OW17611   6.339   4.684   0.987
 5571SOL    HW117612   6.317   4.709   0.892
 5571SOL    HW217613   6.404   4.750   1.024
 5572SOL     OW17614   1.934   4.157   4.992
 5572SOL    HW117615   1.886   4.242   5.013
 5572SOL    HW217616   1.981   4.125   5.074
 5573SOL     OW17617   2.852   5.065   3.630
 5573SOL    HW117618   2.905   5.092   3.710
 5573SOL    HW217619   2.894   5.103   3.548
 5574SOL     OW17620   0.206   2.183   5.310
 5574SOL    HW117621   0.161   2.112   5.365
 5574SOL    HW217622   0.305   2.171   5.316
 5575SOL     OW17623   0.151   0.151   1.566
 5575SOL    HW117624   0.075   0.106   1.518
 5575SOL    HW217625   0.136   0.145   1.665
 5576SOL     OW17626   1.280   5.298   2.928
 5576SOL    HW117627   1.284   5.274   3.025
 5576SOL    HW217628   1.343   5.373   2.910
 5577SOL     OW17629   2.176   2.816   5.722
 5577SOL    HW117630   2.222   2.806   5.633
 5577SOL    HW217631   2.244   2.838   5.792
 5578SOL     OW17632   3.569   4.127   3.298
 5578SOL    HW117633   3.575   4.138   3.398
 5578SOL    HW217634   3.473   4.129   3.270
 5579SOL     OW17635   6.618   3.283   2.508
 5579SOL    HW117636   6.580   3.248   2.423
 5579SOL    HW217637   6.676   3.362   2.489
 5580SOL     OW17638   5.354   2.155   5.662
 5580SOL    HW117639   5.325   2.228   5.601
 5580SOL    HW217640   5.277   2.123   5.717
 5581SOL     OW17641   1.359   2.636   6.704
 5581SOL    HW117642   1.430   2.678   6.761
 5581SOL    HW217643   1.371   2.537   6.704
 5582SOL     OW17644   2.447   3.036   6.295
 5582SOL    HW117645   2.391   3.117   6.276
 5582SOL    HW217646   2.484   3.042   6.388
 5583SOL     OW17647   5.304   0.618   1.371
 5583SOL    HW117648   5.295   0.585   1.277
 5583SOL    HW217649   5.241   0.567   1.430
 5584SOL     OW17650   1.464   3.166   4.255
 5584SOL    HW117651   1.442   3.090   4.194
 5584SOL    HW217652   1.530   3.227   4.211
 5585SOL     OW17653   5.312   5.102   1.714
 5585SOL    HW117654   5.225   5.054   1.706
 5585SOL    HW217655   5.344   5.098   1.809
 5586SOL     OW17656   0.038   4.023   0.443
 5586SOL    HW117657   7.010   3.949   0.403
 5586SOL    HW217658   0.076   4.081   0.370
 5587SOL     OW17659   6.068   1.118   6.037
 5587SOL    HW117660   6.006   1.123   6.115
 5587SOL    HW217661   6.145   1.058   6.060
 5588SOL     OW17662   4.028   6.593   0.630
 5588SOL    HW117663   3.977   6.666   0.675
 5588SOL    HW217664   4.125   6.615   0.630
 5589SOL     OW17665   6.051   4.956   6.005
 5589SOL    HW117666   5.975   4.946   5.941
 5589SOL    HW217667   6.137   4.931   5.959
 5590SOL     OW17668   6.063   5.608   3.298
 5590SOL    HW117669   5.974   5.642   3.325
 5590SOL    HW217670   6.074   5.617   3.199
 5591SOL     OW17671   5.718   1.068   1.961
 5591SOL    HW117672   5.741   0.971   1.953
 5591SOL    HW217673   5.779   1.122   1.903
 5592SOL     OW17674   1.010   3.829   3.389
 5592SOL    HW117675   1.073   3.767   3.343
 5592SOL    HW217676   0.919   3.821   3.349
 5593SOL     OW17677   6.965   3.789   0.583
 5593SOL    HW117678   6.954   3.793   0.484
 5593SOL    HW217679   0.029   3.750   0.605
 5594SOL     OW17680   6.140   2.102   6.447
 5594SOL    HW117681   6.052   2.076   6.489
 5594SOL    HW217682   6.215   2.070   6.505
 5595SOL     OW17683   1.166   2.638   6.006
 5595SOL    HW117684   1.080   2.689   6.006
 5595SOL    HW217685   1.226   2.674   5.934
 5596SOL     OW17686   2.960   5.986   3.159
 5596SOL    HW117687   3.058   5.969   3.145
 5596SOL    HW217688   2.936   6.074   3.119
 5597SOL     OW17689   5.005   3.303   2.874
 5597SOL    HW117690   5.102   3.286   2.854
 5597SOL    HW217691   4.983   3.268   2.965
 5598SOL     OW17692   5.073   1.898   4.928
 5598SOL    HW117693   5.068   1.798   4.934
 5598SOL    HW217694   5.163   1.929   4.957
 5599SOL     OW17695   0.872   0.574   3.458
 5599SOL    HW117696   0.856   0.585   3.360
 5599SOL    HW217697   0.961   0.614   3.482
 5600SOL     OW17698   1.650   2.264   4.877
 5600SOL    HW117699   1.595   2.232   4.800
 5600SOL    HW217700   1.622   2.357   4.902
 5601SOL     OW17701   2.503   0.660   6.039
 5601SOL    HW117702   2.435   0.591   6.063
 5601SOL    HW217703   2.549   0.634   5.954
 5602SOL     OW17704   1.834   1.046   0.011
 5602SOL    HW117705   1.844   1.146   0.012
 5602SOL    HW217706   1.790   1.018   6.951
 5603SOL     OW17707   6.052   4.747   6.424
 5603SOL    HW117708   6.071   4.767   6.520
 5603SOL    HW217709   6.136   4.755   6.371
 5604SOL     OW17710   6.274   1.602   6.053
 5604SOL    HW117711   6.252   1.505   6.050
 5604SOL    HW217712   6.237   1.647   5.972
 5605SOL     OW17713   1.302   2.773   6.239
 5605SOL    HW117714   1.393   2.814   6.233
 5605SOL    HW217715   1.283   2.721   6.156
 5606SOL     OW17716   5.811   0.361   3.030
 5606SOL    HW117717   5.910   0.372   3.017
 5606SOL    HW217718   5.788   0.378   3.126
 5607SOL     OW17719   6.002   1.041   1.342
 5607SOL    HW117720   5.910   1.002   1.352
 5607SOL    HW217721   6.060   0.977   1.293
 5608SOL     OW17722   4.248   6.500   4.834
 5608SOL    HW117723   4.284   6.480   4.743
 5608SOL    HW217724   4.148   6.497   4.831
 5609SOL     OW17725   1.815   5.426   5.203
 5609SOL    HW117726   1.805   5.341   5.255
 5609SOL    HW217727   1.820   5.404   5.105
 5610SOL     OW17728   4.532   0.290   6.387
 5610SOL    HW117729   4.571   0.258   6.473
 5610SOL    HW217730   4.572   0.379   6.364
 5611SOL     OW17731   2.338   4.693   3.931
 5611SOL    HW117732   2.317   4.705   4.028
 5611SOL    HW217733   2.263   4.730   3.875
 5612SOL     OW17734   2.210   0.474   4.988
 5612SOL    HW117735   2.167   0.479   4.897
 5612SOL    HW217736   2.196   0.383   5.026
 5613SOL     OW17737   3.806   4.918   1.678
 5613SOL    HW117738   3.898   4.925   1.640
 5613SOL    HW217739   3.783   5.003   1.725
 5614SOL     OW17740   4.943   2.398   3.516
 5614SOL    HW117741   4.993   2.332   3.573
 5614SOL    HW217742   4.914   2.475   3.572
 5615SOL     OW17743   1.830   1.307   1.020
 5615SOL    HW117744   1.892   1.370   1.068
 5615SOL    HW217745   1.736   1.332   1.041
 5616SOL     OW17746   2.303   0.477   4.533
 5616SOL    HW117747   2.277   0.454   4.439
 5616SOL    HW217748   2.338   0.396   4.579
 5617SOL     OW17749   0.817   0.754   4.972
 5617SOL    HW117750   0.721   0.775   4.992
 5617SOL    HW217751   0.837   0.774   4.877
 5618SOL     OW17752   6.606   4.364   2.870
 5618SOL    HW117753   6.677   4.303   2.906
 5618SOL    HW217754   6.649   4.432   2.810
 5619SOL     OW17755   2.131   4.077   4.828
 5619SOL    HW117756   2.209   4.065   4.890
 5619SOL    HW217757   2.049   4.094   4.881
 5620SOL     OW17758   3.565   2.146   6.260
 5620SOL    HW117759   3.616   2.172   6.342
 5620SOL    HW217760   3.497   2.216   6.239
 5621SOL     OW17761   2.034   1.999   6.450
 5621SOL    HW117762   2.090   2.064   6.398
 5621SOL    HW217763   1.943   1.992   6.407
 5622SOL     OW17764   5.824   1.008   5.025
 5622SOL    HW117765   5.795   1.047   4.938
 5622SOL    HW217766   5.812   1.075   5.098
 5623SOL     OW17767   0.735   5.748   6.772
 5623SOL    HW117768   0.829   5.713   6.770
 5623SOL    HW217769   0.672   5.673   6.793
 5624SOL     OW17770   1.058   4.405   2.670
 5624SOL    HW117771   1.071   4.393   2.768
 5624SOL    HW217772   0.981   4.466   2.653
 5625SOL     OW17773   6.475   2.445   5.760
 5625SOL    HW117774   6.378   2.426   5.751
 5625SOL    HW217775   6.501   2.515   5.693
 5626SOL     OW17776   4.751   6.799   4.244
 5626SOL    HW117777   4.708   6.751   4.320
 5626SOL    HW217778   4.786   6.887   4.275
 5627SOL     OW17779   1.064   6.342   0.979
 5627SOL    HW117780   1.147   6.285   0.985
 5627SOL    HW217781   1.053   6.374   0.885
 5628SOL     OW17782   0.843   1.380   4.700
 5628SOL    HW117783   0.845   1.438   4.618
 5628SOL    HW217784   0.833   1.437   4.781
 5629SOL     OW17785   3.674   3.196   2.806
 5629SOL    HW117786   3.704   3.101   2.814
 5629SOL    HW217787   3.752   3.253   2.778
 5630SOL     OW17788   0.145   4.230   1.380
 5630SOL    HW117789   0.177   4.233   1.475
 5630SOL    HW217790   0.187   4.153   1.333
 5631SOL     OW17791   4.654   0.623   6.680
 5631SOL    HW117792   4.613   0.532   6.685
 5631SOL    HW217793   4.648   0.658   6.587
 5632SOL     OW17794   2.798   3.217   6.862
 5632SOL    HW117795   2.810   3.228   6.960
 5632SOL    HW217796   2.868   3.155   6.826
 5633SOL     OW17797   6.351   2.540   4.995
 5633SOL    HW117798   6.252   2.552   4.987
 5633SOL    HW217799   6.397   2.595   4.924
 5634SOL     OW17800   5.061   5.621   4.443
 5634SOL    HW117801   5.001   5.586   4.371
 5634SOL    HW217802   5.092   5.713   4.419
 5635SOL     OW17803   3.216   2.075   5.205
 5635SOL    HW117804   3.218   2.175   5.202
 5635SOL    HW217805   3.173   2.041   5.121
 5636SOL     OW17806   4.074   5.819   4.040
 5636SOL    HW117807   4.120   5.771   4.114
 5636SOL    HW217808   4.125   5.807   3.955
 5637SOL     OW17809   6.254   0.098   2.989
 5637SOL    HW117810   6.160   0.077   2.962
 5637SOL    HW217811   6.286   0.027   3.053
 5638SOL     OW17812   4.786   4.248   6.858
 5638SOL    HW117813   4.739   4.333   6.834
 5638SOL    HW217814   4.754   4.174   6.800
 5639SOL     OW17815   3.193   0.168   6.815
 5639SOL    HW117816   3.250   0.155   6.734
 5639SOL    HW217817   3.102   0.199   6.788
 5640SOL     OW17818   1.923   6.835   3.080
 5640SOL    HW117819   1.874   6.881   3.006
 5640SOL    HW217820   2.010   6.800   3.045
 5641SOL     OW17821   6.108   6.178   4.551
 5641SOL    HW117822   6.183   6.112   4.562
 5641SOL    HW217823   6.068   6.199   4.640
 5642SOL     OW17824   1.775   1.831   0.057
 5642SOL    HW117825   1.734   1.744   0.085
 5642SOL    HW217826   1.790   1.830   6.984
 5643SOL     OW17827   5.632   2.003   4.904
 5643SOL    HW117828   5.607   1.974   4.996
 5643SOL    HW217829   5.576   1.954   4.837
 5644SOL     OW17830   2.933   6.977   6.333
 5644SOL    HW117831   2.840   6.975   6.369
 5644SOL    HW217832   2.931   6.984   6.233
 5645SOL     OW17833   5.136   3.661   4.628
 5645SOL    HW117834   5.211   3.608   4.667
 5645SOL    HW217835   5.163   3.695   4.538
 5646SOL     OW17836   1.332   4.453   3.105
 5646SOL    HW117837   1.395   4.423   3.176
 5646SOL    HW217838   1.336   4.552   3.096
 5647SOL     OW17839   6.502   6.867   2.201
 5647SOL    HW117840   6.418   6.834   2.243
 5647SOL    HW217841   6.557   6.789   2.171
 5648SOL     OW17842   4.830   6.253   3.360
 5648SOL    HW117843   4.866   6.332   3.310
 5648SOL    HW217844   4.813   6.279   3.455
 5649SOL     OW17845   1.127   6.789   4.417
 5649SOL    HW117846   1.167   6.771   4.507
 5649SOL    HW217847   1.176   6.863   4.372
 5650SOL     OW17848   6.518   4.421   6.635
 5650SOL    HW117849   6.508   4.325   6.662
 5650SOL    HW217850   6.588   4.464   6.692
 5651SOL     OW17851   2.909   0.904   0.889
 5651SOL    HW117852   2.963   0.877   0.810
 5651SOL    HW217853   2.953   0.981   0.936
 5652SOL     OW17854   0.370   6.066   1.594
 5652SOL    HW117855   0.398   6.105   1.506
 5652SOL    HW217856   0.310   6.131   1.641
 5653SOL     OW17857   0.071   0.215   1.817
 5653SOL    HW117858   0.126   0.276   1.875
 5653SOL    HW217859   7.000   0.228   1.837
 5654SOL     OW17860   3.363   5.559   4.363
 5654SOL    HW117861   3.330   5.602   4.279
 5654SOL    HW217862   3.321   5.469   4.374
 5655SOL     OW17863   5.620   2.801   5.317
 5655SOL    HW117864   5.674   2.778   5.398
 5655SOL    HW217865   5.581   2.892   5.328
 5656SOL     OW17866   6.700   3.347   0.085
 5656SOL    HW117867   6.791   3.387   0.098
 5656SOL    HW217868   6.708   3.258   0.040
 5657SOL     OW17869   5.232   5.593   4.909
 5657SOL    HW117870   5.313   5.600   4.967
 5657SOL    HW217871   5.258   5.550   4.822
 5658SOL     OW17872   2.115   3.155   5.731
 5658SOL    HW117873   2.159   3.195   5.650
 5658SOL    HW217874   2.170   3.079   5.765
 5659SOL     OW17875   2.605   3.933   6.800
 5659SOL    HW117876   2.660   3.853   6.824
 5659SOL    HW217877   2.660   4.016   6.813
 5660SOL     OW17878   4.421   0.799   5.696
 5660SOL    HW117879   4.439   0.752   5.782
 5660SOL    HW217880   4.459   0.747   5.620
 5661SOL     OW17881   1.502   5.539   5.916
 5661SOL    HW117882   1.488   5.441   5.900
 5661SOL    HW217883   1.586   5.552   5.969
 5662SOL     OW17884   3.320   6.252   1.086
 5662SOL    HW117885   3.268   6.189   1.028
 5662SOL    HW217886   3.263   6.331   1.109
 5663SOL     OW17887   1.798   3.376   6.055
 5663SOL    HW117888   1.874   3.322   6.017
 5663SOL    HW217889   1.712   3.330   6.035
 5664SOL     OW17890   4.848   4.373   4.711
 5664SOL    HW117891   4.832   4.290   4.764
 5664SOL    HW217892   4.816   4.452   4.762
 5665SOL     OW17893   1.717   1.434   0.418
 5665SOL    HW117894   1.758   1.353   0.377
 5665SOL    HW217895   1.696   1.415   0.514
 5666SOL     OW17896   6.087   2.503   5.016
 5666SOL    HW117897   6.026   2.564   5.067
 5666SOL    HW217898   6.114   2.427   5.075
 5667SOL     OW17899   2.655   4.609   4.168
 5667SOL    HW117900   2.589   4.539   4.196
 5667SOL    HW217901   2.668   4.675   4.242
 5668SOL     OW17902   4.932   3.879   3.533
 5668SOL    HW117903   4.886   3.868   3.621
 5668SOL    HW217904   4.893   3.957   3.484
 5669SOL     OW17905   5.414   4.109   6.141
 5669SOL    HW117906   5.357   4.051   6.199
 5669SOL    HW217907   5.392   4.205   6.158
 5670SOL     OW17908   1.458   2.610   3.287
 5670SOL    HW117909   1.403   2.681   3.244
 5670SOL    HW217910   1.552   2.642   3.297
 5671SOL     OW17911   0.516   5.830   4.022
 5671SOL    HW117912   0.525   5.907   4.084
 5671SOL    HW217913   0.419   5.806   4.012
 5672SOL     OW17914   5.217   3.499   4.353
 5672SOL    HW117915   5.179   3.462   4.269
 5672SOL    HW217916   5.262   3.587   4.334
 5673SOL     OW17917   0.860   1.700   0.783
 5673SOL    HW117918   0.905   1.649   0.857
 5673SOL    HW217919   0.762   1.705   0.800
 5674SOL     OW17920   2.464   4.968   5.070
 5674SOL    HW117921   2.437   4.898   5.004
 5674SOL    HW217922   2.507   5.044   5.023
 5675SOL     OW17923   2.595   1.621   1.286
 5675SOL    HW117924   2.579   1.590   1.192
 5675SOL    HW217925   2.591   1.721   1.289
 5676SOL     OW17926   3.106   1.086   1.729
 5676SOL    HW117927   3.107   1.103   1.630
 5676SOL    HW217928   3.047   1.153   1.774
 5677SOL     OW17929   0.175   1.465   6.583
 5677SOL    HW117930   0.116   1.526   6.531
 5677SOL    HW217931   0.253   1.516   6.619
 5678SOL     OW17932   3.503   2.041   2.076
 5678SOL    HW117933   3.447   2.076   2.151
 5678SOL    HW217934   3.566   2.112   2.045
 5679SOL     OW17935   6.379   3.407   5.169
 5679SOL    HW117936   6.360   3.313   5.197
 5679SOL    HW217937   6.381   3.466   5.250
 5680SOL     OW17938   0.940   5.975   4.990
 5680SOL    HW117939   0.961   5.957   5.086
 5680SOL    HW217940   0.925   5.889   4.942
 5681SOL     OW17941   0.931   3.671   3.874
 5681SOL    HW117942   0.927   3.601   3.944
 5681SOL    HW217943   0.937   3.628   3.784
 5682SOL     OW17944   2.143   4.529   1.360
 5682SOL    HW117945   2.101   4.441   1.342
 5682SOL    HW217946   2.097   4.573   1.437
 5683SOL     OW17947   6.416   0.785   5.853
 5683SOL    HW117948   6.390   0.723   5.927
 5683SOL    HW217949   6.508   0.821   5.869
 5684SOL     OW17950   2.235   2.938   4.926
 5684SOL    HW117951   2.185   3.024   4.916
 5684SOL    HW217952   2.301   2.946   5.001
 5685SOL     OW17953   2.501   1.829   2.221
 5685SOL    HW117954   2.529   1.817   2.126
 5685SOL    HW217955   2.513   1.925   2.247
 5686SOL     OW17956   4.888   5.629   5.660
 5686SOL    HW117957   4.908   5.698   5.729
 5686SOL    HW217958   4.970   5.611   5.605
 5687SOL     OW17959   1.733   6.243   6.408
 5687SOL    HW117960   1.653   6.228   6.350
 5687SOL    HW217961   1.738   6.340   6.434
 5688SOL     OW17962   1.909   2.018   2.810
 5688SOL    HW117963   1.981   1.974   2.864
 5688SOL    HW217964   1.854   1.948   2.765
 5689SOL     OW17965   0.178   2.690   1.251
 5689SOL    HW117966   0.101   2.626   1.252
 5689SOL    HW217967   0.227   2.681   1.165
 5690SOL     OW17968   2.181   5.018   6.757
 5690SOL    HW117969   2.118   4.961   6.704
 5690SOL    HW217970   2.261   4.963   6.783
 5691SOL     OW17971   3.964   1.818   2.978
 5691SOL    HW117972   4.037   1.751   2.991
 5691SOL    HW217973   4.004   1.908   2.960
 5692SOL     OW17974   5.748   4.691   1.951
 5692SOL    HW117975   5.797   4.604   1.948
 5692SOL    HW217976   5.668   4.681   2.011
 5693SOL     OW17977   4.068   0.436   1.501
 5693SOL    HW117978   4.006   0.412   1.576
 5693SOL    HW217979   4.159   0.398   1.518
 5694SOL     OW17980   0.875   6.972   1.489
 5694SOL    HW117981   0.799   0.005   1.459
 5694SOL    HW217982   0.961   7.009   1.456
 5695SOL     OW17983   2.544   0.789   1.842
 5695SOL    HW117984   2.597   0.783   1.757
 5695SOL    HW217985   2.448   0.768   1.823
 5696SOL     OW17986   0.994   0.595   3.878
 5696SOL    HW117987   0.917   0.568   3.936
 5696SOL    HW217988   1.018   0.519   3.818
 5697SOL     OW17989   6.207   2.365   0.378
 5697SOL    HW117990   6.195   2.430   0.453
 5697SOL    HW217991   6.152   2.283   0.396
 5698SOL     OW17992   2.959   1.878   4.497
 5698SOL    HW117993   3.009   1.813   4.439
 5698SOL    HW217994   2.928   1.955   4.441
 5699SOL     OW17995   2.050   2.520   2.354
 5699SOL    HW117996   2.072   2.476   2.440
 5699SOL    HW217997   2.132   2.564   2.316
 5700SOL     OW17998   6.463   0.604   2.582
 5700SOL    HW117999   6.447   0.510   2.554
 5700SOL    HW218000   6.486   0.606   2.680
 5701SOL     OW18001   0.730   0.678   0.692
 5701SOL    HW118002   0.796   0.649   0.762
 5701SOL    HW218003   0.640   0.640   0.712
 5702SOL     OW18004   2.365   0.234   4.618
 5702SOL    HW118005   2.423   0.254   4.697
 5702SOL    HW218006   2.330   0.141   4.624
 5703SOL     OW18007   0.384   3.437   6.158
 5703SOL    HW118008   0.457   3.434   6.089
 5703SOL    HW218009   0.312   3.373   6.132
 5704SOL     OW18010   4.272   5.535   3.949
 5704SOL    HW118011   4.260   5.564   4.044
 5704SOL    HW218012   4.199   5.574   3.893
 5705SOL     OW18013   6.047   0.735   5.541
 5705SOL    HW118014   5.951   0.749   5.564
 5705SOL    HW218015   6.103   0.806   5.584
 5706SOL     OW18016   4.952   1.994   0.473
 5706SOL    HW118017   4.866   2.046   0.478
 5706SOL    HW218018   5.023   2.051   0.432
 5707SOL     OW18019   5.873   5.326   1.301
 5707SOL    HW118020   5.777   5.301   1.285
 5707SOL    HW218021   5.929   5.243   1.301
 5708SOL     OW18022   5.449   6.227   2.372
 5708SOL    HW118023   5.395   6.197   2.451
 5708SOL    HW218024   5.428   6.170   2.293
 5709SOL     OW18025   6.980   2.373   2.361
 5709SOL    HW118026   0.052   2.383   2.384
 5709SOL    HW218027   6.930   2.452   2.395
 5710SOL     OW18028   4.037   1.821   0.616
 5710SOL    HW118029   4.134   1.802   0.602
 5710SOL    HW218030   3.984   1.786   0.538
 5711SOL     OW18031   5.474   1.928   3.175
 5711SOL    HW118032   5.548   1.979   3.219
 5711SOL    HW218033   5.388   1.950   3.220
 5712SOL     OW18034   6.227   7.008   0.457
 5712SOL    HW118035   6.287   0.016   0.530
 5712SOL    HW218036   6.280   6.950   0.395
 5713SOL     OW18037   2.146   1.043   0.639
 5713SOL    HW118038   2.240   1.014   0.661
 5713SOL    HW218039   2.108   1.094   0.716
 5714SOL     OW18040   6.252   0.556   0.265
 5714SOL    HW118041   6.344   0.545   0.304
 5714SOL    HW218042   6.248   0.511   0.176
 5715SOL     OW18043   0.368   0.258   2.098
 5715SOL    HW118044   0.361   0.357   2.098
 5715SOL    HW218045   0.277   0.218   2.086
 5716SOL     OW18046   6.443   4.245   5.527
 5716SOL    HW118047   6.469   4.183   5.454
 5716SOL    HW218048   6.344   4.255   5.530
 5717SOL     OW18049   1.085   5.247   3.643
 5717SOL    HW118050   1.067   5.159   3.686
 5717SOL    HW218051   0.998   5.294   3.625
 5718SOL     OW18052   0.822   3.332   6.876
 5718SOL    HW118053   0.887   3.364   6.945
 5718SOL    HW218054   0.847   3.369   6.787
 5719SOL     OW18055   2.613   3.266   0.627
 5719SOL    HW118056   2.576   3.268   0.535
 5719SOL    HW218057   2.625   3.172   0.657
 5720SOL     OW18058   2.951   4.751   5.732
 5720SOL    HW118059   2.944   4.712   5.640
 5720SOL    HW218060   2.954   4.678   5.800
 5721SOL     OW18061   1.562   2.750   6.844
 5721SOL    HW118062   1.550   2.822   6.912
 5721SOL    HW218063   1.655   2.714   6.848
 5722SOL     OW18064   1.450   0.087   6.802
 5722SOL    HW118065   1.466   0.164   6.864
 5722SOL    HW218066   1.367   0.103   6.749
 5723SOL     OW18067   3.914   3.287   0.567
 5723SOL    HW118068   3.826   3.240   0.574
 5723SOL    HW218069   3.970   3.244   0.497
 5724SOL     OW18070   5.170   2.110   5.843
 5724SOL    HW118071   5.072   2.097   5.829
 5724SOL    HW218072   5.201   2.055   5.920
 5725SOL     OW18073   0.215   4.621   5.071
 5725SOL    HW118074   0.158   4.670   5.005
 5725SOL    HW218075   0.183   4.527   5.079
 5726SOL     OW18076   5.248   4.149   2.611
 5726SOL    HW118077   5.331   4.176   2.659
 5726SOL    HW218078   5.229   4.052   2.627
 5727SOL     OW18079   0.712   2.816   5.251
 5727SOL    HW118080   0.731   2.800   5.154
 5727SOL    HW218081   0.740   2.909   5.276
 5728SOL     OW18082   4.036   0.050   4.957
 5728SOL    HW118083   4.005   6.982   4.942
 5728SOL    HW218084   3.961   0.114   4.941
 5729SOL     OW18085   2.738   2.040   4.848
 5729SOL    HW118086   2.758   1.947   4.816
 5729SOL    HW218087   2.793   2.059   4.930
 5730SOL     OW18088   6.772   4.363   4.736
 5730SOL    HW118089   6.818   4.278   4.710
 5730SOL    HW218090   6.673   4.348   4.733
 5731SOL     OW18091   0.412   6.862   3.027
 5731SOL    HW118092   0.474   6.927   2.983
 5731SOL    HW218093   0.395   6.891   3.121
 5732SOL     OW18094   0.375   0.719   3.589
 5732SOL    HW118095   0.474   0.732   3.598
 5732SOL    HW218096   0.329   0.760   3.667
 5733SOL     OW18097   3.129   0.365   5.197
 5733SOL    HW118098   3.158   0.405   5.284
 5733SOL    HW218099   3.082   0.435   5.143
 5734SOL     OW18100   1.744   6.753   3.647
 5734SOL    HW118101   1.703   6.663   3.643
 5734SOL    HW218102   1.752   6.791   3.555
 5735SOL     OW18103   3.419   0.382   1.634
 5735SOL    HW118104   3.353   0.315   1.667
 5735SOL    HW218105   3.424   0.378   1.534
 5736SOL     OW18106   1.586   5.814   6.820
 5736SOL    HW118107   1.638   5.737   6.855
 5736SOL    HW218108   1.600   5.821   6.721
 5737SOL     OW18109   5.454   4.250   0.248
 5737SOL    HW118110   5.414   4.185   0.184
 5737SOL    HW218111   5.381   4.299   0.295
 5738SOL     OW18112   1.132   4.466   5.126
 5738SOL    HW118113   1.120   4.376   5.167
 5738SOL    HW218114   1.153   4.457   5.029
 5739SOL     OW18115   0.995   2.520   1.830
 5739SOL    HW118116   1.045   2.453   1.777
 5739SOL    HW218117   0.994   2.492   1.926
 5740SOL     OW18118   3.611   5.544   0.136
 5740SOL    HW118119   3.676   5.520   0.209
 5740SOL    HW218120   3.637   5.497   0.052
 5741SOL     OW18121   0.466   4.367   1.624
 5741SOL    HW118122   0.521   4.372   1.708
 5741SOL    HW218123   0.373   4.399   1.644
 5742SOL     OW18124   0.243   5.941   4.275
 5742SOL    HW118125   0.156   5.946   4.323
 5742SOL    HW218126   0.235   5.877   4.198
 5743SOL     OW18127   1.694   6.017   4.533
 5743SOL    HW118128   1.660   6.111   4.540
 5743SOL    HW218129   1.627   5.961   4.484
 5744SOL     OW18130   6.179   0.258   1.753
 5744SOL    HW118131   6.234   0.232   1.673
 5744SOL    HW218132   6.203   0.352   1.781
 5745SOL     OW18133   1.195   2.436   2.959
 5745SOL    HW118134   1.238   2.485   2.883
 5745SOL    HW218135   1.257   2.437   3.038
 5746SOL     OW18136   6.586   4.573   0.100
 5746SOL    HW118137   6.620   4.641   0.035
 5746SOL    HW218138   6.615   4.597   0.192
 5747SOL     OW18139   0.273   6.441   3.086
 5747SOL    HW118140   0.356   6.495   3.094
 5747SOL    HW218141   0.295   6.351   3.049
 5748SOL     OW18142   2.205   6.736   3.615
 5748SOL    HW118143   2.118   6.735   3.665
 5748SOL    HW218144   2.209   6.818   3.557
 5749SOL     OW18145   1.987   1.142   3.084
 5749SOL    HW118146   1.927   1.153   3.163
 5749SOL    HW218147   2.059   1.211   3.086
 5750SOL     OW18148   6.221   5.728   2.141
 5750SOL    HW118149   6.154   5.686   2.202
 5750SOL    HW218150   6.181   5.736   2.050
 5751SOL     OW18151   0.823   3.393   6.377
 5751SOL    HW118152   0.818   3.410   6.476
 5751SOL    HW218153   0.758   3.453   6.330
 5752SOL     OW18154   1.003   1.212   6.603
 5752SOL    HW118155   0.941   1.197   6.680
 5752SOL    HW218156   1.089   1.249   6.636
 5753SOL     OW18157   4.302   1.776   0.299
 5753SOL    HW118158   4.339   1.838   0.229
 5753SOL    HW218159   4.329   1.682   0.278
 5754SOL     OW18160   6.402   5.246   0.545
 5754SOL    HW118161   6.438   5.334   0.577
 5754SOL    HW218162   6.335   5.212   0.612
 5755SOL     OW18163   3.278   3.833   1.560
 5755SOL    HW118164   3.258   3.743   1.600
 5755SOL    HW218165   3.375   3.853   1.569
 5756SOL     OW18166   7.016   6.482   4.508
 5756SOL    HW118167   0.049   6.499   4.428
 5756SOL    HW218168   6.932   6.435   4.479
 5757SOL     OW18169   0.038   6.149   1.966
 5757SOL    HW118170   0.137   6.161   1.973
 5757SOL    HW218171   0.010   6.156   1.870
 5758SOL     OW18172   2.594   1.275   5.370
 5758SOL    HW118173   2.509   1.249   5.416
 5758SOL    HW218174   2.625   1.363   5.405
 5759SOL     OW18175   0.085   1.978   5.470
 5759SOL    HW118176   0.003   1.922   5.486
 5759SOL    HW218177   0.156   1.951   5.536
 5760SOL     OW18178   1.132   5.261   1.607
 5760SOL    HW118179   1.137   5.271   1.706
 5760SOL    HW218180   1.037   5.254   1.578
 5761SOL     OW18181   5.482   0.387   4.550
 5761SOL    HW118182   5.527   0.452   4.610
 5761SOL    HW218183   5.425   0.436   4.483
 5762SOL     OW18184   5.715   6.361   1.327
 5762SOL    HW118185   5.779   6.315   1.266
 5762SOL    HW218186   5.625   6.366   1.283
 5763SOL     OW18187   2.164   1.450   0.952
 5763SOL    HW118188   2.259   1.432   0.976
 5763SOL    HW218189   2.131   1.379   0.890
 5764SOL     OW18190   4.622   3.114   6.327
 5764SOL    HW118191   4.719   3.095   6.314
 5764SOL    HW218192   4.573   3.103   6.241
 5765SOL     OW18193   6.748   5.662   0.524
 5765SOL    HW118194   6.705   5.702   0.443
 5765SOL    HW218195   6.696   5.582   0.554
 5766SOL     OW18196   3.126   1.295   2.997
 5766SOL    HW118197   3.138   1.229   3.071
 5766SOL    HW218198   3.048   1.268   2.940
 5767SOL     OW18199   5.819   0.759   0.571
 5767SOL    HW118200   5.889   0.817   0.613
 5767SOL    HW218201   5.789   0.800   0.485
 5768SOL     OW18202   6.273   1.020   2.515
 5768SOL    HW118203   6.187   1.059   2.547
 5768SOL    HW218204   6.261   0.923   2.498
 5769SOL     OW18205   1.832   5.432   3.405
 5769SOL    HW118206   1.802   5.460   3.496
 5769SOL    HW218207   1.768   5.365   3.368
 5770SOL     OW18208   5.752   2.343   1.861
 5770SOL    HW118209   5.663   2.354   1.905
 5770SOL    HW218210   5.740   2.342   1.762
 5771SOL     OW18211   0.795   0.998   0.758
 5771SOL    HW118212   0.764   0.907   0.731
 5771SOL    HW218213   0.774   1.063   0.685
 5772SOL     OW18214   6.381   4.421   6.394
 5772SOL    HW118215   6.432   4.393   6.476
 5772SOL    HW218216   6.289   4.449   6.420
 5773SOL     OW18217   5.064   6.195   5.357
 5773SOL    HW118218   4.988   6.130   5.363
 5773SOL    HW218219   5.151   6.145   5.350
 5774SOL     OW18220   2.295   4.798   2.741
 5774SOL    HW118221   2.359   4.721   2.754
 5774SOL    HW218222   2.342   4.884   2.761
 5775SOL     OW18223   0.751   0.676   0.245
 5775SOL    HW118224   0.766   0.699   0.341
 5775SOL    HW218225   0.656   0.693   0.220
 5776SOL     OW18226   4.298   1.362   6.319
 5776SOL    HW118227   4.320   1.312   6.403
 5776SOL    HW218228   4.381   1.379   6.267
 5777SOL     OW18229   5.671   0.559   5.227
 5777SOL    HW118230   5.729   0.477   5.228
 5777SOL    HW218231   5.724   0.636   5.193
 5778SOL     OW18232   2.503   6.300   4.069
 5778SOL    HW118233   2.498   6.200   4.071
 5778SOL    HW218234   2.411   6.338   4.068
 5779SOL     OW18235   4.180   0.080   0.968
 5779SOL    HW118236   4.193   0.164   1.021
 5779SOL    HW218237   4.094   0.037   0.994
 5780SOL     OW18238   5.949   3.877   0.854
 5780SOL    HW118239   5.907   3.906   0.768
 5780SOL    HW218240   5.987   3.785   0.843
 5781SOL     OW18241   3.055   4.743   5.250
 5781SOL    HW118242   2.996   4.694   5.186
 5781SOL    HW218243   3.004   4.820   5.289
 5782SOL     OW18244   4.393   1.627   3.188
 5782SOL    HW118245   4.308   1.672   3.216
 5782SOL    HW218246   4.435   1.582   3.267
 5783SOL     OW18247   2.352   6.494   2.131
 5783SOL    HW118248   2.377   6.561   2.201
 5783SOL    HW218249   2.279   6.434   2.165
 5784SOL     OW18250   1.293   6.030   0.147
 5784SOL    HW118251   1.333   6.009   0.057
 5784SOL    HW218252   1.363   6.074   0.204
 5785SOL     OW18253   2.094   1.970   6.711
 5785SOL    HW118254   2.194   1.967   6.720
 5785SOL    HW218255   2.070   1.990   6.616
 5786SOL     OW18256   0.750   2.364   6.168
 5786SOL    HW118257   0.756   2.349   6.070
 5786SOL    HW218258   0.824   2.315   6.214
 5787SOL     OW18259   0.449   2.736   5.206
 5787SOL    HW118260   0.410   2.815   5.253
 5787SOL    HW218261   0.548   2.736   5.216
 5788SOL     OW18262   0.427   1.884   1.638
 5788SOL    HW118263   0.331   1.897   1.611
 5788SOL    HW218264   0.476   1.839   1.564
 5789SOL     OW18265   2.844   5.416   6.884
 5789SOL    HW118266   2.841   5.401   6.785
 5789SOL    HW218267   2.751   5.422   6.919
 5790SOL     OW18268   6.574   6.246   2.585
 5790SOL    HW118269   6.661   6.202   2.564
 5790SOL    HW218270   6.503   6.211   2.524
 5791SOL     OW18271   4.153   0.960   1.132
 5791SOL    HW118272   4.196   0.988   1.217
 5791SOL    HW218273   4.155   1.036   1.066
 5792SOL     OW18274   4.587   2.206   2.274
 5792SOL    HW118275   4.556   2.193   2.369
 5792SOL    HW218276   4.596   2.117   2.230
 5793SOL     OW18277   3.586   1.730   6.934
 5793SOL    HW118278   3.572   1.652   6.873
 5793SOL    HW218279   3.497   1.768   6.960
 5794SOL     OW18280   3.426   5.698   0.004
 5794SOL    HW118281   3.481   5.633   0.057
 5794SOL    HW218282   3.329   5.674   0.012
 5795SOL     OW18283   0.935   0.258   1.039
 5795SOL    HW118284   0.912   0.172   1.085
 5795SOL    HW218285   0.856   0.320   1.042
 5796SOL     OW18286   4.831   0.468   5.855
 5796SOL    HW118287   4.749   0.424   5.817
 5796SOL    HW218288   4.890   0.498   5.781
 5797SOL     OW18289   0.627   2.626   6.972
 5797SOL    HW118290   0.725   2.642   6.968
 5797SOL    HW218291   0.604   2.543   6.921
 5798SOL     OW18292   2.073   2.772   4.236
 5798SOL    HW118293   2.018   2.688   4.240
 5798SOL    HW218294   2.013   2.852   4.244
 5799SOL     OW18295   2.774   0.280   3.638
 5799SOL    HW118296   2.707   0.287   3.564
 5799SOL    HW218297   2.813   0.370   3.657
 5800SOL     OW18298   1.048   6.405   2.399
 5800SOL    HW118299   1.130   6.415   2.456
 5800SOL    HW218300   1.047   6.315   2.356
 5801SOL     OW18301   1.623   1.776   2.865
 5801SOL    HW118302   1.551   1.835   2.901
 5801SOL    HW218303   1.587   1.723   2.788
 5802SOL     OW18304   0.752   0.304   2.902
 5802SOL    HW118305   0.776   0.400   2.885
 5802SOL    HW218306   0.657   0.288   2.875
 5803SOL     OW18307   0.624   6.850   4.053
 5803SOL    HW118308   0.669   6.938   4.038
 5803SOL    HW218309   0.534   6.865   4.094
 5804SOL     OW18310   6.607   2.167   3.231
 5804SOL    HW118311   6.688   2.144   3.177
 5804SOL    HW218312   6.618   2.258   3.272
 5805SOL     OW18313   0.819   2.691   1.624
 5805SOL    HW118314   0.878   2.621   1.665
 5805SOL    HW218315   0.747   2.715   1.688
 5806SOL     OW18316   6.526   3.881   2.112
 5806SOL    HW118317   6.501   3.973   2.084
 5806SOL    HW218318   6.605   3.850   2.059
 5807SOL     OW18319   0.946   1.694   2.046
 5807SOL    HW118320   0.925   1.743   1.961
 5807SOL    HW218321   0.873   1.710   2.113
 5808SOL     OW18322   0.095   0.543   5.566
 5808SOL    HW118323   0.174   0.519   5.622
 5808SOL    HW218324   0.013   0.501   5.604
 5809SOL     OW18325   6.817   3.532   4.211
 5809SOL    HW118326   6.902   3.578   4.184
 5809SOL    HW218327   6.838   3.439   4.240
 5810SOL     OW18328   1.676   6.625   5.696
 5810SOL    HW118329   1.581   6.597   5.710
 5810SOL    HW218330   1.728   6.550   5.654
 5811SOL     OW18331   3.924   5.389   7.005
 5811SOL    HW118332   3.931   5.487   7.024
 5811SOL    HW218333   3.832   5.368   6.971
 5812SOL     OW18334   6.352   3.849   6.268
 5812SOL    HW118335   6.260   3.875   6.297
 5812SOL    HW218336   6.392   3.923   6.215
 5813SOL     OW18337   5.698   4.455   0.360
 5813SOL    HW118338   5.736   4.548   0.358
 5813SOL    HW218339   5.752   4.398   0.422
 5814SOL     OW18340   5.643   1.296   2.489
 5814SOL    HW118341   5.545   1.278   2.477
 5814SOL    HW218342   5.655   1.381   2.540
 5815SOL     OW18343   6.816   3.611   4.935
 5815SOL    HW118344   6.809   3.633   4.838
 5815SOL    HW218345   6.913   3.608   4.961
 5816SOL     OW18346   6.852   3.998   1.262
 5816SOL    HW118347   6.841   4.058   1.182
 5816SOL    HW218348   6.827   3.905   1.236
 5817SOL     OW18349   6.997   2.854   3.746
 5817SOL    HW118350   6.936   2.776   3.735
 5817SOL    HW218351   0.063   2.830   3.714
 5818SOL     OW18352   2.490   0.289   4.333
 5818SOL    HW118353   2.397   0.326   4.335
 5818SOL    HW218354   2.489   0.194   4.364
 5819SOL     OW18355   4.446   4.169   1.169
 5819SOL    HW118356   4.467   4.212   1.081
 5819SOL    HW218357   4.394   4.233   1.225
 5820SOL     OW18358   0.043   6.862   2.526
 5820SOL    HW118359   6.995   6.902   2.582
 5820SOL    HW218360   0.040   6.763   2.533
 5821SOL     OW18361   6.479   6.500   1.960
 5821SOL    HW118362   6.576   6.523   1.964
 5821SOL    HW218363   6.468   6.405   1.931
 5822SOL     OW18364   0.647   3.924   2.558
 5822SOL    HW118365   0.670   3.991   2.487
 5822SOL    HW218366   0.555   3.940   2.591
 5823SOL     OW18367   2.617   6.537   4.987
 5823SOL    HW118368   2.609   6.630   4.950
 5823SOL    HW218369   2.704   6.529   5.036
 5824SOL     OW18370   2.050   6.010   2.240
 5824SOL    HW118371   2.026   5.952   2.318
 5824SOL    HW218372   2.149   6.023   2.238
 5825SOL     OW18373   4.248   1.726   5.081
 5825SOL    HW118374   4.161   1.747   5.126
 5825SOL    HW218375   4.261   1.627   5.081
 5826SOL     OW18376   1.564   6.246   4.612
 5826SOL    HW118377   1.476   6.263   4.568
 5826SOL    HW218378   1.594   6.327   4.662
 5827SOL     OW18379   2.083   3.861   3.541
 5827SOL    HW118380   2.010   3.914   3.497
 5827SOL    HW218381   2.131   3.807   3.472
 5828SOL     OW18382   4.640   6.663   5.361
 5828SOL    HW118383   4.734   6.697   5.355
 5828SOL    HW218384   4.637   6.568   5.329
 5829SOL     OW18385   2.042   0.682   2.706
 5829SOL    HW118386   2.111   0.610   2.708
 5829SOL    HW218387   1.963   0.651   2.653
 5830SOL     OW18388   4.601   5.626   4.564
 5830SOL    HW118389   4.522   5.669   4.608
 5830SOL    HW218390   4.610   5.532   4.596
 5831SOL     OW18391   2.412   1.684   4.442
 5831SOL    HW118392   2.321   1.646   4.427
 5831SOL    HW218393   2.419   1.716   4.537
 5832SOL     OW18394   2.462   5.399   3.954
 5832SOL    HW118395   2.480   5.466   4.026
 5832SOL    HW218396   2.534   5.403   3.885
 5833SOL     OW18397   2.981   4.595   1.051
 5833SOL    HW118398   2.936   4.523   0.999
 5833SOL    HW218399   3.079   4.592   1.034
 5834SOL     OW18400   6.328   2.486   6.436
 5834SOL    HW118401   6.374   2.413   6.487
 5834SOL    HW218402   6.232   2.462   6.424
 5835SOL     OW18403   4.492   1.480   3.411
 5835SOL    HW118404   4.446   1.554   3.460
 5835SOL    HW218405   4.587   1.505   3.393
 5836SOL     OW18406   4.720   5.218   1.402
 5836SOL    HW118407   4.741   5.300   1.454
 5836SOL    HW218408   4.622   5.198   1.409
 5837SOL     OW18409   2.586   4.133   0.312
 5837SOL    HW118410   2.659   4.202   0.320
 5837SOL    HW218411   2.519   4.165   0.245
 5838SOL     OW18412   3.236   3.110   6.997
 5838SOL    HW118413   3.302   3.129   0.045
 5838SOL    HW218414   3.272   3.036   6.939
 5839SOL     OW18415   2.030   1.444   0.549
 5839SOL    HW118416   2.026   1.385   0.629
 5839SOL    HW218417   2.073   1.395   0.473
 5840SOL     OW18418   0.402   3.503   2.572
 5840SOL    HW118419   0.319   3.461   2.609
 5840SOL    HW218420   0.442   3.443   2.503
 5841SOL     OW18421   5.372   1.658   0.542
 5841SOL    HW118422   5.298   1.655   0.609
 5841SOL    HW218423   5.426   1.575   0.550
 5842SOL     OW18424   3.321   2.088   2.275
 5842SOL    HW118425   3.356   2.125   2.360
 5842SOL    HW218426   3.228   2.122   2.259
 5843SOL     OW18427   3.147   3.184   0.847
 5843SOL    HW118428   3.245   3.188   0.867
 5843SOL    HW218429   3.133   3.140   0.758
 5844SOL     OW18430   0.632   5.575   5.504
 5844SOL    HW118431   0.614   5.477   5.507
 5844SOL    HW218432   0.628   5.613   5.597
 5845SOL     OW18433   1.926   6.574   2.494
 5845SOL    HW118434   1.903   6.647   2.429
 5845SOL    HW218435   1.948   6.613   2.583
 5846SOL     OW18436   0.540   4.715   5.968
 5846SOL    HW118437   0.457   4.674   5.930
 5846SOL    HW218438   0.581   4.651   6.033
 5847SOL     OW18439   1.883   4.212   6.216
 5847SOL    HW118440   1.954   4.282   6.217
 5847SOL    HW218441   1.921   4.125   6.246
 5848SOL     OW18442   2.417   6.458   1.640
 5848SOL    HW118443   2.405   6.360   1.621
 5848SOL    HW218444   2.375   6.479   1.728
 5849SOL     OW18445   2.741   5.621   6.550
 5849SOL    HW118446   2.816   5.673   6.510
 5849SOL    HW218447   2.775   5.532   6.582
 5850SOL     OW18448   5.799   1.504   1.483
 5850SOL    HW118449   5.861   1.581   1.471
 5850SOL    HW218450   5.837   1.423   1.438
 5851SOL     OW18451   0.352   4.059   4.732
 5851SOL    HW118452   0.268   4.015   4.763
 5851SOL    HW218453   0.408   4.086   4.811
 5852SOL     OW18454   5.026   4.104   2.851
 5852SOL    HW118455   5.060   4.171   2.786
 5852SOL    HW218456   4.933   4.077   2.826
 5853SOL     OW18457   4.601   4.920   0.164
 5853SOL    HW118458   4.628   4.981   0.089
 5853SOL    HW218459   4.682   4.874   0.200
 5854SOL     OW18460   2.915   4.592   5.481
 5854SOL    HW118461   2.836   4.530   5.482
 5854SOL    HW218462   2.956   4.593   5.390
 5855SOL     OW18463   2.069   2.128   4.281
 5855SOL    HW118464   2.160   2.148   4.245
 5855SOL    HW218465   2.059   2.169   4.372
 5856SOL     OW18466   0.279   0.421   2.593
 5856SOL    HW118467   0.272   0.505   2.540
 5856SOL    HW218468   0.317   0.441   2.684
 5857SOL     OW18469   5.685   5.199   0.020
 5857SOL    HW118470   5.620   5.127   0.043
 5857SOL    HW218471   5.702   5.199   6.946
 5858SOL     OW18472   2.274   1.600   2.549
 5858SOL    HW118473   2.354   1.658   2.530
 5858SOL    HW218474   2.205   1.615   2.479
 5859SOL     OW18475   5.474   5.566   2.130
 5859SOL    HW118476   5.444   5.645   2.183
 5859SOL    HW218477   5.454   5.482   2.180
 5860SOL     OW18478   2.012   3.174   2.917
 5860SOL    HW118479   2.023   3.268   2.883
 5860SOL    HW218480   1.920   3.142   2.897
 5861SOL     OW18481   5.854   0.778   5.147
 5861SOL    HW118482   5.946   0.787   5.186
 5861SOL    HW218483   5.833   0.859   5.093
 5862SOL     OW18484   6.978   5.101   3.249
 5862SOL    HW118485   6.953   5.020   3.194
 5862SOL    HW218486   6.911   5.173   3.234
 5863SOL     OW18487   4.192   6.872   5.937
 5863SOL    HW118488   4.113   6.860   5.997
 5863SOL    HW218489   4.263   6.922   5.985
 5864SOL     OW18490   3.669   2.872   2.885
 5864SOL    HW118491   3.579   2.879   2.841
 5864SOL    HW218492   3.741   2.870   2.816
 5865SOL     OW18493   6.454   6.890   1.511
 5865SOL    HW118494   6.416   6.910   1.420
 5865SOL    HW218495   6.444   6.971   1.569
 5866SOL     OW18496   3.631   3.367   3.521
 5866SOL    HW118497   3.655   3.464   3.515
 5866SOL    HW218498   3.545   3.358   3.571
 5867SOL     OW18499   3.733   1.302   0.911
 5867SOL    HW118500   3.802   1.233   0.932
 5867SOL    HW218501   3.742   1.331   0.816
 5868SOL     OW18502   1.408   0.548   0.496
 5868SOL    HW118503   1.478   0.519   0.561
 5868SOL    HW218504   1.450   0.565   0.407
 5869SOL     OW18505   1.723   5.546   2.576
 5869SOL    HW118506   1.798   5.510   2.632
 5869SOL    HW218507   1.726   5.646   2.577
 5870SOL     OW18508   4.669   0.238   3.688
 5870SOL    HW118509   4.724   0.204   3.764
 5870SOL    HW218510   4.678   0.337   3.682
 5871SOL     OW18511   3.875   2.968   3.617
 5871SOL    HW118512   3.776   2.963   3.634
 5871SOL    HW218513   3.900   3.062   3.596
 5872SOL     OW18514   3.852   6.011   1.138
 5872SOL    HW118515   3.831   6.090   1.196
 5872SOL    HW218516   3.919   6.038   1.068
 5873SOL     OW18517   4.126   6.319   1.885
 5873SOL    HW118518   4.038   6.278   1.865
 5873SOL    HW218519   4.175   6.263   1.952
 5874SOL     OW18520   0.481   4.487   5.033
 5874SOL    HW118521   0.412   4.557   5.052
 5874SOL    HW218522   0.467   4.450   4.941
 5875SOL     OW18523   4.136   2.313   1.338
 5875SOL    HW118524   4.054   2.287   1.287
 5875SOL    HW218525   4.109   2.364   1.420
 5876SOL     OW18526   3.270   2.935   1.885
 5876SOL    HW118527   3.260   2.854   1.942
 5876SOL    HW218528   3.363   2.970   1.893
 5877SOL     OW18529   5.203   4.248   1.655
 5877SOL    HW118530   5.115   4.271   1.614
 5877SOL    HW218531   5.237   4.164   1.615
 5878SOL     OW18532   1.762   3.813   2.560
 5878SOL    HW118533   1.860   3.799   2.572
 5878SOL    HW218534   1.734   3.896   2.609
 5879SOL     OW18535   2.078   3.436   4.113
 5879SOL    HW118536   2.001   3.427   4.177
 5879SOL    HW218537   2.070   3.367   4.041
 5880SOL     OW18538   3.175   5.596   0.089
 5880SOL    HW118539   3.124   5.591   0.004
 5880SOL    HW218540   3.155   5.515   0.145
 5881SOL     OW18541   1.799   6.447   4.544
 5881SOL    HW118542   1.863   6.523   4.552
 5881SOL    HW218543   1.845   6.370   4.499
 5882SOL     OW18544   5.124   0.244   3.354
 5882SOL    HW118545   5.202   0.277   3.407
 5882SOL    HW218546   5.145   0.249   3.256
 5883SOL     OW18547   0.764   3.210   4.657
 5883SOL    HW118548   0.794   3.199   4.562
 5883SOL    HW218549   0.819   3.280   4.702
 5884SOL     OW18550   0.489   0.851   3.141
 5884SOL    HW118551   0.473   0.947   3.119
 5884SOL    HW218552   0.401   0.804   3.150
 5885SOL     OW18553   5.954   6.899   0.963
 5885SOL    HW118554   5.986   6.902   1.058
 5885SOL    HW218555   5.902   6.814   0.949
 5886SOL     OW18556   5.999   1.804   6.354
 5886SOL    HW118557   5.938   1.878   6.327
 5886SOL    HW218558   5.970   1.719   6.311
 5887SOL     OW18559   4.033   5.997   2.667
 5887SOL    HW118560   4.055   5.909   2.708
 5887SOL    HW218561   3.953   5.988   2.608
 5888SOL     OW18562   6.671   6.653   2.073
 5888SOL    HW118563   6.729   6.679   1.995
 5888SOL    HW218564   6.724   6.659   2.157
 5889SOL     OW18565   2.583   6.809   6.661
 5889SOL    HW118566   2.517   6.870   6.703
 5889SOL    HW218567   2.607   6.735   6.724
 5890SOL     OW18568   3.885   5.112   6.241
 5890SOL    HW118569   3.941   5.030   6.248
 5890SOL    HW218570   3.788   5.088   6.250
 5891SOL     OW18571   2.043   3.642   6.111
 5891SOL    HW118572   1.946   3.631   6.089
 5891SOL    HW218573   2.089   3.685   6.033
 5892SOL     OW18574   2.166   6.226   2.634
 5892SOL    HW118575   2.140   6.161   2.705
 5892SOL    HW218576   2.085   6.272   2.599
 5893SOL     OW18577   1.492   1.909   3.411
 5893SOL    HW118578   1.432   1.890   3.333
 5893SOL    HW218579   1.511   2.007   3.416
 5894SOL     OW18580   1.464   4.017   4.073
 5894SOL    HW118581   1.415   4.078   4.135
 5894SOL    HW218582   1.407   3.939   4.050
 5895SOL     OW18583   5.783   3.823   3.469
 5895SOL    HW118584   5.832   3.739   3.495
 5895SOL    HW218585   5.707   3.799   3.409
 5896SOL     OW18586   5.313   3.495   6.413
 5896SOL    HW118587   5.263   3.521   6.330
 5896SOL    HW218588   5.306   3.396   6.426
 5897SOL     OW18589   4.624   5.012   0.881
 5897SOL    HW118590   4.539   5.039   0.834
 5897SOL    HW218591   4.629   5.058   0.969
 5898SOL     OW18592   2.918   6.724   3.160
 5898SOL    HW118593   2.884   6.705   3.068
 5898SOL    HW218594   2.852   6.690   3.227
 5899SOL     OW18595   5.561   0.258   3.886
 5899SOL    HW118596   5.569   0.160   3.874
 5899SOL    HW218597   5.592   0.284   3.977
 5900SOL     OW18598   3.779   4.901   2.018
 5900SOL    HW118599   3.733   4.832   1.962
 5900SOL    HW218600   3.778   4.989   1.971
 5901SOL     OW18601   2.988   6.377   4.713
 5901SOL    HW118602   3.057   6.372   4.784
 5901SOL    HW218603   3.029   6.408   4.628
 5902SOL     OW18604   6.075   2.452   0.002
 5902SOL    HW118605   5.988   2.422   6.987
 5902SOL    HW218606   6.117   2.375   0.051
 5903SOL     OW18607   0.686   2.848   6.011
 5903SOL    HW118608   0.668   2.915   6.082
 5903SOL    HW218609   0.715   2.762   6.052
 5904SOL     OW18610   1.673   2.852   2.673
 5904SOL    HW118611   1.623   2.765   2.666
 5904SOL    HW218612   1.753   2.849   2.614
 5905SOL     OW18613   0.056   4.523   2.855
 5905SOL    HW118614   0.123   4.578   2.803
 5905SOL    HW218615   7.025   4.471   2.791
 5906SOL     OW18616   1.452   1.163   2.613
 5906SOL    HW118617   1.360   1.193   2.638
 5906SOL    HW218618   1.516   1.187   2.687
 5907SOL     OW18619   2.256   0.037   2.902
 5907SOL    HW118620   2.185   0.049   2.971
 5907SOL    HW218621   2.252   0.113   2.837
 5908SOL     OW18622   0.955   2.883   5.914
 5908SOL    HW118623   0.900   2.884   5.997
 5908SOL    HW218624   0.902   2.921   5.838
 5909SOL     OW18625   6.613   4.650   0.370
 5909SOL    HW118626   6.547   4.644   0.445
 5909SOL    HW218627   6.702   4.676   0.406
 5910SOL     OW18628   1.293   1.750   3.284
 5910SOL    HW118629   1.297   1.740   3.185
 5910SOL    HW218630   1.291   1.659   3.326
 5911SOL     OW18631   6.403   5.830   6.556
 5911SOL    HW118632   6.333   5.902   6.560
 5911SOL    HW218633   6.362   5.746   6.519
 5912SOL     OW18634   6.943   6.941   3.486
 5912SOL    HW118635   6.918   6.859   3.538
 5912SOL    HW218636   7.013   6.992   3.536
 5913SOL     OW18637   6.461   2.406   0.889
 5913SOL    HW118638   6.490   2.395   0.983
 5913SOL    HW218639   6.361   2.412   0.885
 5914SOL     OW18640   0.917   6.541   0.797
 5914SOL    HW118641   0.936   6.585   0.885
 5914SOL    HW218642   0.846   6.472   0.810
 5915SOL     OW18643   4.090   0.640   5.746
 5915SOL    HW118644   4.131   0.561   5.700
 5915SOL    HW218645   4.141   0.660   5.830
 5916SOL     OW18646   0.836   0.227   2.344
 5916SOL    HW118647   0.851   0.320   2.309
 5916SOL    HW218648   0.738   0.211   2.355
 5917SOL     OW18649   3.210   2.788   0.493
 5917SOL    HW118650   3.304   2.797   0.460
 5917SOL    HW218651   3.194   2.693   0.522
 5918SOL     OW18652   3.580   6.866   4.369
 5918SOL    HW118653   3.654   6.928   4.339
 5918SOL    HW218654   3.594   6.776   4.330
 5919SOL     OW18655   3.378   3.138   4.947
 5919SOL    HW118656   3.430   3.052   4.939
 5919SOL    HW218657   3.289   3.127   4.902
 5920SOL     OW18658   0.415   0.283   5.881
 5920SOL    HW118659   0.485   0.304   5.949
 5920SOL    HW218660   0.375   0.194   5.901
 5921SOL     OW18661   2.434   4.206   0.096
 5921SOL    HW118662   2.348   4.240   0.057
 5921SOL    HW218663   2.511   4.256   0.056
 5922SOL     OW18664   5.276   2.962   2.636
 5922SOL    HW118665   5.213   2.990   2.563
 5922SOL    HW218666   5.328   2.882   2.605
 5923SOL     OW18667   5.815   0.775   3.276
 5923SOL    HW118668   5.848   0.712   3.346
 5923SOL    HW218669   5.889   0.799   3.214
 5924SOL     OW18670   5.793   6.455   3.357
 5924SOL    HW118671   5.740   6.446   3.273
 5924SOL    HW218672   5.890   6.463   3.334
 5925SOL     OW18673   4.401   1.435   0.875
 5925SOL    HW118674   4.478   1.444   0.811
 5925SOL    HW218675   4.315   1.448   0.826
 5926SOL     OW18676   5.549   3.771   3.326
 5926SOL    HW118677   5.516   3.760   3.232
 5926SOL    HW218678   5.551   3.683   3.372
 5927SOL     OW18679   0.577   5.268   1.795
 5927SOL    HW118680   0.621   5.350   1.831
 5927SOL    HW218681   0.486   5.291   1.762
 5928SOL     OW18682   2.873   6.880   6.723
 5928SOL    HW118683   2.800   6.818   6.697
 5928SOL    HW218684   2.962   6.837   6.705
 5929SOL     OW18685   1.023   0.670   0.796
 5929SOL    HW118686   1.083   0.750   0.800
 5929SOL    HW218687   1.005   0.637   0.888
 5930SOL     OW18688   1.651   3.956   2.333
 5930SOL    HW118689   1.693   3.926   2.419
 5930SOL    HW218690   1.696   3.911   2.257
 5931SOL     OW18691   5.019   5.990   3.046
 5931SOL    HW118692   4.930   5.951   3.069
 5931SOL    HW218693   5.006   6.076   2.997
 5932SOL     OW18694   3.128   6.470   0.485
 5932SOL    HW118695   3.085   6.460   0.574
 5932SOL    HW218696   3.206   6.532   0.492
 5933SOL     OW18697   6.245   5.693   4.310
 5933SOL    HW118698   6.246   5.736   4.220
 5933SOL    HW218699   6.153   5.657   4.329
 5934SOL     OW18700   2.911   3.268   0.547
 5934SOL    HW118701   2.858   3.226   0.622
 5934SOL    HW218702   2.926   3.201   0.475
 5935SOL     OW18703   0.806   0.521   5.319
 5935SOL    HW118704   0.852   0.520   5.408
 5935SOL    HW218705   0.738   0.447   5.316
 5936SOL     OW18706   3.584   2.883   1.615
 5936SOL    HW118707   3.594   2.833   1.701
 5936SOL    HW218708   3.544   2.973   1.633
 5937SOL     OW18709   0.449   2.667   0.658
 5937SOL    HW118710   0.405   2.680   0.569
 5937SOL    HW218711   0.472   2.570   0.670
 5938SOL     OW18712   0.302   3.759   4.068
 5938SOL    HW118713   0.207   3.749   4.099
 5938SOL    HW218714   0.303   3.800   3.977
 5939SOL     OW18715   4.170   1.144   5.805
 5939SOL    HW118716   4.253   1.091   5.823
 5939SOL    HW218717   4.171   1.176   5.710
 5940SOL     OW18718   4.558   4.922   1.543
 5940SOL    HW118719   4.646   4.881   1.564
 5940SOL    HW218720   4.551   5.011   1.587
 5941SOL     OW18721   0.178   2.015   2.973
 5941SOL    HW118722   0.177   1.937   2.910
 5941SOL    HW218723   0.154   2.099   2.923
 5942SOL     OW18724   5.527   2.495   6.525
 5942SOL    HW118725   5.439   2.451   6.542
 5942SOL    HW218726   5.566   2.526   6.612
 5943SOL     OW18727   1.678   4.780   1.227
 5943SOL    HW118728   1.588   4.825   1.228
 5943SOL    HW218729   1.702   4.755   1.133
 5944SOL     OW18730   5.864   3.601   6.073
 5944SOL    HW118731   5.941   3.631   6.017
 5944SOL    HW218732   5.786   3.660   6.056
 5945SOL     OW18733   6.570   6.522   4.666
 5945SOL    HW118734   6.615   6.583   4.600
 5945SOL    HW218735   6.637   6.490   4.732
 5946SOL     OW18736   2.002   3.079   6.802
 5946SOL    HW118737   1.915   3.112   6.765
 5946SOL    HW218738   1.986   3.032   6.889
 5947SOL     OW18739   3.478   3.768   4.651
 5947SOL    HW118740   3.476   3.735   4.557
 5947SOL    HW218741   3.498   3.692   4.713
 5948SOL     OW18742   4.863   3.637   1.281
 5948SOL    HW118743   4.780   3.669   1.326
 5948SOL    HW218744   4.920   3.716   1.258
 5949SOL     OW18745   0.546   4.151   3.123
 5949SOL    HW118746   0.551   4.085   3.047
 5949SOL    HW218747   0.598   4.115   3.201
 5950SOL     OW18748   3.231   6.639   4.679
 5950SOL    HW118749   3.308   6.693   4.643
 5950SOL    HW218750   3.185   6.592   4.604
 5951SOL     OW18751   6.928   4.078   6.627
 5951SOL    HW118752   6.914   4.079   6.726
 5951SOL    HW218753   6.855   4.131   6.583
 5952SOL     OW18754   3.826   4.158   1.605
 5952SOL    HW118755   3.838   4.119   1.696
 5952SOL    HW218756   3.744   4.118   1.563
 5953SOL     OW18757   6.616   3.401   6.083
 5953SOL    HW118758   6.545   3.390   6.013
 5953SOL    HW218759   6.706   3.395   6.039
 5954SOL     OW18760   2.131   5.653   3.963
 5954SOL    HW118761   2.083   5.690   3.883
 5954SOL    HW218762   2.121   5.554   3.965
 5955SOL     OW18763   4.801   2.827   0.588
 5955SOL    HW118764   4.733   2.824   0.661
 5955SOL    HW218765   4.759   2.863   0.505
 5956SOL     OW18766   4.826   2.864   5.507
 5956SOL    HW118767   4.916   2.906   5.515
 5956SOL    HW218768   4.794   2.836   5.598
 5957SOL     OW18769   6.746   1.711   3.571
 5957SOL    HW118770   6.692   1.630   3.593
 5957SOL    HW218771   6.686   1.785   3.540
 5958SOL     OW18772   2.474   6.672   3.308
 5958SOL    HW118773   2.393   6.724   3.282
 5958SOL    HW218774   2.499   6.609   3.234
 5959SOL     OW18775   5.623   2.998   3.024
 5959SOL    HW118776   5.624   2.957   2.933
 5959SOL    HW218777   5.678   3.082   3.024
 5960SOL     OW18778   5.085   0.883   5.900
 5960SOL    HW118779   5.160   0.931   5.854
 5960SOL    HW218780   5.098   0.784   5.891
 5961SOL     OW18781   2.914   2.171   3.742
 5961SOL    HW118782   2.906   2.096   3.808
 5961SOL    HW218783   2.838   2.235   3.755
 5962SOL     OW18784   4.552   4.832   0.483
 5962SOL    HW118785   4.597   4.743   0.480
 5962SOL    HW218786   4.610   4.897   0.531
 5963SOL     OW18787   1.910   3.646   0.796
 5963SOL    HW118788   1.876   3.635   0.702
 5963SOL    HW218789   1.962   3.564   0.822
 5964SOL     OW18790   1.899   7.024   3.282
 5964SOL    HW118791   1.907   6.946   3.220
 5964SOL    HW218792   1.898   0.084   3.228
 5965SOL     OW18793   2.417   0.226   0.887
 5965SOL    HW118794   2.455   0.177   0.966
 5965SOL    HW218795   2.398   0.161   0.813
 5966SOL     OW18796   2.907   1.944   5.193
 5966SOL    HW118797   2.899   2.042   5.177
 5966SOL    HW218798   2.962   1.903   5.120
 5967SOL     OW18799   4.844   2.215   5.239
 5967SOL    HW118800   4.792   2.163   5.171
 5967SOL    HW218801   4.795   2.213   5.327
 5968SOL     OW18802   5.855   2.129   2.503
 5968SOL    HW118803   5.881   2.055   2.564
 5968SOL    HW218804   5.936   2.178   2.472
 5969SOL     OW18805   4.457   0.130   0.774
 5969SOL    HW118806   4.380   0.183   0.809
 5969SOL    HW218807   4.466   0.145   0.676
 5970SOL     OW18808   6.545   2.920   0.584
 5970SOL    HW118809   6.454   2.882   0.602
 5970SOL    HW218810   6.557   3.002   0.639
 5971SOL     OW18811   0.017   5.379   3.780
 5971SOL    HW118812   0.094   5.332   3.739
 5971SOL    HW218813   6.978   5.407   3.709
 5972SOL     OW18814   6.181   5.143   0.721
 5972SOL    HW118815   6.204   5.145   0.818
 5972SOL    HW218816   6.083   5.161   0.710
 5973SOL     OW18817   2.628   0.847   2.473
 5973SOL    HW118818   2.608   0.891   2.385
 5973SOL    HW218819   2.727   0.844   2.487
 5974SOL     OW18820   5.662   1.707   4.710
 5974SOL    HW118821   5.682   1.658   4.625
 5974SOL    HW218822   5.586   1.771   4.695
 5975SOL     OW18823   4.223   5.440   1.597
 5975SOL    HW118824   4.322   5.430   1.601
 5975SOL    HW218825   4.197   5.529   1.634
 5976SOL     OW18826   1.495   4.000   5.640
 5976SOL    HW118827   1.529   3.941   5.714
 5976SOL    HW218828   1.520   4.095   5.660
 5977SOL     OW18829   6.935   5.159   0.907
 5977SOL    HW118830   6.956   5.062   0.901
 5977SOL    HW218831   6.863   5.174   0.974
 5978SOL     OW18832   2.640   3.618   6.912
 5978SOL    HW118833   2.725   3.565   6.909
 5978SOL    HW218834   2.586   3.589   6.991
 5979SOL     OW18835   6.376   0.318   1.205
 5979SOL    HW118836   6.330   0.229   1.199
 5979SOL    HW218837   6.327   0.376   1.270
 5980SOL     OW18838   2.803   2.148   1.060
 5980SOL    HW118839   2.887   2.196   1.083
 5980SOL    HW218840   2.749   2.202   0.995
 5981SOL     OW18841   2.731   2.120   1.319
 5981SOL    HW118842   2.736   2.135   1.220
 5981SOL    HW218843   2.725   2.208   1.365
 5982SOL     OW18844   5.414   3.046   1.995
 5982SOL    HW118845   5.333   2.990   1.978
 5982SOL    HW218846   5.475   3.043   1.916
 5983SOL     OW18847   0.044   0.943   3.651
 5983SOL    HW118848   0.008   0.862   3.604
 5983SOL    HW218849   0.122   0.917   3.707
 5984SOL     OW18850   6.058   6.073   3.023
 5984SOL    HW118851   6.089   6.165   3.045
 5984SOL    HW218852   6.003   6.037   3.098
 5985SOL     OW18853   6.962   3.762   2.632
 5985SOL    HW118854   6.915   3.684   2.591
 5985SOL    HW218855   0.010   3.793   2.571
 5986SOL     OW18856   3.922   3.888   3.719
 5986SOL    HW118857   3.857   3.944   3.668
 5986SOL    HW218858   3.951   3.937   3.801
 5987SOL     OW18859   6.984   5.959   5.010
 5987SOL    HW118860   0.009   5.917   4.935
 5987SOL    HW218861   0.017   5.962   5.092
 5988SOL     OW18862   0.733   3.119   6.739
 5988SOL    HW118863   0.711   3.044   6.802
 5988SOL    HW218864   0.760   3.199   6.792
 5989SOL     OW18865   1.151   6.461   5.300
 5989SOL    HW118866   1.129   6.553   5.268
 5989SOL    HW218867   1.079   6.398   5.271
 5990SOL     OW18868   2.747   4.329   1.675
 5990SOL    HW118869   2.784   4.317   1.582
 5990SOL    HW218870   2.814   4.378   1.731
 5991SOL     OW18871   5.299   0.911   1.155
 5991SOL    HW118872   5.227   0.960   1.106
 5991SOL    HW218873   5.330   0.833   1.100
 5992SOL     OW18874   3.458   5.335   2.924
 5992SOL    HW118875   3.361   5.345   2.903
 5992SOL    HW218876   3.512   5.396   2.865
 5993SOL     OW18877   5.753   2.308   0.868
 5993SOL    HW118878   5.701   2.227   0.895
 5993SOL    HW218879   5.755   2.373   0.944
 5994SOL     OW18880   6.889   3.557   0.074
 5994SOL    HW118881   6.852   3.630   0.131
 5994SOL    HW218882   6.938   3.597   7.021
 5995SOL     OW18883   5.174   3.323   1.316
 5995SOL    HW118884   5.194   3.410   1.270
 5995SOL    HW218885   5.103   3.337   1.385
 5996SOL     OW18886   2.316   6.758   1.198
 5996SOL    HW118887   2.270   6.679   1.237
 5996SOL    HW218888   2.402   6.729   1.156
 5997SOL     OW18889   6.077   0.409   4.100
 5997SOL    HW118890   6.029   0.466   4.168
 5997SOL    HW218891   6.098   0.465   4.019
 5998SOL     OW18892   6.965   6.206   6.812
 5998SOL    HW118893   6.990   6.284   6.755
 5998SOL    HW218894   0.014   6.185   6.876
 5999SOL     OW18895   4.979   3.479   1.469
 5999SOL    HW118896   4.931   3.504   1.553
 5999SOL    HW218897   4.938   3.527   1.392
 6000SOL     OW18898   1.232   4.499   0.613
 6000SOL    HW118899   1.265   4.487   0.706
 6000SOL    HW218900   1.264   4.424   0.556
 6001SOL     OW18901   5.868   5.276   5.943
 6001SOL    HW118902   5.854   5.375   5.945
 6001SOL    HW218903   5.938   5.252   5.876
 6002SOL     OW18904   5.191   4.925   5.451
 6002SOL    HW118905   5.174   4.985   5.529
 6002SOL    HW218906   5.106   4.876   5.428
 6003SOL     OW18907   2.372   2.288   5.110
 6003SOL    HW118908   2.441   2.216   5.109
 6003SOL    HW218909   2.408   2.368   5.158
 6004SOL     OW18910   5.224   3.353   5.436
 6004SOL    HW118911   5.315   3.382   5.405
 6004SOL    HW218912   5.228   3.324   5.531
 6005SOL     OW18913   3.894   4.061   0.098
 6005SOL    HW118914   3.848   4.149   0.083
 6005SOL    HW218915   3.832   4.000   0.147
 6006SOL     OW18916   3.310   5.922   6.718
 6006SOL    HW118917   3.346   5.976   6.641
 6006SOL    HW218918   3.378   5.919   6.791
 6007SOL     OW18919   2.354   6.418   4.980
 6007SOL    HW118920   2.449   6.448   4.978
 6007SOL    HW218921   2.350   6.322   5.008
 6008SOL     OW18922   2.174   4.038   6.527
 6008SOL    HW118923   2.190   3.941   6.508
 6008SOL    HW218924   2.087   4.048   6.575
 6009SOL     OW18925   4.217   5.088   2.592
 6009SOL    HW118926   4.238   5.176   2.550
 6009SOL    HW218927   4.268   5.016   2.544
 6010SOL     OW18928   0.312   5.021   5.086
 6010SOL    HW118929   0.309   5.101   5.146
 6010SOL    HW218930   0.252   5.037   5.007
 6011SOL     OW18931   5.616   1.580   3.403
 6011SOL    HW118932   5.646   1.567   3.308
 6011SOL    HW218933   5.528   1.629   3.403
 6012SOL     OW18934   6.673   0.495   5.721
 6012SOL    HW118935   6.667   0.584   5.767
 6012SOL    HW218936   6.767   0.480   5.689
 6013SOL     OW18937   5.889   1.649   2.031
 6013SOL    HW118938   5.979   1.669   1.994
 6013SOL    HW218939   5.846   1.734   2.063
 6014SOL     OW18940   3.166   3.290   4.362
 6014SOL    HW118941   3.243   3.345   4.394
 6014SOL    HW218942   3.081   3.326   4.400
 6015SOL     OW18943   5.987   7.020   4.329
 6015SOL    HW118944   6.069   6.969   4.356
 6015SOL    HW218945   5.927   6.960   4.276
 6016SOL     OW18946   4.056   2.213   4.400
 6016SOL    HW118947   3.972   2.160   4.398
 6016SOL    HW218948   4.074   2.253   4.310
 6017SOL     OW18949   1.418   1.725   5.672
 6017SOL    HW118950   1.390   1.724   5.576
 6017SOL    HW218951   1.437   1.819   5.700
 6018SOL     OW18952   2.568   1.260   3.722
 6018SOL    HW118953   2.615   1.326   3.780
 6018SOL    HW218954   2.527   1.189   3.780
 6019SOL     OW18955   6.564   4.828   6.763
 6019SOL    HW118956   6.511   4.896   6.814
 6019SOL    HW218957   6.591   4.754   6.825
 6020SOL     OW18958   0.909   5.312   5.938
 6020SOL    HW118959   0.967   5.321   5.857
 6020SOL    HW218960   0.950   5.248   6.002
 6021SOL     OW18961   5.855   7.006   3.278
 6021SOL    HW118962   5.837   6.919   3.232
 6021SOL    HW218963   5.768   0.028   3.297
 6022SOL     OW18964   6.212   3.008   1.632
 6022SOL    HW118965   6.227   3.091   1.578
 6022SOL    HW218966   6.132   3.021   1.691
 6023SOL     OW18967   4.946   6.508   2.204
 6023SOL    HW118968   4.926   6.590   2.151
 6023SOL    HW218969   4.899   6.430   2.162
 6024SOL     OW18970   0.543   6.429   6.437
 6024SOL    HW118971   0.588   6.409   6.524
 6024SOL    HW218972   0.542   6.528   6.422
 6025SOL     OW18973   2.450   0.313   5.178
 6025SOL    HW118974   2.411   0.400   5.208
 6025SOL    HW218975   2.549   0.322   5.170
 6026SOL     OW18976   6.081   5.901   3.592
 6026SOL    HW118977   6.016   5.939   3.527
 6026SOL    HW218978   6.063   5.804   3.606
 6027SOL     OW18979   5.821   5.488   6.208
 6027SOL    HW118980   5.827   5.512   6.305
 6027SOL    HW218981   5.820   5.389   6.198
 6028SOL     OW18982   5.898   5.998   6.459
 6028SOL    HW118983   5.948   5.923   6.416
 6028SOL    HW218984   5.849   5.965   6.539
 6029SOL     OW18985   3.459   1.447   2.737
 6029SOL    HW118986   3.539   1.425   2.791
 6029SOL    HW218987   3.395   1.501   2.792
 6030SOL     OW18988   6.317   3.246   4.471
 6030SOL    HW118989   6.304   3.262   4.373
 6030SOL    HW218990   6.413   3.221   4.487
 6031SOL     OW18991   7.008   6.559   5.094
 6031SOL    HW118992   0.005   6.624   5.167
 6031SOL    HW218993   0.063   6.503   5.073
 6032SOL     OW18994   3.181   6.636   3.172
 6032SOL    HW118995   3.219   6.602   3.086
 6032SOL    HW218996   3.085   6.661   3.157
 6033SOL     OW18997   0.592   1.653   2.668
 6033SOL    HW118998   0.653   1.597   2.612
 6033SOL    HW218999   0.559   1.600   2.746
 6034SOL     OW19000   0.136   6.945   0.406
 6034SOL    HW119001   0.084   6.892   0.472
 6034SOL    HW219002   0.142   6.894   0.320
 6035SOL     OW19003   2.685   0.272   2.454
 6035SOL    HW119004   2.780   0.256   2.482
 6035SOL    HW219005   2.646   0.186   2.421
 6036SOL     OW19006   6.277   3.564   0.808
 6036SOL    HW119007   6.342   3.619   0.860
 6036SOL    HW219008   6.326   3.490   0.762
 6037SOL     OW19009   4.631   1.226   6.320
 6037SOL    HW119010   4.627   1.292   6.245
 6037SOL    HW219011   4.677   1.269   6.399
 6038SOL     OW19012   1.048   1.194   6.318
 6038SOL    HW119013   1.035   1.187   6.417
 6038SOL    HW219014   0.969   1.240   6.278
 6039SOL     OW19015   4.155   3.492   3.721
 6039SOL    HW119016   4.233   3.461   3.776
 6039SOL    HW219017   4.084   3.529   3.782
 6040SOL     OW19018   0.700   2.057   0.342
 6040SOL    HW119019   0.619   2.016   0.301
 6040SOL    HW219020   0.762   1.985   0.373
 6041SOL     OW19021   0.931   3.481   5.310
 6041SOL    HW119022   1.025   3.467   5.341
 6041SOL    HW219023   0.932   3.527   5.220
 6042SOL     OW19024   2.949   6.137   3.724
 6042SOL    HW119025   3.010   6.215   3.739
 6042SOL    HW219026   2.960   6.104   3.630
 6043SOL     OW19027   2.608   0.070   2.668
 6043SOL    HW119028   2.604   0.019   2.582
 6043SOL    HW219029   2.542   0.145   2.664
 6044SOL     OW19030   0.628   3.163   0.586
 6044SOL    HW119031   0.633   3.224   0.665
 6044SOL    HW219032   0.534   3.134   0.571
 6045SOL     OW19033   6.084   1.358   3.405
 6045SOL    HW119034   6.025   1.423   3.453
 6045SOL    HW219035   6.179   1.390   3.410
 6046SOL     OW19036   3.326   3.295   2.877
 6046SOL    HW119037   3.346   3.252   2.789
 6046SOL    HW219038   3.228   3.307   2.888
 6047SOL     OW19039   6.730   1.477   0.448
 6047SOL    HW119040   6.786   1.459   0.529
 6047SOL    HW219041   6.709   1.575   0.444
 6048SOL     OW19042   5.844   6.054   3.193
 6048SOL    HW119043   5.777   6.125   3.216
 6048SOL    HW219044   5.806   5.996   3.121
 6049SOL     OW19045   4.665   5.387   6.729
 6049SOL    HW119046   4.685   5.422   6.820
 6049SOL    HW219047   4.625   5.459   6.673
 6050SOL     OW19048   2.717   5.326   2.506
 6050SOL    HW119049   2.642   5.387   2.529
 6050SOL    HW219050   2.797   5.348   2.563
 6051SOL     OW19051   0.571   1.536   3.259
 6051SOL    HW119052   0.522   1.463   3.307
 6051SOL    HW219053   0.508   1.584   3.198
 6052SOL     OW19054   5.237   5.330   0.395
 6052SOL    HW119055   5.221   5.273   0.476
 6052SOL    HW219056   5.150   5.351   0.352
 6053SOL     OW19057   4.496   2.300   6.475
 6053SOL    HW119058   4.535   2.389   6.450
 6053SOL    HW219059   4.417   2.281   6.418
 6054SOL     OW19060   4.252   3.743   1.029
 6054SOL    HW119061   4.316   3.773   1.099
 6054SOL    HW219062   4.170   3.706   1.073
 6055SOL     OW19063   2.691   3.365   1.494
 6055SOL    HW119064   2.642   3.280   1.512
 6055SOL    HW219065   2.633   3.443   1.516
 6056SOL     OW19066   5.270   5.976   3.372
 6056SOL    HW119067   5.318   6.032   3.440
 6056SOL    HW219068   5.175   6.006   3.367
 6057SOL     OW19069   5.310   0.681   3.954
 6057SOL    HW119070   5.395   0.655   3.909
 6057SOL    HW219071   5.241   0.610   3.938
 6058SOL     OW19072   0.138   2.647   5.993
 6058SOL    HW119073   0.200   2.703   5.937
 6058SOL    HW219074   0.184   2.562   6.018
 6059SOL     OW19075   4.663   2.603   6.865
 6059SOL    HW119076   4.716   2.558   6.793
 6059SOL    HW219077   4.724   2.656   6.924
 6060SOL     OW19078   2.325   2.379   0.083
 6060SOL    HW119079   2.327   2.478   0.098
 6060SOL    HW219080   2.249   2.340   0.136
 6061SOL     OW19081   3.521   4.059   0.016
 6061SOL    HW119082   3.504   4.037   0.112
 6061SOL    HW219083   3.514   3.977   6.986
 6062SOL     OW19084   2.102   1.928   6.022
 6062SOL    HW119085   2.128   2.020   5.993
 6062SOL    HW219086   2.177   1.886   6.073
 6063SOL     OW19087   4.549   4.375   0.143
 6063SOL    HW119088   4.502   4.380   0.232
 6063SOL    HW219089   4.600   4.459   0.128
 6064SOL     OW19090   6.125   5.993   0.813
 6064SOL    HW119091   6.154   6.079   0.855
 6064SOL    HW219092   6.046   5.957   0.864
 6065SOL     OW19093   2.253   6.260   1.432
 6065SOL    HW119094   2.320   6.187   1.425
 6065SOL    HW219095   2.217   6.263   1.526
 6066SOL     OW19096   5.609   5.417   2.601
 6066SOL    HW119097   5.666   5.476   2.658
 6066SOL    HW219098   5.643   5.323   2.608
 6067SOL     OW19099   0.104   6.515   5.952
 6067SOL    HW119100   0.171   6.582   5.921
 6067SOL    HW219101   0.054   6.551   6.031
 6068SOL     OW19102   5.036   2.101   4.132
 6068SOL    HW119103   5.130   2.090   4.163
 6068SOL    HW219104   5.002   2.191   4.160
 6069SOL     OW19105   6.752   4.704   6.131
 6069SOL    HW119106   6.811   4.719   6.210
 6069SOL    HW219107   6.671   4.653   6.160
 6070SOL     OW19108   2.480   1.462   0.747
 6070SOL    HW119109   2.570   1.475   0.705
 6070SOL    HW219110   2.490   1.461   0.847
 6071SOL     OW19111   5.561   1.177   5.732
 6071SOL    HW119112   5.608   1.211   5.812
 6071SOL    HW219113   5.627   1.138   5.668
 6072SOL     OW19114   6.777   3.520   6.751
 6072SOL    HW119115   6.745   3.484   6.663
 6072SOL    HW219116   6.836   3.452   6.794
 6073SOL     OW19117   5.048   3.913   0.402
 6073SOL    HW119118   5.099   3.827   0.396
 6073SOL    HW219119   5.022   3.942   0.310
 6074SOL     OW19120   1.094   6.878   1.842
 6074SOL    HW119121   1.055   6.965   1.872
 6074SOL    HW219122   1.105   6.817   1.921
 6075SOL     OW19123   5.912   0.638   6.705
 6075SOL    HW119124   5.829   0.691   6.684
 6075SOL    HW219125   5.992   0.697   6.697
 6076SOL     OW19126   0.666   5.867   3.008
 6076SOL    HW119127   0.720   5.807   2.949
 6076SOL    HW219128   0.685   5.962   2.984
 6077SOL     OW19129   5.280   5.700   2.716
 6077SOL    HW119130   5.189   5.739   2.709
 6077SOL    HW219131   5.326   5.708   2.627
 6078SOL     OW19132   5.050   4.074   0.133
 6078SOL    HW119133   5.024   4.157   0.183
 6078SOL    HW219134   5.145   4.081   0.103
 6079SOL     OW19135   3.475   1.537   6.763
 6079SOL    HW119136   3.441   1.506   6.674
 6079SOL    HW219137   3.398   1.564   6.820
 6080SOL     OW19138   6.527   3.614   5.818
 6080SOL    HW119139   6.567   3.568   5.739
 6080SOL    HW219140   6.458   3.554   5.859
 6081SOL     OW19141   1.515   3.180   3.686
 6081SOL    HW119142   1.580   3.227   3.627
 6081SOL    HW219143   1.455   3.246   3.729
 6082SOL     OW19144   5.228   1.126   1.639
 6082SOL    HW119145   5.146   1.118   1.582
 6082SOL    HW219146   5.236   1.220   1.672
 6083SOL     OW19147   4.913   0.122   6.597
 6083SOL    HW119148   5.001   0.075   6.591
 6083SOL    HW219149   4.927   0.220   6.582
 6084SOL     OW19150   6.495   5.381   2.835
 6084SOL    HW119151   6.494   5.301   2.895
 6084SOL    HW219152   6.406   5.428   2.840
 6085SOL     OW19153   0.673   6.467   0.287
 6085SOL    HW119154   0.770   6.443   0.283
 6085SOL    HW219155   0.621   6.402   0.231
 6086SOL     OW19156   3.213   3.597   0.139
 6086SOL    HW119157   3.163   3.656   0.202
 6086SOL    HW219158   3.311   3.612   0.150
 6087SOL     OW19159   4.422   0.118   0.490
 6087SOL    HW119160   4.428   0.217   0.497
 6087SOL    HW219161   4.514   0.078   0.493
 6088SOL     OW19162   4.735   5.187   2.929
 6088SOL    HW119163   4.723   5.207   3.027
 6088SOL    HW219164   4.757   5.090   2.918
 6089SOL     OW19165   6.278   3.809   3.320
 6089SOL    HW119166   6.205   3.747   3.293
 6089SOL    HW219167   6.356   3.797   3.259
 6090SOL     OW19168   3.635   5.462   4.267
 6090SOL    HW119169   3.655   5.524   4.343
 6090SOL    HW219170   3.608   5.515   4.187
 6091SOL     OW19171   0.731   1.378   1.413
 6091SOL    HW119172   0.824   1.391   1.377
 6091SOL    HW219173   0.679   1.321   1.351
 6092SOL     OW19174   2.677   6.909   1.219
 6092SOL    HW119175   2.672   6.840   1.291
 6092SOL    HW219176   2.773   6.930   1.201
 6093SOL     OW19177   2.381   2.413   2.067
 6093SOL    HW119178   2.381   2.494   2.008
 6093SOL    HW219179   2.433   2.340   2.022
 6094SOL     OW19180   0.780   6.287   5.641
 6094SOL    HW119181   0.706   6.349   5.613
 6094SOL    HW219182   0.783   6.209   5.578
 6095SOL     OW19183   5.044   4.746   1.693
 6095SOL    HW119184   4.996   4.672   1.644
 6095SOL    HW219185   5.080   4.811   1.626
 6096SOL     OW19186   4.854   5.739   3.228
 6096SOL    HW119187   4.755   5.739   3.244
 6096SOL    HW219188   4.894   5.658   3.270
 6097SOL     OW19189   2.565   4.971   2.103
 6097SOL    HW119190   2.477   4.923   2.106
 6097SOL    HW219191   2.625   4.925   2.037
 6098SOL     OW19192   6.530   0.570   5.234
 6098SOL    HW119193   6.620   0.531   5.256
 6098SOL    HW219194   6.542   0.662   5.197
 6099SOL     OW19195   3.831   7.017   5.661
 6099SOL    HW119196   3.813   0.045   5.744
 6099SOL    HW219197   3.835   6.920   5.684
 6100SOL     OW19198   0.798   5.447   5.185
 6100SOL    HW119199   0.875   5.453   5.121
 6100SOL    HW219200   0.832   5.423   5.276
 6101SOL     OW19201   0.145   3.245   1.779
 6101SOL    HW119202   0.194   3.264   1.694
 6101SOL    HW219203   0.103   3.155   1.773
 6102SOL     OW19204   3.766   6.973   2.913
 6102SOL    HW119205   3.762   0.040   2.951
 6102SOL    HW219206   3.846   6.926   2.951
 6103SOL     OW19207   6.212   2.005   2.476
 6103SOL    HW119208   6.236   2.063   2.398
 6103SOL    HW219209   6.146   1.936   2.447
 6104SOL     OW19210   6.833   1.012   4.930
 6104SOL    HW119211   6.890   1.051   4.858
 6104SOL    HW219212   6.739   1.043   4.919
 6105SOL     OW19213   3.958   4.445   6.398
 6105SOL    HW119214   3.872   4.480   6.435
 6105SOL    HW219215   4.000   4.383   6.464
 6106SOL     OW19216   6.173   4.919   5.448
 6106SOL    HW119217   6.189   4.921   5.546
 6106SOL    HW219218   6.116   4.840   5.425
 6107SOL     OW19219   5.630   5.065   5.676
 6107SOL    HW119220   5.596   5.002   5.606
 6107SOL    HW219221   5.572   5.057   5.758
 6108SOL     OW19222   2.178   1.194   6.633
 6108SOL    HW119223   2.229   1.111   6.611
 6108SOL    HW219224   2.216   1.236   6.714
 6109SOL     OW19225   0.004   6.773   3.921
 6109SOL    HW119226   7.011   6.783   3.823
 6109SOL    HW219227   6.969   6.833   3.973
 6110SOL     OW19228   1.841   1.493   4.534
 6110SOL    HW119229   1.935   1.516   4.507
 6110SOL    HW219230   1.787   1.474   4.452
 6111SOL     OW19231   2.034   3.396   0.798
 6111SOL    HW119232   2.058   3.365   0.706
 6111SOL    HW219233   2.097   3.355   0.864
 6112SOL     OW19234   4.826   6.611   3.687
 6112SOL    HW119235   4.800   6.679   3.618
 6112SOL    HW219236   4.926   6.611   3.698
 6113SOL     OW19237   2.066   5.428   0.951
 6113SOL    HW119238   2.105   5.364   0.884
 6113SOL    HW219239   2.043   5.513   0.905
 6114SOL     OW19240   5.006   2.514   1.227
 6114SOL    HW119241   5.057   2.495   1.143
 6114SOL    HW219242   4.929   2.451   1.234
 6115SOL     OW19243   0.965   0.807   5.660
 6115SOL    HW119244   0.997   0.758   5.579
 6115SOL    HW219245   1.015   0.893   5.670
 6116SOL     OW19246   5.873   3.739   0.046
 6116SOL    HW119247   5.884   3.757   6.974
 6116SOL    HW219248   5.821   3.813   0.088
 6117SOL     OW19249   1.740   2.062   1.434
 6117SOL    HW119250   1.719   2.005   1.513
 6117SOL    HW219251   1.821   2.027   1.388
 6118SOL     OW19252   5.772   1.529   2.254
 6118SOL    HW119253   5.817   1.578   2.179
 6118SOL    HW219254   5.730   1.445   2.220
 6119SOL     OW19255   6.472   1.382   6.800
 6119SOL    HW119256   6.527   1.423   6.872
 6119SOL    HW219257   6.375   1.393   6.822
 6120SOL     OW19258   3.323   0.424   4.158
 6120SOL    HW119259   3.228   0.399   4.175
 6120SOL    HW219260   3.354   0.381   4.073
 6121SOL     OW19261   1.999   1.865   5.095
 6121SOL    HW119262   2.063   1.789   5.095
 6121SOL    HW219263   2.048   1.950   5.076
 6122SOL     OW19264   5.201   4.812   5.116
 6122SOL    HW119265   5.299   4.800   5.105
 6122SOL    HW219266   5.155   4.794   5.029
 6123SOL     OW19267   5.880   1.432   5.651
 6123SOL    HW119268   5.980   1.441   5.649
 6123SOL    HW219269   5.845   1.423   5.558
 6124SOL     OW19270   2.467   5.908   4.172
 6124SOL    HW119271   2.477   5.981   4.105
 6124SOL    HW219272   2.540   5.915   4.240
 6125SOL     OW19273   3.052   1.598   6.057
 6125SOL    HW119274   3.074   1.501   6.070
 6125SOL    HW219275   3.122   1.654   6.101
 6126SOL     OW19276   5.805   3.089   6.070
 6126SOL    HW119277   5.830   3.110   5.975
 6126SOL    HW219278   5.832   3.165   6.129
 6127SOL     OW19279   4.988   2.212   2.871
 6127SOL    HW119280   4.944   2.301   2.874
 6127SOL    HW219281   5.040   2.203   2.786
 6128SOL     OW19282   5.918   5.875   6.850
 6128SOL    HW119283   5.900   5.908   6.943
 6128SOL    HW219284   6.006   5.910   6.819
 6129SOL     OW19285   2.446   5.531   2.260
 6129SOL    HW119286   2.542   5.518   2.239
 6129SOL    HW219287   2.436   5.608   2.324
 6130SOL     OW19288   5.701   3.078   0.394
 6130SOL    HW119289   5.695   2.986   0.432
 6130SOL    HW219290   5.753   3.137   0.457
 6131SOL     OW19291   6.373   2.309   2.498
 6131SOL    HW119292   6.309   2.315   2.574
 6131SOL    HW219293   6.466   2.323   2.531
 6132SOL     OW19294   4.261   0.280   6.397
 6132SOL    HW119295   4.220   0.352   6.341
 6132SOL    HW219296   4.357   0.269   6.373
 6133SOL     OW19297   0.519   2.001   3.036
 6133SOL    HW119298   0.533   2.030   3.131
 6133SOL    HW219299   0.444   1.934   3.033
 6134SOL     OW19300   0.577   6.408   5.490
 6134SOL    HW119301   0.536   6.321   5.464
 6134SOL    HW219302   0.509   6.481   5.480
 6135SOL     OW19303   6.906   6.691   0.461
 6135SOL    HW119304   6.915   6.732   0.370
 6135SOL    HW219305   6.990   6.642   0.484
 6136SOL     OW19306   0.966   2.769   3.163
 6136SOL    HW119307   0.978   2.862   3.128
 6136SOL    HW219308   0.902   2.771   3.240
 6137SOL     OW19309   0.058   4.310   1.117
 6137SOL    HW119310   0.134   4.375   1.120
 6137SOL    HW219311   0.069   4.243   1.190
 6138SOL     OW19312   4.695   0.356   2.280
 6138SOL    HW119313   4.793   0.356   2.262
 6138SOL    HW219314   4.670   0.440   2.328
 6139SOL     OW19315   1.278   0.727   5.187
 6139SOL    HW119316   1.180   0.708   5.180
 6139SOL    HW219317   1.294   0.824   5.169
 6140SOL     OW19318   1.359   6.944   2.958
 6140SOL    HW119319   1.380   6.892   2.876
 6140SOL    HW219320   1.422   7.021   2.966
 6141SOL     OW19321   0.923   0.953   5.993
 6141SOL    HW119322   0.924   0.971   6.091
 6141SOL    HW219323   0.828   0.954   5.960
 6142SOL     OW19324   6.421   0.870   1.515
 6142SOL    HW119325   6.408   0.969   1.522
 6142SOL    HW219326   6.512   0.850   1.479
 6143SOL     OW19327   0.127   3.403   5.199
 6143SOL    HW119328   0.075   3.466   5.257
 6143SOL    HW219329   0.116   3.430   5.103
 6144SOL     OW19330   3.952   5.102   2.716
 6144SOL    HW119331   3.904   5.027   2.763
 6144SOL    HW219332   4.019   5.064   2.652
 6145SOL     OW19333   5.005   3.679   3.868
 6145SOL    HW119334   4.917   3.640   3.844
 6145SOL    HW219335   4.993   3.747   3.940
 6146SOL     OW19336   5.746   0.316   5.390
 6146SOL    HW119337   5.670   0.300   5.326
 6146SOL    HW219338   5.803   0.235   5.396
 6147SOL     OW19339   1.107   2.816   5.157
 6147SOL    HW119340   1.120   2.857   5.066
 6147SOL    HW219341   1.034   2.748   5.152
 6148SOL     OW19342   3.549   5.148   0.044
 6148SOL    HW119343   3.648   5.150   0.058
 6148SOL    HW219344   3.520   5.056   0.019
 6149SOL     OW19345   3.680   1.016   1.378
 6149SOL    HW119346   3.606   1.031   1.444
 6149SOL    HW219347   3.722   0.927   1.395
 6150SOL     OW19348   0.762   3.997   5.050
 6150SOL    HW119349   0.701   3.923   5.078
 6150SOL    HW219350   0.822   4.022   5.126
 6151SOL     OW19351   4.511   5.032   3.306
 6151SOL    HW119352   4.467   5.007   3.220
 6151SOL    HW219353   4.604   5.066   3.288
 6152SOL     OW19354   1.933   4.445   3.789
 6152SOL    HW119355   1.989   4.368   3.819
 6152SOL    HW219356   1.949   4.524   3.849
 6153SOL     OW19357   5.224   5.782   0.992
 6153SOL    HW119358   5.303   5.722   0.979
 6153SOL    HW219359   5.228   5.823   1.083
 6154SOL     OW19360   5.227   3.885   2.248
 6154SOL    HW119361   5.313   3.858   2.205
 6154SOL    HW219362   5.222   3.985   2.252
 6155SOL     OW19363   1.962   1.724   3.331
 6155SOL    HW119364   2.053   1.737   3.372
 6155SOL    HW219365   1.970   1.723   3.231
 6156SOL     OW19366   5.529   4.349   1.597
 6156SOL    HW119367   5.599   4.323   1.664
 6156SOL    HW219368   5.441   4.310   1.624
 6157SOL     OW19369   0.644   2.724   1.859
 6157SOL    HW119370   0.617   2.652   1.923
 6157SOL    HW219371   0.633   2.814   1.903
 6158SOL     OW19372   2.988   2.237   4.742
 6158SOL    HW119373   2.897   2.276   4.755
 6158SOL    HW219374   3.053   2.285   4.800
 6159SOL     OW19375   6.291   2.541   0.190
 6159SOL    HW119376   6.254   2.481   0.262
 6159SOL    HW219377   6.224   2.548   0.116
 6160SOL     OW19378   0.955   0.386   1.475
 6160SOL    HW119379   1.009   0.304   1.492
 6160SOL    HW219380   0.983   0.428   1.389
 6161SOL     OW19381   4.376   3.761   6.730
 6161SOL    HW119382   4.352   3.672   6.768
 6161SOL    HW219383   4.362   3.831   6.800
 6162SOL     OW19384   6.288   5.376   2.004
 6162SOL    HW119385   6.310   5.472   1.987
 6162SOL    HW219386   6.249   5.335   1.921
 6163SOL     OW19387   6.130   6.181   2.669
 6163SOL    HW119388   6.108   6.275   2.644
 6163SOL    HW219389   6.202   6.181   2.738
 6164SOL     OW19390   3.059   3.835   4.658
 6164SOL    HW119391   3.024   3.901   4.724
 6164SOL    HW219392   3.090   3.884   4.576
 6165SOL     OW19393   3.298   1.639   0.440
 6165SOL    HW119394   3.353   1.598   0.513
 6165SOL    HW219395   3.323   1.597   0.352
 6166SOL     OW19396   2.472   2.127   6.454
 6166SOL    HW119397   2.520   2.066   6.391
 6166SOL    HW219398   2.503   2.110   6.547
 6167SOL     OW19399   1.774   3.381   2.700
 6167SOL    HW119400   1.783   3.475   2.668
 6167SOL    HW219401   1.844   3.363   2.769
 6168SOL     OW19402   0.527   3.619   3.667
 6168SOL    HW119403   0.501   3.649   3.575
 6168SOL    HW219404   0.458   3.647   3.733
 6169SOL     OW19405   2.129   0.384   6.563
 6169SOL    HW119406   2.100   0.289   6.575
 6169SOL    HW219407   2.192   0.410   6.636
 6170SOL     OW19408   2.417   3.675   1.006
 6170SOL    HW119409   2.331   3.630   1.028
 6170SOL    HW219410   2.481   3.608   0.968
 6171SOL     OW19411   2.211   3.936   2.227
 6171SOL    HW119412   2.271   3.859   2.205
 6171SOL    HW219413   2.210   3.951   2.325
 6172SOL     OW19414   2.705   5.474   2.240
 6172SOL    HW119415   2.729   5.415   2.163
 6172SOL    HW219416   2.739   5.433   2.325
 6173SOL     OW19417   1.169   5.964   2.197
 6173SOL    HW119418   1.186   5.873   2.236
 6173SOL    HW219419   1.249   5.995   2.147
 6174SOL     OW19420   5.949   4.814   2.213
 6174SOL    HW119421   6.028   4.753   2.208
 6174SOL    HW219422   5.888   4.796   2.136
 6175SOL     OW19423   4.906   0.190   2.967
 6175SOL    HW119424   4.996   0.224   2.992
 6175SOL    HW219425   4.836   0.257   2.992
 6176SOL     OW19426   5.781   3.495   6.647
 6176SOL    HW119427   5.836   3.480   6.730
 6176SOL    HW219428   5.842   3.515   6.570
 6177SOL     OW19429   6.978   2.863   1.133
 6177SOL    HW119430   0.011   2.825   1.205
 6177SOL    HW219431   6.882   2.853   1.159
 6178SOL     OW19432   6.131   3.586   1.969
 6178SOL    HW119433   6.054   3.611   1.909
 6178SOL    HW219434   6.208   3.647   1.952
 6179SOL     OW19435   0.533   2.158   5.630
 6179SOL    HW119436   0.521   2.180   5.533
 6179SOL    HW219437   0.630   2.168   5.655
 6180SOL     OW19438   3.223   6.825   6.237
 6180SOL    HW119439   3.163   6.804   6.313
 6180SOL    HW219440   3.234   6.925   6.229
 6181SOL     OW19441   5.100   5.738   0.297
 6181SOL    HW119442   5.000   5.735   0.301
 6181SOL    HW219443   5.129   5.793   0.218
 6182SOL     OW19444   4.562   6.295   6.596
 6182SOL    HW119445   4.569   6.230   6.671
 6182SOL    HW219446   4.653   6.333   6.576
 6183SOL     OW19447   3.225   0.872   3.048
 6183SOL    HW119448   3.310   0.891   2.999
 6183SOL    HW219449   3.193   0.956   3.093
 6184SOL     OW19450   5.993   0.329   6.341
 6184SOL    HW119451   5.991   0.312   6.440
 6184SOL    HW219452   6.026   0.422   6.324
 6185SOL     OW19453   0.820   3.841   5.835
 6185SOL    HW119454   0.894   3.809   5.776
 6185SOL    HW219455   0.847   3.833   5.931
 6186SOL     OW19456   5.769   0.179   4.780
 6186SOL    HW119457   5.791   0.096   4.832
 6186SOL    HW219458   5.818   0.178   4.693
 6187SOL     OW19459   3.324   5.261   4.397
 6187SOL    HW119460   3.330   5.170   4.439
 6187SOL    HW219461   3.387   5.323   4.443
 6188SOL     OW19462   2.671   0.019   1.539
 6188SOL    HW119463   2.573   0.036   1.526
 6188SOL    HW219464   2.716   0.015   1.450
 6189SOL     OW19465   5.656   4.956   3.763
 6189SOL    HW119466   5.672   4.978   3.667
 6189SOL    HW219467   5.606   4.870   3.769
 6190SOL     OW19468   5.039   2.587   6.189
 6190SOL    HW119469   5.085   2.502   6.163
 6190SOL    HW219470   5.105   2.651   6.227
 6191SOL     OW19471   6.739   2.192   6.693
 6191SOL    HW119472   6.791   2.134   6.756
 6191SOL    HW219473   6.771   2.286   6.700
 6192SOL     OW19474   3.010   2.465   0.557
 6192SOL    HW119475   3.036   2.396   0.489
 6192SOL    HW219476   3.091   2.490   0.610
 6193SOL     OW19477   5.809   0.405   0.930
 6193SOL    HW119478   5.767   0.467   0.996
 6193SOL    HW219479   5.903   0.434   0.912
 6194SOL     OW19480   2.247   0.706   0.675
 6194SOL    HW119481   2.177   0.634   0.677
 6194SOL    HW219482   2.255   0.747   0.765
 6195SOL     OW19483   2.946   6.425   6.149
 6195SOL    HW119484   2.889   6.399   6.071
 6195SOL    HW219485   3.035   6.455   6.117
 6196SOL     OW19486   0.490   1.122   6.427
 6196SOL    HW119487   0.499   1.044   6.489
 6196SOL    HW219488   0.553   1.195   6.455
 6197SOL     OW19489   2.296   2.650   0.092
 6197SOL    HW119490   2.314   2.712   0.168
 6197SOL    HW219491   2.329   2.690   0.007
 6198SOL     OW19492   4.309   4.639   2.247
 6198SOL    HW119493   4.340   4.611   2.156
 6198SOL    HW219494   4.301   4.739   2.250
 6199SOL     OW19495   1.360   0.723   6.386
 6199SOL    HW119496   1.402   0.729   6.296
 6199SOL    HW219497   1.309   0.638   6.395
 6200SOL     OW19498   3.501   0.324   6.006
 6200SOL    HW119499   3.455   0.352   6.090
 6200SOL    HW219500   3.486   0.394   5.935
 6201SOL     OW19501   2.343   4.372   4.057
 6201SOL    HW119502   2.405   4.428   4.002
 6201SOL    HW219503   2.262   4.349   4.003
 6202SOL     OW19504   3.309   2.380   1.353
 6202SOL    HW119505   3.275   2.320   1.424
 6202SOL    HW219506   3.258   2.466   1.354
 6203SOL     OW19507   4.992   1.865   5.486
 6203SOL    HW119508   5.081   1.860   5.533
 6203SOL    HW219509   5.004   1.845   5.389
 6204SOL     OW19510   1.407   6.566   5.716
 6204SOL    HW119511   1.351   6.500   5.665
 6204SOL    HW219512   1.353   6.649   5.733
 6205SOL     OW19513   5.588   5.723   0.382
 6205SOL    HW119514   5.678   5.704   0.344
 6205SOL    HW219515   5.534   5.639   0.385
 6206SOL     OW19516   5.131   6.906   2.968
 6206SOL    HW119517   5.227   6.934   2.960
 6206SOL    HW219518   5.100   6.870   2.880
 6207SOL     OW19519   2.099   3.783   4.457
 6207SOL    HW119520   2.067   3.785   4.362
 6207SOL    HW219521   2.070   3.867   4.503
 6208SOL     OW19522   5.393   6.500   6.546
 6208SOL    HW119523   5.375   6.592   6.583
 6208SOL    HW219524   5.306   6.457   6.522
 6209SOL     OW19525   3.115   5.648   0.719
 6209SOL    HW119526   3.197   5.626   0.772
 6209SOL    HW219527   3.047   5.575   0.731
 6210SOL     OW19528   6.119   4.876   3.311
 6210SOL    HW119529   6.157   4.913   3.396
 6210SOL    HW219530   6.163   4.921   3.233
 6211SOL     OW19531   2.514   0.784   4.806
 6211SOL    HW119532   2.512   0.876   4.845
 6211SOL    HW219533   2.464   0.784   4.719
 6212SOL     OW19534   6.715   6.743   3.814
 6212SOL    HW119535   6.742   6.671   3.879
 6212SOL    HW219536   6.746   6.832   3.848
 6213SOL     OW19537   0.091   6.570   6.330
 6213SOL    HW119538   0.047   6.615   6.253
 6213SOL    HW219539   0.129   6.482   6.300
 6214SOL     OW19540   6.395   5.136   2.424
 6214SOL    HW119541   6.479   5.114   2.373
 6214SOL    HW219542   6.354   5.219   2.387
 6215SOL     OW19543   2.967   4.471   1.287
 6215SOL    HW119544   3.025   4.521   1.351
 6215SOL    HW219545   2.966   4.520   1.199
 6216SOL     OW19546   6.451   2.096   2.879
 6216SOL    HW119547   6.532   2.038   2.888
 6216SOL    HW219548   6.377   2.044   2.838
 6217SOL     OW19549   5.482   2.959   2.239
 6217SOL    HW119550   5.417   2.903   2.290
 6217SOL    HW219551   5.445   2.983   2.150
 6218SOL     OW19552   3.591   4.938   4.563
 6218SOL    HW119553   3.647   4.855   4.564
 6218SOL    HW219554   3.650   5.019   4.558
 6219SOL     OW19555   1.007   1.765   4.208
 6219SOL    HW119556   0.969   1.853   4.180
 6219SOL    HW219557   0.979   1.694   4.144
 6220SOL     OW19558   1.395   4.186   5.340
 6220SOL    HW119559   1.339   4.243   5.401
 6220SOL    HW219560   1.385   4.217   5.246
 6221SOL     OW19561   4.577   4.872   4.782
 6221SOL    HW119562   4.628   4.928   4.848
 6221SOL    HW219563   4.642   4.825   4.722
 6222SOL     OW19564   0.329   1.750   1.084
 6222SOL    HW119565   0.327   1.836   1.136
 6222SOL    HW219566   0.315   1.673   1.146
 6223SOL     OW19567   5.238   3.913   4.849
 6223SOL    HW119568   5.317   3.853   4.856
 6223SOL    HW219569   5.155   3.862   4.874
 6224SOL     OW19570   2.774   0.750   4.910
 6224SOL    HW119571   2.786   0.826   4.974
 6224SOL    HW219572   2.677   0.738   4.889
 6225SOL     OW19573   4.546   2.291   6.849
 6225SOL    HW119574   4.644   2.308   6.858
 6225SOL    HW219575   4.497   2.378   6.859
 6226SOL     OW19576   6.554   6.859   4.369
 6226SOL    HW119577   6.531   6.925   4.298
 6226SOL    HW219578   6.606   6.783   4.328
 6227SOL     OW19579   2.977   4.156   6.938
 6227SOL    HW119580   2.929   4.128   7.020
 6227SOL    HW219581   3.058   4.098   6.926
 6228SOL     OW19582   0.026   0.735   2.547
 6228SOL    HW119583   6.998   0.675   2.607
 6228SOL    HW219584   0.113   0.757   2.592
 6229SOL     OW19585   1.598   2.691   1.997
 6229SOL    HW119586   1.574   2.727   1.907
 6229SOL    HW219587   1.696   2.674   2.000
 6230SOL     OW19588   2.019   2.283   3.591
 6230SOL    HW119589   1.948   2.212   3.595
 6230SOL    HW219590   2.030   2.313   3.496
 6231SOL     OW19591   6.926   5.155   1.587
 6231SOL    HW119592   6.949   5.111   1.674
 6231SOL    HW219593   6.966   5.246   1.584
 6232SOL     OW19594   1.098   1.602   6.622
 6232SOL    HW119595   1.190   1.563   6.615
 6232SOL    HW219596   1.058   1.576   6.710
 6233SOL     OW19597   4.709   1.990   0.308
 6233SOL    HW119598   4.674   1.897   0.316
 6233SOL    HW219599   4.656   2.051   0.367
 6234SOL     OW19600   2.204   2.449   3.735
 6234SOL    HW119601   2.144   2.389   3.683
 6234SOL    HW219602   2.163   2.540   3.741
 6235SOL     OW19603   2.339   6.145   3.495
 6235SOL    HW119604   2.352   6.047   3.480
 6235SOL    HW219605   2.379   6.172   3.582
 6236SOL     OW19606   6.890   3.799   0.319
 6236SOL    HW119607   6.800   3.799   0.276
 6236SOL    HW219608   6.960   3.820   0.251
 6237SOL     OW19609   4.282   6.795   0.225
 6237SOL    HW119610   4.363   6.738   0.243
 6237SOL    HW219611   4.307   6.892   0.235
 6238SOL     OW19612   4.685   4.075   1.281
 6238SOL    HW119613   4.744   4.050   1.205
 6238SOL    HW219614   4.593   4.094   1.248
 6239SOL     OW19615   2.402   1.062   3.486
 6239SOL    HW119616   2.373   0.998   3.557
 6239SOL    HW219617   2.497   1.042   3.460
 6240SOL     OW19618   2.522   3.544   0.676
 6240SOL    HW119619   2.616   3.541   0.709
 6240SOL    HW219620   2.498   3.456   0.635
 6241SOL     OW19621   4.551   6.995   2.162
 6241SOL    HW119622   4.531   0.039   2.231
 6241SOL    HW219623   4.630   7.023   2.108
 6242SOL     OW19624   3.641   2.116   3.840
 6242SOL    HW119625   3.557   2.123   3.894
 6242SOL    HW219626   3.719   2.140   3.898
 6243SOL     OW19627   5.516   5.338   3.309
 6243SOL    HW119628   5.483   5.303   3.397
 6243SOL    HW219629   5.548   5.261   3.253
 6244SOL     OW19630   1.696   2.266   2.212
 6244SOL    HW119631   1.747   2.343   2.174
 6244SOL    HW219632   1.636   2.298   2.285
 6245SOL     OW19633   1.815   3.648   0.543
 6245SOL    HW119634   1.827   3.552   0.517
 6245SOL    HW219635   1.754   3.693   0.478
 6246SOL     OW19636   3.649   1.308   6.372
 6246SOL    HW119637   3.574   1.373   6.390
 6246SOL    HW219638   3.685   1.323   6.280
 6247SOL     OW19639   6.469   6.174   3.025
 6247SOL    HW119640   6.536   6.099   3.021
 6247SOL    HW219641   6.446   6.203   2.932
 6248SOL     OW19642   1.057   4.773   0.984
 6248SOL    HW119643   0.982   4.760   0.920
 6248SOL    HW219644   1.062   4.870   1.010
 6249SOL     OW19645   5.216   4.020   6.399
 6249SOL    HW119646   5.160   3.948   6.439
 6249SOL    HW219647   5.160   4.074   6.336
 6250SOL     OW19648   5.458   5.254   6.205
 6250SOL    HW119649   5.412   5.166   6.189
 6250SOL    HW219650   5.539   5.238   6.261
 6251SOL     OW19651   4.836   1.963   1.012
 6251SOL    HW119652   4.861   1.950   1.108
 6251SOL    HW219653   4.864   1.883   0.960
 6252SOL     OW19654   1.945   6.363   5.135
 6252SOL    HW119655   1.962   6.327   5.043
 6252SOL    HW219656   2.016   6.429   5.159
 6253SOL     OW19657   1.664   3.601   1.172
 6253SOL    HW119658   1.741   3.648   1.130
 6253SOL    HW219659   1.607   3.560   1.101
 6254SOL     OW19660   5.229   0.435   0.425
 6254SOL    HW119661   5.199   0.527   0.449
 6254SOL    HW219662   5.319   0.418   0.467
 6255SOL     OW19663   0.079   1.732   2.201
 6255SOL    HW119664   0.165   1.733   2.150
 6255SOL    HW219665   0.099   1.723   2.299
 6256SOL     OW19666   3.061   4.920   3.266
 6256SOL    HW119667   3.125   4.874   3.328
 6256SOL    HW219668   3.109   4.949   3.184
 6257SOL     OW19669   4.379   2.891   6.838
 6257SOL    HW119670   4.339   2.971   6.794
 6257SOL    HW219671   4.469   2.871   6.797
 6258SOL     OW19672   5.004   2.517   3.077
 6258SOL    HW119673   5.069   2.550   3.009
 6258SOL    HW219674   4.936   2.459   3.033
 6259SOL     OW19675   3.173   2.188   1.806
 6259SOL    HW119676   3.126   2.177   1.894
 6259SOL    HW219677   3.115   2.240   1.744
 6260SOL     OW19678   3.418   3.239   0.490
 6260SOL    HW119679   3.489   3.308   0.479
 6260SOL    HW219680   3.334   3.282   0.524
 6261SOL     OW19681   4.622   0.687   6.934
 6261SOL    HW119682   4.631   0.673   6.836
 6261SOL    HW219683   4.587   0.604   6.977
 6262SOL     OW19684   0.164   5.720   5.580
 6262SOL    HW119685   0.185   5.788   5.651
 6262SOL    HW219686   0.211   5.635   5.602
 6263SOL     OW19687   6.162   0.877   0.852
 6263SOL    HW119688   6.230   0.832   0.910
 6263SOL    HW219689   6.206   0.949   0.798
 6264SOL     OW19690   2.152   1.106   6.984
 6264SOL    HW119691   2.085   1.169   7.023
 6264SOL    HW219692   2.159   1.025   0.016
 6265SOL     OW19693   4.475   2.871   1.102
 6265SOL    HW119694   4.558   2.908   1.145
 6265SOL    HW219695   4.446   2.789   1.151
 6266SOL     OW19696   2.424   6.963   2.133
 6266SOL    HW119697   2.518   6.936   2.152
 6266SOL    HW219698   2.419   0.037   2.120
 6267SOL     OW19699   2.343   6.601   0.102
 6267SOL    HW119700   2.269   6.606   0.035
 6267SOL    HW219701   2.369   6.694   0.131
 6268SOL     OW19702   3.074   5.042   2.655
 6268SOL    HW119703   3.016   5.031   2.575
 6268SOL    HW219704   3.170   5.035   2.628
 6269SOL     OW19705   6.246   4.718   0.724
 6269SOL    HW119706   6.243   4.807   0.678
 6269SOL    HW219707   6.155   4.676   0.721
 6270SOL     OW19708   0.565   1.406   4.598
 6270SOL    HW119709   0.644   1.350   4.624
 6270SOL    HW219710   0.576   1.436   4.503
 6271SOL     OW19711   6.335   1.391   0.886
 6271SOL    HW119712   6.290   1.345   0.809
 6271SOL    HW219713   6.299   1.484   0.894
 6272SOL     OW19714   1.305   2.518   3.549
 6272SOL    HW119715   1.279   2.428   3.513
 6272SOL    HW219716   1.339   2.575   3.474
 6273SOL     OW19717   4.228   0.408   1.857
 6273SOL    HW119718   4.259   0.362   1.940
 6273SOL    HW219719   4.199   0.340   1.789
 6274SOL     OW19720   3.508   6.243   6.295
 6274SOL    HW119721   3.412   6.235   6.270
 6274SOL    HW219722   3.562   6.180   6.240
 6275SOL     OW19723   2.391   0.390   4.017
 6275SOL    HW119724   2.491   0.390   4.017
 6275SOL    HW219725   2.359   0.297   4.033
 6276SOL     OW19726   1.441   5.057   4.004
 6276SOL    HW119727   1.404   5.031   4.092
 6276SOL    HW219728   1.433   5.156   3.992
 6277SOL     OW19729   5.325   3.190   3.478
 6277SOL    HW119730   5.336   3.245   3.561
 6277SOL    HW219731   5.323   3.093   3.502
 6278SOL     OW19732   5.455   0.921   4.120
 6278SOL    HW119733   5.412   0.893   4.206
 6278SOL    HW219734   5.394   0.899   4.044
 6279SOL     OW19735   4.814   1.804   6.921
 6279SOL    HW119736   4.720   1.797   6.955
 6279SOL    HW219737   4.814   1.794   6.821
 6280SOL     OW19738   0.662   5.138   5.869
 6280SOL    HW119739   0.573   5.151   5.913
 6280SOL    HW219740   0.728   5.200   5.912
 6281SOL     OW19741   2.844   6.695   4.949
 6281SOL    HW119742   2.857   6.621   5.014
 6281SOL    HW219743   2.885   6.671   4.861
 6282SOL     OW19744   1.715   6.846   3.400
 6282SOL    HW119745   1.770   6.923   3.367
 6282SOL    HW219746   1.618   6.868   3.391
 6283SOL     OW19747   0.133   2.810   5.280
 6283SOL    HW119748   0.092   2.754   5.352
 6283SOL    HW219749   0.140   2.756   5.196
 6284SOL     OW19750   2.389   4.446   6.526
 6284SOL    HW119751   2.358   4.364   6.575
 6284SOL    HW219752   2.405   4.520   6.591
 6285SOL     OW19753   1.770   4.543   2.847
 6285SOL    HW119754   1.702   4.607   2.812
 6285SOL    HW219755   1.726   4.457   2.873
 6286SOL     OW19756   5.786   6.943   4.644
 6286SOL    HW119757   5.849   6.897   4.707
 6286SOL    HW219758   5.787   6.896   4.556
 6287SOL     OW19759   4.447   4.534   2.042
 6287SOL    HW119760   4.538   4.513   2.080
 6287SOL    HW219761   4.426   4.467   1.971
 6288SOL     OW19762   5.168   3.595   1.197
 6288SOL    HW119763   5.088   3.618   1.253
 6288SOL    HW219764   5.242   3.659   1.217
 6289SOL     OW19765   1.100   0.778   2.571
 6289SOL    HW119766   1.042   0.714   2.521
 6289SOL    HW219767   1.162   0.824   2.508
 6290SOL     OW19768   6.033   3.321   3.409
 6290SOL    HW119769   6.094   3.372   3.469
 6290SOL    HW219770   6.082   3.243   3.369
 6291SOL     OW19771   3.998   3.595   3.284
 6291SOL    HW119772   4.035   3.640   3.365
 6291SOL    HW219773   4.055   3.516   3.261
 6292SOL     OW19774   0.322   1.669   2.054
 6292SOL    HW119775   0.370   1.590   2.093
 6292SOL    HW219776   0.258   1.637   1.984
 6293SOL     OW19777   4.973   5.661   0.928
 6293SOL    HW119778   4.978   5.618   0.837
 6293SOL    HW219779   5.056   5.714   0.944
 6294SOL     OW19780   4.007   5.475   2.302
 6294SOL    HW119781   4.032   5.466   2.206
 6294SOL    HW219782   3.916   5.435   2.316
 6295SOL     OW19783   6.293   6.059   6.001
 6295SOL    HW119784   6.229   6.129   6.031
 6295SOL    HW219785   6.257   6.014   5.919
 6296SOL     OW19786   6.560   1.046   2.534
 6296SOL    HW119787   6.567   0.949   2.556
 6296SOL    HW219788   6.465   1.076   2.545
 6297SOL     OW19789   5.560   0.565   5.686
 6297SOL    HW119790   5.571   0.602   5.594
 6297SOL    HW219791   5.483   0.502   5.688
 6298SOL     OW19792   0.475   2.066   4.391
 6298SOL    HW119793   0.517   2.102   4.308
 6298SOL    HW219794   0.454   1.969   4.378
 6299SOL     OW19795   6.423   3.377   0.603
 6299SOL    HW119796   6.492   3.434   0.559
 6299SOL    HW219797   6.351   3.356   0.537
 6300SOL     OW19798   5.340   1.283   3.984
 6300SOL    HW119799   5.265   1.221   4.006
 6300SOL    HW219800   5.320   1.330   3.898
 6301SOL     OW19801   3.234   0.221   0.695
 6301SOL    HW119802   3.295   0.298   0.715
 6301SOL    HW219803   3.262   0.177   0.610
 6302SOL     OW19804   0.199   1.235   3.125
 6302SOL    HW119805   0.155   1.199   3.207
 6302SOL    HW219806   0.246   1.321   3.147
 6303SOL     OW19807   2.363   6.266   5.345
 6303SOL    HW119808   2.447   6.295   5.300
 6303SOL    HW219809   2.295   6.339   5.339
 6304SOL     OW19810   3.414   0.981   5.750
 6304SOL    HW119811   3.413   0.942   5.841
 6304SOL    HW219812   3.487   1.049   5.743
 6305SOL     OW19813   5.597   1.284   2.134
 6305SOL    HW119814   5.670   1.220   2.109
 6305SOL    HW219815   5.523   1.234   2.178
 6306SOL     OW19816   5.856   2.750   4.696
 6306SOL    HW119817   5.842   2.671   4.756
 6306SOL    HW219818   5.903   2.721   4.613
 6307SOL     OW19819   2.366   4.331   0.812
 6307SOL    HW119820   2.316   4.305   0.730
 6307SOL    HW219821   2.446   4.272   0.824
 6308SOL     OW19822   3.431   2.086   5.604
 6308SOL    HW119823   3.490   2.143   5.548
 6308SOL    HW219824   3.384   2.019   5.546
 6309SOL     OW19825   5.677   2.273   4.903
 6309SOL    HW119826   5.634   2.305   4.988
 6309SOL    HW219827   5.656   2.176   4.890
 6310SOL     OW19828   1.289   4.799   4.939
 6310SOL    HW119829   1.301   4.786   5.037
 6310SOL    HW219830   1.220   4.734   4.905
 6311SOL     OW19831   6.192   6.341   4.349
 6311SOL    HW119832   6.135   6.314   4.271
 6311SOL    HW219833   6.184   6.272   4.421
 6312SOL     OW19834   5.001   4.518   6.133
 6312SOL    HW119835   5.051   4.544   6.050
 6312SOL    HW219836   4.933   4.589   6.154
 6313SOL     OW19837   2.443   5.239   3.469
 6313SOL    HW119838   2.385   5.224   3.389
 6313SOL    HW219839   2.440   5.159   3.528
 6314SOL     OW19840   2.758   6.922   3.902
 6314SOL    HW119841   2.736   6.857   3.829
 6314SOL    HW219842   2.812   6.876   3.972
 6315SOL     OW19843   2.267   3.323   0.323
 6315SOL    HW119844   2.300   3.414   0.347
 6315SOL    HW219845   2.268   3.312   0.223
 6316SOL     OW19846   4.766   1.625   6.073
 6316SOL    HW119847   4.764   1.638   5.974
 6316SOL    HW219848   4.786   1.713   6.118
 6317SOL     OW19849   6.160   5.677   3.922
 6317SOL    HW119850   6.114   5.765   3.917
 6317SOL    HW219851   6.234   5.682   3.989
 6318SOL     OW19852   2.125   1.793   4.634
 6318SOL    HW119853   2.109   1.868   4.699
 6318SOL    HW219854   2.176   1.720   4.679
 6319SOL     OW19855   0.445   1.526   2.880
 6319SOL    HW119856   0.436   1.592   2.954
 6319SOL    HW219857   0.360   1.475   2.870
 6320SOL     OW19858   7.003   2.143   3.256
 6320SOL    HW119859   6.951   2.119   3.174
 6320SOL    HW219860   0.052   2.078   3.269
 6321SOL     OW19861   2.540   3.605   6.415
 6321SOL    HW119862   2.474   3.667   6.374
 6321SOL    HW219863   2.633   3.639   6.399
 6322SOL     OW19864   1.132   1.055   0.189
 6322SOL    HW119865   1.099   1.121   0.121
 6322SOL    HW219866   1.125   0.963   0.152
 6323SOL     OW19867   3.934   1.444   1.145
 6323SOL    HW119868   3.868   1.369   1.144
 6323SOL    HW219869   3.897   1.522   1.095
 6324SOL     OW19870   4.396   1.975   0.122
 6324SOL    HW119871   4.356   1.989   0.032
 6324SOL    HW219872   4.464   2.046   0.141
 6325SOL     OW19873   1.307   2.503   2.402
 6325SOL    HW119874   1.284   2.594   2.435
 6325SOL    HW219875   1.359   2.510   2.317
 6326SOL     OW19876   4.956   6.296   1.146
 6326SOL    HW119877   4.924   6.220   1.202
 6326SOL    HW219878   5.046   6.326   1.178
 6327SOL     OW19879   3.671   5.499   5.780
 6327SOL    HW119880   3.756   5.526   5.734
 6327SOL    HW219881   3.630   5.580   5.823
 6328SOL     OW19882   3.305   4.075   6.792
 6328SOL    HW119883   3.295   4.163   6.745
 6328SOL    HW219884   3.335   4.091   6.886
 6329SOL     OW19885   1.545   1.628   2.664
 6329SOL    HW119886   1.478   1.658   2.596
 6329SOL    HW219887   1.627   1.593   2.617
 6330SOL     OW19888   3.421   0.827   0.137
 6330SOL    HW119889   3.405   0.730   0.119
 6330SOL    HW219890   3.518   0.844   0.152
 6331SOL     OW19891   5.716   2.643   2.705
 6331SOL    HW119892   5.698   2.571   2.772
 6331SOL    HW219893   5.798   2.620   2.653
 6332SOL     OW19894   5.062   6.028   2.372
 6332SOL    HW119895   5.072   6.122   2.403
 6332SOL    HW219896   5.094   6.020   2.277
 6333SOL     OW19897   2.104   5.423   2.740
 6333SOL    HW119898   2.007   5.400   2.729
 6333SOL    HW219899   2.126   5.433   2.837
 6334SOL     OW19900   2.856   1.627   2.583
 6334SOL    HW119901   2.778   1.594   2.529
 6334SOL    HW219902   2.856   1.727   2.582
 6335SOL     OW19903   0.166   1.567   6.849
 6335SOL    HW119904   0.104   1.587   6.925
 6335SOL    HW219905   0.194   1.653   6.806
 6336SOL     OW19906   0.350   2.956   5.384
 6336SOL    HW119907   0.272   2.914   5.336
 6336SOL    HW219908   0.316   3.019   5.453
 6337SOL     OW19909   6.957   4.452   5.234
 6337SOL    HW119910   6.871   4.402   5.219
 6337SOL    HW219911   0.006   4.403   5.187
 6338SOL     OW19912   3.632   1.104   3.980
 6338SOL    HW119913   3.585   1.022   4.014
 6338SOL    HW219914   3.694   1.078   3.906
 6339SOL     OW19915   6.955   2.983   5.218
 6339SOL    HW119916   7.023   2.920   5.256
 6339SOL    HW219917   6.920   2.947   5.132
 6340SOL     OW19918   2.579   5.326   4.262
 6340SOL    HW119919   2.510   5.254   4.253
 6340SOL    HW219920   2.546   5.397   4.325
 6341SOL     OW19921   6.387   5.027   2.696
 6341SOL    HW119922   6.304   4.972   2.697
 6341SOL    HW219923   6.397   5.071   2.606
 6342SOL     OW19924   1.465   3.177   1.190
 6342SOL    HW119925   1.545   3.126   1.161
 6342SOL    HW219926   1.452   3.166   1.288
 6343SOL     OW19927   4.079   0.720   0.302
 6343SOL    HW119928   4.142   0.792   0.332
 6343SOL    HW219929   4.012   0.759   0.240
 6344SOL     OW19930   0.082   4.846   4.426
 6344SOL    HW119931   0.109   4.832   4.521
 6344SOL    HW219932   0.066   4.758   4.382
 6345SOL     OW19933   2.764   2.291   2.263
 6345SOL    HW119934   2.680   2.286   2.210
 6345SOL    HW219935   2.843   2.287   2.201
 6346SOL     OW19936   0.578   5.539   3.972
 6346SOL    HW119937   0.558   5.516   3.877
 6346SOL    HW219938   0.555   5.635   3.988
 6347SOL     OW19939   3.195   7.007   1.209
 6347SOL    HW119940   3.238   6.933   1.156
 6347SOL    HW219941   3.166   6.972   1.298
 6348SOL     OW19942   1.043   2.133   5.133
 6348SOL    HW119943   1.107   2.070   5.175
 6348SOL    HW219944   1.033   2.214   5.190
 6349SOL     OW19945   2.483   0.847   0.092
 6349SOL    HW119946   2.511   0.773   0.031
 6349SOL    HW219947   2.384   0.858   0.089
 6350SOL     OW19948   1.214   5.980   2.809
 6350SOL    HW119949   1.197   6.032   2.725
 6350SOL    HW219950   1.140   5.914   2.823
 6351SOL     OW19951   7.011   1.471   3.206
 6351SOL    HW119952   6.988   1.436   3.116
 6351SOL    HW219953   6.955   1.552   3.225
 6352SOL     OW19954   6.950   6.353   2.419
 6352SOL    HW119955   6.938   6.308   2.507
 6352SOL    HW219956   6.989   6.289   2.353
 6353SOL     OW19957   0.150   6.551   2.197
 6353SOL    HW119958   0.235   6.603   2.203
 6353SOL    HW219959   0.168   6.456   2.225
 6354SOL     OW19960   0.370   6.866   4.157
 6354SOL    HW119961   0.316   6.809   4.094
 6354SOL    HW219962   0.377   6.820   4.245
 6355SOL     OW19963   1.092   2.411   2.080
 6355SOL    HW119964   1.019   2.342   2.071
 6355SOL    HW219965   1.180   2.365   2.084
 6356SOL     OW19966   2.963   2.588   1.123
 6356SOL    HW119967   2.882   2.564   1.176
 6356SOL    HW219968   3.020   2.651   1.176
 6357SOL     OW19969   4.546   2.083   0.960
 6357SOL    HW119970   4.618   2.015   0.971
 6357SOL    HW219971   4.461   2.038   0.933
 6358SOL     OW19972   0.610   3.018   3.969
 6358SOL    HW119973   0.530   3.078   3.975
 6358SOL    HW219974   0.596   2.952   3.895
 6359SOL     OW19975   0.003   0.789   6.812
 6359SOL    HW119976   0.052   0.813   6.728
 6359SOL    HW219977   7.010   0.871   6.865
 6360SOL     OW19978   3.116   5.808   3.843
 6360SOL    HW119979   3.034   5.865   3.844
 6360SOL    HW219980   3.197   5.867   3.846
 6361SOL     OW19981   3.630   6.154   5.960
 6361SOL    HW119982   3.689   6.133   6.038
 6361SOL    HW219983   3.653   6.244   5.923
 6362SOL     OW19984   6.402   5.559   6.229
 6362SOL    HW119985   6.437   5.466   6.243
 6362SOL    HW219986   6.456   5.604   6.158
 6363SOL     OW19987   0.833   5.711   4.071
 6363SOL    HW119988   0.860   5.637   4.132
 6363SOL    HW219989   0.867   5.798   4.107
 6364SOL     OW19990   1.963   2.762   6.096
 6364SOL    HW119991   2.050   2.751   6.143
 6364SOL    HW219992   1.932   2.674   6.060
 6365SOL     OW19993   4.932   5.308   2.775
 6365SOL    HW119994   4.908   5.400   2.743
 6365SOL    HW219995   4.858   5.273   2.834
 6366SOL     OW19996   6.794   4.118   5.472
 6366SOL    HW119997   6.780   4.070   5.559
 6366SOL    HW219998   6.853   4.062   5.413
 6367SOL     OW19999   6.048   5.644   2.299
 6367SOL    HW120000   6.045   5.557   2.348
 6367SOL    HW220001   5.967   5.652   2.241
 6368SOL     OW20002   3.519   0.508   3.292
 6368SOL    HW120003   3.501   0.573   3.219
 6368SOL    HW220004   3.447   0.439   3.295
 6369SOL     OW20005   2.187   4.958   5.496
 6369SOL    HW120006   2.279   4.945   5.459
 6369SOL    HW220007   2.188   5.030   5.564
 6370SOL     OW20008   5.744   2.664   2.313
 6370SOL    HW120009   5.650   2.647   2.282
 6370SOL    HW220010   5.765   2.761   2.304
 6371SOL     OW20011   4.778   2.094   3.491
 6371SOL    HW120012   4.871   2.084   3.527
 6371SOL    HW220013   4.729   2.162   3.544
 6372SOL     OW20014   3.061   6.128   2.154
 6372SOL    HW120015   3.037   6.032   2.137
 6372SOL    HW220016   3.061   6.145   2.252
 6373SOL     OW20017   3.633   4.620   6.964
 6373SOL    HW120018   3.583   4.538   6.994
 6373SOL    HW220019   3.656   4.676   0.019
 6374SOL     OW20020   2.866   3.569   2.582
 6374SOL    HW120021   2.792   3.635   2.567
 6374SOL    HW220022   2.872   3.508   2.503
 6375SOL     OW20023   1.622   6.171   2.686
 6375SOL    HW120024   1.531   6.175   2.727
 6375SOL    HW220025   1.634   6.248   2.622
 6376SOL     OW20026   0.461   2.539   5.460
 6376SOL    HW120027   0.398   2.548   5.383
 6376SOL    HW220028   0.544   2.493   5.430
 6377SOL     OW20029   0.716   1.642   4.395
 6377SOL    HW120030   0.804   1.614   4.434
 6377SOL    HW220031   0.731   1.711   4.325
 6378SOL     OW20032   4.652   4.720   3.644
 6378SOL    HW120033   4.688   4.812   3.657
 6378SOL    HW220034   4.569   4.708   3.698
 6379SOL     OW20035   2.357   5.045   2.458
 6379SOL    HW120036   2.367   4.958   2.410
 6379SOL    HW220037   2.396   5.119   2.402
 6380SOL     OW20038   0.683   0.920   5.866
 6380SOL    HW120039   0.591   0.881   5.866
 6380SOL    HW220040   0.718   0.924   5.773
 6381SOL     OW20041   2.912   3.151   1.909
 6381SOL    HW120042   2.964   3.145   1.994
 6381SOL    HW220043   2.969   3.124   1.832
 6382SOL     OW20044   1.568   4.571   4.829
 6382SOL    HW120045   1.576   4.480   4.870
 6382SOL    HW220046   1.609   4.639   4.890
 6383SOL     OW20047   4.228   1.483   3.842
 6383SOL    HW120048   4.300   1.543   3.880
 6383SOL    HW220049   4.268   1.424   3.772
 6384SOL     OW20050   6.397   4.467   2.461
 6384SOL    HW120051   6.381   4.565   2.469
 6384SOL    HW220052   6.371   4.421   2.546
 6385SOL     OW20053   0.287   6.339   4.554
 6385SOL    HW120054   0.358   6.307   4.616
 6385SOL    HW220055   0.255   6.430   4.583
 6386SOL     OW20056   2.930   5.565   1.789
 6386SOL    HW120057   2.975   5.641   1.743
 6386SOL    HW220058   2.835   5.590   1.810
 6387SOL     OW20059   6.814   1.894   5.396
 6387SOL    HW120060   6.831   1.796   5.383
 6387SOL    HW220061   6.831   1.942   5.310
 6388SOL     OW20062   2.103   4.858   3.081
 6388SOL    HW120063   2.203   4.856   3.078
 6388SOL    HW220064   2.067   4.827   2.993
 6389SOL     OW20065   0.831   4.595   1.760
 6389SOL    HW120066   0.754   4.658   1.752
 6389SOL    HW220067   0.852   4.556   1.670
 6390SOL     OW20068   0.023   3.642   4.097
 6390SOL    HW120069   0.069   3.563   4.136
 6390SOL    HW220070   0.020   3.633   3.997
 6391SOL     OW20071   3.536   0.831   6.787
 6391SOL    HW120072   3.529   0.740   6.747
 6391SOL    HW220073   3.444   0.869   6.801
 6392SOL     OW20074   1.437   6.410   4.186
 6392SOL    HW120075   1.418   6.381   4.280
 6392SOL    HW220076   1.366   6.474   4.157
 6393SOL     OW20077   5.210   1.190   0.744
 6393SOL    HW120078   5.263   1.111   0.711
 6393SOL    HW220079   5.211   1.191   0.844
 6394SOL     OW20080   3.284   4.916   1.836
 6394SOL    HW120081   3.235   4.848   1.781
 6394SOL    HW220082   3.255   4.908   1.931
 6395SOL     OW20083   6.142   1.603   0.917
 6395SOL    HW120084   6.126   1.636   1.010
 6395SOL    HW220085   6.067   1.543   0.889
 6396SOL     OW20086   5.723   3.830   5.717
 6396SOL    HW120087   5.815   3.799   5.740
 6396SOL    HW220088   5.656   3.768   5.758
 6397SOL     OW20089   6.872   0.567   6.820
 6397SOL    HW120090   6.931   0.645   6.799
 6397SOL    HW220091   6.880   0.499   6.746
 6398SOL     OW20092   4.229   0.713   1.241
 6398SOL    HW120093   4.144   0.695   1.291
 6398SOL    HW220094   4.214   0.786   1.175
 6399SOL     OW20095   2.657   5.829   6.714
 6399SOL    HW120096   2.700   5.888   6.645
 6399SOL    HW220097   2.669   5.733   6.688
 6400SOL     OW20098   2.926   5.167   4.077
 6400SOL    HW120099   2.903   5.255   4.118
 6400SOL    HW220100   2.862   5.098   4.109
 6401SOL     OW20101   1.527   4.435   4.561
 6401SOL    HW120102   1.592   4.488   4.614
 6401SOL    HW220103   1.438   4.435   4.606
 6402SOL     OW20104   1.876   2.306   3.055
 6402SOL    HW120105   1.943   2.344   2.992
 6402SOL    HW220106   1.885   2.352   3.144
 6403SOL     OW20107   0.662   6.017   1.511
 6403SOL    HW120108   0.614   6.094   1.468
 6403SOL    HW220109   0.713   6.050   1.591
 6404SOL     OW20110   5.029   1.003   3.232
 6404SOL    HW120111   5.069   1.022   3.321
 6404SOL    HW220112   4.986   1.086   3.196
 6405SOL     OW20113   2.696   1.082   1.702
 6405SOL    HW120114   2.761   1.157   1.717
 6405SOL    HW220115   2.731   0.999   1.745
 6406SOL     OW20116   2.875   2.282   3.293
 6406SOL    HW120117   2.848   2.370   3.331
 6406SOL    HW220118   2.803   2.249   3.231
 6407SOL     OW20119   4.384   5.283   6.112
 6407SOL    HW120120   4.471   5.297   6.064
 6407SOL    HW220121   4.347   5.371   6.141
 6408SOL     OW20122   6.222   1.918   0.517
 6408SOL    HW120123   6.274   1.853   0.461
 6408SOL    HW220124   6.270   2.005   0.520
 6409SOL     OW20125   1.422   4.349   2.008
 6409SOL    HW120126   1.476   4.342   1.924
 6409SOL    HW220127   1.464   4.292   2.078
 6410SOL     OW20128   1.458   1.325   1.957
 6410SOL    HW120129   1.486   1.279   1.873
 6410SOL    HW220130   1.499   1.279   2.036
 6411SOL     OW20131   2.010   0.838   3.422
 6411SOL    HW120132   1.980   0.912   3.482
 6411SOL    HW220133   2.070   0.777   3.473
 6412SOL     OW20134   6.795   2.032   4.771
 6412SOL    HW120135   6.845   2.035   4.684
 6412SOL    HW220136   6.802   1.940   4.810
 6413SOL     OW20137   0.494   4.464   0.408
 6413SOL    HW120138   0.559   4.538   0.426
 6413SOL    HW220139   0.532   4.403   0.338
 6414SOL     OW20140   6.407   6.659   2.522
 6414SOL    HW120141   6.431   6.652   2.425
 6414SOL    HW220142   6.477   6.614   2.577
 6415SOL     OW20143   1.643   1.763   2.313
 6415SOL    HW120144   1.561   1.720   2.352
 6415SOL    HW220145   1.629   1.862   2.308
 6416SOL     OW20146   2.098   6.432   6.237
 6416SOL    HW120147   2.198   6.437   6.241
 6416SOL    HW220148   2.071   6.401   6.146
 6417SOL     OW20149   0.049   6.575   2.973
 6417SOL    HW120150   0.137   6.529   2.981
 6417SOL    HW220151   0.022   6.580   2.877
 6418SOL     OW20152   6.644   5.867   2.425
 6418SOL    HW120153   6.560   5.875   2.370
 6418SOL    HW220154   6.621   5.873   2.522
 6419SOL     OW20155   2.414   3.598   1.300
 6419SOL    HW120156   2.379   3.640   1.216
 6419SOL    HW220157   2.422   3.667   1.371
 6420SOL     OW20158   0.595   3.375   7.011
 6420SOL    HW120159   0.518   3.350   6.952
 6420SOL    HW220160   0.679   3.336   6.975
 6421SOL     OW20161   5.915   2.415   1.324
 6421SOL    HW120162   5.969   2.493   1.291
 6421SOL    HW220163   5.919   2.412   1.424
 6422SOL     OW20164   6.359   2.161   3.590
 6422SOL    HW120165   6.384   2.071   3.553
 6422SOL    HW220166   6.286   2.149   3.657
 6423SOL     OW20167   4.887   3.979   1.072
 6423SOL    HW120168   4.965   3.929   1.035
 6423SOL    HW220169   4.910   4.076   1.080
 6424SOL     OW20170   6.375   4.507   4.987
 6424SOL    HW120171   6.372   4.456   5.073
 6424SOL    HW220172   6.460   4.559   4.982
 6425SOL     OW20173   0.795   4.953   1.090
 6425SOL    HW120174   0.837   4.967   1.179
 6425SOL    HW220175   0.865   4.959   1.019
 6426SOL     OW20176   6.856   2.614   3.673
 6426SOL    HW120177   6.836   2.542   3.740
 6426SOL    HW220178   6.908   2.576   3.598
 6427SOL     OW20179   1.177   3.112   5.883
 6427SOL    HW120180   1.161   3.043   5.813
 6427SOL    HW220181   1.150   3.202   5.849
 6428SOL     OW20182   6.999   3.266   3.680
 6428SOL    HW120183   6.904   3.271   3.648
 6428SOL    HW220184   7.004   3.210   3.762
 6429SOL     OW20185   0.730   1.110   4.562
 6429SOL    HW120186   0.751   1.146   4.654
 6429SOL    HW220187   0.786   1.158   4.494
 6430SOL     OW20188   6.243   3.560   0.077
 6430SOL    HW120189   6.191   3.633   0.122
 6430SOL    HW220190   6.332   3.550   0.123
 6431SOL     OW20191   5.542   0.940   3.407
 6431SOL    HW120192   5.466   0.997   3.378
 6431SOL    HW220193   5.628   0.978   3.371
 6432SOL     OW20194   5.944   3.418   0.292
 6432SOL    HW120195   5.875   3.346   0.288
 6432SOL    HW220196   5.974   3.440   0.199
 6433SOL     OW20197   2.547   3.545   1.634
 6433SOL    HW120198   2.553   3.634   1.590
 6433SOL    HW220199   2.604   3.545   1.716
 6434SOL     OW20200   2.041   5.621   0.233
 6434SOL    HW120201   2.131   5.577   0.238
 6434SOL    HW220202   2.049   5.715   0.266
 6435SOL     OW20203   4.502   4.002   0.223
 6435SOL    HW120204   4.512   3.969   0.317
 6435SOL    HW220205   4.583   4.055   0.198
 6436SOL     OW20206   1.541   2.612   2.630
 6436SOL    HW120207   1.584   2.634   2.542
 6436SOL    HW220208   1.599   2.547   2.679
 6437SOL     OW20209   0.605   0.595   6.876
 6437SOL    HW120210   0.539   0.670   6.873
 6437SOL    HW220211   0.612   0.553   6.785
 6438SOL     OW20212   1.081   3.862   4.006
 6438SOL    HW120213   1.177   3.835   3.995
 6438SOL    HW220214   1.022   3.791   3.969
 6439SOL     OW20215   0.159   6.218   1.709
 6439SOL    HW120216   0.129   6.237   1.616
 6439SOL    HW220217   0.176   6.304   1.757
 6440SOL     OW20218   0.584   1.055   2.026
 6440SOL    HW120219   0.492   1.072   2.061
 6440SOL    HW220220   0.588   1.080   1.929
 6441SOL     OW20221   3.964   1.561   3.230
 6441SOL    HW120222   3.943   1.517   3.317
 6441SOL    HW220223   4.044   1.621   3.241
 6442SOL     OW20224   3.848   0.288   3.198
 6442SOL    HW120225   3.799   0.282   3.285
 6442SOL    HW220226   3.933   0.235   3.204
 6443SOL     OW20227   2.558   0.603   6.975
 6443SOL    HW120228   2.477   0.545   6.985
 6443SOL    HW220229   2.546   0.664   6.897
 6444SOL     OW20230   0.648   0.746   3.578
 6444SOL    HW120231   0.714   0.805   3.625
 6444SOL    HW220232   0.691   0.704   3.499
 6445SOL     OW20233   3.535   3.779   5.514
 6445SOL    HW120234   3.583   3.707   5.463
 6445SOL    HW220235   3.462   3.738   5.569
 6446SOL     OW20236   6.825   1.948   0.932
 6446SOL    HW120237   6.801   1.862   0.888
 6446SOL    HW220238   6.804   2.024   0.870
 6447SOL     OW20239   1.760   6.940   2.886
 6447SOL    HW120240   1.663   6.939   2.864
 6447SOL    HW220241   1.796   0.007   2.875
 6448SOL     OW20242   6.759   2.091   2.073
 6448SOL    HW120243   6.711   2.135   1.997
 6448SOL    HW220244   6.699   2.087   2.153
 6449SOL     OW20245   3.527   2.563   1.328
 6449SOL    HW120246   3.472   2.485   1.300
 6449SOL    HW220247   3.539   2.561   1.428
 6450SOL     OW20248   6.636   3.256   6.688
 6450SOL    HW120249   6.581   3.334   6.717
 6450SOL    HW220250   6.580   3.173   6.692
 6451SOL     OW20251   2.198   6.760   4.049
 6451SOL    HW120252   2.255   6.840   4.067
 6451SOL    HW220253   2.108   6.774   4.091
 6452SOL     OW20254   3.980   6.249   3.466
 6452SOL    HW120255   3.970   6.246   3.366
 6452SOL    HW220256   3.922   6.322   3.502
 6453SOL     OW20257   2.261   4.258   6.659
 6453SOL    HW120258   2.187   4.324   6.648
 6453SOL    HW220259   2.232   4.169   6.623
 6454SOL     OW20260   3.269   1.231   4.694
 6454SOL    HW120261   3.214   1.313   4.703
 6454SOL    HW220262   3.357   1.245   4.741
 6455SOL     OW20263   6.120   2.729   5.870
 6455SOL    HW120264   6.182   2.799   5.905
 6455SOL    HW220265   6.137   2.715   5.773
 6456SOL     OW20266   6.843   0.555   4.662
 6456SOL    HW120267   6.820   0.619   4.735
 6456SOL    HW220268   6.817   0.462   4.690
 6457SOL     OW20269   6.546   2.903   2.858
 6457SOL    HW120270   6.548   2.847   2.775
 6457SOL    HW220271   6.577   2.996   2.835
 6458SOL     OW20272   1.407   6.319   3.161
 6458SOL    HW120273   1.476   6.272   3.217
 6458SOL    HW220274   1.451   6.362   3.083
 6459SOL     OW20275   5.549   4.838   0.581
 6459SOL    HW120276   5.534   4.777   0.503
 6459SOL    HW220277   5.468   4.838   0.639
 6460SOL     OW20278   2.830   4.522   0.681
 6460SOL    HW120279   2.840   4.444   0.743
 6460SOL    HW220280   2.764   4.586   0.719
 6461SOL     OW20281   3.690   5.611   5.156
 6461SOL    HW120282   3.779   5.655   5.168
 6461SOL    HW220283   3.623   5.680   5.126
 6462SOL     OW20284   2.196   2.989   3.513
 6462SOL    HW120285   2.217   3.046   3.434
 6462SOL    HW220286   2.104   2.951   3.505
 6463SOL     OW20287   1.022   4.655   5.646
 6463SOL    HW120288   1.051   4.614   5.560
 6463SOL    HW220289   0.943   4.605   5.682
 6464SOL     OW20290   1.066   5.308   2.449
 6464SOL    HW120291   1.082   5.212   2.472
 6464SOL    HW220292   1.144   5.363   2.479
 6465SOL     OW20293   6.408   1.188   2.926
 6465SOL    HW120294   6.398   1.226   3.018
 6465SOL    HW220295   6.496   1.141   2.919
 6466SOL     OW20296   0.543   3.168   5.591
 6466SOL    HW120297   0.445   3.152   5.605
 6466SOL    HW220298   0.572   3.122   5.507
 6467SOL     OW20299   2.662   1.108   5.956
 6467SOL    HW120300   2.600   1.068   5.889
 6467SOL    HW220301   2.647   1.065   6.045
 6468SOL     OW20302   4.812   4.244   1.040
 6468SOL    HW120303   4.864   4.249   0.954
 6468SOL    HW220304   4.716   4.226   1.019
 6469SOL     OW20305   6.277   1.051   6.217
 6469SOL    HW120306   6.321   1.140   6.223
 6469SOL    HW220307   6.254   1.019   6.309
 6470SOL     OW20308   6.551   5.933   5.151
 6470SOL    HW120309   6.599   5.978   5.226
 6470SOL    HW220310   6.545   5.835   5.170
 6471SOL     OW20311   5.317   5.666   5.538
 6471SOL    HW120312   5.305   5.599   5.611
 6471SOL    HW220313   5.295   5.757   5.573
 6472SOL     OW20314   1.383   5.711   1.294
 6472SOL    HW120315   1.410   5.807   1.304
 6472SOL    HW220316   1.454   5.661   1.246
 6473SOL     OW20317   2.575   1.049   5.203
 6473SOL    HW120318   2.501   1.080   5.143
 6473SOL    HW220319   2.607   1.126   5.258
 6474SOL     OW20320   2.522   3.571   5.560
 6474SOL    HW120321   2.490   3.551   5.468
 6474SOL    HW220322   2.595   3.639   5.556
 6475SOL     OW20323   4.504   5.799   4.097
 6475SOL    HW120324   4.557   5.883   4.111
 6475SOL    HW220325   4.422   5.820   4.043
 6476SOL     OW20326   5.041   4.955   2.558
 6476SOL    HW120327   5.070   4.861   2.540
 6476SOL    HW220328   5.005   4.962   2.651
 6477SOL     OW20329   6.803   6.723   6.971
 6477SOL    HW120330   6.878   6.778   6.936
 6477SOL    HW220331   6.824   6.626   6.960
 6478SOL     OW20332   5.208   6.431   1.172
 6478SOL    HW120333   5.173   6.446   1.079
 6478SOL    HW220334   5.188   6.511   1.228
 6479SOL     OW20335   4.294   6.130   2.564
 6479SOL    HW120336   4.196   6.146   2.567
 6479SOL    HW220337   4.329   6.115   2.656
 6480SOL     OW20338   2.632   1.239   0.854
 6480SOL    HW120339   2.623   1.156   0.908
 6480SOL    HW220340   2.548   1.253   0.800
 6481SOL     OW20341   4.619   0.552   1.441
 6481SOL    HW120342   4.702   0.586   1.396
 6481SOL    HW220343   4.544   0.617   1.425
 6482SOL     OW20344   0.330   0.503   6.741
 6482SOL    HW120345   0.304   0.470   6.832
 6482SOL    HW220346   0.416   0.461   6.714
 6483SOL     OW20347   2.117   5.540   2.001
 6483SOL    HW120348   2.139   5.554   2.098
 6483SOL    HW220349   2.026   5.575   1.983
 6484SOL     OW20350   5.546   6.173   3.148
 6484SOL    HW120351   5.447   6.186   3.143
 6484SOL    HW220352   5.573   6.099   3.087
 6485SOL     OW20353   0.808   3.116   3.272
 6485SOL    HW120354   0.717   3.135   3.235
 6485SOL    HW220355   0.810   3.141   3.369
 6486SOL     OW20356   1.784   3.359   3.153
 6486SOL    HW120357   1.738   3.350   3.065
 6486SOL    HW220358   1.795   3.268   3.195
 6487SOL     OW20359   5.784   5.496   2.977
 6487SOL    HW120360   5.695   5.536   2.998
 6487SOL    HW220361   5.841   5.496   3.059
 6488SOL     OW20362   3.424   5.062   5.687
 6488SOL    HW120363   3.360   5.096   5.756
 6488SOL    HW220364   3.409   5.112   5.601
 6489SOL     OW20365   2.544   1.903   5.341
 6489SOL    HW120366   2.615   1.903   5.412
 6489SOL    HW220367   2.473   1.970   5.365
 6490SOL     OW20368   4.579   1.379   0.655
 6490SOL    HW120369   4.490   1.368   0.611
 6490SOL    HW220370   4.639   1.303   0.629
 6491SOL     OW20371   4.077   1.263   6.214
 6491SOL    HW120372   4.158   1.316   6.237
 6491SOL    HW220373   4.024   1.311   6.144
 6492SOL     OW20374   5.732   5.901   6.629
 6492SOL    HW120375   5.635   5.877   6.638
 6492SOL    HW220376   5.767   5.928   6.719
 6493SOL     OW20377   0.899   6.081   5.452
 6493SOL    HW120378   0.953   6.042   5.526
 6493SOL    HW220379   0.885   6.012   5.381
 6494SOL     OW20380   1.331   0.102   3.514
 6494SOL    HW120381   1.428   0.124   3.505
 6494SOL    HW220382   1.319   0.035   3.588
 6495SOL     OW20383   5.222   5.226   2.400
 6495SOL    HW120384   5.242   5.218   2.498
 6495SOL    HW220385   5.206   5.135   2.362
 6496SOL     OW20386   1.067   6.968   2.952
 6496SOL    HW120387   1.162   6.962   2.985
 6496SOL    HW220388   1.045   6.886   2.899
 6497SOL     OW20389   0.386   5.593   0.020
 6497SOL    HW120390   0.315   5.540   0.067
 6497SOL    HW220391   0.347   5.636   6.964
 6498SOL     OW20392   1.704   4.360   3.925
 6498SOL    HW120393   1.649   4.304   3.863
 6498SOL    HW220394   1.733   4.443   3.878
 6499SOL     OW20395   5.850   1.131   4.012
 6499SOL    HW120396   5.777   1.114   3.945
 6499SOL    HW220397   5.847   1.061   4.083
 6500SOL     OW20398   5.363   4.768   3.530
 6500SOL    HW120399   5.282   4.735   3.480
 6500SOL    HW220400   5.445   4.742   3.480
 6501SOL     OW20401   0.152   3.450   0.819
 6501SOL    HW120402   0.101   3.379   0.773
 6501SOL    HW220403   0.247   3.420   0.833
 6502SOL     OW20404   1.386   4.794   2.042
 6502SOL    HW120405   1.473   4.826   2.080
 6502SOL    HW220406   1.403   4.712   1.987
 6503SOL     OW20407   4.444   0.221   4.328
 6503SOL    HW120408   4.532   0.197   4.370
 6503SOL    HW220409   4.377   0.239   4.399
 6504SOL     OW20410   2.114   1.027   0.337
 6504SOL    HW120411   2.028   0.975   0.338
 6504SOL    HW220412   2.149   1.036   0.430
 6505SOL     OW20413   5.229   5.324   0.986
 6505SOL    HW120414   5.285   5.303   1.065
 6505SOL    HW220415   5.141   5.362   1.016
 6506SOL     OW20416   1.689   1.828   0.477
 6506SOL    HW120417   1.591   1.836   0.496
 6506SOL    HW220418   1.732   1.917   0.492
 6507SOL     OW20419   3.290   0.665   2.250
 6507SOL    HW120420   3.199   0.690   2.216
 6507SOL    HW220421   3.283   0.583   2.306
 6508SOL     OW20422   2.752   1.351   2.030
 6508SOL    HW120423   2.798   1.435   2.060
 6508SOL    HW220424   2.655   1.356   2.054
 6509SOL     OW20425   0.827   2.704   4.375
 6509SOL    HW120426   0.899   2.774   4.367
 6509SOL    HW220427   0.792   2.682   4.284
 6510SOL     OW20428   5.456   5.250   6.581
 6510SOL    HW120429   5.449   5.338   6.535
 6510SOL    HW220430   5.381   5.241   6.647
 6511SOL     OW20431   6.024   6.033   5.531
 6511SOL    HW120432   6.064   5.943   5.516
 6511SOL    HW220433   5.936   6.023   5.578
 6512SOL     OW20434   5.223   6.424   3.482
 6512SOL    HW120435   5.307   6.465   3.517
 6512SOL    HW220436   5.181   6.369   3.554
 6513SOL     OW20437   2.445   6.867   2.881
 6513SOL    HW120438   2.519   6.878   2.815
 6513SOL    HW220439   2.376   6.937   2.866
 6514SOL     OW20440   3.259   6.758   3.509
 6514SOL    HW120441   3.237   6.834   3.448
 6514SOL    HW220442   3.187   6.748   3.577
 6515SOL     OW20443   0.531   0.919   4.222
 6515SOL    HW120444   0.536   1.010   4.262
 6515SOL    HW220445   0.542   0.850   4.294
 6516SOL     OW20446   1.540   1.634   5.919
 6516SOL    HW120447   1.494   1.664   5.835
 6516SOL    HW220448   1.495   1.552   5.953
 6517SOL     OW20449   1.695   2.217   0.110
 6517SOL    HW120450   1.783   2.170   0.105
 6517SOL    HW220451   1.630   2.171   0.049
 6518SOL     OW20452   5.874   6.253   0.559
 6518SOL    HW120453   5.906   6.223   0.469
 6518SOL    HW220454   5.919   6.340   0.583
 6519SOL     OW20455   1.793   1.935   3.366
 6519SOL    HW120456   1.697   1.910   3.361
 6519SOL    HW220457   1.850   1.854   3.347
 6520SOL     OW20458   6.070   5.140   1.522
 6520SOL    HW120459   6.036   5.085   1.446
 6520SOL    HW220460   6.143   5.200   1.490
 6521SOL     OW20461   1.423   2.015   5.167
 6521SOL    HW120462   1.344   2.015   5.229
 6521SOL    HW220463   1.476   2.098   5.181
 6522SOL     OW20464   2.794   5.835   4.729
 6522SOL    HW120465   2.804   5.899   4.806
 6522SOL    HW220466   2.721   5.770   4.749
 6523SOL     OW20467   1.950   2.177   6.837
 6523SOL    HW120468   1.931   2.159   6.933
 6523SOL    HW220469   1.989   2.095   6.794
 6524SOL     OW20470   3.537   3.988   4.450
 6524SOL    HW120471   3.541   3.952   4.543
 6524SOL    HW220472   3.453   3.958   4.406
 6525SOL     OW20473   0.474   2.672   4.494
 6525SOL    HW120474   0.521   2.747   4.448
 6525SOL    HW220475   0.516   2.585   4.468
 6526SOL     OW20476   1.685   5.707   4.368
 6526SOL    HW120477   1.746   5.739   4.440
 6526SOL    HW220478   1.732   5.638   4.313
 6527SOL     OW20479   2.435   1.066   3.910
 6527SOL    HW120480   2.500   1.037   3.980
 6527SOL    HW220481   2.342   1.055   3.944
 6528SOL     OW20482   6.859   6.824   3.066
 6528SOL    HW120483   6.809   6.757   3.122
 6528SOL    HW220484   6.904   6.890   3.127
 6529SOL     OW20485   6.486   2.549   1.582
 6529SOL    HW120486   6.513   2.583   1.672
 6529SOL    HW220487   6.557   2.488   1.546
 6530SOL     OW20488   0.232   1.931   0.363
 6530SOL    HW120489   0.176   1.850   0.378
 6530SOL    HW220490   0.174   2.013   0.363
 6531SOL     OW20491   5.060   2.877   4.664
 6531SOL    HW120492   5.141   2.879   4.607
 6531SOL    HW220493   5.081   2.834   4.752
 6532SOL     OW20494   1.275   2.349   6.831
 6532SOL    HW120495   1.189   2.336   6.780
 6532SOL    HW220496   1.262   2.421   6.900
 6533SOL     OW20497   4.605   0.842   1.110
 6533SOL    HW120498   4.557   0.764   1.151
 6533SOL    HW220499   4.617   0.913   1.178
 6534SOL     OW20500   1.759   3.130   0.153
 6534SOL    HW120501   1.813   3.212   0.176
 6534SOL    HW220502   1.717   3.143   0.063
 6535SOL     OW20503   2.147   3.518   5.481
 6535SOL    HW120504   2.098   3.597   5.519
 6535SOL    HW220505   2.081   3.452   5.444
 6536SOL     OW20506   6.840   2.760   6.739
 6536SOL    HW120507   6.847   2.819   6.820
 6536SOL    HW220508   6.841   2.816   6.656
 6537SOL     OW20509   1.018   0.226   0.016
 6537SOL    HW120510   0.980   0.215   0.108
 6537SOL    HW220511   1.009   0.140   6.991
 6538SOL     OW20512   1.810   3.213   6.372
 6538SOL    HW120513   1.791   3.219   6.470
 6538SOL    HW220514   1.894   3.159   6.358
 6539SOL     OW20515   2.622   1.414   6.400
 6539SOL    HW120516   2.639   1.412   6.301
 6539SOL    HW220517   2.524   1.405   6.417
 6540SOL     OW20518   3.033   2.008   4.003
 6540SOL    HW120519   2.965   2.012   4.076
 6540SOL    HW220520   3.123   1.989   4.043
 6541SOL     OW20521   2.886   2.577   5.355
 6541SOL    HW120522   2.934   2.493   5.381
 6541SOL    HW220523   2.952   2.649   5.336
 6542SOL     OW20524   6.365   4.712   3.486
 6542SOL    HW120525   6.281   4.684   3.532
 6542SOL    HW220526   6.406   4.633   3.441
 6543SOL     OW20527   0.494   5.260   6.709
 6543SOL    HW120528   0.539   5.299   6.629
 6543SOL    HW220529   0.436   5.183   6.682
 6544SOL     OW20530   6.727   6.272   3.027
 6544SOL    HW120531   6.715   6.177   2.995
 6544SOL    HW220532   6.638   6.310   3.052
 6545SOL     OW20533   5.291   2.727   6.174
 6545SOL    HW120534   5.329   2.699   6.086
 6545SOL    HW220535   5.332   2.673   6.247
 6546SOL     OW20536   3.708   4.961   5.697
 6546SOL    HW120537   3.615   4.987   5.670
 6546SOL    HW220538   3.774   5.025   5.658
 6547SOL     OW20539   5.197   1.175   0.051
 6547SOL    HW120540   5.125   1.240   0.026
 6547SOL    HW220541   5.174   1.085   0.015
 6548SOL     OW20542   6.211   4.542   5.427
 6548SOL    HW120543   6.192   4.444   5.421
 6548SOL    HW220544   6.129   4.594   5.403
 6549SOL     OW20545   2.894   1.025   2.240
 6549SOL    HW120546   2.911   1.066   2.150
 6549SOL    HW220547   2.976   1.032   2.296
 6550SOL     OW20548   0.676   5.188   3.518
 6550SOL    HW120549   0.623   5.121   3.570
 6550SOL    HW220550   0.723   5.249   3.581
 6551SOL     OW20551   2.771   4.896   1.925
 6551SOL    HW120552   2.839   4.916   1.854
 6551SOL    HW220553   2.781   4.802   1.956
 6552SOL     OW20554   4.842   5.189   6.662
 6552SOL    HW120555   4.872   5.233   6.578
 6552SOL    HW220556   4.767   5.242   6.702
 6553SOL     OW20557   6.924   3.240   2.798
 6553SOL    HW120558   7.024   3.243   2.810
 6553SOL    HW220559   6.892   3.331   2.772
 6554SOL     OW20560   0.043   3.782   5.041
 6554SOL    HW120561   0.038   3.740   5.132
 6554SOL    HW220562   0.135   3.818   5.026
 6555SOL     OW20563   0.837   1.327   1.801
 6555SOL    HW120564   0.790   1.415   1.796
 6555SOL    HW220565   0.774   1.254   1.772
 6556SOL     OW20566   3.421   0.473   3.849
 6556SOL    HW120567   3.469   0.548   3.893
 6556SOL    HW220568   3.349   0.509   3.790
 6557SOL     OW20569   5.816   6.656   0.976
 6557SOL    HW120570   5.893   6.634   1.035
 6557SOL    HW220571   5.779   6.572   0.936
 6558SOL     OW20572   6.980   6.121   6.245
 6558SOL    HW120573   6.930   6.146   6.328
 6558SOL    HW220574   6.998   6.023   6.246
 6559SOL     OW20575   3.457   2.792   1.205
 6559SOL    HW120576   3.529   2.795   1.136
 6559SOL    HW220577   3.468   2.711   1.262
 6560SOL     OW20578   3.664   1.722   0.732
 6560SOL    HW120579   3.581   1.676   0.763
 6560SOL    HW220580   3.678   1.806   0.784
 6561SOL     OW20581   3.736   4.127   3.943
 6561SOL    HW120582   3.826   4.083   3.939
 6561SOL    HW220583   3.698   4.118   4.034
 6562SOL     OW20584   5.977   3.666   5.555
 6562SOL    HW120585   5.931   3.687   5.468
 6562SOL    HW220586   6.015   3.574   5.551
 6563SOL     OW20587   1.013   5.259   2.841
 6563SOL    HW120588   1.105   5.253   2.880
 6563SOL    HW220589   0.988   5.354   2.828
 6564SOL     OW20590   1.139   6.271   3.103
 6564SOL    HW120591   1.093   6.189   3.138
 6564SOL    HW220592   1.231   6.276   3.142
 6565SOL     OW20593   6.665   3.622   5.180
 6565SOL    HW120594   6.706   3.669   5.102
 6565SOL    HW220595   6.716   3.539   5.200
 6566SOL     OW20596   3.672   6.800   0.720
 6566SOL    HW120597   3.743   6.806   0.791
 6566SOL    HW220598   3.607   6.875   0.732
 6567SOL     OW20599   6.326   3.073   1.251
 6567SOL    HW120600   6.288   3.099   1.340
 6567SOL    HW220601   6.324   3.152   1.190
 6568SOL     OW20602   3.900   3.770   1.047
 6568SOL    HW120603   3.927   3.686   1.094
 6568SOL    HW220604   3.944   3.848   1.092
 6569SOL     OW20605   0.558   4.697   6.706
 6569SOL    HW120606   0.471   4.666   6.669
 6569SOL    HW220607   0.576   4.790   6.677
 6570SOL     OW20608   5.998   3.420   1.602
 6570SOL    HW120609   5.959   3.455   1.517
 6570SOL    HW220610   6.007   3.495   1.668
 6571SOL     OW20611   2.594   6.384   3.574
 6571SOL    HW120612   2.545   6.303   3.607
 6571SOL    HW220613   2.535   6.464   3.583
 6572SOL     OW20614   1.256   4.483   6.496
 6572SOL    HW120615   1.246   4.436   6.584
 6572SOL    HW220616   1.333   4.547   6.501
 6573SOL     OW20617   1.557   2.018   2.317
 6573SOL    HW120618   1.606   2.105   2.314
 6573SOL    HW220619   1.459   2.035   2.314
 6574SOL     OW20620   1.751   4.817   3.873
 6574SOL    HW120621   1.831   4.756   3.871
 6574SOL    HW220622   1.722   4.830   3.968
 6575SOL     OW20623   1.965   0.861   2.326
 6575SOL    HW120624   1.925   0.878   2.416
 6575SOL    HW220625   2.044   0.921   2.312
 6576SOL     OW20626   1.194   6.561   4.276
 6576SOL    HW120627   1.109   6.509   4.279
 6576SOL    HW220628   1.183   6.647   4.326
 6577SOL     OW20629   6.685   2.730   5.032
 6577SOL    HW120630   6.627   2.721   4.951
 6577SOL    HW220631   6.773   2.768   5.005
 6578SOL     OW20632   6.785   5.316   3.173
 6578SOL    HW120633   6.772   5.351   3.266
 6578SOL    HW220634   6.708   5.345   3.116
 6579SOL     OW20635   0.817   3.971   2.979
 6579SOL    HW120636   0.816   4.014   2.889
 6579SOL    HW220637   0.841   4.039   3.048
 6580SOL     OW20638   5.736   2.599   1.660
 6580SOL    HW120639   5.807   2.530   1.645
 6580SOL    HW220640   5.708   2.599   1.756
 6581SOL     OW20641   2.450   2.577   5.537
 6581SOL    HW120642   2.388   2.653   5.518
 6581SOL    HW220643   2.544   2.609   5.536
 6582SOL     OW20644   7.005   0.503   2.114
 6582SOL    HW120645   6.909   0.518   2.091
 6582SOL    HW220646   7.011   0.449   2.198
 6583SOL     OW20647   5.356   2.024   5.326
 6583SOL    HW120648   5.404   1.965   5.390
 6583SOL    HW220649   5.270   1.981   5.299
 6584SOL     OW20650   5.829   2.384   6.933
 6584SOL    HW120651   5.815   2.451   6.860
 6584SOL    HW220652   5.746   2.330   6.945
 6585SOL     OW20653   2.252   0.767   0.932
 6585SOL    HW120654   2.167   0.807   0.966
 6585SOL    HW220655   2.249   0.667   0.943
 6586SOL     OW20656   0.065   1.258   6.847
 6586SOL    HW120657   0.097   1.341   6.801
 6586SOL    HW220658   0.136   1.189   6.845
 6587SOL     OW20659   1.875   6.873   2.628
 6587SOL    HW120660   1.834   6.916   2.548
 6587SOL    HW220661   1.823   6.897   2.710
 6588SOL     OW20662   2.213   2.784   6.857
 6588SOL    HW120663   2.203   2.820   6.765
 6588SOL    HW220664   2.155   2.703   6.867
 6589SOL     OW20665   5.225   1.492   5.757
 6589SOL    HW120666   5.178   1.417   5.804
 6589SOL    HW220667   5.293   1.454   5.695
 6590SOL     OW20668   6.352   1.162   5.804
 6590SOL    HW120669   6.307   1.094   5.745
 6590SOL    HW220670   6.408   1.223   5.747
 6591SOL     OW20671   5.197   1.021   2.543
 6591SOL    HW120672   5.102   1.053   2.545
 6591SOL    HW220673   5.251   1.075   2.608
 6592SOL     OW20674   5.432   5.779   4.689
 6592SOL    HW120675   5.339   5.813   4.675
 6592SOL    HW220676   5.497   5.842   4.646
 6593SOL     OW20677   4.580   0.783   2.705
 6593SOL    HW120678   4.551   0.872   2.671
 6593SOL    HW220679   4.630   0.734   2.634
 6594SOL     OW20680   5.634   1.156   6.649
 6594SOL    HW120681   5.727   1.140   6.616
 6594SOL    HW220682   5.572   1.089   6.608
 6595SOL     OW20683   1.416   3.640   0.086
 6595SOL    HW120684   1.339   3.693   0.122
 6595SOL    HW220685   1.500   3.669   0.132
 6596SOL     OW20686   3.484   6.587   5.179
 6596SOL    HW120687   3.524   6.553   5.264
 6596SOL    HW220688   3.389   6.555   5.171
 6597SOL     OW20689   6.710   4.490   6.801
 6597SOL    HW120690   6.754   4.432   6.870
 6597SOL    HW220691   6.778   4.550   6.760
 6598SOL     OW20692   2.344   5.555   4.903
 6598SOL    HW120693   2.258   5.602   4.924
 6598SOL    HW220694   2.338   5.459   4.931
 6599SOL     OW20695   4.622   3.687   5.640
 6599SOL    HW120696   4.616   3.589   5.622
 6599SOL    HW220697   4.661   3.734   5.561
 6600SOL     OW20698   4.440   5.359   4.277
 6600SOL    HW120699   4.348   5.323   4.257
 6600SOL    HW220700   4.507   5.314   4.218
 6601SOL     OW20701   0.678   0.133   1.395
 6601SOL    HW120702   0.583   0.101   1.392
 6601SOL    HW220703   0.683   0.218   1.447
 6602SOL     OW20704   6.166   1.092   1.841
 6602SOL    HW120705   6.210   1.181   1.852
 6602SOL    HW220706   6.098   1.097   1.768
 6603SOL     OW20707   2.647   2.068   2.499
 6603SOL    HW120708   2.584   2.068   2.422
 6603SOL    HW220709   2.662   2.162   2.530
 6604SOL     OW20710   4.151   5.811   3.220
 6604SOL    HW120711   4.203   5.894   3.239
 6604SOL    HW220712   4.204   5.751   3.159
 6605SOL     OW20713   5.941   6.585   0.214
 6605SOL    HW120714   5.854   6.540   0.235
 6605SOL    HW220715   5.951   6.594   0.115
 6606SOL     OW20716   6.141   1.610   3.042
 6606SOL    HW120717   6.126   1.680   2.972
 6606SOL    HW220718   6.123   1.519   3.003
 6607SOL     OW20719   0.978   2.057   3.068
 6607SOL    HW120720   0.909   2.053   2.996
 6607SOL    HW220721   1.001   1.964   3.097
 6608SOL     OW20722   5.843   4.752   4.961
 6608SOL    HW120723   5.820   4.656   4.946
 6608SOL    HW220724   5.928   4.775   4.914
 6609SOL     OW20725   5.822   1.247   6.997
 6609SOL    HW120726   5.841   1.258   6.899
 6609SOL    HW220727   5.727   1.270   7.015
 6610SOL     OW20728   3.047   0.920   0.323
 6610SOL    HW120729   3.060   0.934   0.225
 6610SOL    HW220730   3.135   0.932   0.370
 6611SOL     OW20731   5.358   3.050   3.066
 6611SOL    HW120732   5.322   2.958   3.055
 6611SOL    HW220733   5.458   3.047   3.070
 6612SOL     OW20734   1.079   5.794   6.220
 6612SOL    HW120735   1.165   5.745   6.230
 6612SOL    HW220736   1.074   5.867   6.289
 6613SOL     OW20737   4.896   4.792   1.097
 6613SOL    HW120738   4.838   4.774   1.018
 6613SOL    HW220739   4.842   4.783   1.181
 6614SOL     OW20740   4.818   5.407   5.812
 6614SOL    HW120741   4.777   5.435   5.899
 6614SOL    HW220742   4.850   5.487   5.762
 6615SOL     OW20743   0.796   4.513   5.178
 6615SOL    HW120744   0.823   4.517   5.082
 6615SOL    HW220745   0.764   4.603   5.207
 6616SOL     OW20746   4.863   0.970   4.485
 6616SOL    HW120747   4.878   0.991   4.388
 6616SOL    HW220748   4.951   0.964   4.531
 6617SOL     OW20749   4.559   0.004   5.091
 6617SOL    HW120750   4.562   6.929   5.088
 6617SOL    HW220751   4.506   0.032   5.171
 6618SOL     OW20752   0.570   5.130   1.130
 6618SOL    HW120753   0.639   5.059   1.116
 6618SOL    HW220754   0.590   5.209   1.072
 6619SOL     OW20755   6.682   6.437   1.691
 6619SOL    HW120756   6.662   6.374   1.765
 6619SOL    HW220757   6.600   6.490   1.668
 6620SOL     OW20758   4.172   3.172   5.720
 6620SOL    HW120759   4.188   3.250   5.660
 6620SOL    HW220760   4.123   3.203   5.802
 6621SOL     OW20761   2.363   3.579   0.365
 6621SOL    HW120762   2.387   3.659   0.310
 6621SOL    HW220763   2.352   3.607   0.460
 6622SOL     OW20764   6.394   6.669   0.621
 6622SOL    HW120765   6.345   6.683   0.707
 6622SOL    HW220766   6.468   6.603   0.635
 6623SOL     OW20767   3.476   3.832   2.424
 6623SOL    HW120768   3.539   3.849   2.500
 6623SOL    HW220769   3.528   3.820   2.340
 6624SOL     OW20770   4.533   5.153   3.771
 6624SOL    HW120771   4.456   5.217   3.774
 6624SOL    HW220772   4.618   5.201   3.794
 6625SOL     OW20773   5.764   0.237   6.930
 6625SOL    HW120774   5.694   0.210   6.997
 6625SOL    HW220775   5.740   0.327   6.893
 6626SOL     OW20776   3.210   5.305   3.455
 6626SOL    HW120777   3.238   5.333   3.364
 6626SOL    HW220778   3.139   5.235   3.448
 6627SOL     OW20779   1.870   5.873   1.827
 6627SOL    HW120780   1.897   5.969   1.838
 6627SOL    HW220781   1.921   5.832   1.752
 6628SOL     OW20782   3.919   5.968   3.562
 6628SOL    HW120783   3.910   6.054   3.510
 6628SOL    HW220784   3.828   5.933   3.584
 6629SOL     OW20785   3.352   3.738   0.393
 6629SOL    HW120786   3.282   3.810   0.389
 6629SOL    HW220787   3.415   3.749   0.316
 6630SOL     OW20788   2.880   1.980   6.110
 6630SOL    HW120789   2.860   2.056   6.048
 6630SOL    HW220790   2.912   1.902   6.058
 6631SOL     OW20791   4.553   0.640   1.946
 6631SOL    HW120792   4.643   0.621   1.985
 6631SOL    HW220793   4.555   0.729   1.901
 6632SOL     OW20794   6.758   2.702   2.520
 6632SOL    HW120795   6.816   2.750   2.455
 6632SOL    HW220796   6.814   2.668   2.596
 6633SOL     OW20797   0.377   0.312   1.522
 6633SOL    HW120798   0.291   0.265   1.543
 6633SOL    HW220799   0.454   0.256   1.552
 6634SOL     OW20800   6.874   2.891   5.841
 6634SOL    HW120801   6.970   2.900   5.816
 6634SOL    HW220802   6.866   2.859   5.935
 6635SOL     OW20803   4.534   4.553   3.064
 6635SOL    HW120804   4.607   4.485   3.064
 6635SOL    HW220805   4.484   4.549   2.978
 6636SOL     OW20806   1.733   2.954   3.759
 6636SOL    HW120807   1.738   3.033   3.821
 6636SOL    HW220808   1.708   2.873   3.812
 6637SOL     OW20809   6.384   1.636   1.597
 6637SOL    HW120810   6.461   1.572   1.602
 6637SOL    HW220811   6.420   1.729   1.590
 6638SOL     OW20812   2.574   6.357   6.135
 6638SOL    HW120813   2.525   6.373   6.049
 6638SOL    HW220814   2.632   6.276   6.125
 6639SOL     OW20815   5.153   5.849   6.460
 6639SOL    HW120816   5.119   5.943   6.453
 6639SOL    HW220817   5.078   5.785   6.440
 6640SOL     OW20818   5.991   2.913   4.048
 6640SOL    HW120819   5.906   2.962   4.028
 6640SOL    HW220820   5.971   2.835   4.108
 6641SOL     OW20821   2.056   4.648   6.816
 6641SOL    HW120822   2.037   4.552   6.793
 6641SOL    HW220823   2.058   4.702   6.733
 6642SOL     OW20824   6.321   6.848   0.180
 6642SOL    HW120825   6.247   6.823   0.243
 6642SOL    HW220826   6.407   6.849   0.229
 6643SOL     OW20827   4.067   5.824   0.206
 6643SOL    HW120828   4.043   5.778   0.121
 6643SOL    HW220829   4.079   5.922   0.189
 6644SOL     OW20830   2.358   4.502   2.034
 6644SOL    HW120831   2.365   4.587   1.981
 6644SOL    HW220832   2.422   4.505   2.110
 6645SOL     OW20833   6.656   4.662   5.035
 6645SOL    HW120834   6.623   4.713   4.956
 6645SOL    HW220835   6.691   4.725   5.104
 6646SOL     OW20836   1.575   6.245   3.779
 6646SOL    HW120837   1.545   6.202   3.694
 6646SOL    HW220838   1.503   6.237   3.847
 6647SOL     OW20839   4.159   1.950   2.399
 6647SOL    HW120840   4.162   2.040   2.355
 6647SOL    HW220841   4.135   1.880   2.332
 6648SOL     OW20842   4.543   5.786   1.733
 6648SOL    HW120843   4.604   5.711   1.761
 6648SOL    HW220844   4.557   5.864   1.794
 6649SOL     OW20845   4.148   2.056   6.675
 6649SOL    HW120846   4.074   2.079   6.739
 6649SOL    HW220847   4.111   2.004   6.598
 6650SOL     OW20848   2.862   1.959   3.120
 6650SOL    HW120849   2.783   1.906   3.151
 6650SOL    HW220850   2.835   2.055   3.110
 6651SOL     OW20851   1.661   2.525   0.101
 6651SOL    HW120852   1.703   2.441   0.136
 6651SOL    HW220853   1.720   2.566   0.032
 6652SOL     OW20854   0.768   5.656   3.454
 6652SOL    HW120855   0.727   5.621   3.539
 6652SOL    HW220856   0.867   5.666   3.466
 6653SOL     OW20857   3.337   3.609   3.871
 6653SOL    HW120858   3.292   3.572   3.952
 6653SOL    HW220859   3.281   3.590   3.790
 6654SOL     OW20860   1.935   3.441   2.054
 6654SOL    HW120861   1.897   3.353   2.025
 6654SOL    HW220862   2.035   3.435   2.054
 6655SOL     OW20863   2.107   0.044   0.736
 6655SOL    HW120864   2.056   0.037   0.822
 6655SOL    HW220865   2.069   7.006   0.669
 6656SOL     OW20866   6.816   2.258   1.280
 6656SOL    HW120867   6.731   2.255   1.228
 6656SOL    HW220868   6.803   2.313   1.363
 6657SOL     OW20869   2.873   4.899   6.053
 6657SOL    HW120870   2.862   4.903   5.953
 6657SOL    HW220871   2.934   4.823   6.076
 6658SOL     OW20872   5.344   0.374   5.691
 6658SOL    HW120873   5.269   0.328   5.645
 6658SOL    HW220874   5.420   0.310   5.704
 6659SOL     OW20875   1.605   3.055   6.634
 6659SOL    HW120876   1.647   2.968   6.610
 6659SOL    HW220877   1.505   3.044   6.637
 6660SOL     OW20878   0.561   0.084   2.643
 6660SOL    HW120879   0.556   7.011   2.661
 6660SOL    HW220880   0.656   0.114   2.647
 6661SOL     OW20881   0.133   5.688   3.493
 6661SOL    HW120882   0.223   5.720   3.464
 6661SOL    HW220883   0.144   5.628   3.573
 6662SOL     OW20884   0.989   3.666   5.720
 6662SOL    HW120885   1.047   3.716   5.656
 6662SOL    HW220886   0.924   3.610   5.669
 6663SOL     OW20887   0.344   5.118   2.190
 6663SOL    HW120888   0.376   5.086   2.101
 6663SOL    HW220889   0.373   5.054   2.261
 6664SOL     OW20890   0.453   1.843   3.713
 6664SOL    HW120891   0.390   1.774   3.678
 6664SOL    HW220892   0.513   1.873   3.640
 6665SOL     OW20893   2.917   6.458   2.430
 6665SOL    HW120894   2.887   6.468   2.525
 6665SOL    HW220895   2.840   6.426   2.374
 6666SOL     OW20896   6.110   0.533   0.488
 6666SOL    HW120897   6.159   0.539   0.401
 6666SOL    HW220898   6.128   0.615   0.542
 6667SOL     OW20899   6.613   4.908   4.467
 6667SOL    HW120900   6.711   4.927   4.473
 6667SOL    HW220901   6.598   4.823   4.417
 6668SOL     OW20902   0.177   6.499   1.386
 6668SOL    HW120903   0.178   6.561   1.465
 6668SOL    HW220904   0.092   6.513   1.334
 6669SOL     OW20905   1.472   5.476   2.853
 6669SOL    HW120906   1.560   5.491   2.897
 6669SOL    HW220907   1.484   5.424   2.769
 6670SOL     OW20908   3.150   4.726   0.614
 6670SOL    HW120909   3.088   4.737   0.692
 6670SOL    HW220910   3.239   4.767   0.636
 6671SOL     OW20911   0.587   2.816   5.520
 6671SOL    HW120912   0.513   2.750   5.532
 6671SOL    HW220913   0.599   2.836   5.422
 6672SOL     OW20914   0.707   0.813   5.604
 6672SOL    HW120915   0.690   0.839   5.509
 6672SOL    HW220916   0.805   0.816   5.623
 6673SOL     OW20917   5.233   5.364   1.603
 6673SOL    HW120918   5.247   5.400   1.696
 6673SOL    HW220919   5.230   5.264   1.606
 6674SOL     OW20920   0.863   0.083   4.625
 6674SOL    HW120921   0.795   0.156   4.628
 6674SOL    HW220922   0.946   0.117   4.579
 6675SOL     OW20923   0.237   5.897   0.423
 6675SOL    HW120924   0.146   5.913   0.386
 6675SOL    HW220925   0.304   5.894   0.349
 6676SOL     OW20926   1.322   2.259   0.091
 6676SOL    HW120927   1.359   2.343   0.052
 6676SOL    HW220928   1.276   2.206   0.020
 6677SOL     OW20929   6.387   4.045   6.974
 6677SOL    HW120930   6.390   3.965   6.914
 6677SOL    HW220931   6.458   4.110   6.948
 6678SOL     OW20932   0.782   2.997   4.475
 6678SOL    HW120933   0.780   2.954   4.565
 6678SOL    HW220934   0.852   3.068   4.473
 6679SOL     OW20935   1.709   1.321   4.153
 6679SOL    HW120936   1.682   1.378   4.231
 6679SOL    HW220937   1.635   1.257   4.131
 6680SOL     OW20938   2.142   6.934   6.166
 6680SOL    HW120939   2.218   6.954   6.105
 6680SOL    HW220940   2.176   6.885   6.247
 6681SOL     OW20941   5.909   5.353   0.433
 6681SOL    HW120942   6.006   5.357   0.457
 6681SOL    HW220943   5.899   5.326   0.337
 6682SOL     OW20944   0.416   5.526   2.519
 6682SOL    HW120945   0.470   5.602   2.482
 6682SOL    HW220946   0.398   5.459   2.448
 6683SOL     OW20947   5.490   1.630   4.036
 6683SOL    HW120948   5.456   1.623   3.943
 6683SOL    HW220949   5.570   1.690   4.038
 6684SOL     OW20950   2.204   0.667   2.322
 6684SOL    HW120951   2.205   0.567   2.312
 6684SOL    HW220952   2.111   0.699   2.336
 6685SOL     OW20953   5.370   3.757   6.560
 6685SOL    HW120954   5.290   3.807   6.594
 6685SOL    HW220955   5.340   3.681   6.502
 6686SOL     OW20956   5.373   3.795   3.947
 6686SOL    HW120957   5.368   3.701   3.914
 6686SOL    HW220958   5.451   3.806   4.008
 6687SOL     OW20959   1.010   1.364   7.023
 6687SOL    HW120960   1.036   1.297   6.954
 6687SOL    HW220961   1.092   1.403   0.040
 6688SOL     OW20962   0.623   4.966   3.085
 6688SOL    HW120963   0.702   5.012   3.045
 6688SOL    HW220964   0.584   4.902   3.019
 6689SOL     OW20965   4.283   4.885   0.421
 6689SOL    HW120966   4.377   4.859   0.442
 6689SOL    HW220967   4.266   4.977   0.456
 6690SOL     OW20968   1.150   1.924   0.502
 6690SOL    HW120969   1.129   1.901   0.597
 6690SOL    HW220970   1.180   2.019   0.497
 6691SOL     OW20971   1.748   5.503   0.981
 6691SOL    HW120972   1.752   5.403   0.988
 6691SOL    HW220973   1.830   5.536   0.935
 6692SOL     OW20974   3.528   4.140   6.085
 6692SOL    HW120975   3.611   4.154   6.029
 6692SOL    HW220976   3.521   4.213   6.152
 6693SOL     OW20977   4.128   3.810   5.036
 6693SOL    HW120978   4.162   3.744   5.103
 6693SOL    HW220979   4.089   3.889   5.084
 6694SOL     OW20980   2.966   5.895   0.140
 6694SOL    HW120981   2.929   5.868   0.229
 6694SOL    HW220982   2.988   5.992   0.141
 6695SOL     OW20983   1.559   1.686   6.629
 6695SOL    HW120984   1.491   1.693   6.557
 6695SOL    HW220985   1.643   1.645   6.592
 6696SOL     OW20986   2.116   3.197   2.015
 6696SOL    HW120987   2.155   3.285   1.987
 6696SOL    HW220988   2.101   3.197   2.114
 6697SOL     OW20989   5.464   2.200   3.514
 6697SOL    HW120990   5.541   2.177   3.455
 6697SOL    HW220991   5.397   2.253   3.462
 6698SOL     OW20992   3.323   4.232   0.415
 6698SOL    HW120993   3.308   4.138   0.448
 6698SOL    HW220994   3.346   4.291   0.493
 6699SOL     OW20995   1.438   3.477   6.622
 6699SOL    HW120996   1.385   3.458   6.705
 6699SOL    HW220997   1.381   3.456   6.542
 6700SOL     OW20998   6.665   6.780   6.502
 6700SOL    HW120999   6.741   6.732   6.460
 6700SOL    HW221000   6.699   6.840   6.575
 6701SOL     OW21001   0.645   2.448   0.991
 6701SOL    HW121002   0.604   2.404   1.071
 6701SOL    HW221003   0.652   2.547   1.008
 6702SOL     OW21004   1.709   2.831   0.874
 6702SOL    HW121005   1.778   2.897   0.905
 6702SOL    HW221006   1.696   2.761   0.944
 6703SOL     OW21007   0.369   2.277   6.985
 6703SOL    HW121008   0.404   2.339   6.915
 6703SOL    HW221009   0.432   2.199   6.994
 6704SOL     OW21010   5.238   1.999   3.285
 6704SOL    HW121011   5.211   1.964   3.375
 6704SOL    HW221012   5.165   2.056   3.248
 6705SOL     OW21013   6.352   1.022   0.379
 6705SOL    HW121014   6.319   1.111   0.347
 6705SOL    HW221015   6.314   0.950   0.321
 6706SOL     OW21016   0.821   5.431   6.919
 6706SOL    HW121017   0.774   5.376   6.851
 6706SOL    HW221018   0.878   5.500   6.873
 6707SOL     OW21019   1.024   5.526   2.268
 6707SOL    HW121020   0.983   5.490   2.184
 6707SOL    HW221021   1.021   5.455   2.339
 6708SOL     OW21022   2.342   5.862   1.748
 6708SOL    HW121023   2.329   5.787   1.684
 6708SOL    HW221024   2.433   5.855   1.789
 6709SOL     OW21025   5.530   1.545   3.123
 6709SOL    HW121026   5.502   1.626   3.071
 6709SOL    HW221027   5.585   1.485   3.065
 6710SOL     OW21028   1.889   1.952   0.918
 6710SOL    HW121029   1.908   1.855   0.906
 6710SOL    HW221030   1.837   1.986   0.839
 6711SOL     OW21031   4.345   3.565   0.375
 6711SOL    HW121032   4.406   3.538   0.449
 6711SOL    HW221033   4.304   3.484   0.333
 6712SOL     OW21034   3.404   6.166   1.345
 6712SOL    HW121035   3.313   6.127   1.359
 6712SOL    HW221036   3.411   6.203   1.253
 6713SOL     OW21037   1.754   1.540   2.549
 6713SOL    HW121038   1.819   1.493   2.608
 6713SOL    HW221039   1.743   1.488   2.464
 6714SOL     OW21040   6.688   0.588   3.574
 6714SOL    HW121041   6.652   0.574   3.666
 6714SOL    HW221042   6.772   0.642   3.580
 6715SOL     OW21043   0.425   1.961   0.868
 6715SOL    HW121044   0.383   1.877   0.905
 6715SOL    HW221045   0.401   1.971   0.772
 6716SOL     OW21046   2.833   5.413   0.253
 6716SOL    HW121047   2.827   5.352   0.174
 6716SOL    HW221048   2.789   5.500   0.231
 6717SOL     OW21049   3.911   1.847   6.413
 6717SOL    HW121050   4.010   1.834   6.417
 6717SOL    HW221051   3.886   1.884   6.324
 6718SOL     OW21052   3.304   6.559   0.061
 6718SOL    HW121053   3.336   6.634   0.003
 6718SOL    HW221054   3.247   6.595   0.134
 6719SOL     OW21055   0.418   0.340   5.613
 6719SOL    HW121056   0.395   0.330   5.710
 6719SOL    HW221057   0.470   0.424   5.600
 6720SOL     OW21058   1.842   4.624   1.389
 6720SOL    HW121059   1.756   4.675   1.388
 6720SOL    HW221060   1.914   4.681   1.427
 6721SOL     OW21061   6.452   6.252   3.298
 6721SOL    HW121062   6.438   6.174   3.236
 6721SOL    HW221063   6.464   6.335   3.244
 6722SOL     OW21064   5.081   4.632   0.005
 6722SOL    HW121065   5.157   4.584   6.986
 6722SOL    HW221066   5.015   4.565   0.040
 6723SOL     OW21067   4.471   0.384   2.850
 6723SOL    HW121068   4.568   0.408   2.855
 6723SOL    HW221069   4.452   0.340   2.762
 6724SOL     OW21070   3.425   4.784   5.612
 6724SOL    HW121071   3.408   4.883   5.607
 6724SOL    HW221072   3.384   4.739   5.533
 6725SOL     OW21073   0.148   4.986   1.970
 6725SOL    HW121074   0.137   4.897   2.015
 6725SOL    HW221075   0.190   4.972   1.880
 6726SOL     OW21076   2.343   2.660   1.919
 6726SOL    HW121077   2.289   2.630   1.841
 6726SOL    HW221078   2.285   2.713   1.982
 6727SOL     OW21079   3.698   3.943   0.263
 6727SOL    HW121080   3.648   4.028   0.280
 6727SOL    HW221081   3.711   3.894   0.349
 6728SOL     OW21082   4.648   1.623   4.403
 6728SOL    HW121083   4.689   1.541   4.362
 6728SOL    HW221084   4.636   1.693   4.332
 6729SOL     OW21085   5.649   6.126   2.840
 6729SOL    HW121086   5.659   6.144   2.742
 6729SOL    HW221087   5.734   6.151   2.886
 6730SOL     OW21088   1.292   0.314   2.267
 6730SOL    HW121089   1.346   0.259   2.331
 6730SOL    HW221090   1.214   0.354   2.315
 6731SOL     OW21091   2.234   4.256   1.895
 6731SOL    HW121092   2.276   4.336   1.939
 6731SOL    HW221093   2.167   4.215   1.956
 6732SOL     OW21094   1.831   4.835   0.968
 6732SOL    HW121095   1.866   4.925   0.996
 6732SOL    HW221096   1.908   4.772   0.956
 6733SOL     OW21097   6.044   6.221   4.822
 6733SOL    HW121098   6.051   6.289   4.895
 6733SOL    HW221099   6.044   6.129   4.862
 6734SOL     OW21100   2.852   3.426   5.175
 6734SOL    HW121101   2.777   3.360   5.170
 6734SOL    HW221102   2.821   3.507   5.224
 6735SOL     OW21103   0.054   5.544   6.334
 6735SOL    HW121104   0.128   5.550   6.401
 6735SOL    HW221105   0.041   5.449   6.305
 6736SOL     OW21106   2.120   3.699   2.766
 6736SOL    HW121107   2.163   3.783   2.800
 6736SOL    HW221108   2.081   3.716   2.676
 6737SOL     OW21109   1.950   0.199   1.236
 6737SOL    HW121110   1.930   0.102   1.222
 6737SOL    HW221111   1.996   0.211   1.324
 6738SOL     OW21112   4.191   1.061   1.684
 6738SOL    HW121113   4.186   0.971   1.642
 6738SOL    HW221114   4.286   1.092   1.686
 6739SOL     OW21115   4.730   0.428   4.400
 6739SOL    HW121116   4.712   0.460   4.307
 6739SOL    HW221117   4.693   0.336   4.412
 6740SOL     OW21118   5.890   3.322   5.396
 6740SOL    HW121119   5.833   3.389   5.443
 6740SOL    HW221120   5.894   3.238   5.451
 6741SOL     OW21121   6.966   6.756   5.804
 6741SOL    HW121122   6.968   6.776   5.706
 6741SOL    HW221123   6.927   6.665   5.818
 6742SOL     OW21124   6.039   6.007   4.968
 6742SOL    HW121125   6.006   5.915   4.947
 6742SOL    HW221126   6.123   6.001   5.022
 6743SOL     OW21127   5.229   2.447   1.003
 6743SOL    HW121128   5.272   2.533   1.033
 6743SOL    HW221129   5.182   2.462   0.916
 6744SOL     OW21130   5.111   5.443   5.097
 6744SOL    HW121131   5.160   5.491   5.024
 6744SOL    HW221132   5.135   5.484   5.185
 6745SOL     OW21133   0.761   3.506   2.971
 6745SOL    HW121134   0.851   3.483   2.932
 6745SOL    HW221135   0.692   3.505   2.898
 6746SOL     OW21136   0.144   0.897   1.085
 6746SOL    HW121137   0.116   0.854   1.171
 6746SOL    HW221138   0.152   0.996   1.099
 6747SOL     OW21139   4.833   6.398   6.867
 6747SOL    HW121140   4.811   6.372   6.773
 6747SOL    HW221141   4.913   6.347   6.898
 6748SOL     OW21142   0.309   6.724   1.932
 6748SOL    HW121143   0.386   6.704   1.993
 6748SOL    HW221144   0.302   6.823   1.918
 6749SOL     OW21145   3.537   5.918   0.927
 6749SOL    HW121146   3.483   5.909   0.844
 6749SOL    HW221147   3.568   6.013   0.937
 6750SOL     OW21148   2.435   3.045   5.476
 6750SOL    HW121149   2.418   3.137   5.510
 6750SOL    HW221150   2.477   3.051   5.385
 6751SOL     OW21151   3.199   1.895   5.844
 6751SOL    HW121152   3.284   1.935   5.809
 6751SOL    HW221153   3.212   1.870   5.940
 6752SOL     OW21154   6.042   2.273   1.012
 6752SOL    HW121155   5.978   2.335   1.057
 6752SOL    HW221156   5.993   2.215   0.947
 6753SOL     OW21157   5.769   1.637   6.373
 6753SOL    HW121158   5.732   1.674   6.288
 6753SOL    HW221159   5.781   1.538   6.364
 6754SOL     OW21160   4.959   1.370   0.007
 6754SOL    HW121161   5.043   1.423   7.017
 6754SOL    HW221162   4.896   1.423   0.064
 6755SOL     OW21163   5.247   1.944   3.592
 6755SOL    HW121164   5.254   1.927   3.691
 6755SOL    HW221165   5.321   1.896   3.545
 6756SOL     OW21166   5.043   4.280   3.352
 6756SOL    HW121167   4.985   4.198   3.352
 6756SOL    HW221168   5.131   4.258   3.393
 6757SOL     OW21169   5.953   5.010   1.737
 6757SOL    HW121170   5.883   4.939   1.731
 6757SOL    HW221171   5.980   5.038   1.645
 6758SOL     OW21172   5.896   1.603   3.241
 6758SOL    HW121173   5.902   1.559   3.152
 6758SOL    HW221174   5.903   1.533   3.313
 6759SOL     OW21175   1.069   4.642   3.874
 6759SOL    HW121176   1.014   4.674   3.951
 6759SOL    HW221177   1.124   4.718   3.839
 6760SOL     OW21178   0.526   4.091   5.537
 6760SOL    HW121179   0.542   4.174   5.485
 6760SOL    HW221180   0.613   4.044   5.554
 6761SOL     OW21181   6.196   3.331   6.470
 6761SOL    HW121182   6.216   3.423   6.436
 6761SOL    HW221183   6.260   3.266   6.428
 6762SOL     OW21184   6.578   4.267   3.188
 6762SOL    HW121185   6.593   4.198   3.259
 6762SOL    HW221186   6.480   4.276   3.171
 6763SOL     OW21187   6.776   6.565   5.288
 6763SOL    HW121188   6.815   6.530   5.203
 6763SOL    HW221189   6.805   6.660   5.302
 6764SOL     OW21190   1.663   3.099   6.896
 6764SOL    HW121191   1.624   3.026   6.953
 6764SOL    HW221192   1.676   3.066   6.803
 6765SOL     OW21193   5.115   5.156   2.941
 6765SOL    HW121194   5.063   5.230   2.898
 6765SOL    HW221195   5.211   5.161   2.912
 6766SOL     OW21196   1.770   1.862   5.714
 6766SOL    HW121197   1.854   1.830   5.759
 6766SOL    HW221198   1.756   1.811   5.630
 6767SOL     OW21199   0.778   2.595   5.889
 6767SOL    HW121200   0.744   2.689   5.885
 6767SOL    HW221201   0.779   2.563   5.984
 6768SOL     OW21202   6.491   1.588   5.881
 6768SOL    HW121203   6.400   1.584   5.922
 6768SOL    HW221204   6.558   1.604   5.953
 6769SOL     OW21205   1.134   2.627   6.867
 6769SOL    HW121206   1.108   2.721   6.889
 6769SOL    HW221207   1.198   2.628   6.790
 6770SOL     OW21208   6.546   1.341   4.848
 6770SOL    HW121209   6.557   1.419   4.787
 6770SOL    HW221210   6.594   1.358   4.934
 6771SOL     OW21211   5.255   1.619   2.256
 6771SOL    HW121212   5.256   1.683   2.178
 6771SOL    HW221213   5.348   1.606   2.290
 6772SOL     OW21214   1.223   0.549   1.759
 6772SOL    HW121215   1.145   0.596   1.800
 6772SOL    HW221216   1.304   0.563   1.816
 6773SOL     OW21217   1.525   0.534   2.215
 6773SOL    HW121218   1.571   0.463   2.162
 6773SOL    HW221219   1.431   0.505   2.235
 6774SOL     OW21220   3.442   1.352   5.865
 6774SOL    HW121221   3.393   1.364   5.779
 6774SOL    HW221222   3.467   1.255   5.876
 6775SOL     OW21223   1.243   2.898   4.849
 6775SOL    HW121224   1.201   2.811   4.824
 6775SOL    HW221225   1.341   2.895   4.827
 6776SOL     OW21226   3.048   3.753   3.978
 6776SOL    HW121227   3.023   3.807   4.058
 6776SOL    HW221228   3.106   3.676   4.006
 6777SOL     OW21229   0.511   6.976   6.083
 6777SOL    HW121230   0.550   0.034   6.123
 6777SOL    HW221231   0.447   7.001   6.010
 6778SOL     OW21232   6.791   6.077   2.515
 6778SOL    HW121233   6.760   6.001   2.459
 6778SOL    HW221234   6.888   6.065   2.537
 6779SOL     OW21235   4.415   4.820   6.957
 6779SOL    HW121236   4.404   4.799   0.029
 6779SOL    HW221237   4.409   4.919   6.943
 6780SOL     OW21238   4.368   0.153   2.982
 6780SOL    HW121239   4.399   0.112   3.067
 6780SOL    HW221240   4.407   0.245   2.972
 6781SOL     OW21241   6.749   3.363   3.043
 6781SOL    HW121242   6.831   3.356   3.100
 6781SOL    HW221243   6.744   3.454   3.002
 6782SOL     OW21244   0.567   1.454   3.742
 6782SOL    HW121245   0.582   1.530   3.805
 6782SOL    HW221246   0.633   1.459   3.668
 6783SOL     OW21247   0.551   6.215   6.234
 6783SOL    HW121248   0.545   6.277   6.312
 6783SOL    HW221249   0.570   6.122   6.266
 6784SOL     OW21250   1.574   4.468   0.807
 6784SOL    HW121251   1.632   4.494   0.730
 6784SOL    HW221252   1.499   4.534   0.816
 6785SOL     OW21253   5.312   4.820   2.128
 6785SOL    HW121254   5.268   4.734   2.101
 6785SOL    HW221255   5.257   4.866   2.198
 6786SOL     OW21256   6.331   1.800   5.347
 6786SOL    HW121257   6.279   1.792   5.262
 6786SOL    HW221258   6.363   1.894   5.358
 6787SOL     OW21259   3.235   1.403   0.820
 6787SOL    HW121260   3.166   1.469   0.851
 6787SOL    HW221261   3.235   1.324   0.881
 6788SOL     OW21262   0.943   4.195   1.620
 6788SOL    HW121263   0.857   4.228   1.582
 6788SOL    HW221264   0.948   4.096   1.611
 6789SOL     OW21265   5.642   4.074   2.528
 6789SOL    HW121266   5.593   4.128   2.596
 6789SOL    HW221267   5.592   3.989   2.511
 6790SOL     OW21268   1.073   5.836   0.881
 6790SOL    HW121269   1.017   5.902   0.931
 6790SOL    HW221270   1.112   5.881   0.800
 6791SOL     OW21271   2.602   6.055   3.969
 6791SOL    HW121272   2.630   5.976   3.914
 6791SOL    HW221273   2.661   6.133   3.947
 6792SOL     OW21274   3.406   6.121   6.555
 6792SOL    HW121275   3.462   6.130   6.638
 6792SOL    HW221276   3.416   6.204   6.499
 6793SOL     OW21277   3.026   4.000   6.682
 6793SOL    HW121278   3.126   4.006   6.675
 6793SOL    HW221279   2.986   4.010   6.591
 6794SOL     OW21280   5.202   2.667   4.315
 6794SOL    HW121281   5.151   2.627   4.239
 6794SOL    HW221282   5.260   2.741   4.280
 6795SOL     OW21283   0.690   0.779   1.719
 6795SOL    HW121284   0.752   0.748   1.791
 6795SOL    HW221285   0.598   0.748   1.740
 6796SOL     OW21286   6.633   2.758   2.242
 6796SOL    HW121287   6.694   2.709   2.180
 6796SOL    HW221288   6.676   2.766   2.332
 6797SOL     OW21289   1.984   3.352   1.364
 6797SOL    HW121290   2.030   3.439   1.347
 6797SOL    HW221291   1.887   3.361   1.340
 6798SOL     OW21292   4.813   0.858   2.107
 6798SOL    HW121293   4.836   0.761   2.104
 6798SOL    HW221294   4.859   0.901   2.185
 6799SOL     OW21295   5.885   6.720   2.658
 6799SOL    HW121296   5.981   6.709   2.636
 6799SOL    HW221297   5.869   6.811   2.697
 6800SOL     OW21298   6.923   3.126   2.310
 6800SOL    HW121299   6.979   3.119   2.393
 6800SOL    HW221300   6.885   3.218   2.303
 6801SOL     OW21301   1.818   4.989   5.127
 6801SOL    HW121302   1.881   4.973   5.203
 6801SOL    HW221303   1.785   4.902   5.092
 6802SOL     OW21304   2.605   4.666   1.816
 6802SOL    HW121305   2.555   4.584   1.789
 6802SOL    HW221306   2.690   4.641   1.861
 6803SOL     OW21307   5.429   5.480   6.773
 6803SOL    HW121308   5.364   5.404   6.777
 6803SOL    HW221309   5.455   5.507   6.866
 6804SOL     OW21310   3.228   5.254   1.866
 6804SOL    HW121311   3.322   5.248   1.834
 6804SOL    HW221312   3.205   5.350   1.883
 6805SOL     OW21313   0.668   4.674   3.736
 6805SOL    HW121314   0.673   4.637   3.643
 6805SOL    HW221315   0.668   4.598   3.801
 6806SOL     OW21316   6.019   3.727   2.653
 6806SOL    HW121317   6.034   3.632   2.627
 6806SOL    HW221318   5.925   3.753   2.631
 6807SOL     OW21319   3.072   3.893   2.413
 6807SOL    HW121320   3.123   3.847   2.486
 6807SOL    HW221321   2.976   3.901   2.438
 6808SOL     OW21322   3.437   7.016   3.100
 6808SOL    HW121323   3.417   6.941   3.037
 6808SOL    HW221324   3.354   0.013   3.151
 6809SOL     OW21325   5.735   2.439   1.100
 6809SOL    HW121326   5.807   2.456   1.167
 6809SOL    HW221327   5.646   2.433   1.146
 6810SOL     OW21328   2.740   0.394   4.273
 6810SOL    HW121329   2.741   0.381   4.174
 6810SOL    HW221330   2.652   0.364   4.310
 6811SOL     OW21331   6.563   1.285   0.966
 6811SOL    HW121332   6.478   1.316   0.924
 6811SOL    HW221333   6.572   1.325   1.057
 6812SOL     OW21334   3.268   4.674   5.417
 6812SOL    HW121335   3.202   4.689   5.344
 6812SOL    HW221336   3.231   4.607   5.482
 6813SOL     OW21337   0.238   3.944   2.047
 6813SOL    HW121338   0.301   3.925   2.122
 6813SOL    HW221339   0.221   3.861   1.995
 6814SOL     OW21340   4.787   1.494   1.878
 6814SOL    HW121341   4.860   1.534   1.933
 6814SOL    HW221342   4.703   1.489   1.932
 6815SOL     OW21343   0.419   6.147   6.973
 6815SOL    HW121344   0.472   6.067   6.944
 6815SOL    HW221345   0.479   6.210   7.023
 6816SOL     OW21346   6.551   0.461   3.782
 6816SOL    HW121347   6.532   0.454   3.880
 6816SOL    HW221348   6.476   0.510   3.737
 6817SOL     OW21349   5.186   0.958   1.883
 6817SOL    HW121350   5.202   1.020   1.805
 6817SOL    HW221351   5.273   0.919   1.912
 6818SOL     OW21352   0.483   0.571   5.332
 6818SOL    HW121353   0.496   0.570   5.431
 6818SOL    HW221354   0.520   0.487   5.293
 6819SOL     OW21355   5.401   4.061   1.385
 6819SOL    HW121356   5.402   4.068   1.485
 6819SOL    HW221357   5.332   4.122   1.348
 6820SOL     OW21358   2.780   4.106   1.385
 6820SOL    HW121359   2.779   4.061   1.474
 6820SOL    HW221360   2.749   4.201   1.395
 6821SOL     OW21361   3.157   3.172   6.053
 6821SOL    HW121362   3.059   3.162   6.070
 6821SOL    HW221363   3.173   3.188   5.956
 6822SOL     OW21364   6.026   3.925   5.540
 6822SOL    HW121365   5.953   3.993   5.528
 6822SOL    HW221366   5.987   3.834   5.541
 6823SOL     OW21367   6.926   3.096   5.612
 6823SOL    HW121368   6.999   3.062   5.672
 6823SOL    HW221369   6.958   3.094   5.517
 6824SOL     OW21370   1.001   0.781   4.228
 6824SOL    HW121371   0.937   0.774   4.152
 6824SOL    HW221372   0.987   0.704   4.290
 6825SOL     OW21373   4.059   4.395   1.274
 6825SOL    HW121374   4.148   4.439   1.280
 6825SOL    HW221375   4.003   4.442   1.205
 6826SOL     OW21376   5.446   0.730   3.609
 6826SOL    HW121377   5.504   0.688   3.679
 6826SOL    HW221378   5.505   0.768   3.537
 6827SOL     OW21379   4.880   5.948   5.538
 6827SOL    HW121380   4.824   5.987   5.465
 6827SOL    HW221381   4.884   5.849   5.529
 6828SOL     OW21382   2.716   2.352   2.509
 6828SOL    HW121383   2.775   2.432   2.514
 6828SOL    HW221384   2.717   2.316   2.416
 6829SOL     OW21385   5.569   6.146   4.360
 6829SOL    HW121386   5.472   6.124   4.374
 6829SOL    HW221387   5.578   6.203   4.278
 6830SOL     OW21388   3.753   6.124   2.252
 6830SOL    HW121389   3.851   6.130   2.237
 6830SOL    HW221390   3.708   6.096   2.167
 6831SOL     OW21391   1.483   0.875   6.905
 6831SOL    HW121392   1.383   0.869   6.905
 6831SOL    HW221393   1.519   0.837   6.820
 6832SOL     OW21394   2.772   2.918   0.116
 6832SOL    HW121395   2.802   2.844   0.176
 6832SOL    HW221396   2.840   2.934   0.045
 6833SOL     OW21397   4.879   4.957   6.892
 6833SOL    HW121398   4.818   5.033   6.870
 6833SOL    HW221399   4.826   4.883   6.934
 6834SOL     OW21400   5.842   5.571   5.280
 6834SOL    HW121401   5.815   5.475   5.288
 6834SOL    HW221402   5.940   5.576   5.260
 6835SOL     OW21403   3.658   0.525   3.038
 6835SOL    HW121404   3.634   0.485   3.126
 6835SOL    HW221405   3.716   0.462   2.987
 6836SOL     OW21406   0.576   4.504   0.091
 6836SOL    HW121407   0.629   4.442   0.149
 6836SOL    HW221408   0.589   4.480   7.020
 6837SOL     OW21409   6.414   1.139   1.539
 6837SOL    HW121410   6.337   1.200   1.556
 6837SOL    HW221411   6.466   1.127   1.624
 6838SOL     OW21412   3.122   3.995   5.801
 6838SOL    HW121413   3.109   3.965   5.706
 6838SOL    HW221414   3.034   4.016   5.842
 6839SOL     OW21415   5.865   2.610   5.896
 6839SOL    HW121416   5.954   2.656   5.889
 6839SOL    HW221417   5.794   2.669   5.859
 6840SOL     OW21418   3.244   6.123   4.476
 6840SOL    HW121419   3.247   6.211   4.429
 6840SOL    HW221420   3.284   6.053   4.417
 6841SOL     OW21421   4.526   6.876   0.676
 6841SOL    HW121422   4.555   6.953   0.733
 6841SOL    HW221423   4.434   6.847   0.703
 6842SOL     OW21424   0.605   3.430   3.196
 6842SOL    HW121425   0.510   3.443   3.167
 6842SOL    HW221426   0.666   3.463   3.123
 6843SOL     OW21427   4.800   2.859   2.232
 6843SOL    HW121428   4.769   2.911   2.152
 6843SOL    HW221429   4.799   2.918   2.313
 6844SOL     OW21430   3.674   7.006   4.659
 6844SOL    HW121431   3.763   6.998   4.615
 6844SOL    HW221432   3.666   6.939   4.732
 6845SOL     OW21433   4.067   4.178   0.420
 6845SOL    HW121434   4.032   4.112   0.353
 6845SOL    HW221435   4.039   4.150   0.512
 6846SOL     OW21436   4.072   3.687   3.543
 6846SOL    HW121437   4.007   3.744   3.592
 6846SOL    HW221438   4.096   3.607   3.598
 6847SOL     OW21439   6.183   3.110   2.511
 6847SOL    HW121440   6.089   3.076   2.504
 6847SOL    HW221441   6.247   3.032   2.506
 6848SOL     OW21442   0.410   5.981   4.531
 6848SOL    HW121443   0.376   6.007   4.441
 6848SOL    HW221444   0.491   5.924   4.521
 6849SOL     OW21445   3.382   0.288   5.108
 6849SOL    HW121446   3.420   0.293   5.201
 6849SOL    HW221447   3.283   0.300   5.113
 6850SOL     OW21448   5.927   3.989   1.751
 6850SOL    HW121449   5.944   4.055   1.824
 6850SOL    HW221450   5.960   4.027   1.664
 6851SOL     OW21451   1.538   5.719   5.709
 6851SOL    HW121452   1.551   5.811   5.748
 6851SOL    HW221453   1.524   5.654   5.784
 6852SOL     OW21454   6.619   5.395   2.146
 6852SOL    HW121455   6.619   5.450   2.063
 6852SOL    HW221456   6.569   5.310   2.130
 6853SOL     OW21457   6.340   4.409   4.634
 6853SOL    HW121458   6.398   4.357   4.697
 6853SOL    HW221459   6.296   4.483   4.684
 6854SOL     OW21460   6.330   1.925   6.637
 6854SOL    HW121461   6.297   1.960   6.725
 6854SOL    HW221462   6.416   1.970   6.613
 6855SOL     OW21463   3.137   6.633   2.477
 6855SOL    HW121464   3.088   6.549   2.454
 6855SOL    HW221465   3.095   6.710   2.430
 6856SOL     OW21466   0.465   5.338   5.582
 6856SOL    HW121467   0.468   5.246   5.622
 6856SOL    HW221468   0.492   5.405   5.651
 6857SOL     OW21469   4.565   1.308   6.733
 6857SOL    HW121470   4.565   1.408   6.738
 6857SOL    HW221471   4.473   1.274   6.752
 6858SOL     OW21472   3.776   2.980   6.873
 6858SOL    HW121473   3.704   3.036   6.831
 6858SOL    HW221474   3.740   2.936   6.955
 6859SOL     OW21475   3.398   0.549   0.410
 6859SOL    HW121476   3.321   0.495   0.445
 6859SOL    HW221477   3.373   0.645   0.410
 6860SOL     OW21478   4.403   3.766   0.053
 6860SOL    HW121479   4.458   3.749   6.997
 6860SOL    HW221480   4.439   3.845   0.102
 6861SOL     OW21481   5.377   3.819   1.262
 6861SOL    HW121482   5.377   3.905   1.313
 6861SOL    HW221483   5.386   3.742   1.326
 6862SOL     OW21484   2.829   5.594   4.050
 6862SOL    HW121485   2.836   5.502   4.089
 6862SOL    HW221486   2.755   5.595   3.982
 6863SOL     OW21487   1.355   2.885   3.479
 6863SOL    HW121488   1.310   2.974   3.471
 6863SOL    HW221489   1.454   2.896   3.467
 6864SOL     OW21490   4.348   5.748   6.598
 6864SOL    HW121491   4.416   5.783   6.662
 6864SOL    HW221492   4.290   5.823   6.566
 6865SOL     OW21493   6.850   3.689   4.687
 6865SOL    HW121494   6.898   3.619   4.634
 6865SOL    HW221495   6.802   3.751   4.625
 6866SOL     OW21496   0.974   3.317   2.400
 6866SOL    HW121497   1.058   3.338   2.349
 6866SOL    HW221498   0.956   3.219   2.396
 6867SOL     OW21499   2.219   5.170   3.015
 6867SOL    HW121500   2.253   5.155   2.922
 6867SOL    HW221501   2.250   5.260   3.047
 6868SOL     OW21502   1.860   5.575   4.930
 6868SOL    HW121503   1.833   5.628   4.849
 6868SOL    HW221504   1.834   5.624   5.013
 6869SOL     OW21505   6.962   3.112   4.837
 6869SOL    HW121506   6.907   3.152   4.910
 6869SOL    HW221507   0.009   3.056   4.875
 6870SOL     OW21508   6.035   3.464   2.585
 6870SOL    HW121509   6.112   3.400   2.588
 6870SOL    HW221510   5.955   3.419   2.545
 6871SOL     OW21511   5.134   5.835   2.026
 6871SOL    HW121512   5.075   5.915   2.014
 6871SOL    HW221513   5.097   5.777   2.098
 6872SOL     OW21514   3.441   3.460   0.756
 6872SOL    HW121515   3.344   3.457   0.733
 6872SOL    HW221516   3.492   3.505   0.682
 6873SOL     OW21517   5.536   4.442   5.243
 6873SOL    HW121518   5.483   4.416   5.162
 6873SOL    HW221519   5.544   4.363   5.304
 6874SOL     OW21520   1.275   2.101   5.768
 6874SOL    HW121521   1.254   2.140   5.857
 6874SOL    HW221522   1.356   2.043   5.774
 6875SOL     OW21523   3.886   1.496   4.062
 6875SOL    HW121524   3.799   1.490   4.111
 6875SOL    HW221525   3.895   1.586   4.021
 6876SOL     OW21526   3.832   5.989   4.429
 6876SOL    HW121527   3.883   6.003   4.344
 6876SOL    HW221528   3.862   5.904   4.472
 6877SOL     OW21529   1.769   3.654   6.020
 6877SOL    HW121530   1.709   3.599   6.078
 6877SOL    HW221531   1.735   3.748   6.016
 6878SOL     OW21532   1.537   2.175   4.165
 6878SOL    HW121533   1.595   2.160   4.245
 6878SOL    HW221534   1.485   2.092   4.146
 6879SOL     OW21535   0.435   1.099   5.489
 6879SOL    HW121536   0.522   1.086   5.536
 6879SOL    HW221537   0.362   1.110   5.557
 6880SOL     OW21538   2.147   3.500   4.547
 6880SOL    HW121539   2.102   3.589   4.544
 6880SOL    HW221540   2.231   3.503   4.493
 6881SOL     OW21541   5.832   5.852   1.534
 6881SOL    HW121542   5.747   5.846   1.483
 6881SOL    HW221543   5.822   5.806   1.622
 6882SOL     OW21544   2.651   6.473   5.494
 6882SOL    HW121545   2.634   6.571   5.487
 6882SOL    HW221546   2.637   6.430   5.404
 6883SOL     OW21547   3.160   6.046   1.748
 6883SOL    HW121548   3.179   6.129   1.695
 6883SOL    HW221549   3.108   6.070   1.829
 6884SOL     OW21550   2.308   5.099   2.722
 6884SOL    HW121551   2.327   5.033   2.650
 6884SOL    HW221552   2.327   5.192   2.689
 6885SOL     OW21553   4.082   5.397   4.735
 6885SOL    HW121554   4.155   5.458   4.764
 6885SOL    HW221555   4.109   5.302   4.752
 6886SOL     OW21556   5.078   1.550   2.499
 6886SOL    HW121557   5.053   1.510   2.410
 6886SOL    HW221558   4.998   1.546   2.560
 6887SOL     OW21559   5.161   0.649   5.388
 6887SOL    HW121560   5.179   0.659   5.486
 6887SOL    HW221561   5.192   0.559   5.358
 6888SOL     OW21562   6.517   6.913   4.654
 6888SOL    HW121563   6.553   6.897   4.562
 6888SOL    HW221564   6.563   6.854   4.719
 6889SOL     OW21565   1.566   4.764   5.987
 6889SOL    HW121566   1.627   4.814   5.925
 6889SOL    HW221567   1.565   4.668   5.961
 6890SOL     OW21568   1.895   0.114   0.910
 6890SOL    HW121569   1.835   0.189   0.882
 6890SOL    HW221570   1.922   0.127   1.005
 6891SOL     OW21571   3.445   5.350   5.292
 6891SOL    HW121572   3.439   5.351   5.193
 6891SOL    HW221573   3.415   5.439   5.328
 6892SOL     OW21574   3.317   1.561   4.646
 6892SOL    HW121575   3.357   1.573   4.737
 6892SOL    HW221576   3.229   1.515   4.655
 6893SOL     OW21577   5.766   0.947   1.631
 6893SOL    HW121578   5.685   0.998   1.661
 6893SOL    HW221579   5.771   0.950   1.531
 6894SOL     OW21580   5.952   5.056   6.817
 6894SOL    HW121581   6.040   5.098   6.838
 6894SOL    HW221582   5.891   5.124   6.778
 6895SOL     OW21583   4.595   5.610   6.552
 6895SOL    HW121584   4.613   5.677   6.480
 6895SOL    HW221585   4.496   5.591   6.556
 6896SOL     OW21586   4.461   0.794   2.952
 6896SOL    HW121587   4.404   0.719   2.987
 6896SOL    HW221588   4.491   0.772   2.859
 6897SOL     OW21589   3.853   0.968   0.904
 6897SOL    HW121590   3.892   0.884   0.867
 6897SOL    HW221591   3.758   0.952   0.931
 6898SOL     OW21592   3.730   1.355   2.493
 6898SOL    HW121593   3.678   1.279   2.456
 6898SOL    HW221594   3.814   1.320   2.536
 6899SOL     OW21595   5.651   6.441   6.432
 6899SOL    HW121596   5.580   6.497   6.475
 6899SOL    HW221597   5.627   6.425   6.336
 6900SOL     OW21598   4.189   1.818   6.501
 6900SOL    HW121599   4.177   1.720   6.510
 6900SOL    HW221600   4.255   1.851   6.568
 6901SOL     OW21601   1.476   1.143   0.506
 6901SOL    HW121602   1.447   1.061   0.456
 6901SOL    HW221603   1.408   1.216   0.493
 6902SOL     OW21604   6.436   5.595   1.887
 6902SOL    HW121605   6.407   5.680   1.929
 6902SOL    HW221606   6.533   5.580   1.907
 6903SOL     OW21607   4.651   4.307   0.412
 6903SOL    HW121608   4.702   4.287   0.329
 6903SOL    HW221609   4.568   4.252   0.415
 6904SOL     OW21610   0.961   1.613   2.963
 6904SOL    HW121611   0.968   1.515   2.979
 6904SOL    HW221612   0.947   1.630   2.865
 6905SOL     OW21613   3.975   5.731   1.450
 6905SOL    HW121614   4.015   5.736   1.358
 6905SOL    HW221615   3.967   5.824   1.487
 6906SOL     OW21616   6.186   6.327   3.105
 6906SOL    HW121617   6.279   6.352   3.080
 6906SOL    HW221618   6.172   6.344   3.202
 6907SOL     OW21619   3.576   0.833   1.153
 6907SOL    HW121620   3.673   0.808   1.155
 6907SOL    HW221621   3.521   0.750   1.158
 6908SOL     OW21622   5.932   6.880   6.803
 6908SOL    HW121623   5.917   6.977   6.787
 6908SOL    HW221624   5.992   6.843   6.732
 6909SOL     OW21625   2.885   2.711   6.689
 6909SOL    HW121626   2.808   2.721   6.752
 6909SOL    HW221627   2.970   2.706   6.741
 6910SOL     OW21628   5.707   0.523   1.387
 6910SOL    HW121629   5.657   0.439   1.363
 6910SOL    HW221630   5.698   0.541   1.485
 6911SOL     OW21631   4.350   0.611   4.879
 6911SOL    HW121632   4.370   0.557   4.961
 6911SOL    HW221633   4.296   0.556   4.815
 6912SOL     OW21634   4.246   4.390   1.722
 6912SOL    HW121635   4.286   4.301   1.744
 6912SOL    HW221636   4.185   4.380   1.644
 6913SOL     OW21637   4.599   5.657   5.661
 6913SOL    HW121638   4.688   5.653   5.706
 6913SOL    HW221639   4.533   5.701   5.721
 6914SOL     OW21640   6.193   5.160   6.848
 6914SOL    HW121641   6.284   5.135   6.880
 6914SOL    HW221642   6.187   5.259   6.837
 6915SOL     OW21643   1.092   5.565   0.930
 6915SOL    HW121644   1.189   5.552   0.947
 6915SOL    HW221645   1.077   5.654   0.887
 6916SOL     OW21646   6.148   0.476   5.485
 6916SOL    HW121647   6.247   0.482   5.500
 6916SOL    HW221648   6.107   0.567   5.497
 6917SOL     OW21649   4.242   0.233   6.890
 6917SOL    HW121650   4.207   0.140   6.874
 6917SOL    HW221651   4.338   0.228   6.919
 6918SOL     OW21652   2.390   2.641   3.926
 6918SOL    HW121653   2.415   2.559   3.978
 6918SOL    HW221654   2.377   2.718   3.989
 6919SOL     OW21655   0.664   6.713   3.657
 6919SOL    HW121656   0.643   6.810   3.651
 6919SOL    HW221657   0.704   6.692   3.746
 6920SOL     OW21658   5.173   5.947   4.685
 6920SOL    HW121659   5.208   6.034   4.718
 6920SOL    HW221660   5.186   5.942   4.586
 6921SOL     OW21661   1.258   6.017   3.779
 6921SOL    HW121662   1.280   6.073   3.699
 6921SOL    HW221663   1.286   6.066   3.862
 6922SOL     OW21664   1.927   6.645   0.669
 6922SOL    HW121665   1.929   6.654   0.769
 6922SOL    HW221666   1.995   6.578   0.640
 6923SOL     OW21667   4.616   6.049   4.141
 6923SOL    HW121668   4.710   6.077   4.121
 6923SOL    HW221669   4.563   6.128   4.174
 6924SOL     OW21670   6.752   5.950   1.546
 6924SOL    HW121671   6.678   5.955   1.478
 6924SOL    HW221672   6.713   5.925   1.634
 6925SOL     OW21673   5.909   5.576   2.763
 6925SOL    HW121674   5.843   5.641   2.727
 6925SOL    HW221675   5.869   5.528   2.842
 6926SOL     OW21676   3.165   4.237   5.460
 6926SOL    HW121677   3.137   4.146   5.488
 6926SOL    HW221678   3.088   4.285   5.419
 6927SOL     OW21679   3.905   3.112   0.888
 6927SOL    HW121680   3.945   3.119   0.980
 6927SOL    HW221681   3.966   3.057   0.830
 6928SOL     OW21682   6.648   0.524   6.261
 6928SOL    HW121683   6.612   0.595   6.321
 6928SOL    HW221684   6.647   0.436   6.310
 6929SOL     OW21685   3.171   4.567   1.449
 6929SOL    HW121686   3.138   4.522   1.532
 6929SOL    HW221687   3.164   4.666   1.461
 6930SOL     OW21688   1.029   0.807   3.033
 6930SOL    HW121689   1.125   0.828   3.051
 6930SOL    HW221690   1.010   0.817   2.935
 6931SOL     OW21691   2.113   0.067   0.306
 6931SOL    HW121692   2.015   0.075   0.324
 6931SOL    HW221693   2.150   0.157   0.283
 6932SOL     OW21694   2.887   2.441   0.195
 6932SOL    HW121695   2.882   2.364   0.132
 6932SOL    HW221696   2.841   2.416   0.281
 6933SOL     OW21697   2.640   5.955   5.684
 6933SOL    HW121698   2.585   6.023   5.637
 6933SOL    HW221699   2.608   5.945   5.778
 6934SOL     OW21700   5.631   4.850   6.024
 6934SOL    HW121701   5.687   4.904   5.962
 6934SOL    HW221702   5.690   4.797   6.085
 6935SOL     OW21703   4.583   5.913   3.473
 6935SOL    HW121704   4.623   5.933   3.562
 6935SOL    HW221705   4.484   5.903   3.482
 6936SOL     OW21706   0.923   4.878   0.502
 6936SOL    HW121707   0.993   4.921   0.560
 6936SOL    HW221708   0.870   4.949   0.456
 6937SOL     OW21709   4.639   6.473   5.690
 6937SOL    HW121710   4.594   6.383   5.689
 6937SOL    HW221711   4.689   6.486   5.605
 6938SOL     OW21712   5.494   2.421   5.102
 6938SOL    HW121713   5.531   2.394   5.191
 6938SOL    HW221714   5.467   2.518   5.106
 6939SOL     OW21715   6.827   4.716   2.069
 6939SOL    HW121716   6.758   4.669   2.014
 6939SOL    HW221717   6.782   4.768   2.141
 6940SOL     OW21718   4.322   0.723   4.498
 6940SOL    HW121719   4.298   0.807   4.547
 6940SOL    HW221720   4.420   0.705   4.510
 6941SOL     OW21721   4.021   3.428   4.436
 6941SOL    HW121722   4.075   3.393   4.512
 6941SOL    HW221723   4.080   3.447   4.358
 6942SOL     OW21724   6.650   1.456   6.979
 6942SOL    HW121725   6.749   1.471   6.981
 6942SOL    HW221726   6.624   1.400   0.032
 6943SOL     OW21727   6.524   6.039   0.129
 6943SOL    HW121728   6.586   6.099   0.078
 6943SOL    HW221729   6.432   6.076   0.125
 6944SOL     OW21730   1.508   6.165   6.281
 6944SOL    HW121731   1.499   6.243   6.219
 6944SOL    HW221732   1.422   6.152   6.331
 6945SOL     OW21733   4.402   1.875   5.644
 6945SOL    HW121734   4.473   1.805   5.630
 6945SOL    HW221735   4.426   1.957   5.593
 6946SOL     OW21736   5.934   3.627   3.554
 6946SOL    HW121737   6.029   3.597   3.546
 6946SOL    HW221738   5.881   3.557   3.601
 6947SOL     OW21739   3.429   7.012   1.934
 6947SOL    HW121740   3.437   0.065   1.996
 6947SOL    HW221741   3.442   6.928   1.986
 6948SOL     OW21742   3.790   2.096   5.232
 6948SOL    HW121743   3.813   2.029   5.162
 6948SOL    HW221744   3.863   2.164   5.239
 6949SOL     OW21745   4.960   1.145   2.532
 6949SOL    HW121746   4.974   1.195   2.618
 6949SOL    HW221747   4.881   1.184   2.485
 6950SOL     OW21748   2.624   2.162   3.549
 6950SOL    HW121749   2.604   2.260   3.547
 6950SOL    HW221750   2.719   2.147   3.522
 6951SOL     OW21751   4.584   5.137   5.199
 6951SOL    HW121752   4.679   5.123   5.229
 6951SOL    HW221753   4.522   5.097   5.266
 6952SOL     OW21754   6.994   4.755   5.291
 6952SOL    HW121755   0.018   4.832   5.332
 6952SOL    HW221756   6.977   4.685   5.361
 6953SOL     OW21757   5.277   2.601   5.174
 6953SOL    HW121758   5.292   2.627   5.270
 6953SOL    HW221759   5.196   2.543   5.167
 6954SOL     OW21760   0.774   4.616   2.354
 6954SOL    HW121761   0.712   4.689   2.324
 6954SOL    HW221762   0.867   4.651   2.359
 6955SOL     OW21763   6.767   6.836   2.525
 6955SOL    HW121764   6.808   6.799   2.608
 6955SOL    HW221765   6.743   6.760   2.464
 6956SOL     OW21766   2.786   4.399   0.935
 6956SOL    HW121767   2.708   4.427   0.990
 6956SOL    HW221768   2.759   4.325   0.873
 6957SOL     OW21769   1.012   3.631   0.063
 6957SOL    HW121770   1.021   3.546   0.115
 6957SOL    HW221771   0.993   3.609   6.992
 6958SOL     OW21772   2.062   3.596   6.784
 6958SOL    HW121773   2.074   3.506   6.742
 6958SOL    HW221774   2.151   3.633   6.809
 6959SOL     OW21775   3.836   1.307   3.782
 6959SOL    HW121776   3.776   1.380   3.813
 6959SOL    HW221777   3.794   1.260   3.704
 6960SOL     OW21778   0.871   4.793   0.203
 6960SOL    HW121779   0.788   4.823   0.156
 6960SOL    HW221780   0.847   4.726   0.273
 6961SOL     OW21781   6.753   1.676   2.875
 6961SOL    HW121782   6.688   1.601   2.885
 6961SOL    HW221783   6.781   1.684   2.779
 6962SOL     OW21784   3.399   3.206   0.897
 6962SOL    HW121785   3.433   3.251   0.814
 6962SOL    HW221786   3.452   3.239   0.976
 6963SOL     OW21787   6.152   6.115   2.314
 6963SOL    HW121788   6.098   6.097   2.231
 6963SOL    HW221789   6.110   6.067   2.391
 6964SOL     OW21790   3.773   5.932   5.306
 6964SOL    HW121791   3.726   5.900   5.223
 6964SOL    HW221792   3.870   5.912   5.299
 6965SOL     OW21793   6.141   1.709   5.828
 6965SOL    HW121794   6.115   1.619   5.792
 6965SOL    HW221795   6.136   1.777   5.755
 6966SOL     OW21796   5.059   2.953   4.119
 6966SOL    HW121797   4.971   2.989   4.088
 6966SOL    HW221798   5.087   2.877   4.060
 6967SOL     OW21799   2.234   2.184   6.004
 6967SOL    HW121800   2.329   2.155   6.012
 6967SOL    HW221801   2.223   2.239   5.921
 6968SOL     OW21802   4.221   0.128   3.331
 6968SOL    HW121803   4.177   0.136   3.242
 6968SOL    HW221804   4.277   0.209   3.349
 6969SOL     OW21805   2.910   2.374   1.439
 6969SOL    HW121806   2.968   2.340   1.365
 6969SOL    HW221807   2.959   2.445   1.490
 6970SOL     OW21808   4.309   4.240   0.670
 6970SOL    HW121809   4.352   4.150   0.674
 6970SOL    HW221810   4.214   4.230   0.642
 6971SOL     OW21811   6.228   1.017   2.112
 6971SOL    HW121812   6.274   1.078   2.176
 6971SOL    HW221813   6.183   1.072   2.041
 6972SOL     OW21814   5.626   5.137   5.098
 6972SOL    HW121815   5.533   5.141   5.063
 6972SOL    HW221816   5.649   5.042   5.124
 6973SOL     OW21817   1.536   3.886   3.194
 6973SOL    HW121818   1.557   3.983   3.205
 6973SOL    HW221819   1.621   3.835   3.182
 6974SOL     OW21820   3.426   4.114   4.968
 6974SOL    HW121821   3.386   4.204   4.986
 6974SOL    HW221822   3.413   4.056   5.048
 6975SOL     OW21823   2.826   0.769   5.703
 6975SOL    HW121824   2.914   0.739   5.666
 6975SOL    HW221825   2.837   0.857   5.748
 6976SOL     OW21826   1.216   6.515   0.478
 6976SOL    HW121827   1.268   6.475   0.554
 6976SOL    HW221828   1.157   6.587   0.513
 6977SOL     OW21829   4.723   2.750   2.641
 6977SOL    HW121830   4.666   2.667   2.638
 6977SOL    HW221831   4.696   2.806   2.719
 6978SOL     OW21832   5.212   1.682   3.036
 6978SOL    HW121833   5.151   1.760   3.021
 6978SOL    HW221834   5.246   1.684   3.129
 6979SOL     OW21835   0.424   4.823   3.798
 6979SOL    HW121836   0.510   4.774   3.783
 6979SOL    HW221837   0.357   4.796   3.729
 6980SOL     OW21838   4.174   1.610   4.157
 6980SOL    HW121839   4.113   1.531   4.144
 6980SOL    HW221840   4.247   1.606   4.090
 6981SOL     OW21841   3.177   3.998   0.050
 6981SOL    HW121842   3.195   4.084   0.098
 6981SOL    HW221843   3.158   3.926   0.117
 6982SOL     OW21844   0.631   6.963   4.344
 6982SOL    HW121845   0.582   6.898   4.402
 6982SOL    HW221846   0.615   0.030   4.378
 6983SOL     OW21847   6.632   0.598   3.239
 6983SOL    HW121848   6.655   0.607   3.336
 6983SOL    HW221849   6.710   0.558   3.190
 6984SOL     OW21850   2.307   0.937   5.444
 6984SOL    HW121851   2.253   0.857   5.419
 6984SOL    HW221852   2.397   0.908   5.476
 6985SOL     OW21853   5.420   6.941   3.421
 6985SOL    HW121854   5.356   6.984   3.485
 6985SOL    HW221855   5.389   6.848   3.401
 6986SOL     OW21856   1.781   6.839   5.011
 6986SOL    HW121857   1.699   6.789   4.986
 6986SOL    HW221858   1.757   6.918   5.068
 6987SOL     OW21859   6.647   3.585   6.498
 6987SOL    HW121860   6.709   3.663   6.496
 6987SOL    HW221861   6.568   3.603   6.440
 6988SOL     OW21862   5.457   1.419   5.625
 6988SOL    HW121863   5.491   1.342   5.679
 6988SOL    HW221864   5.438   1.389   5.532
 6989SOL     OW21865   1.651   3.460   3.627
 6989SOL    HW121866   1.702   3.445   3.712
 6989SOL    HW221867   1.560   3.495   3.647
 6990SOL     OW21868   4.316   3.353   0.819
 6990SOL    HW121869   4.298   3.304   0.734
 6990SOL    HW221870   4.329   3.450   0.800
 6991SOL     OW21871   4.287   4.609   5.447
 6991SOL    HW121872   4.225   4.565   5.512
 6991SOL    HW221873   4.246   4.694   5.414
 6992SOL     OW21874   6.249   6.819   4.669
 6992SOL    HW121875   6.344   6.851   4.664
 6992SOL    HW221876   6.239   6.760   4.749
 6993SOL     OW21877   0.192   6.079   3.596
 6993SOL    HW121878   0.227   6.089   3.502
 6993SOL    HW221879   0.093   6.092   3.595
 6994SOL     OW21880   1.390   3.202   0.172
 6994SOL    HW121881   1.418   3.136   0.102
 6994SOL    HW221882   1.294   3.226   0.158
 6995SOL     OW21883   1.048   4.850   4.074
 6995SOL    HW121884   1.142   4.831   4.103
 6995SOL    HW221885   1.050   4.918   4.001
 6996SOL     OW21886   2.215   6.818   6.403
 6996SOL    HW121887   2.136   6.797   6.461
 6996SOL    HW221888   2.267   6.733   6.385
 6997SOL     OW21889   4.956   6.554   4.468
 6997SOL    HW121890   4.985   6.546   4.563
 6997SOL    HW221891   4.883   6.622   4.461
 6998SOL     OW21892   2.426   2.176   2.756
 6998SOL    HW121893   2.398   2.167   2.660
 6998SOL    HW221894   2.412   2.088   2.802
 6999SOL     OW21895   5.122   2.071   7.009
 6999SOL    HW121896   5.044   2.056   0.044
 6999SOL    HW221897   5.102   2.035   6.919
 7000SOL     OW21898   6.645   0.126   1.094
 7000SOL    HW121899   6.548   0.150   1.090
 7000SOL    HW221900   6.698   0.206   1.121
 7001SOL     OW21901   2.452   1.675   5.693
 7001SOL    HW121902   2.550   1.689   5.680
 7001SOL    HW221903   2.438   1.602   5.759
 7002SOL     OW21904   2.090   4.747   2.270
 7002SOL    HW121905   2.015   4.813   2.284
 7002SOL    HW221906   2.064   4.681   2.200
 7003SOL     OW21907   1.746   6.470   5.955
 7003SOL    HW121908   1.816   6.401   5.977
 7003SOL    HW221909   1.703   6.446   5.868
 7004SOL     OW21910   1.473   4.034   6.934
 7004SOL    HW121911   1.501   3.939   6.921
 7004SOL    HW221912   1.399   4.057   6.870
 7005SOL     OW21913   6.027   6.667   5.905
 7005SOL    HW121914   6.058   6.623   5.989
 7005SOL    HW221915   6.103   6.672   5.840
 7006SOL     OW21916   4.718   4.940   4.298
 7006SOL    HW121917   4.804   4.960   4.345
 7006SOL    HW221918   4.648   4.916   4.366
 7007SOL     OW21919   4.580   5.043   2.476
 7007SOL    HW121920   4.676   5.044   2.449
 7007SOL    HW221921   4.561   4.961   2.530
 7008SOL     OW21922   1.382   4.721   4.689
 7008SOL    HW121923   1.314   4.776   4.738
 7008SOL    HW221924   1.449   4.685   4.755
 7009SOL     OW21925   0.584   4.436   2.711
 7009SOL    HW121926   0.539   4.523   2.696
 7009SOL    HW221927   0.593   4.419   2.809
 7010SOL     OW21928   4.444   4.784   6.690
 7010SOL    HW121929   4.419   4.776   6.787
 7010SOL    HW221930   4.513   4.716   6.668
 7011SOL     OW21931   1.392   1.294   5.353
 7011SOL    HW121932   1.364   1.383   5.316
 7011SOL    HW221933   1.311   1.236   5.364
 7012SOL     OW21934   1.653   1.658   1.509
 7012SOL    HW121935   1.573   1.719   1.513
 7012SOL    HW221936   1.623   1.563   1.513
 7013SOL     OW21937   7.001   1.546   1.521
 7013SOL    HW121938   7.004   1.447   1.537
 7013SOL    HW221939   6.911   1.580   1.546
 7014SOL     OW21940   2.060   5.154   0.359
 7014SOL    HW121941   2.112   5.078   0.320
 7014SOL    HW221942   2.002   5.194   0.288
 7015SOL     OW21943   5.474   1.919   2.703
 7015SOL    HW121944   5.415   1.845   2.671
 7015SOL    HW221945   5.524   1.958   2.626
 7016SOL     OW21946   4.028   4.317   1.529
 7016SOL    HW121947   3.944   4.264   1.542
 7016SOL    HW221948   4.038   4.342   1.433
 7017SOL     OW21949   4.597   2.149   4.817
 7017SOL    HW121950   4.520   2.144   4.754
 7017SOL    HW221951   4.671   2.202   4.774
 7018SOL     OW21952   0.259   3.705   3.153
 7018SOL    HW121953   0.252   3.765   3.073
 7018SOL    HW221954   0.181   3.720   3.213
 7019SOL     OW21955   1.708   5.946   1.120
 7019SOL    HW121956   1.789   5.961   1.177
 7019SOL    HW221957   1.626   5.950   1.177
 7020SOL     OW21958   0.339   6.175   6.078
 7020SOL    HW121959   0.413   6.202   6.139
 7020SOL    HW221960   0.332   6.075   6.077
 7021SOL     OW21961   3.788   6.753   5.682
 7021SOL    HW121962   3.798   6.697   5.765
 7021SOL    HW221963   3.692   6.772   5.666
 7022SOL     OW21964   4.596   5.353   6.414
 7022SOL    HW121965   4.508   5.375   6.373
 7022SOL    HW221966   4.644   5.437   6.437
 7023SOL     OW21967   5.747   3.770   2.649
 7023SOL    HW121968   5.733   3.674   2.673
 7023SOL    HW221969   5.663   3.806   2.607
 7024SOL     OW21970   0.121   6.240   1.458
 7024SOL    HW121971   0.158   6.183   1.384
 7024SOL    HW221972   0.145   6.336   1.442
 7025SOL     OW21973   2.382   0.230   0.022
 7025SOL    HW121974   2.321   0.153   0.044
 7025SOL    HW221975   2.460   0.228   0.085
 7026SOL     OW21976   3.545   1.483   1.039
 7026SOL    HW121977   3.596   1.400   1.013
 7026SOL    HW221978   3.541   1.490   1.138
 7027SOL     OW21979   4.620   6.433   4.236
 7027SOL    HW121980   4.568   6.382   4.167
 7027SOL    HW221981   4.708   6.462   4.197
 7028SOL     OW21982   3.137   0.122   4.277
 7028SOL    HW121983   3.128   0.111   4.376
 7028SOL    HW221984   3.101   0.211   4.250
 7029SOL     OW21985   4.255   1.344   4.852
 7029SOL    HW121986   4.275   1.259   4.900
 7029SOL    HW221987   4.217   1.325   4.762
 7030SOL     OW21988   2.077   3.210   3.666
 7030SOL    HW121989   2.159   3.156   3.648
 7030SOL    HW221990   2.092   3.305   3.637
 7031SOL     OW21991   1.244   0.667   4.588
 7031SOL    HW121992   1.274   0.646   4.681
 7031SOL    HW221993   1.313   0.635   4.523
 7032SOL     OW21994   5.942   2.086   3.668
 7032SOL    HW121995   5.904   2.172   3.634
 7032SOL    HW221996   5.995   2.041   3.596
 7033SOL     OW21997   0.231   0.163   4.415
 7033SOL    HW121998   0.256   0.077   4.460
 7033SOL    HW221999   0.254   0.158   4.318
 7034SOL     OW22000   0.226   5.491   2.716
 7034SOL    HW122001   0.250   5.535   2.803
 7034SOL    HW222002   0.304   5.496   2.654
 7035SOL     OW22003   6.609   5.115   2.232
 7035SOL    HW122004   6.696   5.158   2.207
 7035SOL    HW222005   6.545   5.123   2.156
 7036SOL     OW22006   6.677   4.731   0.673
 7036SOL    HW122007   6.597   4.678   0.645
 7036SOL    HW222008   6.650   4.825   0.693
 7037SOL     OW22009   0.991   0.677   6.451
 7037SOL    HW122010   0.906   0.666   6.399
 7037SOL    HW222011   0.978   0.748   6.520
 7038SOL     OW22012   2.207   3.069   4.099
 7038SOL    HW122013   2.230   3.130   4.175
 7038SOL    HW222014   2.271   2.993   4.096
 7039SOL     OW22015   3.641   2.525   6.120
 7039SOL    HW122016   3.702   2.536   6.199
 7039SOL    HW222017   3.691   2.487   6.043
 7040SOL     OW22018   5.306   2.861   6.891
 7040SOL    HW122019   5.374   2.818   6.951
 7040SOL    HW222020   5.353   2.917   6.822
 7041SOL     OW22021   2.737   1.278   3.243
 7041SOL    HW122022   2.681   1.296   3.324
 7041SOL    HW222023   2.742   1.360   3.186
 7042SOL     OW22024   1.674   0.491   6.100
 7042SOL    HW122025   1.701   0.492   6.196
 7042SOL    HW222026   1.632   0.404   6.077
 7043SOL     OW22027   1.281   2.781   2.538
 7043SOL    HW122028   1.343   2.720   2.587
 7043SOL    HW222029   1.236   2.842   2.603
 7044SOL     OW22030   5.343   6.011   1.657
 7044SOL    HW122031   5.302   5.920   1.657
 7044SOL    HW222032   5.353   6.044   1.563
 7045SOL     OW22033   6.859   4.978   0.478
 7045SOL    HW122034   6.932   4.979   0.546
 7045SOL    HW222035   6.858   4.890   0.432
 7046SOL     OW22036   2.693   1.519   3.758
 7046SOL    HW122037   2.792   1.504   3.760
 7046SOL    HW222038   2.670   1.596   3.818
 7047SOL     OW22039   1.238   1.081   2.824
 7047SOL    HW122040   1.216   1.168   2.780
 7047SOL    HW222041   1.235   1.092   2.924
 7048SOL     OW22042   0.097   5.568   0.666
 7048SOL    HW122043   0.023   5.560   0.732
 7048SOL    HW222044   0.119   5.478   0.629
 7049SOL     OW22045   1.849   0.739   6.998
 7049SOL    HW122046   1.945   0.750   7.021
 7049SOL    HW222047   1.839   0.734   6.898
 7050SOL     OW22048   4.058   3.849   4.514
 7050SOL    HW122049   3.970   3.808   4.538
 7050SOL    HW222050   4.132   3.791   4.548
 7051SOL     OW22051   6.895   6.523   3.182
 7051SOL    HW122052   6.956   6.535   3.103
 7051SOL    HW222053   6.914   6.436   3.226
 7052SOL     OW22054   6.854   0.858   4.013
 7052SOL    HW122055   6.845   0.877   4.111
 7052SOL    HW222056   6.932   0.908   3.977
 7053SOL     OW22057   6.731   4.262   5.795
 7053SOL    HW122058   6.728   4.165   5.775
 7053SOL    HW222059   6.773   4.311   5.719
 7054SOL     OW22060   6.589   1.252   1.339
 7054SOL    HW122061   6.568   1.199   1.421
 7054SOL    HW222062   6.624   1.342   1.366
 7055SOL     OW22063   4.065   1.228   4.348
 7055SOL    HW122064   3.969   1.201   4.359
 7055SOL    HW222065   4.094   1.211   4.254
 7056SOL     OW22066   4.047   5.274   3.690
 7056SOL    HW122067   4.067   5.361   3.646
 7056SOL    HW222068   4.044   5.201   3.621
 7057SOL     OW22069   0.118   6.314   3.289
 7057SOL    HW122070   0.165   6.355   3.212
 7057SOL    HW222071   0.139   6.216   3.293
 7058SOL     OW22072   0.542   4.246   5.171
 7058SOL    HW122073   0.528   4.185   5.093
 7058SOL    HW222074   0.533   4.341   5.142
 7059SOL     OW22075   2.007   0.340   2.422
 7059SOL    HW122076   2.046   0.413   2.366
 7059SOL    HW222077   1.995   0.257   2.367
 7060SOL     OW22078   2.822   6.882   0.849
 7060SOL    HW122079   2.733   6.907   0.886
 7060SOL    HW222080   2.883   6.961   0.853
 7061SOL     OW22081   0.112   1.098   3.341
 7061SOL    HW122082   0.172   1.020   3.359
 7061SOL    HW222083   0.019   1.077   3.373
 7062SOL     OW22084   0.009   1.390   5.740
 7062SOL    HW122085   6.962   1.426   5.800
 7062SOL    HW222086   0.035   1.461   5.675
 7063SOL     OW22087   2.113   6.965   2.112
 7063SOL    HW122088   2.191   6.903   2.120
 7063SOL    HW222089   2.134   0.009   2.042
 7064SOL     OW22090   4.235   2.253   1.000
 7064SOL    HW122091   4.242   2.157   0.971
 7064SOL    HW222092   4.326   2.290   1.016
 7065SOL     OW22093   4.173   3.539   2.619
 7065SOL    HW122094   4.244   3.469   2.619
 7065SOL    HW222095   4.177   3.590   2.533
 7066SOL     OW22096   2.909   5.835   1.302
 7066SOL    HW122097   2.893   5.899   1.378
 7066SOL    HW222098   2.827   5.779   1.288
 7067SOL     OW22099   0.496   4.057   4.427
 7067SOL    HW122100   0.400   4.075   4.448
 7067SOL    HW222101   0.504   4.026   4.332
 7068SOL     OW22102   1.128   0.607   2.832
 7068SOL    HW122103   1.149   0.649   2.743
 7068SOL    HW222104   1.191   0.643   2.901
 7069SOL     OW22105   1.576   4.625   5.242
 7069SOL    HW122106   1.598   4.571   5.322
 7069SOL    HW222107   1.477   4.630   5.231
 7070SOL     OW22108   5.136   5.488   4.064
 7070SOL    HW122109   5.164   5.584   4.070
 7070SOL    HW222110   5.051   5.475   4.114
 7071SOL     OW22111   1.317   0.015   5.007
 7071SOL    HW122112   1.388   0.011   4.936
 7071SOL    HW222113   1.230   0.039   4.965
 7072SOL     OW22114   0.135   6.695   6.769
 7072SOL    HW122115   0.120   6.774   6.709
 7072SOL    HW222116   0.227   6.660   6.756
 7073SOL     OW22117   1.811   1.656   6.437
 7073SOL    HW122118   1.745   1.590   6.401
 7073SOL    HW222119   1.795   1.745   6.394
 7074SOL     OW22120   2.983   1.104   0.664
 7074SOL    HW122121   2.979   1.077   0.760
 7074SOL    HW222122   2.913   1.172   0.645
 7075SOL     OW22123   1.122   5.761   2.631
 7075SOL    HW122124   1.221   5.759   2.617
 7075SOL    HW222125   1.080   5.817   2.559
 7076SOL     OW22126   3.440   1.728   6.355
 7076SOL    HW122127   3.407   1.785   6.430
 7076SOL    HW222128   3.470   1.639   6.391
 7077SOL     OW22129   2.055   5.035   6.181
 7077SOL    HW122130   2.063   5.131   6.209
 7077SOL    HW222131   2.137   4.985   6.208
 7078SOL     OW22132   6.733   1.266   2.773
 7078SOL    HW122133   6.686   1.189   2.817
 7078SOL    HW222134   6.786   1.233   2.695
 7079SOL     OW22135   5.156   5.869   5.608
 7079SOL    HW122136   5.209   5.942   5.650
 7079SOL    HW222137   5.060   5.896   5.603
 7080SOL     OW22138   5.781   6.902   4.170
 7080SOL    HW122139   5.740   6.993   4.174
 7080SOL    HW222140   5.784   6.870   4.075
 7081SOL     OW22141   4.385   1.092   5.432
 7081SOL    HW122142   4.410   1.182   5.398
 7081SOL    HW222143   4.440   1.022   5.386
 7082SOL     OW22144   5.040   1.431   6.305
 7082SOL    HW122145   5.014   1.430   6.208
 7082SOL    HW222146   5.026   1.340   6.344
 7083SOL     OW22147   3.217   0.129   5.912
 7083SOL    HW122148   3.231   0.211   5.856
 7083SOL    HW222149   3.299   0.073   5.910
 7084SOL     OW22150   6.557   6.326   0.344
 7084SOL    HW122151   6.578   6.408   0.396
 7084SOL    HW222152   6.612   6.325   0.260
 7085SOL     OW22153   3.326   1.638   0.995
 7085SOL    HW122154   3.257   1.575   1.031
 7085SOL    HW222155   3.417   1.595   1.002
 7086SOL     OW22156   0.291   1.140   6.210
 7086SOL    HW122157   0.364   1.135   6.278
 7086SOL    HW222158   0.295   1.059   6.151
 7087SOL     OW22159   2.323   2.699   4.883
 7087SOL    HW122160   2.364   2.671   4.796
 7087SOL    HW222161   2.295   2.795   4.878
 7088SOL     OW22162   0.528   1.708   5.843
 7088SOL    HW122163   0.616   1.667   5.868
 7088SOL    HW222164   0.518   1.710   5.744
 7089SOL     OW22165   2.687   1.273   1.484
 7089SOL    HW122166   2.683   1.201   1.553
 7089SOL    HW222167   2.743   1.243   1.407
 7090SOL     OW22168   2.507   2.407   4.859
 7090SOL    HW122169   2.415   2.399   4.899
 7090SOL    HW222170   2.557   2.480   4.904
 7091SOL     OW22171   6.918   6.428   0.897
 7091SOL    HW122172   6.931   6.377   0.982
 7091SOL    HW222173   6.851   6.381   0.840
 7092SOL     OW22174   3.041   2.915   0.008
 7092SOL    HW122175   3.085   2.999   0.041
 7092SOL    HW222176   3.080   2.836   0.055
 7093SOL     OW22177   4.328   3.262   6.001
 7093SOL    HW122178   4.261   3.192   6.028
 7093SOL    HW222179   4.280   3.338   5.956
 7094SOL     OW22180   6.523   0.950   6.319
 7094SOL    HW122181   6.598   1.014   6.337
 7094SOL    HW222182   6.436   1.001   6.316
 7095SOL     OW22183   0.580   4.400   6.867
 7095SOL    HW122184   0.571   4.474   6.800
 7095SOL    HW222185   0.521   4.324   6.840
 7096SOL     OW22186   5.003   0.509   2.873
 7096SOL    HW122187   5.035   0.446   2.944
 7096SOL    HW222188   5.005   0.602   2.910
 7097SOL     OW22189   1.690   0.762   1.915
 7097SOL    HW122190   1.700   0.758   2.014
 7097SOL    HW222191   1.716   0.853   1.882
 7098SOL     OW22192   1.601   0.053   5.812
 7098SOL    HW122193   1.682   7.020   5.812
 7098SOL    HW222194   1.531   0.011   5.754
 7099SOL     OW22195   0.352   1.369   6.071
 7099SOL    HW122196   0.448   1.363   6.096
 7099SOL    HW222197   0.301   1.292   6.110
 7100SOL     OW22198   5.559   2.167   1.199
 7100SOL    HW122199   5.582   2.154   1.103
 7100SOL    HW222200   5.484   2.233   1.206
 7101SOL     OW22201   1.453   1.025   4.168
 7101SOL    HW122202   1.409   0.935   4.159
 7101SOL    HW222203   1.395   1.094   4.124
 7102SOL     OW22204   5.201   3.323   0.980
 7102SOL    HW122205   5.245   3.389   1.041
 7102SOL    HW222206   5.131   3.273   1.031
 7103SOL     OW22207   2.438   6.654   6.452
 7103SOL    HW122208   2.467   6.712   6.529
 7103SOL    HW222209   2.516   6.639   6.391
 7104SOL     OW22210   0.250   2.228   1.557
 7104SOL    HW122211   0.343   2.264   1.552
 7104SOL    HW222212   0.252   2.128   1.557
 7105SOL     OW22213   2.488   4.172   5.334
 7105SOL    HW122214   2.460   4.267   5.318
 7105SOL    HW222215   2.446   4.114   5.264
 7106SOL     OW22216   3.435   2.334   5.297
 7106SOL    HW122217   3.455   2.427   5.326
 7106SOL    HW222218   3.341   2.329   5.264
 7107SOL     OW22219   2.316   0.555   6.674
 7107SOL    HW122220   2.406   0.592   6.649
 7107SOL    HW222221   2.263   0.626   6.720
 7108SOL     OW22222   4.529   6.343   1.972
 7108SOL    HW122223   4.626   6.337   1.993
 7108SOL    HW222224   4.483   6.396   2.043
 7109SOL     OW22225   3.470   6.521   6.425
 7109SOL    HW122226   3.443   6.507   6.521
 7109SOL    HW222227   3.460   6.435   6.375
 7110SOL     OW22228   3.228   5.053   3.081
 7110SOL    HW122229   3.307   5.079   3.136
 7110SOL    HW222230   3.196   5.133   3.030
 7111SOL     OW22231   1.073   2.246   3.916
 7111SOL    HW122232   1.038   2.224   3.825
 7111SOL    HW222233   0.998   2.278   3.974
 7112SOL     OW22234   1.398   6.143   2.324
 7112SOL    HW122235   1.465   6.203   2.368
 7112SOL    HW222236   1.391   6.167   2.227
 7113SOL     OW22237   3.782   4.072   4.950
 7113SOL    HW122238   3.724   4.145   4.915
 7113SOL    HW222239   3.855   4.052   4.884
 7114SOL     OW22240   4.250   6.883   0.807
 7114SOL    HW122241   4.225   6.953   0.875
 7114SOL    HW222242   4.178   6.877   0.738
 7115SOL     OW22243   4.431   1.536   1.555
 7115SOL    HW122244   4.526   1.554   1.580
 7115SOL    HW222245   4.372   1.607   1.594
 7116SOL     OW22246   6.433   3.951   2.937
 7116SOL    HW122247   6.339   3.930   2.963
 7116SOL    HW222248   6.433   4.013   2.858
 7117SOL     OW22249   6.571   6.915   1.878
 7117SOL    HW122250   6.480   6.874   1.868
 7117SOL    HW222251   6.605   6.898   1.970
 7118SOL     OW22252   6.326   2.883   2.497
 7118SOL    HW122253   6.394   2.916   2.432
 7118SOL    HW222254   6.369   2.820   2.562
 7119SOL     OW22255   0.628   2.189   2.550
 7119SOL    HW122256   0.625   2.101   2.597
 7119SOL    HW222257   0.705   2.242   2.585
 7120SOL     OW22258   4.908   6.510   3.256
 7120SOL    HW122259   5.006   6.490   3.247
 7120SOL    HW222260   4.887   6.597   3.211
 7121SOL     OW22261   3.478   6.765   2.064
 7121SOL    HW122262   3.511   6.690   2.006
 7121SOL    HW222263   3.418   6.728   2.135
 7122SOL     OW22264   6.593   6.908   6.966
 7122SOL    HW122265   6.674   6.850   6.970
 7122SOL    HW222266   6.594   6.971   0.018
 7123SOL     OW22267   2.243   5.326   0.481
 7123SOL    HW122268   2.174   5.267   0.439
 7123SOL    HW222269   2.220   5.421   0.463
 7124SOL     OW22270   0.653   5.516   1.445
 7124SOL    HW122271   0.739   5.537   1.399
 7124SOL    HW222272   0.596   5.599   1.449
 7125SOL     OW22273   0.242   6.133   2.786
 7125SOL    HW122274   0.208   6.227   2.778
 7125SOL    HW222275   0.175   6.070   2.747
 7126SOL     OW22276   1.429   4.804   0.592
 7126SOL    HW122277   1.488   4.797   0.673
 7126SOL    HW222278   1.334   4.791   0.618
 7127SOL     OW22279   3.089   0.080   4.550
 7127SOL    HW122280   3.038   0.150   4.601
 7127SOL    HW222281   3.032   7.025   4.538
 7128SOL     OW22282   3.448   4.434   1.604
 7128SOL    HW122283   3.353   4.463   1.590
 7128SOL    HW222284   3.489   4.488   1.677
 7129SOL     OW22285   2.549   1.553   1.741
 7129SOL    HW122286   2.523   1.475   1.798
 7129SOL    HW222287   2.494   1.554   1.658
 7130SOL     OW22288   2.724   6.665   2.200
 7130SOL    HW122289   2.679   6.576   2.194
 7130SOL    HW222290   2.715   6.701   2.293
 7131SOL     OW22291   2.936   1.386   3.785
 7131SOL    HW122292   3.007   1.369   3.716
 7131SOL    HW222293   2.922   1.304   3.840
 7132SOL     OW22294   3.492   3.722   3.257
 7132SOL    HW122295   3.460   3.760   3.170
 7132SOL    HW222296   3.592   3.727   3.261
 7133SOL     OW22297   5.539   4.680   2.137
 7133SOL    HW122298   5.465   4.744   2.156
 7133SOL    HW222299   5.595   4.667   2.219
 7134SOL     OW22300   5.594   4.452   2.993
 7134SOL    HW122301   5.595   4.550   3.014
 7134SOL    HW222302   5.586   4.401   3.078
 7135SOL     OW22303   1.100   2.255   5.506
 7135SOL    HW122304   1.089   2.251   5.605
 7135SOL    HW222305   1.145   2.171   5.474
 7136SOL     OW22306   2.495   1.784   6.626
 7136SOL    HW122307   2.418   1.727   6.600
 7136SOL    HW222308   2.565   1.780   6.555
 7137SOL     OW22309   3.947   1.482   5.201
 7137SOL    HW122310   3.875   1.494   5.270
 7137SOL    HW222311   3.914   1.515   5.112
 7138SOL     OW22312   2.263   3.784   6.425
 7138SOL    HW122313   2.219   3.695   6.414
 7138SOL    HW222314   2.321   3.803   6.346
 7139SOL     OW22315   3.398   1.891   0.052
 7139SOL    HW122316   3.394   1.933   0.142
 7139SOL    HW222317   3.305   1.884   0.014
 7140SOL     OW22318   6.309   3.629   5.328
 7140SOL    HW122319   6.259   3.714   5.314
 7140SOL    HW222320   6.245   3.556   5.353
 7141SOL     OW22321   1.622   6.749   1.225
 7141SOL    HW122322   1.620   6.808   1.143
 7141SOL    HW222323   1.569   6.792   1.298
 7142SOL     OW22324   3.853   6.615   3.889
 7142SOL    HW122325   3.862   6.632   3.987
 7142SOL    HW222326   3.900   6.688   3.838
 7143SOL     OW22327   1.912   2.335   4.117
 7143SOL    HW122328   1.900   2.239   4.144
 7143SOL    HW222329   2.002   2.347   4.076
 7144SOL     OW22330   1.040   3.094   3.590
 7144SOL    HW122331   1.063   3.067   3.683
 7144SOL    HW222332   1.108   3.056   3.527
 7145SOL     OW22333   4.382   6.764   6.345
 7145SOL    HW122334   4.382   6.745   6.247
 7145SOL    HW222335   4.476   6.765   6.379
 7146SOL     OW22336   2.886   4.975   1.672
 7146SOL    HW122337   2.818   5.040   1.704
 7146SOL    HW222338   2.974   5.022   1.661
 7147SOL     OW22339   0.787   1.118   3.707
 7147SOL    HW122340   0.695   1.129   3.743
 7147SOL    HW222341   0.816   1.023   3.717
 7148SOL     OW22342   0.169   1.487   0.427
 7148SOL    HW122343   0.092   1.476   0.491
 7148SOL    HW222344   0.238   1.419   0.447
 7149SOL     OW22345   6.684   0.831   3.766
 7149SOL    HW122346   6.615   0.898   3.740
 7149SOL    HW222347   6.672   0.806   3.862
 7150SOL     OW22348   5.899   4.053   6.979
 7150SOL    HW122349   5.975   4.114   6.958
 7150SOL    HW222350   5.933   3.960   6.993
 7151SOL     OW22351   1.860   6.241   1.399
 7151SOL    HW122352   1.907   6.265   1.314
 7151SOL    HW222353   1.849   6.142   1.405
 7152SOL     OW22354   1.314   2.420   4.010
 7152SOL    HW122355   1.281   2.503   3.966
 7152SOL    HW222356   1.296   2.341   3.950
 7153SOL     OW22357   3.240   1.866   3.044
 7153SOL    HW122358   3.178   1.837   3.117
 7153SOL    HW222359   3.256   1.964   3.051
 7154SOL     OW22360   4.447   5.988   4.460
 7154SOL    HW122361   4.491   6.074   4.434
 7154SOL    HW222362   4.512   5.931   4.510
 7155SOL     OW22363   1.899   0.587   2.930
 7155SOL    HW122364   1.880   0.551   2.838
 7155SOL    HW222365   1.976   0.650   2.925
 7156SOL     OW22366   1.265   5.756   4.989
 7156SOL    HW122367   1.348   5.747   5.045
 7156SOL    HW222368   1.191   5.793   5.044
 7157SOL     OW22369   5.252   4.280   1.286
 7157SOL    HW122370   5.193   4.344   1.335
 7157SOL    HW222371   5.207   4.250   1.202
 7158SOL     OW22372   4.871   0.010   4.308
 7158SOL    HW122373   4.934   0.025   4.384
 7158SOL    HW222374   4.922   7.009   4.227
 7159SOL     OW22375   1.203   5.339   0.254
 7159SOL    HW122376   1.115   5.373   0.218
 7159SOL    HW222377   1.235   5.400   0.327
 7160SOL     OW22378   6.546   1.301   1.990
 7160SOL    HW122379   6.456   1.321   1.950
 7160SOL    HW222380   6.559   1.354   2.073
 7161SOL     OW22381   3.454   4.172   3.842
 7161SOL    HW122382   3.542   4.213   3.867
 7161SOL    HW222383   3.450   4.078   3.876
 7162SOL     OW22384   3.017   4.855   3.607
 7162SOL    HW122385   3.019   4.821   3.701
 7162SOL    HW222386   2.957   4.935   3.602
 7163SOL     OW22387   2.592   6.516   3.113
 7163SOL    HW122388   2.609   6.417   3.104
 7163SOL    HW222389   2.654   6.566   3.054
 7164SOL     OW22390   2.573   1.705   3.895
 7164SOL    HW122391   2.577   1.759   3.979
 7164SOL    HW222392   2.480   1.672   3.881
 7165SOL     OW22393   5.243   6.642   2.444
 7165SOL    HW122394   5.282   6.622   2.534
 7165SOL    HW222395   5.148   6.671   2.455
 7166SOL     OW22396   5.294   5.439   1.869
 7166SOL    HW122397   5.382   5.416   1.910
 7166SOL    HW222398   5.221   5.421   1.935
 7167SOL     OW22399   5.096   2.950   5.559
 7167SOL    HW122400   5.157   2.974   5.483
 7167SOL    HW222401   5.117   3.007   5.638
 7168SOL     OW22402   0.947   1.809   4.689
 7168SOL    HW122403   0.956   1.810   4.788
 7168SOL    HW222404   0.857   1.844   4.663
 7169SOL     OW22405   1.697   2.547   6.497
 7169SOL    HW122406   1.748   2.489   6.560
 7169SOL    HW222407   1.748   2.556   6.411
 7170SOL     OW22408   5.869   4.780   3.849
 7170SOL    HW122409   5.965   4.805   3.854
 7170SOL    HW222410   5.814   4.861   3.829
 7171SOL     OW22411   4.534   2.553   6.157
 7171SOL    HW122412   4.495   2.629   6.103
 7171SOL    HW222413   4.474   2.474   6.150
 7172SOL     OW22414   0.823   0.048   1.180
 7172SOL    HW122415   0.772   0.045   1.094
 7172SOL    HW222416   0.761   0.077   1.254
 7173SOL     OW22417   6.138   6.276   5.483
 7173SOL    HW122418   6.133   6.326   5.570
 7173SOL    HW222419   6.098   6.185   5.495
 7174SOL     OW22420   0.551   5.531   6.769
 7174SOL    HW122421   0.459   5.557   6.798
 7174SOL    HW222422   0.557   5.432   6.759
 7175SOL     OW22423   6.160   2.715   5.624
 7175SOL    HW122424   6.227   2.641   5.618
 7175SOL    HW222425   6.206   2.804   5.616
 7176SOL     OW22426   6.981   3.530   1.260
 7176SOL    HW122427   6.906   3.490   1.313
 7176SOL    HW222428   0.030   3.463   1.253
 7177SOL     OW22429   0.815   5.410   2.476
 7177SOL    HW122430   0.792   5.452   2.563
 7177SOL    HW222431   0.889   5.345   2.489
 7178SOL     OW22432   0.072   1.896   6.364
 7178SOL    HW122433   0.051   1.856   6.453
 7178SOL    HW222434   0.147   1.845   6.321
 7179SOL     OW22435   2.261   4.612   6.209
 7179SOL    HW122436   2.345   4.561   6.227
 7179SOL    HW222437   2.276   4.709   6.226
 7180SOL     OW22438   0.667   6.801   3.203
 7180SOL    HW122439   0.581   6.847   3.179
 7180SOL    HW222440   0.741   6.838   3.147
 7181SOL     OW22441   5.901   6.426   2.359
 7181SOL    HW122442   5.972   6.433   2.289
 7181SOL    HW222443   5.833   6.498   2.344
 7182SOL     OW22444   3.579   3.435   5.845
 7182SOL    HW122445   3.641   3.368   5.804
 7182SOL    HW222446   3.547   3.401   5.933
 7183SOL     OW22447   1.496   4.442   3.321
 7183SOL    HW122448   1.475   4.400   3.410
 7183SOL    HW222449   1.591   4.475   3.322
 7184SOL     OW22450   2.345   5.876   2.709
 7184SOL    HW122451   2.285   5.877   2.789
 7184SOL    HW222452   2.440   5.872   2.738
 7185SOL     OW22453   4.591   2.817   6.703
 7185SOL    HW122454   4.676   2.870   6.704
 7185SOL    HW222455   4.608   2.727   6.742
 7186SOL     OW22456   0.644   0.116   3.860
 7186SOL    HW122457   0.658   0.215   3.852
 7186SOL    HW222458   0.659   0.088   3.955
 7187SOL     OW22459   2.014   5.244   1.534
 7187SOL    HW122460   2.054   5.154   1.550
 7187SOL    HW222461   2.036   5.305   1.610
 7188SOL     OW22462   5.133   0.464   1.539
 7188SOL    HW122463   5.064   0.402   1.503
 7188SOL    HW222464   5.142   0.450   1.638
 7189SOL     OW22465   7.015   0.337   5.105
 7189SOL    HW122466   6.980   0.263   5.163
 7189SOL    HW222467   0.089   0.340   5.112
 7190SOL     OW22468   4.867   4.953   3.243
 7190SOL    HW122469   4.854   4.855   3.234
 7190SOL    HW222470   4.956   4.979   3.203
 7191SOL     OW22471   0.657   3.285   1.712
 7191SOL    HW122472   0.630   3.363   1.768
 7191SOL    HW222473   0.752   3.260   1.731
 7192SOL     OW22474   4.073   5.525   6.463
 7192SOL    HW122475   4.042   5.612   6.425
 7192SOL    HW222476   4.013   5.498   6.538
 7193SOL     OW22477   5.480   1.645   3.764
 7193SOL    HW122478   5.404   1.605   3.713
 7193SOL    HW222479   5.508   1.731   3.720
 7194SOL     OW22480   3.447   1.206   1.341
 7194SOL    HW122481   3.439   1.187   1.439
 7194SOL    HW222482   3.543   1.226   1.319
 7195SOL     OW22483   0.198   5.810   1.980
 7195SOL    HW122484   0.163   5.721   2.010
 7195SOL    HW222485   0.185   5.877   2.053
 7196SOL     OW22486   3.714   2.573   1.725
 7196SOL    HW122487   3.705   2.477   1.754
 7196SOL    HW222488   3.634   2.600   1.673
 7197SOL     OW22489   0.880   2.048   4.264
 7197SOL    HW122490   0.937   2.120   4.304
 7197SOL    HW222491   0.792   2.046   4.311
 7198SOL     OW22492   0.282   6.379   6.501
 7198SOL    HW122493   0.240   6.364   6.411
 7198SOL    HW222494   0.378   6.402   6.488
 7199SOL     OW22495   5.530   6.931   2.863
 7199SOL    HW122496   5.543   7.004   2.930
 7199SOL    HW222497   5.497   6.849   2.909
 7200SOL     OW22498   1.783   2.092   1.990
 7200SOL    HW122499   1.743   2.159   2.054
 7200SOL    HW222500   1.713   2.028   1.961
 7201SOL     OW22501   2.057   5.026   3.277
 7201SOL    HW122502   2.103   4.972   3.206
 7201SOL    HW222503   2.093   5.119   3.278
 7202SOL     OW22504   3.487   0.316   5.365
 7202SOL    HW122505   3.408   0.280   5.414
 7202SOL    HW222506   3.538   0.377   5.426
 7203SOL     OW22507   5.906   0.112   6.716
 7203SOL    HW122508   5.962   0.179   6.667
 7203SOL    HW222509   5.856   0.158   6.789
 7204SOL     OW22510   5.841   1.754   2.885
 7204SOL    HW122511   5.940   1.742   2.879
 7204SOL    HW222512   5.819   1.811   2.965
 7205SOL     OW22513   1.461   4.944   1.224
 7205SOL    HW122514   1.498   5.036   1.225
 7205SOL    HW222515   1.389   4.936   1.294
 7206SOL     OW22516   5.478   1.722   1.490
 7206SOL    HW122517   5.505   1.625   1.497
 7206SOL    HW222518   5.382   1.728   1.464
 7207SOL     OW22519   4.106   6.570   2.305
 7207SOL    HW122520   4.168   6.529   2.372
 7207SOL    HW222521   4.151   6.572   2.215
 7208SOL     OW22522   3.308   7.016   5.181
 7208SOL    HW122523   3.210   0.012   5.180
 7208SOL    HW222524   3.324   6.931   5.129
 7209SOL     OW22525   3.737   3.289   4.706
 7209SOL    HW122526   3.733   3.190   4.690
 7209SOL    HW222527   3.731   3.307   4.804
 7210SOL     OW22528   4.779   0.398   4.049
 7210SOL    HW122529   4.778   0.306   4.009
 7210SOL    HW222530   4.842   0.399   4.127
 7211SOL     OW22531   1.317   5.159   2.677
 7211SOL    HW122532   1.404   5.208   2.684
 7211SOL    HW222533   1.277   5.148   2.769
 7212SOL     OW22534   4.905   0.127   3.511
 7212SOL    HW122535   4.834   0.172   3.565
 7212SOL    HW222536   4.981   0.190   3.496
 7213SOL     OW22537   5.322   6.857   5.299
 7213SOL    HW122538   5.237   6.810   5.322
 7213SOL    HW222539   5.355   6.824   5.210
 7214SOL     OW22540   0.430   5.031   5.663
 7214SOL    HW122541   0.449   5.009   5.567
 7214SOL    HW222542   0.489   4.976   5.722
 7215SOL     OW22543   0.823   3.415   2.658
 7215SOL    HW122544   0.804   3.514   2.655
 7215SOL    HW222545   0.875   3.389   2.576
 7216SOL     OW22546   2.371   1.349   1.944
 7216SOL    HW122547   2.279   1.386   1.960
 7216SOL    HW222548   2.424   1.355   2.029
 7217SOL     OW22549   1.332   2.891   1.981
 7217SOL    HW122550   1.307   2.860   2.073
 7217SOL    HW222551   1.322   2.816   1.917
 7218SOL     OW22552   6.788   2.351   5.903
 7218SOL    HW122553   6.853   2.374   5.975
 7218SOL    HW222554   6.837   2.313   5.825
 7219SOL     OW22555   3.438   0.524   1.362
 7219SOL    HW122556   3.410   0.504   1.268
 7219SOL    HW222557   3.374   0.589   1.402
 7220SOL     OW22558   0.265   0.879   3.397
 7220SOL    HW122559   0.260   0.823   3.314
 7220SOL    HW222560   0.314   0.829   3.469
 7221SOL     OW22561   6.245   4.948   5.708
 7221SOL    HW122562   6.264   4.880   5.779
 7221SOL    HW222563   6.312   5.022   5.714
 7222SOL     OW22564   5.773   6.771   3.109
 7222SOL    HW122565   5.867   6.737   3.109
 7222SOL    HW222566   5.723   6.729   3.033
 7223SOL     OW22567   4.338   0.901   4.912
 7223SOL    HW122568   4.349   0.802   4.915
 7223SOL    HW222569   4.417   0.943   4.868
 7224SOL     OW22570   5.485   1.375   4.711
 7224SOL    HW122571   5.552   1.308   4.744
 7224SOL    HW222572   5.393   1.347   4.740
 7225SOL     OW22573   2.416   0.532   1.265
 7225SOL    HW122574   2.356   0.496   1.193
 7225SOL    HW222575   2.488   0.588   1.224
 7226SOL     OW22576   5.906   6.721   6.319
 7226SOL    HW122577   5.873   6.790   6.254
 7226SOL    HW222578   5.887   6.629   6.282
 7227SOL     OW22579   0.020   2.115   6.256
 7227SOL    HW122580   7.011   2.173   6.330
 7227SOL    HW222581   0.044   2.025   6.294
 7228SOL     OW22582   2.224   0.648   2.959
 7228SOL    HW122583   2.316   0.677   2.987
 7228SOL    HW222584   2.172   0.728   2.929
 7229SOL     OW22585   6.760   0.349   3.493
 7229SOL    HW122586   6.859   0.342   3.489
 7229SOL    HW222587   6.733   0.444   3.506
 7230SOL     OW22588   6.266   5.314   1.416
 7230SOL    HW122589   6.286   5.391   1.477
 7230SOL    HW222590   6.319   5.325   1.331
 7231SOL     OW22591   5.878   1.045   6.612
 7231SOL    HW122592   5.921   0.987   6.543
 7231SOL    HW222593   5.943   1.061   6.687
 7232SOL     OW22594   3.560   3.858   0.843
 7232SOL    HW122595   3.528   3.832   0.752
 7232SOL    HW222596   3.653   3.895   0.836
 7233SOL     OW22597   0.396   2.319   5.818
 7233SOL    HW122598   0.455   2.282   5.747
 7233SOL    HW222599   0.417   2.275   5.905
 7234SOL     OW22600   4.987   1.882   3.091
 7234SOL    HW122601   4.922   1.867   3.165
 7234SOL    HW222602   5.024   1.974   3.097
 7235SOL     OW22603   6.130   3.068   4.549
 7235SOL    HW122604   6.034   3.063   4.520
 7235SOL    HW222605   6.173   3.149   4.508
 7236SOL     OW22606   2.271   1.490   3.351
 7236SOL    HW122607   2.233   1.577   3.383
 7236SOL    HW222608   2.218   1.456   3.274
 7237SOL     OW22609   5.884   5.255   4.930
 7237SOL    HW122610   5.814   5.229   4.996
 7237SOL    HW222611   5.927   5.341   4.957
 7238SOL     OW22612   1.384   1.097   1.557
 7238SOL    HW122613   1.325   1.151   1.496
 7238SOL    HW222614   1.348   1.004   1.564
 7239SOL     OW22615   4.427   1.166   2.232
 7239SOL    HW122616   4.377   1.124   2.157
 7239SOL    HW222617   4.364   1.217   2.290
 7240SOL     OW22618   3.184   3.287   1.524
 7240SOL    HW122619   3.187   3.199   1.573
 7240SOL    HW222620   3.271   3.302   1.478
 7241SOL     OW22621   5.311   6.944   4.637
 7241SOL    HW122622   5.406   6.974   4.644
 7241SOL    HW222623   5.304   6.872   4.568
 7242SOL     OW22624   5.738   4.846   0.844
 7242SOL    HW122625   5.719   4.748   0.845
 7242SOL    HW222626   5.733   4.880   0.750
 7243SOL     OW22627   0.751   5.853   0.422
 7243SOL    HW122628   0.679   5.794   0.459
 7243SOL    HW222629   0.817   5.797   0.371
 7244SOL     OW22630   5.764   1.856   0.970
 7244SOL    HW122631   5.850   1.885   1.011
 7244SOL    HW222632   5.691   1.863   1.038
 7245SOL     OW22633   6.489   1.876   4.522
 7245SOL    HW122634   6.502   1.865   4.621
 7245SOL    HW222635   6.509   1.971   4.497
 7246SOL     OW22636   1.395   5.476   5.341
 7246SOL    HW122637   1.471   5.411   5.344
 7246SOL    HW222638   1.430   5.567   5.318
 7247SOL     OW22639   3.819   5.647   3.709
 7247SOL    HW122640   3.822   5.584   3.632
 7247SOL    HW222641   3.745   5.713   3.696
 7248SOL     OW22642   3.233   0.789   4.489
 7248SOL    HW122643   3.200   0.854   4.558
 7248SOL    HW222644   3.256   0.838   4.405
 7249SOL     OW22645   5.092   3.696   5.977
 7249SOL    HW122646   4.998   3.699   5.942
 7249SOL    HW222647   5.134   3.786   5.969
 7250SOL     OW22648   3.159   3.344   0.302
 7250SOL    HW122649   3.173   3.426   0.246
 7250SOL    HW222650   3.212   3.353   0.387
 7251SOL     OW22651   5.977   1.281   5.135
 7251SOL    HW122652   5.888   1.302   5.093
 7251SOL    HW222653   5.968   1.282   5.234
 7252SOL     OW22654   4.216   3.620   5.230
 7252SOL    HW122655   4.315   3.616   5.243
 7252SOL    HW222656   4.174   3.536   5.264
 7253SOL     OW22657   5.134   4.855   0.916
 7253SOL    HW122658   5.176   4.945   0.903
 7253SOL    HW222659   5.111   4.843   1.012
 7254SOL     OW22660   5.651   6.508   5.154
 7254SOL    HW122661   5.740   6.462   5.158
 7254SOL    HW222662   5.611   6.511   5.245
 7255SOL     OW22663   4.073   3.517   2.872
 7255SOL    HW122664   4.019   3.595   2.904
 7255SOL    HW222665   4.109   3.536   2.781
 7256SOL     OW22666   3.635   4.989   3.864
 7256SOL    HW122667   3.733   4.976   3.851
 7256SOL    HW222668   3.604   4.935   3.942
 7257SOL     OW22669   6.243   4.281   3.094
 7257SOL    HW122670   6.207   4.194   3.129
 7257SOL    HW222671   6.306   4.263   3.019
 7258SOL     OW22672   2.524   0.244   5.636
 7258SOL    HW122673   2.536   0.339   5.607
 7258SOL    HW222674   2.557   0.183   5.563
 7259SOL     OW22675   2.766   5.062   6.501
 7259SOL    HW122676   2.777   5.081   6.403
 7259SOL    HW222677   2.850   5.089   6.549
 7260SOL     OW22678   4.568   1.546   2.714
 7260SOL    HW122679   4.564   1.479   2.641
 7260SOL    HW222680   4.518   1.628   2.687
 7261SOL     OW22681   1.374   4.901   0.967
 7261SOL    HW122682   1.388   4.900   1.066
 7261SOL    HW222683   1.345   4.992   0.938
 7262SOL     OW22684   6.083   0.818   5.254
 7262SOL    HW122685   6.072   0.781   5.346
 7262SOL    HW222686   6.172   0.864   5.247
 7263SOL     OW22687   5.171   6.229   1.820
 7263SOL    HW122688   5.197   6.286   1.742
 7263SOL    HW222689   5.221   6.142   1.815
 7264SOL     OW22690   1.789   6.911   4.678
 7264SOL    HW122691   1.837   6.995   4.705
 7264SOL    HW222692   1.695   6.915   4.711
 7265SOL     OW22693   4.369   3.564   6.295
 7265SOL    HW122694   4.353   3.467   6.314
 7265SOL    HW222695   4.420   3.572   6.209
 7266SOL     OW22696   3.589   1.839   1.940
 7266SOL    HW122697   3.505   1.794   1.909
 7266SOL    HW222698   3.564   1.919   1.996
 7267SOL     OW22699   6.229   3.271   4.746
 7267SOL    HW122700   6.142   3.224   4.761
 7267SOL    HW222701   6.254   3.266   4.650
 7268SOL     OW22702   3.644   0.639   0.495
 7268SOL    HW122703   3.560   0.585   0.507
 7268SOL    HW222704   3.639   0.689   0.409
 7269SOL     OW22705   1.232   0.213   1.979
 7269SOL    HW122706   1.255   0.294   2.033
 7269SOL    HW222707   1.238   0.131   2.037
 7270SOL     OW22708   3.407   1.432   2.209
 7270SOL    HW122709   3.469   1.493   2.258
 7270SOL    HW222710   3.383   1.472   2.120
 7271SOL     OW22711   5.992   5.328   3.797
 7271SOL    HW122712   5.982   5.228   3.788
 7271SOL    HW222713   6.043   5.363   3.718
 7272SOL     OW22714   6.621   2.188   0.851
 7272SOL    HW122715   6.562   2.114   0.820
 7272SOL    HW222716   6.566   2.266   0.880
 7273SOL     OW22717   5.576   5.834   5.512
 7273SOL    HW122718   5.539   5.794   5.427
 7273SOL    HW222719   5.634   5.767   5.558
 7274SOL     OW22720   5.967   4.686   4.357
 7274SOL    HW122721   6.014   4.757   4.409
 7274SOL    HW222722   5.902   4.728   4.294
 7275SOL     OW22723   5.481   6.645   1.322
 7275SOL    HW122724   5.448   6.645   1.416
 7275SOL    HW222725   5.471   6.737   1.283
 7276SOL     OW22726   2.688   2.272   3.944
 7276SOL    HW122727   2.707   2.297   4.039
 7276SOL    HW222728   2.643   2.349   3.898
 7277SOL     OW22729   6.087   1.547   4.019
 7277SOL    HW122730   6.089   1.452   4.051
 7277SOL    HW222731   5.992   1.576   4.009
 7278SOL     OW22732   2.667   2.010   3.880
 7278SOL    HW122733   2.679   2.107   3.900
 7278SOL    HW222734   2.594   1.998   3.814
 7279SOL     OW22735   4.036   3.561   1.147
 7279SOL    HW122736   4.065   3.520   1.233
 7279SOL    HW222737   4.001   3.489   1.086
 7280SOL     OW22738   6.477   2.029   5.393
 7280SOL    HW122739   6.451   2.114   5.440
 7280SOL    HW222740   6.554   1.987   5.442
 7281SOL     OW22741   3.907   6.619   2.062
 7281SOL    HW122742   3.879   6.603   2.157
 7281SOL    HW222743   4.003   6.598   2.051
 7282SOL     OW22744   0.339   3.557   1.612
 7282SOL    HW122745   0.272   3.608   1.558
 7282SOL    HW222746   0.425   3.607   1.615
 7283SOL     OW22747   3.751   6.237   2.770
 7283SOL    HW122748   3.741   6.211   2.866
 7283SOL    HW222749   3.755   6.155   2.714
 7284SOL     OW22750   0.674   1.293   2.903
 7284SOL    HW122751   0.601   1.225   2.910
 7284SOL    HW222752   0.646   1.377   2.951
 7285SOL     OW22753   5.260   2.824   2.334
 7285SOL    HW122754   5.172   2.866   2.356
 7285SOL    HW222755   5.281   2.753   2.401
 7286SOL     OW22756   6.095   1.422   3.705
 7286SOL    HW122757   6.131   1.416   3.798
 7286SOL    HW222758   6.170   1.428   3.640
 7287SOL     OW22759   3.084   1.142   4.130
 7287SOL    HW122760   3.180   1.146   4.159
 7287SOL    HW222761   3.030   1.100   4.203
 7288SOL     OW22762   3.294   1.627   1.977
 7288SOL    HW122763   3.299   1.682   2.060
 7288SOL    HW222764   3.290   1.686   1.897
 7289SOL     OW22765   6.149   2.781   2.083
 7289SOL    HW122766   6.104   2.706   2.132
 7289SOL    HW222767   6.228   2.746   2.033
 7290SOL     OW22768   4.024   1.724   4.681
 7290SOL    HW122769   3.990   1.817   4.694
 7290SOL    HW222770   3.985   1.686   4.597
 7291SOL     OW22771   1.574   0.996   0.785
 7291SOL    HW122772   1.504   0.995   0.857
 7291SOL    HW222773   1.529   0.996   0.696
 7292SOL     OW22774   3.228   0.933   2.732
 7292SOL    HW122775   3.299   0.933   2.802
 7292SOL    HW222776   3.271   0.922   2.642
 7293SOL     OW22777   6.278   1.190   3.903
 7293SOL    HW122778   6.318   1.232   3.822
 7293SOL    HW222779   6.226   1.109   3.877
 7294SOL     OW22780   3.983   0.234   2.853
 7294SOL    HW122781   4.006   0.308   2.791
 7294SOL    HW222782   4.015   0.147   2.815
 7295SOL     OW22783   5.422   3.571   1.409
 7295SOL    HW122784   5.511   3.603   1.441
 7295SOL    HW222785   5.359   3.564   1.487
 7296SOL     OW22786   3.734   6.408   1.966
 7296SOL    HW122787   3.787   6.340   1.914
 7296SOL    HW222788   3.797   6.473   2.008
 7297SOL     OW22789   3.475   7.012   0.328
 7297SOL    HW122790   3.501   0.034   0.244
 7297SOL    HW222791   3.552   6.957   0.361
 7298SOL     OW22792   4.235   5.055   1.273
 7298SOL    HW122793   4.219   4.961   1.303
 7298SOL    HW222794   4.155   5.111   1.297
 7299SOL     OW22795   0.071   3.783   6.208
 7299SOL    HW122796   0.146   3.775   6.142
 7299SOL    HW222797   7.021   3.835   6.167
 7300SOL     OW22798   0.694   4.338   2.288
 7300SOL    HW122799   0.785   4.300   2.273
 7300SOL    HW222800   0.702   4.431   2.324
 7301SOL     OW22801   4.346   2.085   6.885
 7301SOL    HW122802   4.409   2.159   6.861
 7301SOL    HW222803   4.280   2.073   6.811
 7302SOL     OW22804   5.552   2.025   6.641
 7302SOL    HW122805   5.506   1.937   6.645
 7302SOL    HW222806   5.523   2.082   6.718
 7303SOL     OW22807   2.976   1.926   1.748
 7303SOL    HW122808   2.989   2.001   1.813
 7303SOL    HW222809   3.005   1.956   1.657
 7304SOL     OW22810   2.159   6.486   0.662
 7304SOL    HW122811   2.219   6.495   0.582
 7304SOL    HW222812   2.190   6.409   0.718
 7305SOL     OW22813   6.049   0.228   5.993
 7305SOL    HW122814   5.984   0.193   5.927
 7305SOL    HW222815   6.036   0.327   6.004
 7306SOL     OW22816   1.201   3.264   1.394
 7306SOL    HW122817   1.209   3.167   1.419
 7306SOL    HW222818   1.143   3.311   1.461
 7307SOL     OW22819   3.042   0.420   2.021
 7307SOL    HW122820   3.084   0.396   2.108
 7307SOL    HW222821   3.036   0.338   1.963
 7308SOL     OW22822   3.692   1.310   3.267
 7308SOL    HW122823   3.662   1.308   3.171
 7308SOL    HW222824   3.790   1.329   3.271
 7309SOL     OW22825   2.355   5.732   3.825
 7309SOL    HW122826   2.357   5.832   3.836
 7309SOL    HW222827   2.287   5.693   3.887
 7310SOL     OW22828   2.603   2.690   6.838
 7310SOL    HW122829   2.541   2.657   6.767
 7310SOL    HW222830   2.582   2.785   6.859
 7311SOL     OW22831   0.327   6.682   5.954
 7311SOL    HW122832   0.398   6.720   5.894
 7311SOL    HW222833   0.369   6.621   6.020
 7312SOL     OW22834   6.028   2.094   4.884
 7312SOL    HW122835   5.958   2.105   4.814
 7312SOL    HW222836   6.100   2.034   4.850
 7313SOL     OW22837   3.343   0.847   2.473
 7313SOL    HW122838   3.317   0.774   2.409
 7313SOL    HW222839   3.440   0.838   2.496
 7314SOL     OW22840   1.921   4.938   5.537
 7314SOL    HW122841   1.859   4.870   5.498
 7314SOL    HW222842   2.010   4.934   5.491
 7315SOL     OW22843   3.391   5.002   2.830
 7315SOL    HW122844   3.486   4.996   2.861
 7315SOL    HW222845   3.330   5.004   2.910
 7316SOL     OW22846   3.737   1.211   1.212
 7316SOL    HW122847   3.728   1.139   1.281
 7316SOL    HW222848   3.729   1.301   1.256
 7317SOL     OW22849   5.076   2.000   0.750
 7317SOL    HW122850   5.026   1.986   0.665
 7317SOL    HW222851   5.015   1.984   0.827
 7318SOL     OW22852   4.855   6.968   1.275
 7318SOL    HW122853   4.864   6.899   1.203
 7318SOL    HW222854   4.945   7.009   1.292
 7319SOL     OW22855   5.123   6.273   6.670
 7319SOL    HW122856   5.069   6.278   6.754
 7319SOL    HW222857   5.216   6.243   6.691
 7320SOL     OW22858   0.422   2.792   6.907
 7320SOL    HW122859   0.476   2.708   6.909
 7320SOL    HW222860   0.458   2.856   6.975
 7321SOL     OW22861   2.227   2.349   5.788
 7321SOL    HW122862   2.181   2.437   5.797
 7321SOL    HW222863   2.212   2.313   5.695
 7322SOL     OW22864   0.988   2.229   3.668
 7322SOL    HW122865   1.058   2.288   3.628
 7322SOL    HW222866   0.965   2.157   3.603
 7323SOL     OW22867   1.480   1.973   0.727
 7323SOL    HW122868   1.442   1.912   0.657
 7323SOL    HW222869   1.424   1.968   0.810
 7324SOL     OW22870   5.116   3.804   4.383
 7324SOL    HW122871   5.115   3.895   4.424
 7324SOL    HW222872   5.024   3.780   4.353
 7325SOL     OW22873   3.716   1.540   6.130
 7325SOL    HW122874   3.659   1.603   6.077
 7325SOL    HW222875   3.694   1.549   6.227
 7326SOL     OW22876   4.008   6.777   0.340
 7326SOL    HW122877   4.087   6.771   0.280
 7326SOL    HW222878   3.947   6.699   0.324
 7327SOL     OW22879   1.816   4.303   3.582
 7327SOL    HW122880   1.828   4.312   3.680
 7327SOL    HW222881   1.869   4.374   3.535
 7328SOL     OW22882   4.660   5.284   6.045
 7328SOL    HW122883   4.727   5.255   6.114
 7328SOL    HW222884   4.683   5.242   5.957
 7329SOL     OW22885   2.540   3.383   0.981
 7329SOL    HW122886   2.604   3.317   1.019
 7329SOL    HW222887   2.584   3.436   0.909
 7330SOL     OW22888   2.775   3.096   0.786
 7330SOL    HW122889   2.775   3.117   0.884
 7330SOL    HW222890   2.811   3.004   0.771
 7331SOL     OW22891   4.984   2.303   2.451
 7331SOL    HW122892   4.948   2.283   2.360
 7331SOL    HW222893   5.073   2.348   2.443
 7332SOL     OW22894   2.912   6.710   5.377
 7332SOL    HW122895   2.946   6.781   5.315
 7332SOL    HW222896   2.812   6.717   5.384
 7333SOL     OW22897   6.223   1.183   1.145
 7333SOL    HW122898   6.183   1.161   1.234
 7333SOL    HW222899   6.262   1.275   1.148
 7334SOL     OW22900   1.661   4.343   5.010
 7334SOL    HW122901   1.659   4.372   5.105
 7334SOL    HW222902   1.615   4.255   5.001
 7335SOL     OW22903   1.082   3.654   2.484
 7335SOL    HW122904   1.044   3.693   2.568
 7335SOL    HW222905   1.120   3.727   2.427
 7336SOL     OW22906   2.163   6.878   0.984
 7336SOL    HW122907   2.196   6.829   0.903
 7336SOL    HW222908   2.197   6.832   1.066
 7337SOL     OW22909   3.290   1.668   3.827
 7337SOL    HW122910   3.290   1.724   3.745
 7337SOL    HW222911   3.195   1.655   3.858
 7338SOL     OW22912   5.046   3.874   1.284
 7338SOL    HW122913   5.128   3.897   1.232
 7338SOL    HW222914   4.993   3.957   1.303
 7339SOL     OW22915   0.249   6.420   5.020
 7339SOL    HW122916   0.335   6.372   5.040
 7339SOL    HW222917   0.192   6.363   4.961
 7340SOL     OW22918   2.610   5.814   0.018
 7340SOL    HW122919   2.569   5.823   6.953
 7340SOL    HW222920   2.641   5.904   0.050
 7341SOL     OW22921   6.212   5.499   3.707
 7341SOL    HW122922   6.255   5.548   3.631
 7341SOL    HW222923   6.187   5.564   3.778
 7342SOL     OW22924   1.104   5.500   0.597
 7342SOL    HW122925   1.175   5.568   0.614
 7342SOL    HW222926   1.147   5.411   0.580
 7343SOL     OW22927   6.695   2.534   2.995
 7343SOL    HW122928   6.700   2.581   3.084
 7343SOL    HW222929   6.600   2.514   2.973
 7344SOL     OW22930   2.275   0.974   6.514
 7344SOL    HW122931   2.325   1.029   6.447
 7344SOL    HW222932   2.325   0.889   6.530
 7345SOL     OW22933   2.497   6.373   6.699
 7345SOL    HW122934   2.429   6.447   6.692
 7345SOL    HW222935   2.486   6.326   6.786
 7346SOL     OW22936   3.910   4.886   2.465
 7346SOL    HW122937   3.991   4.849   2.511
 7346SOL    HW222938   3.830   4.876   2.525
 7347SOL     OW22939   6.534   3.171   3.093
 7347SOL    HW122940   6.617   3.227   3.094
 7347SOL    HW222941   6.466   3.214   3.035
 7348SOL     OW22942   6.619   1.303   6.039
 7348SOL    HW122943   6.545   1.236   6.036
 7348SOL    HW222944   6.632   1.335   6.133
 7349SOL     OW22945   3.819   1.738   1.565
 7349SOL    HW122946   3.808   1.723   1.467
 7349SOL    HW222947   3.917   1.748   1.586
 7350SOL     OW22948   2.613   1.025   3.141
 7350SOL    HW122949   2.672   1.102   3.165
 7350SOL    HW222950   2.517   1.055   3.144
 7351SOL     OW22951   4.384   4.470   0.832
 7351SOL    HW122952   4.397   4.559   0.788
 7351SOL    HW222953   4.335   4.409   0.771
 7352SOL     OW22954   6.616   0.867   3.147
 7352SOL    HW122955   6.620   0.774   3.185
 7352SOL    HW222956   6.654   0.931   3.213
 7353SOL     OW22957   5.728   1.355   5.415
 7353SOL    HW122958   5.631   1.379   5.407
 7353SOL    HW222959   5.739   1.256   5.406
 7354SOL     OW22960   6.049   4.789   4.804
 7354SOL    HW122961   5.980   4.825   4.741
 7354SOL    HW222962   6.096   4.864   4.850
 7355SOL     OW22963   0.220   5.560   1.322
 7355SOL    HW122964   0.133   5.535   1.280
 7355SOL    HW222965   0.224   5.659   1.336
 7356SOL     OW22966   0.305   2.468   6.078
 7356SOL    HW122967   0.301   2.468   6.178
 7356SOL    HW222968   0.287   2.375   6.044
 7357SOL     OW22969   0.711   1.704   6.833
 7357SOL    HW122970   0.807   1.679   6.837
 7357SOL    HW222971   0.665   1.674   6.916
 7358SOL     OW22972   3.228   0.983   3.657
 7358SOL    HW122973   3.139   0.948   3.627
 7358SOL    HW222974   3.243   1.074   3.617
 7359SOL     OW22975   3.255   2.974   3.509
 7359SOL    HW122976   3.190   2.998   3.436
 7359SOL    HW222977   3.348   2.975   3.472
 7360SOL     OW22978   0.359   4.053   6.496
 7360SOL    HW122979   0.404   3.972   6.534
 7360SOL    HW222980   0.263   4.033   6.477
 7361SOL     OW22981   4.658   6.662   1.525
 7361SOL    HW122982   4.659   6.762   1.518
 7361SOL    HW222983   4.580   6.633   1.580
 7362SOL     OW22984   2.058   6.354   6.518
 7362SOL    HW122985   1.968   6.393   6.536
 7362SOL    HW222986   2.093   6.390   6.431
 7363SOL     OW22987   4.867   2.962   6.787
 7363SOL    HW122988   4.878   3.059   6.767
 7363SOL    HW222989   4.871   2.948   6.886
 7364SOL     OW22990   4.488   0.316   1.248
 7364SOL    HW122991   4.453   0.323   1.341
 7364SOL    HW222992   4.584   0.288   1.250
 7365SOL     OW22993   4.585   0.299   1.583
 7365SOL    HW122994   4.603   0.383   1.531
 7365SOL    HW222995   4.659   0.285   1.649
 7366SOL     OW22996   1.172   6.630   0.221
 7366SOL    HW122997   1.211   6.603   0.309
 7366SOL    HW222998   1.130   6.720   0.230
 7367SOL     OW22999   4.913   2.707   7.006
 7367SOL    HW123000   4.913   2.803   0.011
 7367SOL    HW223001   5.005   2.669   7.015
 7368SOL     OW23002   3.206   3.021   4.295
 7368SOL    HW123003   3.150   2.966   4.357
 7368SOL    HW223004   3.194   3.118   4.315
 7369SOL     OW23005   5.296   1.097   5.806
 7369SOL    HW123006   5.393   1.115   5.789
 7369SOL    HW223007   5.247   1.184   5.815
 7370SOL     OW23008   1.256   5.917   1.114
 7370SOL    HW123009   1.277   5.829   1.156
 7370SOL    HW223010   1.183   5.905   1.047
 7371SOL     OW23011   1.841   4.827   4.307
 7371SOL    HW123012   1.863   4.909   4.360
 7371SOL    HW223013   1.884   4.833   4.217
 7372SOL     OW23014   3.038   0.127   5.144
 7372SOL    HW123015   3.081   0.215   5.163
 7372SOL    HW223016   2.952   0.142   5.096
 7373SOL     OW23017   3.814   0.074   0.804
 7373SOL    HW123018   3.718   0.084   0.831
 7373SOL    HW223019   3.869   0.050   0.884
 7374SOL     OW23020   2.256   3.150   6.835
 7374SOL    HW123021   2.157   3.134   6.840
 7374SOL    HW223022   2.274   3.226   6.771
 7375SOL     OW23023   2.867   6.243   3.113
 7375SOL    HW123024   2.790   6.257   3.050
 7375SOL    HW223025   2.920   6.327   3.120
 7376SOL     OW23026   3.045   4.239   6.435
 7376SOL    HW123027   2.950   4.209   6.429
 7376SOL    HW223028   3.104   4.161   6.458
 7377SOL     OW23029   6.098   6.003   1.515
 7377SOL    HW123030   6.024   5.940   1.492
 7377SOL    HW223031   6.071   6.060   1.591
 7378SOL     OW23032   0.417   2.578   5.727
 7378SOL    HW123033   0.421   2.488   5.772
 7378SOL    HW223034   0.419   2.565   5.628
 7379SOL     OW23035   4.139   0.741   0.960
 7379SOL    HW123036   4.196   0.772   0.884
 7379SOL    HW223037   4.132   0.814   1.028
 7380SOL     OW23038   6.575   2.878   5.888
 7380SOL    HW123039   6.606   2.930   5.968
 7380SOL    HW223040   6.572   2.781   5.911
 7381SOL     OW23041   4.738   2.213   0.556
 7381SOL    HW123042   4.711   2.235   0.650
 7381SOL    HW223043   4.658   2.184   0.504
 7382SOL     OW23044   0.866   5.802   3.807
 7382SOL    HW123045   0.851   5.780   3.903
 7382SOL    HW223046   0.794   5.760   3.752
 7383SOL     OW23047   1.178   4.919   2.826
 7383SOL    HW123048   1.185   4.820   2.841
 7383SOL    HW223049   1.134   4.936   2.738
 7384SOL     OW23050   6.380   1.805   1.138
 7384SOL    HW123051   6.349   1.880   1.079
 7384SOL    HW223052   6.470   1.828   1.176
 7385SOL     OW23053   4.993   0.805   1.564
 7385SOL    HW123054   5.016   0.779   1.658
 7385SOL    HW223055   5.074   0.840   1.518
 7386SOL     OW23056   0.011   2.529   6.270
 7386SOL    HW123057   0.107   2.516   6.293
 7386SOL    HW223058   7.015   2.482   6.184
 7387SOL     OW23059   5.777   6.494   3.859
 7387SOL    HW123060   5.711   6.559   3.896
 7387SOL    HW223061   5.817   6.532   3.775
 7388SOL     OW23062   5.306   4.237   5.189
 7388SOL    HW123063   5.293   4.289   5.274
 7388SOL    HW223064   5.257   4.282   5.115
 7389SOL     OW23065   0.494   3.603   4.666
 7389SOL    HW123066   0.439   3.535   4.617
 7389SOL    HW223067   0.540   3.559   4.743
 7390SOL     OW23068   3.362   0.429   6.258
 7390SOL    HW123069   3.386   0.524   6.239
 7390SOL    HW223070   3.386   0.406   6.352
 7391SOL     OW23071   0.159   4.917   0.116
 7391SOL    HW123072   0.205   4.828   0.121
 7391SOL    HW223073   0.212   4.985   0.168
 7392SOL     OW23074   2.221   4.645   2.472
 7392SOL    HW123075   2.175   4.684   2.392
 7392SOL    HW223076   2.239   4.718   2.538
 7393SOL     OW23077   0.729   4.072   0.152
 7393SOL    HW123078   0.821   4.110   0.154
 7393SOL    HW223079   0.728   3.992   0.093
 7394SOL     OW23080   2.559   2.672   5.978
 7394SOL    HW123081   2.645   2.638   6.016
 7394SOL    HW223082   2.513   2.598   5.929
 7395SOL     OW23083   2.172   0.017   7.000
 7395SOL    HW123084   2.201   6.962   0.028
 7395SOL    HW223085   2.205   0.009   6.906
 7396SOL     OW23086   6.770   0.061   1.720
 7396SOL    HW123087   6.725   7.006   1.760
 7396SOL    HW223088   6.739   0.144   1.766
 7397SOL     OW23089   6.437   4.226   4.459
 7397SOL    HW123090   6.404   4.205   4.367
 7397SOL    HW223091   6.386   4.305   4.495
 7398SOL     OW23092   4.961   6.543   2.704
 7398SOL    HW123093   4.899   6.557   2.781
 7398SOL    HW223094   4.913   6.492   2.632
 7399SOL     OW23095   5.378   4.450   4.961
 7399SOL    HW123096   5.295   4.487   4.918
 7399SOL    HW223097   5.440   4.418   4.889
 7400SOL     OW23098   2.680   3.709   0.466
 7400SOL    HW123099   2.659   3.780   0.399
 7400SOL    HW223100   2.596   3.676   0.509
 7401SOL     OW23101   5.897   2.015   5.132
 7401SOL    HW123102   5.868   2.059   5.217
 7401SOL    HW223103   5.897   2.082   5.058
 7402SOL     OW23104   2.605   6.132   4.481
 7402SOL    HW123105   2.559   6.046   4.503
 7402SOL    HW223106   2.674   6.151   4.551
 7403SOL     OW23107   2.747   2.602   1.324
 7403SOL    HW123108   2.792   2.617   1.412
 7403SOL    HW223109   2.693   2.518   1.329
 7404SOL     OW23110   0.900   1.975   2.619
 7404SOL    HW123111   0.858   2.066   2.616
 7404SOL    HW223112   0.997   1.983   2.596
 7405SOL     OW23113   3.982   4.838   6.312
 7405SOL    HW123114   3.914   4.809   6.379
 7405SOL    HW223115   4.074   4.830   6.352
 7406SOL     OW23116   0.429   6.592   2.236
 7406SOL    HW123117   0.491   6.595   2.157
 7406SOL    HW223118   0.436   6.502   2.280
 7407SOL     OW23119   2.828   0.432   5.972
 7407SOL    HW123120   2.790   0.354   6.022
 7407SOL    HW223121   2.914   0.460   6.014
 7408SOL     OW23122   0.917   3.646   5.082
 7408SOL    HW123123   0.830   3.695   5.090
 7408SOL    HW223124   0.948   3.652   4.987
 7409SOL     OW23125   2.517   6.861   5.201
 7409SOL    HW123126   2.509   6.808   5.116
 7409SOL    HW223127   2.536   6.956   5.180
 7410SOL     OW23128   5.011   5.300   6.419
 7410SOL    HW123129   4.963   5.376   6.376
 7410SOL    HW223130   5.069   5.255   6.351
 7411SOL     OW23131   5.256   5.072   5.909
 7411SOL    HW123132   5.157   5.084   5.903
 7411SOL    HW223133   5.283   5.063   6.005
 7412SOL     OW23134   1.299   1.188   6.549
 7412SOL    HW123135   1.349   1.248   6.610
 7412SOL    HW223136   1.274   1.104   6.598
 7413SOL     OW23137   6.627   3.865   4.114
 7413SOL    HW123138   6.705   3.911   4.072
 7413SOL    HW223139   6.603   3.912   4.199
 7414SOL     OW23140   0.324   4.694   1.687
 7414SOL    HW123141   0.403   4.690   1.625
 7414SOL    HW223142   0.284   4.785   1.683
 7415SOL     OW23143   3.306   1.854   3.590
 7415SOL    HW123144   3.220   1.866   3.539
 7415SOL    HW223145   3.375   1.917   3.554
 7416SOL     OW23146   6.451   6.887   3.135
 7416SOL    HW123147   6.517   6.936   3.078
 7416SOL    HW223148   6.464   6.913   3.231
 7417SOL     OW23149   0.817   5.570   0.625
 7417SOL    HW123150   0.912   5.545   0.607
 7417SOL    HW223151   0.815   5.648   0.687
 7418SOL     OW23152   0.921   3.701   0.614
 7418SOL    HW123153   0.899   3.707   0.517
 7418SOL    HW223154   1.014   3.736   0.629
 7419SOL     OW23155   5.956   1.761   5.431
 7419SOL    HW123156   5.865   1.797   5.451
 7419SOL    HW223157   5.950   1.665   5.403
 7420SOL     OW23158   6.873   5.729   2.359
 7420SOL    HW123159   6.808   5.803   2.378
 7420SOL    HW223160   6.959   5.748   2.406
 7421SOL     OW23161   4.253   2.024   1.250
 7421SOL    HW123162   4.184   2.076   1.299
 7421SOL    HW223163   4.209   1.948   1.201
 7422SOL     OW23164   0.604   1.776   0.479
 7422SOL    HW123165   0.585   1.709   0.551
 7422SOL    HW223166   0.703   1.785   0.467
 7423SOL     OW23167   2.184   4.479   0.071
 7423SOL    HW123168   2.266   4.471   0.013
 7423SOL    HW223169   2.106   4.438   0.024
 7424SOL     OW23170   5.271   0.332   4.930
 7424SOL    HW123171   5.360   0.375   4.946
 7424SOL    HW223172   5.277   0.270   4.852
 7425SOL     OW23173   4.121   0.445   4.716
 7425SOL    HW123174   4.173   0.433   4.631
 7425SOL    HW223175   4.032   0.485   4.696
 7426SOL     OW23176   0.297   1.891   0.014
 7426SOL    HW123177   0.340   1.938   6.962
 7426SOL    HW223178   0.349   1.909   0.098
 7427SOL     OW23179   5.225   5.880   5.011
 7427SOL    HW123180   5.225   5.811   4.939
 7427SOL    HW223181   5.292   5.951   4.990
 7428SOL     OW23182   3.723   1.047   5.428
 7428SOL    HW123183   3.792   1.014   5.492
 7428SOL    HW223184   3.768   1.075   5.343
 7429SOL     OW23185   6.473   6.669   4.007
 7429SOL    HW123186   6.507   6.754   3.966
 7429SOL    HW223187   6.439   6.688   4.099
 7430SOL     OW23188   0.543   4.273   4.575
 7430SOL    HW123189   0.587   4.192   4.614
 7430SOL    HW223190   0.573   4.285   4.480
 7431SOL     OW23191   0.516   4.327   2.487
 7431SOL    HW123192   0.588   4.303   2.422
 7431SOL    HW223193   0.557   4.354   2.574
 7432SOL     OW23194   1.506   6.702   4.968
 7432SOL    HW123195   1.571   6.638   5.008
 7432SOL    HW223196   1.415   6.662   4.968
 7433SOL     OW23197   0.257   6.253   0.787
 7433SOL    HW123198   0.313   6.272   0.706
 7433SOL    HW223199   0.307   6.192   0.848
 7434SOL     OW23200   3.864   0.107   6.948
 7434SOL    HW123201   3.857   0.073   0.016
 7434SOL    HW223202   3.952   0.081   6.909
 7435SOL     OW23203   1.560   6.189   6.971
 7435SOL    HW123204   1.627   6.122   7.001
 7435SOL    HW223205   1.480   6.141   6.933
 7436SOL     OW23206   4.251   3.365   0.159
 7436SOL    HW123207   4.289   3.287   0.110
 7436SOL    HW223208   4.152   3.357   0.163
 7437SOL     OW23209   0.130   6.455   5.670
 7437SOL    HW123210   0.067   6.385   5.636
 7437SOL    HW223211   0.103   6.480   5.763
 7438SOL     OW23212   5.671   4.004   1.686
 7438SOL    HW123213   5.595   4.002   1.751
 7438SOL    HW223214   5.755   3.977   1.733
 7439SOL     OW23215   0.967   6.438   3.544
 7439SOL    HW123216   0.966   6.482   3.633
 7439SOL    HW223217   1.013   6.349   3.550
 7440SOL     OW23218   0.515   1.671   3.897
 7440SOL    HW123219   0.429   1.630   3.930
 7440SOL    HW223220   0.495   1.732   3.821
 7441SOL     OW23221   6.398   0.117   3.621
 7441SOL    HW123222   6.443   0.184   3.562
 7441SOL    HW223223   6.461   0.042   3.641
 7442SOL     OW23224   1.709   0.500   5.792
 7442SOL    HW123225   1.694   0.595   5.765
 7442SOL    HW223226   1.716   0.494   5.892
 7443SOL     OW23227   6.908   1.809   1.752
 7443SOL    HW123228   6.923   1.800   1.851
 7443SOL    HW223229   6.939   1.899   1.722
 7444SOL     OW23230   0.322   2.422   4.964
 7444SOL    HW123231   0.332   2.423   4.864
 7444SOL    HW223232   0.226   2.406   4.988
 7445SOL     OW23233   5.915   3.200   1.729
 7445SOL    HW123234   5.967   3.193   1.814
 7445SOL    HW223235   5.947   3.278   1.676
 7446SOL     OW23236   6.365   3.296   2.904
 7446SOL    HW123237   6.375   3.311   2.806
 7446SOL    HW223238   6.392   3.379   2.953
 7447SOL     OW23239   6.840   3.978   6.327
 7447SOL    HW123240   6.842   4.074   6.299
 7447SOL    HW223241   6.834   3.920   6.246
 7448SOL     OW23242   0.518   6.676   6.341
 7448SOL    HW123243   0.436   6.724   6.371
 7448SOL    HW223244   0.510   6.652   6.244
 7449SOL     OW23245   4.143   0.162   1.296
 7449SOL    HW123246   4.179   0.186   1.387
 7449SOL    HW223247   4.187   0.219   1.227
 7450SOL     OW23248   3.843   0.510   1.934
 7450SOL    HW123249   3.921   0.488   1.992
 7450SOL    HW223250   3.768   0.543   1.991
 7451SOL     OW23251   1.319   0.548   2.550
 7451SOL    HW123252   1.237   0.493   2.538
 7451SOL    HW223253   1.316   0.626   2.488
 7452SOL     OW23254   1.852   6.579   3.311
 7452SOL    HW123255   1.847   6.668   3.356
 7452SOL    HW223256   1.780   6.573   3.242
 7453SOL     OW23257   6.005   5.195   5.723
 7453SOL    HW123258   5.948   5.262   5.676
 7453SOL    HW223259   5.994   5.105   5.680
 7454SOL     OW23260   0.588   3.512   6.673
 7454SOL    HW123261   0.544   3.480   6.589
 7454SOL    HW223262   0.520   3.521   6.746
 7455SOL     OW23263   5.034   0.980   1.039
 7455SOL    HW123264   4.972   1.058   1.044
 7455SOL    HW223265   4.988   0.904   0.993
 7456SOL     OW23266   0.820   3.508   5.579
 7456SOL    HW123267   0.892   3.454   5.535
 7456SOL    HW223268   0.767   3.555   5.508
 7457SOL     OW23269   6.406   6.856   5.835
 7457SOL    HW123270   6.382   6.953   5.833
 7457SOL    HW223271   6.448   6.830   5.748
 7458SOL     OW23272   2.237   0.187   1.227
 7458SOL    HW123273   2.210   0.189   1.130
 7458SOL    HW223274   2.171   0.241   1.281
 7459SOL     OW23275   4.604   6.913   4.535
 7459SOL    HW123276   4.546   6.892   4.614
 7459SOL    HW223277   4.674   6.842   4.525
 7460SOL     OW23278   0.996   5.633   6.891
 7460SOL    HW123279   0.969   5.700   6.959
 7460SOL    HW223280   1.095   5.638   6.877
 7461SOL     OW23281   4.106   1.123   4.089
 7461SOL    HW123282   4.056   1.144   4.005
 7461SOL    HW223283   4.201   1.100   4.065
 7462SOL     OW23284   2.049   0.857   3.032
 7462SOL    HW123285   2.012   0.799   3.104
 7462SOL    HW223286   2.047   0.953   3.060
 7463SOL     OW23287   3.636   3.763   2.177
 7463SOL    HW123288   3.690   3.845   2.158
 7463SOL    HW223289   3.690   3.699   2.232
 7464SOL     OW23290   4.899   6.949   0.526
 7464SOL    HW123291   4.863   6.862   0.492
 7464SOL    HW223292   4.839   7.023   0.495
 7465SOL     OW23293   3.816   0.549   2.378
 7465SOL    HW123294   3.745   0.604   2.334
 7465SOL    HW223295   3.899   0.604   2.389
 7466SOL     OW23296   6.494   0.316   6.896
 7466SOL    HW123297   6.535   0.380   6.961
 7466SOL    HW223298   6.461   0.236   6.945
 7467SOL     OW23299   4.915   1.728   0.848
 7467SOL    HW123300   4.837   1.693   0.796
 7467SOL    HW223301   4.947   1.659   0.912
 7468SOL     OW23302   6.229   3.878   4.407
 7468SOL    HW123303   6.223   3.780   4.388
 7468SOL    HW223304   6.247   3.892   4.504
 7469SOL     OW23305   5.868   0.995   2.201
 7469SOL    HW123306   5.911   1.068   2.147
 7469SOL    HW223307   5.781   0.969   2.157
 7470SOL     OW23308   0.128   3.444   2.671
 7470SOL    HW123309   0.078   3.530   2.668
 7470SOL    HW223310   0.078   3.374   2.620
 7471SOL     OW23311   6.293   4.808   5.936
 7471SOL    HW123312   6.226   4.753   5.987
 7471SOL    HW223313   6.377   4.755   5.924
 7472SOL     OW23314   4.218   5.087   2.887
 7472SOL    HW123315   4.290   5.038   2.936
 7472SOL    HW223316   4.215   5.055   2.792
 7473SOL     OW23317   0.457   3.090   5.100
 7473SOL    HW123318   0.487   3.038   5.180
 7473SOL    HW223319   0.510   3.062   5.020
 7474SOL     OW23320   3.313   1.655   2.874
 7474SOL    HW123321   3.300   1.746   2.913
 7474SOL    HW223322   3.255   1.645   2.793
 7475SOL     OW23323   4.341   1.137   6.475
 7475SOL    HW123324   4.362   1.039   6.467
 7475SOL    HW223325   4.345   1.163   6.572
 7476SOL     OW23326   2.551   0.240   4.830
 7476SOL    HW123327   2.622   0.306   4.854
 7476SOL    HW223328   2.543   0.171   4.902
 7477SOL     OW23329   4.922   3.934   3.984
 7477SOL    HW123330   5.008   3.972   3.951
 7477SOL    HW223331   4.861   3.916   3.907
 7478SOL     OW23332   1.461   4.666   1.731
 7478SOL    HW123333   1.403   4.746   1.716
 7478SOL    HW223334   1.465   4.611   1.648
 7479SOL     OW23335   4.389   0.435   5.370
 7479SOL    HW123336   4.397   0.466   5.275
 7479SOL    HW223337   4.307   0.379   5.380
 7480SOL     OW23338   6.696   5.357   0.916
 7480SOL    HW123339   6.731   5.386   1.005
 7480SOL    HW223340   6.636   5.279   0.927
 7481SOL     OW23341   6.336   6.304   0.512
 7481SOL    HW123342   6.298   6.212   0.513
 7481SOL    HW223343   6.428   6.301   0.473
 7482SOL     OW23344   5.328   6.509   3.908
 7482SOL    HW123345   5.376   6.466   3.832
 7482SOL    HW223346   5.368   6.599   3.926
 7483SOL     OW23347   3.134   0.619   5.892
 7483SOL    HW123348   3.234   0.624   5.888
 7483SOL    HW223349   3.100   0.565   5.816
 7484SOL     OW23350   3.622   0.333   2.250
 7484SOL    HW123351   3.656   0.402   2.186
 7484SOL    HW223352   3.659   0.350   2.341
 7485SOL     OW23353   1.113   0.073   5.234
 7485SOL    HW123354   1.213   0.071   5.229
 7485SOL    HW223355   1.076   0.096   5.144
 7486SOL     OW23356   1.017   1.757   5.222
 7486SOL    HW123357   0.981   1.665   5.240
 7486SOL    HW223358   0.946   1.812   5.177
 7487SOL     OW23359   3.677   5.552   3.111
 7487SOL    HW123360   3.616   5.475   3.129
 7487SOL    HW223361   3.641   5.634   3.155
 7488SOL     OW23362   3.846   0.752   5.593
 7488SOL    HW123363   3.909   0.695   5.646
 7488SOL    HW223364   3.886   0.771   5.504
 7489SOL     OW23365   0.050   3.767   3.304
 7489SOL    HW123366   0.079   3.822   3.382
 7489SOL    HW223367   6.987   3.725   3.323
 7490SOL     OW23368   5.768   1.047   3.306
 7490SOL    HW123369   5.815   1.098   3.235
 7490SOL    HW223370   5.803   0.953   3.308
 7491SOL     OW23371   0.110   6.858   6.997
 7491SOL    HW123372   0.109   6.812   6.908
 7491SOL    HW223373   0.188   6.826   0.026
 7492SOL     OW23374   2.161   2.336   4.000
 7492SOL    HW123375   2.186   2.378   3.913
 7492SOL    HW223376   2.181   2.238   3.998
 7493SOL     OW23377   5.363   5.040   6.928
 7493SOL    HW123378   5.275   4.993   6.920
 7493SOL    HW223379   5.427   4.981   6.976
 7494SOL     OW23380   5.111   2.049   1.214
 7494SOL    HW123381   5.143   1.955   1.228
 7494SOL    HW223382   5.168   2.094   1.146
 7495SOL     OW23383   0.716   1.693   2.286
 7495SOL    HW123384   0.624   1.707   2.323
 7495SOL    HW223385   0.759   1.781   2.267
 7496SOL     OW23386   0.201   5.645   5.879
 7496SOL    HW123387   0.189   5.657   5.978
 7496SOL    HW223388   0.278   5.701   5.848
 7497SOL     OW23389   2.086   5.133   2.416
 7497SOL    HW123390   2.161   5.079   2.456
 7497SOL    HW223391   2.019   5.071   2.375
 7498SOL     OW23392   5.533   2.081   4.477
 7498SOL    HW123393   5.586   2.007   4.436
 7498SOL    HW223394   5.476   2.044   4.551
 7499SOL     OW23395   4.046   4.976   4.142
 7499SOL    HW123396   3.970   4.933   4.191
 7499SOL    HW223397   4.011   5.040   4.074
 7500SOL     OW23398   4.680   4.102   1.813
 7500SOL    HW123399   4.734   4.184   1.795
 7500SOL    HW223400   4.590   4.128   1.848
 7501SOL     OW23401   0.325   4.812   4.059
 7501SOL    HW123402   0.349   4.818   3.962
 7501SOL    HW223403   0.403   4.775   4.110
 7502SOL     OW23404   1.694   2.136   4.391
 7502SOL    HW123405   1.708   2.228   4.428
 7502SOL    HW223406   1.627   2.087   4.447
 7503SOL     OW23407   2.315   2.910   6.596
 7503SOL    HW123408   2.397   2.967   6.587
 7503SOL    HW223409   2.327   2.826   6.542
 7504SOL     OW23410   3.670   5.250   3.895
 7504SOL    HW123411   3.662   5.155   3.864
 7504SOL    HW223412   3.597   5.269   3.961
 7505SOL     OW23413   1.643   1.421   4.403
 7505SOL    HW123414   1.598   1.332   4.394
 7505SOL    HW223415   1.579   1.486   4.446
 7506SOL     OW23416   3.449   1.423   3.330
 7506SOL    HW123417   3.394   1.426   3.247
 7506SOL    HW223418   3.538   1.382   3.311
 7507SOL     OW23419   1.796   6.339   5.610
 7507SOL    HW123420   1.714   6.330   5.667
 7507SOL    HW223421   1.773   6.320   5.515
 7508SOL     OW23422   4.875   5.441   4.250
 7508SOL    HW123423   4.803   5.461   4.184
 7508SOL    HW223424   4.842   5.373   4.315
 7509SOL     OW23425   4.044   3.653   6.538
 7509SOL    HW123426   4.099   3.720   6.589
 7509SOL    HW223427   4.030   3.685   6.445
 7510SOL     OW23428   3.341   4.015   4.743
 7510SOL    HW123429   3.367   4.045   4.835
 7510SOL    HW223430   3.378   3.923   4.726
 7511SOL     OW23431   0.857   0.461   2.223
 7511SOL    HW123432   0.923   0.530   2.194
 7511SOL    HW223433   0.811   0.422   2.143
 7512SOL     OW23434   2.019   2.846   1.810
 7512SOL    HW123435   2.079   2.774   1.776
 7512SOL    HW223436   2.071   2.930   1.822
 7513SOL     OW23437   1.357   3.426   6.103
 7513SOL    HW123438   1.306   3.356   6.053
 7513SOL    HW223439   1.312   3.514   6.092
 7514SOL     OW23440   3.097   5.638   3.283
 7514SOL    HW123441   3.090   5.650   3.382
 7514SOL    HW223442   3.126   5.544   3.263
 7515SOL     OW23443   0.322   4.927   2.749
 7515SOL    HW123444   0.298   5.006   2.693
 7515SOL    HW223445   0.355   4.958   2.838
 7516SOL     OW23446   1.153   1.774   2.189
 7516SOL    HW123447   1.216   1.697   2.194
 7516SOL    HW223448   1.088   1.759   2.114
 7517SOL     OW23449   0.585   4.901   0.791
 7517SOL    HW123450   0.542   4.982   0.752
 7517SOL    HW223451   0.528   4.864   0.864
 7518SOL     OW23452   5.178   4.947   3.645
 7518SOL    HW123453   5.261   4.910   3.603
 7518SOL    HW223454   5.098   4.919   3.592
 7519SOL     OW23455   1.320   0.167   3.993
 7519SOL    HW123456   1.307   0.220   4.077
 7519SOL    HW223457   1.318   0.069   4.014
 7520SOL     OW23458   2.812   0.166   3.886
 7520SOL    HW123459   2.805   0.067   3.899
 7520SOL    HW223460   2.769   0.191   3.799
 7521SOL     OW23461   4.298   3.373   5.520
 7521SOL    HW123462   4.258   3.315   5.449
 7521SOL    HW223463   4.227   3.430   5.560
 7522SOL     OW23464   1.729   0.015   2.416
 7522SOL    HW123465   1.792   0.071   2.363
 7522SOL    HW223466   1.643   0.004   2.366
 7523SOL     OW23467   6.403   6.726   6.556
 7523SOL    HW123468   6.393   6.809   6.611
 7523SOL    HW223469   6.500   6.713   6.534
 7524SOL     OW23470   6.158   1.091   4.471
 7524SOL    HW123471   6.162   1.179   4.518
 7524SOL    HW223472   6.096   1.030   4.521
 7525SOL     OW23473   0.972   6.671   0.571
 7525SOL    HW123474   0.952   6.641   0.665
 7525SOL    HW223475   0.897   6.644   0.511
 7526SOL     OW23476   3.634   3.590   4.884
 7526SOL    HW123477   3.719   3.576   4.833
 7526SOL    HW223478   3.617   3.688   4.895
 7527SOL     OW23479   4.758   5.679   2.100
 7527SOL    HW123480   4.722   5.660   2.191
 7527SOL    HW223481   4.731   5.606   2.037
 7528SOL     OW23482   5.955   3.543   6.412
 7528SOL    HW123483   5.953   3.613   6.340
 7528SOL    HW223484   6.044   3.499   6.413
 7529SOL     OW23485   2.942   0.216   4.785
 7529SOL    HW123486   2.943   0.295   4.725
 7529SOL    HW223487   2.939   0.246   4.880
 7530SOL     OW23488   6.842   3.071   3.395
 7530SOL    HW123489   6.766   3.061   3.330
 7530SOL    HW223490   6.855   2.985   3.444
 7531SOL     OW23491   2.865   1.481   4.572
 7531SOL    HW123492   2.811   1.543   4.515
 7531SOL    HW223493   2.943   1.446   4.519
 7532SOL     OW23494   4.811   4.759   2.386
 7532SOL    HW123495   4.726   4.707   2.382
 7532SOL    HW223496   4.833   4.780   2.481
 7533SOL     OW23497   3.871   0.526   4.618
 7533SOL    HW123498   3.834   0.446   4.571
 7533SOL    HW223499   3.800   0.567   4.675
 7534SOL     OW23500   5.611   6.625   4.080
 7534SOL    HW123501   5.527   6.670   4.051
 7534SOL    HW223502   5.632   6.652   4.174
 7535SOL     OW23503   3.459   4.554   0.774
 7535SOL    HW123504   3.395   4.484   0.804
 7535SOL    HW223505   3.419   4.644   0.789
 7536SOL     OW23506   3.709   6.014   4.780
 7536SOL    HW123507   3.621   5.968   4.763
 7536SOL    HW223508   3.778   5.947   4.806
 7537SOL     OW23509   2.314   4.589   5.461
 7537SOL    HW123510   2.367   4.607   5.543
 7537SOL    HW223511   2.363   4.625   5.381
 7538SOL     OW23512   3.018   3.233   3.661
 7538SOL    HW123513   2.953   3.237   3.736
 7538SOL    HW223514   3.108   3.206   3.695
 7539SOL     OW23515   1.678   2.428   4.541
 7539SOL    HW123516   1.669   2.521   4.506
 7539SOL    HW223517   1.596   2.404   4.594
 7540SOL     OW23518   2.210   0.791   6.843
 7540SOL    HW123519   2.154   0.805   6.925
 7540SOL    HW223520   2.234   0.881   6.804
 7541SOL     OW23521   6.935   2.235   5.684
 7541SOL    HW123522   7.018   2.262   5.732
 7541SOL    HW223523   6.947   2.251   5.586
 7542SOL     OW23524   1.739   0.265   5.692
 7542SOL    HW123525   1.672   0.211   5.744
 7542SOL    HW223526   1.734   0.361   5.720
 7543SOL     OW23527   3.466   2.697   0.236
 7543SOL    HW123528   3.496   2.780   0.283
 7543SOL    HW223529   3.535   2.626   0.248
 7544SOL     OW23530   1.040   2.396   2.443
 7544SOL    HW123531   1.132   2.430   2.422
 7544SOL    HW223532   0.973   2.443   2.386
 7545SOL     OW23533   4.889   0.417   3.312
 7545SOL    HW123534   4.931   0.328   3.332
 7545SOL    HW223535   4.888   0.473   3.395
 7546SOL     OW23536   5.192   6.984   6.031
 7546SOL    HW123537   5.221   7.023   5.944
 7546SOL    HW223538   5.239   0.006   6.106
 7547SOL     OW23539   2.751   0.008   0.186
 7547SOL    HW123540   2.772   0.048   0.275
 7547SOL    HW223541   2.673   6.972   0.194
 7548SOL     OW23542   0.984   3.526   1.365
 7548SOL    HW123543   0.884   3.521   1.365
 7548SOL    HW223544   1.019   3.496   1.277
 7549SOL     OW23545   5.871   2.181   2.063
 7549SOL    HW123546   5.802   2.194   2.134
 7549SOL    HW223547   5.847   2.233   1.982
 7550SOL     OW23548   1.188   4.943   1.415
 7550SOL    HW123549   1.093   4.949   1.443
 7550SOL    HW223550   1.206   4.852   1.377
 7551SOL     OW23551   5.023   4.375   6.901
 7551SOL    HW123552   4.952   4.305   6.910
 7551SOL    HW223553   5.103   4.348   6.953
 7552SOL     OW23554   3.471   5.614   3.814
 7552SOL    HW123555   3.434   5.702   3.782
 7552SOL    HW223556   3.444   5.542   3.750
 7553SOL     OW23557   4.087   4.103   5.936
 7553SOL    HW123558   4.175   4.146   5.918
 7553SOL    HW223559   4.018   4.139   5.873
 7554SOL     OW23560   6.926   1.636   0.599
 7554SOL    HW123561   6.985   1.661   0.522
 7554SOL    HW223562   6.940   1.540   0.623
 7555SOL     OW23563   1.520   6.049   5.716
 7555SOL    HW123564   1.614   6.042   5.681
 7555SOL    HW223565   1.456   6.055   5.639
 7556SOL     OW23566   6.530   3.764   3.880
 7556SOL    HW123567   6.568   3.778   3.971
 7556SOL    HW223568   6.599   3.789   3.811
 7557SOL     OW23569   4.018   3.437   0.762
 7557SOL    HW123570   3.991   3.370   0.693
 7557SOL    HW223571   4.116   3.452   0.758
 7558SOL     OW23572   1.559   2.182   3.088
 7558SOL    HW123573   1.610   2.184   3.002
 7558SOL    HW223574   1.623   2.176   3.164
 7559SOL     OW23575   1.481   4.743   0.319
 7559SOL    HW123576   1.567   4.691   0.319
 7559SOL    HW223577   1.460   4.772   0.413
 7560SOL     OW23578   4.373   0.084   5.288
 7560SOL    HW123579   4.282   0.063   5.252
 7560SOL    HW223580   4.399   0.012   5.353
 7561SOL     OW23581   7.017   3.369   0.251
 7561SOL    HW123582   6.977   3.404   0.336
 7561SOL    HW223583   0.047   3.441   0.208
 7562SOL     OW23584   4.887   6.437   5.060
 7562SOL    HW123585   4.942   6.355   5.046
 7562SOL    HW223586   4.832   6.427   5.143
 7563SOL     OW23587   2.668   1.401   2.893
 7563SOL    HW123588   2.648   1.485   2.842
 7563SOL    HW223589   2.642   1.322   2.838
 7564SOL     OW23590   4.855   6.201   4.114
 7564SOL    HW123591   4.939   6.147   4.103
 7564SOL    HW223592   4.849   6.235   4.208
 7565SOL     OW23593   5.021   5.387   6.720
 7565SOL    HW123594   5.027   5.418   6.625
 7565SOL    HW223595   4.964   5.306   6.726
 7566SOL     OW23596   1.608   5.987   4.966
 7566SOL    HW123597   1.688   6.004   4.908
 7566SOL    HW223598   1.527   6.030   4.926
 7567SOL     OW23599   2.590   2.686   0.264
 7567SOL    HW123600   2.535   2.759   0.223
 7567SOL    HW223601   2.622   2.625   0.191
 7568SOL     OW23602   4.449   4.490   2.793
 7568SOL    HW123603   4.363   4.496   2.743
 7568SOL    HW223604   4.507   4.419   2.751
 7569SOL     OW23605   3.913   0.004   1.042
 7569SOL    HW123606   3.891   0.099   1.066
 7569SOL    HW223607   3.922   6.974   1.125
 7570SOL     OW23608   5.992   5.748   4.950
 7570SOL    HW123609   5.913   5.775   4.896
 7570SOL    HW223610   5.970   5.667   5.004
 7571SOL     OW23611   5.678   4.002   1.368
 7571SOL    HW123612   5.716   3.989   1.460
 7571SOL    HW223613   5.585   4.036   1.375
 7572SOL     OW23614   0.677   1.231   3.487
 7572SOL    HW123615   0.737   1.184   3.552
 7572SOL    HW223616   0.712   1.324   3.472
 7573SOL     OW23617   2.887   5.502   5.494
 7573SOL    HW123618   2.927   5.531   5.581
 7573SOL    HW223619   2.918   5.409   5.472
 7574SOL     OW23620   5.095   5.908   2.638
 7574SOL    HW123621   5.066   5.912   2.543
 7574SOL    HW223622   5.015   5.908   2.698
 7575SOL     OW23623   4.840   2.704   4.620
 7575SOL    HW123624   4.922   2.760   4.635
 7575SOL    HW223625   4.797   2.685   4.708
 7576SOL     OW23626   6.620   3.685   1.540
 7576SOL    HW123627   6.594   3.591   1.565
 7576SOL    HW223628   6.683   3.721   1.608
 7577SOL     OW23629   4.593   0.695   4.470
 7577SOL    HW123630   4.654   0.618   4.450
 7577SOL    HW223631   4.564   0.738   4.384
 7578SOL     OW23632   2.988   5.477   4.687
 7578SOL    HW123633   2.994   5.420   4.604
 7578SOL    HW223634   3.078   5.513   4.709
 7579SOL     OW23635   4.580   2.529   3.703
 7579SOL    HW123636   4.613   2.545   3.796
 7579SOL    HW223637   4.615   2.600   3.642
 7580SOL     OW23638   2.121   3.623   2.321
 7580SOL    HW123639   2.025   3.609   2.297
 7580SOL    HW223640   2.179   3.568   2.261
 7581SOL     OW23641   5.524   1.091   1.182
 7581SOL    HW123642   5.570   1.129   1.102
 7581SOL    HW223643   5.443   1.040   1.153
 7582SOL     OW23644   2.940   1.909   1.040
 7582SOL    HW123645   2.907   2.001   1.063
 7582SOL    HW223646   3.040   1.910   1.039
 7583SOL     OW23647   6.739   3.878   2.724
 7583SOL    HW123648   6.756   3.946   2.795
 7583SOL    HW223649   6.825   3.846   2.686
 7584SOL     OW23650   1.963   1.968   1.311
 7584SOL    HW123651   1.970   1.884   1.257
 7584SOL    HW223652   2.047   1.980   1.364
 7585SOL     OW23653   1.826   5.406   6.441
 7585SOL    HW123654   1.734   5.374   6.462
 7585SOL    HW223655   1.824   5.506   6.429
 7586SOL     OW23656   2.187   1.025   2.315
 7586SOL    HW123657   2.259   1.040   2.382
 7586SOL    HW223658   2.188   1.098   2.247
 7587SOL     OW23659   1.877   0.821   6.110
 7587SOL    HW123660   1.792   0.868   6.086
 7587SOL    HW223661   1.952   0.859   6.057
 7588SOL     OW23662   1.417   4.191   1.614
 7588SOL    HW123663   1.494   4.218   1.672
 7588SOL    HW223664   1.331   4.219   1.656
 7589SOL     OW23665   5.398   6.249   6.658
 7589SOL    HW123666   5.399   6.330   6.599
 7589SOL    HW223667   5.472   6.256   6.725
 7590SOL     OW23668   1.603   0.298   6.499
 7590SOL    HW123669   1.546   0.262   6.425
 7590SOL    HW223670   1.641   0.223   6.553
 7591SOL     OW23671   6.512   5.585   0.116
 7591SOL    HW123672   6.540   5.493   0.087
 7591SOL    HW223673   6.510   5.645   0.036
 7592SOL     OW23674   4.881   5.569   6.047
 7592SOL    HW123675   4.819   5.563   6.125
 7592SOL    HW223676   4.975   5.554   6.078
 7593SOL     OW23677   6.181   3.619   0.496
 7593SOL    HW123678   6.095   3.663   0.470
 7593SOL    HW223679   6.210   3.654   0.585
 7594SOL     OW23680   0.754   6.580   3.442
 7594SOL    HW123681   0.842   6.534   3.453
 7594SOL    HW223682   0.727   6.621   3.529
 7595SOL     OW23683   6.612   2.368   0.079
 7595SOL    HW123684   6.532   2.344   0.135
 7595SOL    HW223685   6.644   2.459   0.104
 7596SOL     OW23686   4.756   4.465   1.963
 7596SOL    HW123687   4.822   4.399   1.927
 7596SOL    HW223688   4.698   4.420   2.032
 7597SOL     OW23689   2.865   6.021   1.511
 7597SOL    HW123690   2.862   5.984   1.604
 7597SOL    HW223691   2.877   6.120   1.514
 7598SOL     OW23692   6.883   1.134   2.570
 7598SOL    HW123693   6.959   1.122   2.635
 7598SOL    HW223694   6.918   1.175   2.486
 7599SOL     OW23695   6.497   2.989   2.304
 7599SOL    HW123696   6.475   3.049   2.226
 7599SOL    HW223697   6.563   2.920   2.275
 7600SOL     OW23698   2.144   1.662   2.313
 7600SOL    HW123699   2.048   1.645   2.290
 7600SOL    HW223700   2.163   1.760   2.306
 7601SOL     OW23701   1.532   0.360   5.074
 7601SOL    HW123702   1.616   0.371   5.020
 7601SOL    HW223703   1.535   0.273   5.122
 7602SOL     OW23704   2.198   3.388   5.117
 7602SOL    HW123705   2.151   3.413   5.202
 7602SOL    HW223706   2.212   3.289   5.114
 7603SOL     OW23707   0.301   1.299   1.897
 7603SOL    HW123708   0.383   1.297   1.954
 7603SOL    HW223709   0.227   1.346   1.946
 7604SOL     OW23710   4.847   5.844   6.718
 7604SOL    HW123711   4.851   5.748   6.748
 7604SOL    HW223712   4.889   5.902   6.788
 7605SOL     OW23713   5.465   3.712   6.116
 7605SOL    HW123714   5.399   3.636   6.120
 7605SOL    HW223715   5.501   3.730   6.207
 7606SOL     OW23716   5.872   1.945   3.093
 7606SOL    HW123717   5.824   2.029   3.068
 7606SOL    HW223718   5.871   1.934   3.193
 7607SOL     OW23719   4.998   0.241   5.996
 7607SOL    HW123720   4.937   0.238   6.075
 7607SOL    HW223721   5.091   0.264   6.027
 7608SOL     OW23722   3.935   3.027   3.891
 7608SOL    HW123723   3.919   3.000   3.796
 7608SOL    HW223724   3.957   2.945   3.945
 7609SOL     OW23725   1.648   2.634   4.364
 7609SOL    HW123726   1.571   2.596   4.312
 7609SOL    HW223727   1.617   2.711   4.419
 7610SOL     OW23728   5.446   1.109   1.928
 7610SOL    HW123729   5.435   1.171   1.850
 7610SOL    HW223730   5.543   1.109   1.956
 7611SOL     OW23731   2.134   1.650   1.484
 7611SOL    HW123732   2.122   1.557   1.519
 7611SOL    HW223733   2.203   1.698   1.539
 7612SOL     OW23734   4.372   1.747   2.688
 7612SOL    HW123735   4.387   1.756   2.787
 7612SOL    HW223736   4.351   1.838   2.650
 7613SOL     OW23737   5.329   0.695   2.978
 7613SOL    HW123738   5.252   0.732   2.926
 7613SOL    HW223739   5.372   0.768   3.031
 7614SOL     OW23740   4.047   1.340   0.501
 7614SOL    HW123741   3.962   1.332   0.450
 7614SOL    HW223742   4.059   1.259   0.559
 7615SOL     OW23743   3.976   4.617   5.889
 7615SOL    HW123744   3.973   4.536   5.948
 7615SOL    HW223745   3.959   4.699   5.944
 7616SOL     OW23746   6.876   4.885   3.558
 7616SOL    HW123747   6.887   4.839   3.470
 7616SOL    HW223748   6.899   4.822   3.632
 7617SOL     OW23749   3.449   6.075   2.439
 7617SOL    HW123750   3.526   6.138   2.445
 7617SOL    HW223751   3.457   6.004   2.509
 7618SOL     OW23752   1.818   2.490   0.642
 7618SOL    HW123753   1.827   2.556   0.568
 7618SOL    HW223754   1.731   2.441   0.632
 7619SOL     OW23755   5.562   3.292   6.049
 7619SOL    HW123756   5.609   3.210   6.082
 7619SOL    HW223757   5.578   3.367   6.113
 7620SOL     OW23758   2.892   6.322   1.598
 7620SOL    HW123759   2.922   6.359   1.686
 7620SOL    HW223760   2.804   6.361   1.573
 7621SOL     OW23761   2.254   1.950   1.289
 7621SOL    HW123762   2.278   2.040   1.255
 7621SOL    HW223763   2.282   1.942   1.385
 7622SOL     OW23764   5.465   1.732   0.983
 7622SOL    HW123765   5.441   1.785   1.064
 7622SOL    HW223766   5.427   1.777   0.902
 7623SOL     OW23767   5.624   0.212   5.128
 7623SOL    HW123768   5.599   0.274   5.053
 7623SOL    HW223769   5.643   0.122   5.090
 7624SOL     OW23770   6.550   0.798   4.456
 7624SOL    HW123771   6.636   0.754   4.433
 7624SOL    HW223772   6.547   0.890   4.416
 7625SOL     OW23773   3.928   6.318   0.741
 7625SOL    HW123774   4.003   6.364   0.693
 7625SOL    HW223775   3.912   6.228   0.700
 7626SOL     OW23776   2.532   4.546   4.591
 7626SOL    HW123777   2.595   4.527   4.667
 7626SOL    HW223778   2.581   4.591   4.517
 7627SOL     OW23779   6.925   1.640   6.986
 7627SOL    HW123780   6.981   1.658   0.041
 7627SOL    HW223781   6.854   1.710   6.977
 7628SOL     OW23782   4.247   2.016   0.858
 7628SOL    HW123783   4.180   2.028   0.785
 7628SOL    HW223784   4.271   1.919   0.865
 7629SOL     OW23785   6.054   5.342   3.348
 7629SOL    HW123786   6.105   5.426   3.327
 7629SOL    HW223787   5.961   5.350   3.311
 7630SOL     OW23788   6.656   1.663   1.978
 7630SOL    HW123789   6.740   1.716   1.983
 7630SOL    HW223790   6.630   1.632   2.069
 7631SOL     OW23791   1.496   1.631   3.528
 7631SOL    HW123792   1.582   1.682   3.514
 7631SOL    HW223793   1.419   1.692   3.512
 7632SOL     OW23794   4.337   0.894   6.182
 7632SOL    HW123795   4.417   0.921   6.236
 7632SOL    HW223796   4.352   0.918   6.086
 7633SOL     OW23797   5.233   5.038   6.472
 7633SOL    HW123798   5.177   5.031   6.555
 7633SOL    HW223799   5.289   5.120   6.476
 7634SOL     OW23800   0.749   2.363   1.996
 7634SOL    HW123801   0.783   2.411   2.077
 7634SOL    HW223802   0.742   2.265   2.016
 7635SOL     OW23803   2.801   5.097   6.218
 7635SOL    HW123804   2.853   5.173   6.180
 7635SOL    HW223805   2.843   5.010   6.189
 7636SOL     OW23806   2.338   0.468   3.656
 7636SOL    HW123807   2.300   0.546   3.706
 7636SOL    HW223808   2.289   0.385   3.680
 7637SOL     OW23809   2.107   6.343   4.114
 7637SOL    HW123810   2.179   6.409   4.091
 7637SOL    HW223811   2.068   6.366   4.203
 7638SOL     OW23812   4.159   4.068   1.419
 7638SOL    HW123813   4.091   4.105   1.482
 7638SOL    HW223814   4.229   4.138   1.400
 7639SOL     OW23815   6.847   2.506   4.843
 7639SOL    HW123816   6.797   2.505   4.756
 7639SOL    HW223817   6.797   2.453   4.911
 7640SOL     OW23818   2.308   3.283   5.574
 7640SOL    HW123819   2.367   3.316   5.647
 7640SOL    HW223820   2.262   3.361   5.531
 7641SOL     OW23821   6.338   2.874   3.292
 7641SOL    HW123822   6.305   2.889   3.199
 7641SOL    HW223823   6.268   2.826   3.345
 7642SOL     OW23824   2.145   0.940   2.709
 7642SOL    HW123825   2.114   0.846   2.724
 7642SOL    HW223826   2.224   0.940   2.648
 7643SOL     OW23827   5.712   2.853   3.253
 7643SOL    HW123828   5.798   2.890   3.286
 7643SOL    HW223829   5.684   2.903   3.170
 7644SOL     OW23830   6.458   4.068   3.616
 7644SOL    HW123831   6.378   4.008   3.611
 7644SOL    HW223832   6.464   4.106   3.708
 7645SOL     OW23833   3.939   2.918   0.274
 7645SOL    HW123834   3.951   2.891   0.370
 7645SOL    HW223835   3.974   2.845   0.215
 7646SOL     OW23836   0.580   1.167   1.775
 7646SOL    HW123837   0.481   1.173   1.762
 7646SOL    HW223838   0.618   1.096   1.716
 7647SOL     OW23839   2.457   4.971   0.932
 7647SOL    HW123840   2.385   5.039   0.920
 7647SOL    HW223841   2.503   4.956   0.845
 7648SOL     OW23842   3.571   0.614   4.059
 7648SOL    HW123843   3.567   0.614   4.159
 7648SOL    HW223844   3.650   0.560   4.029
 7649SOL     OW23845   2.827   1.306   1.751
 7649SOL    HW123846   2.823   1.347   1.842
 7649SOL    HW223847   2.824   1.379   1.682
 7650SOL     OW23848   6.160   4.275   0.967
 7650SOL    HW123849   6.150   4.183   0.928
 7650SOL    HW223850   6.072   4.304   1.005
 7651SOL     OW23851   4.260   2.319   6.636
 7651SOL    HW123852   4.355   2.317   6.606
 7651SOL    HW223853   4.219   2.229   6.621
 7652SOL     OW23854   1.617   3.397   2.916
 7652SOL    HW123855   1.638   3.382   2.819
 7652SOL    HW223856   1.536   3.344   2.941
 7653SOL     OW23857   3.941   1.964   1.354
 7653SOL    HW123858   3.977   1.897   1.289
 7653SOL    HW223859   3.999   1.965   1.436
 7654SOL     OW23860   4.861   3.775   4.233
 7654SOL    HW123861   4.822   3.848   4.290
 7654SOL    HW223862   4.891   3.814   4.146
 7655SOL     OW23863   4.533   6.255   5.380
 7655SOL    HW123864   4.435   6.240   5.369
 7655SOL    HW223865   4.564   6.215   5.466
 7656SOL     OW23866   1.298   6.741   3.929
 7656SOL    HW123867   1.298   6.686   3.845
 7656SOL    HW223868   1.388   6.735   3.973
 7657SOL     OW23869   4.566   1.877   4.250
 7657SOL    HW123870   4.469   1.866   4.270
 7657SOL    HW223871   4.611   1.926   4.324
 7658SOL     OW23872   4.170   0.045   6.596
 7658SOL    HW123873   4.239   0.013   6.531
 7658SOL    HW223874   4.108   0.108   6.550
 7659SOL     OW23875   5.434   6.591   0.362
 7659SOL    HW123876   5.440   6.548   0.272
 7659SOL    HW223877   5.411   6.521   0.430
 7660SOL     OW23878   6.109   4.882   4.485
 7660SOL    HW123879   6.122   4.929   4.397
 7660SOL    HW223880   6.187   4.902   4.544
 7661SOL     OW23881   5.898   3.198   4.142
 7661SOL    HW123882   5.949   3.283   4.148
 7661SOL    HW223883   5.821   3.200   4.206
 7662SOL     OW23884   6.594   5.767   2.778
 7662SOL    HW123885   6.611   5.689   2.718
 7662SOL    HW223886   6.608   5.739   2.873
 7663SOL     OW23887   6.544   5.853   6.932
 7663SOL    HW123888   6.457   5.837   6.977
 7663SOL    HW223889   6.600   5.915   6.987
 7664SOL     OW23890   2.455   5.668   5.146
 7664SOL    HW123891   2.426   5.625   5.060
 7664SOL    HW223892   2.422   5.613   5.223
 7665SOL     OW23893   2.284   5.546   4.284
 7665SOL    HW123894   2.345   5.547   4.205
 7665SOL    HW223895   2.223   5.625   4.280
 7666SOL     OW23896   2.322   1.126   0.875
 7666SOL    HW123897   2.245   1.068   0.901
 7666SOL    HW223898   2.368   1.087   0.796
 7667SOL     OW23899   4.753   5.853   6.324
 7667SOL    HW123900   4.732   5.890   6.414
 7667SOL    HW223901   4.815   5.915   6.276
 7668SOL     OW23902   2.654   3.810   1.699
 7668SOL    HW123903   2.639   3.908   1.688
 7668SOL    HW223904   2.747   3.793   1.732
 7669SOL     OW23905   4.674   6.524   4.913
 7669SOL    HW123906   4.757   6.510   4.967
 7669SOL    HW223907   4.609   6.450   4.930
 7670SOL     OW23908   1.572   5.573   0.766
 7670SOL    HW123909   1.659   5.535   0.798
 7670SOL    HW223910   1.584   5.612   0.675
 7671SOL     OW23911   5.400   2.727   4.931
 7671SOL    HW123912   5.431   2.655   4.869
 7671SOL    HW223913   5.361   2.686   5.013
 7672SOL     OW23914   6.226   0.357   2.262
 7672SOL    HW123915   6.208   0.427   2.194
 7672SOL    HW223916   6.309   0.380   2.312
 7673SOL     OW23917   0.321   4.422   0.077
 7673SOL    HW123918   0.269   4.504   0.101
 7673SOL    HW223919   0.418   4.439   0.096
 7674SOL     OW23920   6.432   1.282   5.338
 7674SOL    HW123921   6.444   1.212   5.408
 7674SOL    HW223922   6.396   1.366   5.379
 7675SOL     OW23923   4.895   6.947   3.084
 7675SOL    HW123924   4.882   0.018   3.057
 7675SOL    HW223925   4.989   6.919   3.062
 7676SOL     OW23926   1.281   0.273   1.714
 7676SOL    HW123927   1.249   0.367   1.699
 7676SOL    HW223928   1.268   0.248   1.810
 7677SOL     OW23929   1.630   2.162   2.808
 7677SOL    HW123930   1.569   2.110   2.748
 7677SOL    HW223931   1.725   2.143   2.784
 7678SOL     OW23932   5.133   6.698   6.262
 7678SOL    HW123933   5.120   6.794   6.283
 7678SOL    HW223934   5.072   6.671   6.187
 7679SOL     OW23935   1.531   4.905   4.933
 7679SOL    HW123936   1.582   4.830   4.974
 7679SOL    HW223937   1.434   4.882   4.930
 7680SOL     OW23938   4.800   1.306   6.560
 7680SOL    HW123939   4.737   1.302   6.637
 7680SOL    HW223940   4.892   1.280   6.589
 7681SOL     OW23941   2.501   2.090   5.967
 7681SOL    HW123942   2.570   2.152   5.929
 7681SOL    HW223943   2.532   1.995   5.956
 7682SOL     OW23944   2.470   0.068   1.132
 7682SOL    HW123945   2.405   0.124   1.183
 7682SOL    HW223946   2.527   0.017   1.196
 7683SOL     OW23947   6.227   2.009   2.750
 7683SOL    HW123948   6.154   2.056   2.799
 7683SOL    HW223949   6.221   2.029   2.652
 7684SOL     OW23950   4.277   2.247   6.306
 7684SOL    HW123951   4.325   2.281   6.226
 7684SOL    HW223952   4.274   2.147   6.303
 7685SOL     OW23953   4.324   3.607   0.743
 7685SOL    HW123954   4.423   3.611   0.729
 7685SOL    HW223955   4.296   3.682   0.803
 7686SOL     OW23956   3.382   0.793   3.814
 7686SOL    HW123957   3.332   0.718   3.770
 7686SOL    HW223958   3.341   0.881   3.787
 7687SOL     OW23959   4.493   4.857   5.932
 7687SOL    HW123960   4.474   4.772   5.981
 7687SOL    HW223961   4.412   4.916   5.934
 7688SOL     OW23962   6.474   6.980   3.388
 7688SOL    HW123963   6.481   0.054   3.396
 7688SOL    HW223964   6.532   6.937   3.457
 7689SOL     OW23965   3.681   6.764   4.802
 7689SOL    HW123966   3.679   6.752   4.901
 7689SOL    HW223967   3.728   6.686   4.760
 7690SOL     OW23968   0.818   5.122   2.985
 7690SOL    HW123969   0.824   5.161   3.077
 7690SOL    HW223970   0.882   5.170   2.925
 7691SOL     OW23971   5.569   3.928   5.528
 7691SOL    HW123972   5.469   3.922   5.539
 7691SOL    HW223973   5.613   3.889   5.609
 7692SOL     OW23974   1.657   6.352   1.851
 7692SOL    HW123975   1.639   6.255   1.869
 7692SOL    HW223976   1.651   6.369   1.752
 7693SOL     OW23977   5.351   0.907   0.710
 7693SOL    HW123978   5.430   0.955   0.748
 7693SOL    HW223979   5.363   0.896   0.611
 7694SOL     OW23980   6.341   4.683   4.372
 7694SOL    HW123981   6.313   4.591   4.399
 7694SOL    HW223982   6.308   4.702   4.280
 7695SOL     OW23983   3.990   0.212   6.476
 7695SOL    HW123984   3.899   0.222   6.517
 7695SOL    HW223985   3.997   0.270   6.395
 7696SOL     OW23986   1.100   4.303   5.775
 7696SOL    HW123987   1.055   4.359   5.845
 7696SOL    HW223988   1.088   4.206   5.797
 7697SOL     OW23989   4.079   1.962   1.866
 7697SOL    HW123990   4.070   1.872   1.908
 7697SOL    HW223991   3.991   2.010   1.869
 7698SOL     OW23992   0.128   3.246   5.828
 7698SOL    HW123993   0.165   3.318   5.769
 7698SOL    HW223994   0.033   3.268   5.851
 7699SOL     OW23995   2.416   4.532   0.446
 7699SOL    HW123996   2.501   4.490   0.415
 7699SOL    HW223997   2.343   4.463   0.445
 7700SOL     OW23998   5.431   6.742   5.076
 7700SOL    HW123999   5.377   6.708   4.999
 7700SOL    HW224000   5.512   6.790   5.041
 7701SOL     OW24001   5.900   2.382   5.483
 7701SOL    HW124002   5.976   2.321   5.460
 7701SOL    HW224003   5.922   2.475   5.455
 7702SOL     OW24004   2.426   6.166   5.591
 7702SOL    HW124005   2.344   6.138   5.640
 7702SOL    HW224006   2.400   6.208   5.504
 7703SOL     OW24007   0.809   2.102   5.626
 7703SOL    HW124008   0.867   2.163   5.572
 7703SOL    HW224009   0.866   2.032   5.670
 7704SOL     OW24010   2.726   4.194   0.764
 7704SOL    HW124011   2.775   4.120   0.810
 7704SOL    HW224012   2.632   4.197   0.797
 7705SOL     OW24013   3.672   4.373   5.259
 7705SOL    HW124014   3.624   4.289   5.237
 7705SOL    HW224015   3.618   4.427   5.323
 7706SOL     OW24016   6.436   0.307   5.229
 7706SOL    HW124017   6.336   0.305   5.232
 7706SOL    HW224018   6.467   0.401   5.214
 7707SOL     OW24019   0.116   5.270   6.229
 7707SOL    HW124020   0.162   5.216   6.299
 7707SOL    HW224021   0.168   5.265   6.144
 7708SOL     OW24022   4.933   0.717   4.383
 7708SOL    HW124023   4.904   0.798   4.436
 7708SOL    HW224024   4.854   0.658   4.368
 7709SOL     OW24025   3.585   2.272   1.616
 7709SOL    HW124026   3.649   2.302   1.686
 7709SOL    HW224027   3.632   2.269   1.528
 7710SOL     OW24028   2.858   2.602   6.020
 7710SOL    HW124029   2.839   2.506   6.001
 7710SOL    HW224030   2.938   2.631   5.968
 7711SOL     OW24031   5.108   6.697   5.411
 7711SOL    HW124032   5.064   6.692   5.500
 7711SOL    HW224033   5.142   6.606   5.385
 7712SOL     OW24034   5.202   5.141   0.613
 7712SOL    HW124035   5.133   5.147   0.685
 7712SOL    HW224036   5.182   5.063   0.553
 7713SOL     OW24037   1.062   5.284   6.245
 7713SOL    HW124038   1.155   5.248   6.245
 7713SOL    HW224039   1.007   5.233   6.311
 7714SOL     OW24040   5.717   4.046   4.188
 7714SOL    HW124041   5.722   4.087   4.280
 7714SOL    HW224042   5.702   3.948   4.196
 7715SOL     OW24043   4.287   2.158   1.564
 7715SOL    HW124044   4.188   2.159   1.560
 7715SOL    HW224045   4.324   2.170   1.472
 7716SOL     OW24046   4.657   2.548   3.963
 7716SOL    HW124047   4.596   2.565   4.041
 7716SOL    HW224048   4.746   2.518   3.996
 7717SOL     OW24049   3.172   0.225   6.446
 7717SOL    HW124050   3.073   0.209   6.455
 7717SOL    HW224051   3.203   0.191   6.358
 7718SOL     OW24052   2.842   6.190   4.063
 7718SOL    HW124053   2.779   6.204   4.140
 7718SOL    HW224054   2.849   6.092   4.043
 7719SOL     OW24055   5.770   2.772   5.538
 7719SOL    HW124056   5.727   2.759   5.627
 7719SOL    HW224057   5.864   2.737   5.541
 7720SOL     OW24058   5.481   6.082   1.408
 7720SOL    HW124059   5.547   6.019   1.367
 7720SOL    HW224060   5.477   6.166   1.354
 7721SOL     OW24061   1.173   4.672   2.981
 7721SOL    HW124062   1.115   4.740   3.025
 7721SOL    HW224063   1.122   4.587   2.969
 7722SOL     OW24064   0.674   6.415   3.929
 7722SOL    HW124065   0.588   6.448   3.889
 7722SOL    HW224066   0.671   6.316   3.938
 7723SOL     OW24067   6.548   2.328   0.579
 7723SOL    HW124068   6.555   2.398   0.650
 7723SOL    HW224069   6.601   2.248   0.606
 7724SOL     OW24070   1.941   5.503   0.556
 7724SOL    HW124071   1.953   5.408   0.586
 7724SOL    HW224072   2.016   5.528   0.495
 7725SOL     OW24073   5.389   3.897   4.471
 7725SOL    HW124074   5.389   3.875   4.373
 7725SOL    HW224075   5.327   3.974   4.488
 7726SOL     OW24076   5.777   4.352   3.646
 7726SOL    HW124077   5.683   4.335   3.676
 7726SOL    HW224078   5.841   4.315   3.713
 7727SOL     OW24079   6.064   3.198   1.955
 7727SOL    HW124080   6.054   3.144   2.039
 7727SOL    HW224081   6.146   3.254   1.961
 7728SOL     OW24082   2.265   2.273   2.268
 7728SOL    HW124083   2.166   2.264   2.269
 7728SOL    HW224084   2.294   2.316   2.182
 7729SOL     OW24085   5.183   2.487   0.487
 7729SOL    HW124086   5.262   2.432   0.462
 7729SOL    HW224087   5.129   2.507   0.405
 7730SOL     OW24088   4.908   0.141   2.151
 7730SOL    HW124089   4.850   0.124   2.072
 7730SOL    HW224090   4.988   0.082   2.146
 7731SOL     OW24091   0.036   1.570   4.846
 7731SOL    HW124092   0.104   1.566   4.919
 7731SOL    HW224093   6.971   1.546   4.882
 7732SOL     OW24094   4.349   4.693   0.690
 7732SOL    HW124095   4.413   4.753   0.642
 7732SOL    HW224096   4.270   4.746   0.719
 7733SOL     OW24097   2.918   6.303   0.832
 7733SOL    HW124098   2.974   6.221   0.820
 7733SOL    HW224099   2.971   6.384   0.807
 7734SOL     OW24100   1.437   1.987   2.937
 7734SOL    HW124101   1.479   2.070   2.975
 7734SOL    HW224102   1.339   2.002   2.926
 7735SOL     OW24103   5.302   4.201   0.624
 7735SOL    HW124104   5.268   4.272   0.686
 7735SOL    HW224105   5.329   4.120   0.676
 7736SOL     OW24106   5.768   4.426   5.882
 7736SOL    HW124107   5.854   4.477   5.882
 7736SOL    HW224108   5.696   4.481   5.840
 7737SOL     OW24109   5.098   2.456   0.741
 7737SOL    HW124110   5.136   2.453   0.649
 7737SOL    HW224111   5.000   2.475   0.737
 7738SOL     OW24112   1.941   4.829   0.042
 7738SOL    HW124113   1.965   4.766   6.993
 7738SOL    HW224114   1.969   4.790   0.129
 7739SOL     OW24115   5.832   3.561   2.238
 7739SOL    HW124116   5.829   3.513   2.150
 7739SOL    HW224117   5.919   3.609   2.248
 7740SOL     OW24118   0.297   6.253   3.825
 7740SOL    HW124119   0.361   6.307   3.770
 7740SOL    HW224120   0.255   6.182   3.767
 7741SOL     OW24121   3.181   5.838   4.206
 7741SOL    HW124122   3.089   5.825   4.243
 7741SOL    HW224123   3.220   5.749   4.181
 7742SOL     OW24124   6.654   1.219   4.205
 7742SOL    HW124125   6.585   1.245   4.138
 7742SOL    HW224126   6.744   1.220   4.162
 7743SOL     OW24127   5.006   2.970   2.773
 7743SOL    HW124128   4.960   3.043   2.722
 7743SOL    HW224129   5.105   2.979   2.762
 7744SOL     OW24130   0.420   6.951   4.889
 7744SOL    HW124131   0.499   6.979   4.834
 7744SOL    HW224132   0.447   6.875   4.949
 7745SOL     OW24133   4.640   3.289   5.286
 7745SOL    HW124134   4.714   3.318   5.225
 7745SOL    HW224135   4.611   3.365   5.343
 7746SOL     OW24136   1.482   0.329   6.977
 7746SOL    HW124137   1.418   0.374   0.014
 7746SOL    HW224138   1.571   0.319   7.021
 7747SOL     OW24139   5.126   5.500   1.376
 7747SOL    HW124140   5.155   5.461   1.463
 7747SOL    HW224141   5.207   5.517   1.319
 7748SOL     OW24142   2.797   3.738   6.410
 7748SOL    HW124143   2.747   3.819   6.441
 7748SOL    HW224144   2.876   3.766   6.355
 7749SOL     OW24145   5.679   4.064   6.186
 7749SOL    HW124146   5.708   4.016   6.269
 7749SOL    HW224147   5.580   4.077   6.188
 7750SOL     OW24148   5.639   5.117   2.883
 7750SOL    HW124149   5.625   5.145   2.788
 7750SOL    HW224150   5.722   5.063   2.890
 7751SOL     OW24151   0.287   2.704   1.007
 7751SOL    HW124152   0.384   2.702   0.984
 7751SOL    HW224153   0.233   2.716   0.924
 7752SOL     OW24154   4.406   1.207   3.390
 7752SOL    HW124155   4.438   1.299   3.415
 7752SOL    HW224156   4.478   1.159   3.340
 7753SOL     OW24157   3.275   1.779   5.045
 7753SOL    HW124158   3.310   1.853   5.102
 7753SOL    HW224159   3.180   1.799   5.018
 7754SOL     OW24160   5.801   5.430   1.586
 7754SOL    HW124161   5.762   5.356   1.641
 7754SOL    HW224162   5.848   5.392   1.506
 7755SOL     OW24163   0.516   5.273   4.635
 7755SOL    HW124164   0.558   5.184   4.654
 7755SOL    HW224165   0.544   5.304   4.544
 7756SOL     OW24166   2.371   4.829   2.246
 7756SOL    HW124167   2.271   4.821   2.237
 7756SOL    HW224168   2.413   4.740   2.231
 7757SOL     OW24169   6.998   4.273   1.681
 7757SOL    HW124170   0.072   4.280   1.669
 7757SOL    HW224171   6.962   4.200   1.624
 7758SOL     OW24172   1.292   2.578   4.619
 7758SOL    HW124173   1.362   2.559   4.688
 7758SOL    HW224174   1.330   2.637   4.548
 7759SOL     OW24175   3.804   1.233   2.115
 7759SOL    HW124176   3.855   1.219   2.030
 7759SOL    HW224177   3.803   1.330   2.138
 7760SOL     OW24178   5.147   3.227   0.272
 7760SOL    HW124179   5.104   3.141   0.244
 7760SOL    HW224180   5.130   3.297   0.203
 7761SOL     OW24181   4.958   4.953   2.851
 7761SOL    HW124182   4.996   4.864   2.877
 7761SOL    HW224183   5.016   5.025   2.889
 7762SOL     OW24184   5.207   1.810   1.702
 7762SOL    HW124185   5.228   1.716   1.726
 7762SOL    HW224186   5.206   1.820   1.602
 7763SOL     OW24187   2.520   0.058   3.947
 7763SOL    HW124188   2.585   7.013   3.974
 7763SOL    HW224189   2.454   0.020   3.882
 7764SOL     OW24190   3.296   4.399   6.017
 7764SOL    HW124191   3.300   4.475   5.953
 7764SOL    HW224192   3.389   4.364   6.033
 7765SOL     OW24193   5.518   4.323   4.460
 7765SOL    HW124194   5.597   4.282   4.413
 7765SOL    HW224195   5.474   4.389   4.398
 7766SOL     OW24196   6.474   2.986   6.564
 7766SOL    HW124197   6.415   2.911   6.537
 7766SOL    HW224198   6.436   3.033   6.643
 7767SOL     OW24199   4.497   0.082   3.564
 7767SOL    HW124200   4.409   0.100   3.608
 7767SOL    HW224201   4.568   0.140   3.605
 7768SOL     OW24202   3.803   5.681   4.393
 7768SOL    HW124203   3.788   5.694   4.295
 7768SOL    HW224204   3.883   5.621   4.406
 7769SOL     OW24205   3.745   2.775   6.665
 7769SOL    HW124206   3.735   2.830   6.582
 7769SOL    HW224207   3.769   2.835   6.741
 7770SOL     OW24208   1.079   3.320   3.842
 7770SOL    HW124209   1.159   3.261   3.843
 7770SOL    HW224210   0.996   3.265   3.836
 7771SOL     OW24211   1.451   3.791   5.873
 7771SOL    HW124212   1.483   3.712   5.925
 7771SOL    HW224213   1.358   3.814   5.901
 7772SOL     OW24214   5.446   6.013   1.913
 7772SOL    HW124215   5.496   5.927   1.919
 7772SOL    HW224216   5.412   6.026   1.820
 7773SOL     OW24217   2.356   6.333   6.958
 7773SOL    HW124218   2.336   6.418   7.006
 7773SOL    HW224219   2.274   6.277   6.951
 7774SOL     OW24220   4.862   1.530   2.646
 7774SOL    HW124221   4.860   1.605   2.712
 7774SOL    HW224222   4.770   1.490   2.638
 7775SOL     OW24223   3.090   1.706   1.583
 7775SOL    HW124224   3.013   1.693   1.520
 7775SOL    HW224225   3.058   1.695   1.677
 7776SOL     OW24226   2.890   0.894   4.285
 7776SOL    HW124227   2.827   0.946   4.344
 7776SOL    HW224228   2.906   0.804   4.324
 7777SOL     OW24229   6.103   5.581   3.033
 7777SOL    HW124230   6.165   5.518   2.987
 7777SOL    HW224231   6.030   5.608   2.969
 7778SOL     OW24232   0.849   4.602   2.725
 7778SOL    HW124233   0.767   4.596   2.667
 7778SOL    HW224234   0.825   4.581   2.819
 7779SOL     OW24235   3.594   6.394   1.609
 7779SOL    HW124236   3.605   6.465   1.679
 7779SOL    HW224237   3.526   6.424   1.542
 7780SOL     OW24238   6.512   5.718   4.315
 7780SOL    HW124239   6.582   5.674   4.259
 7780SOL    HW224240   6.426   5.668   4.307
 7781SOL     OW24241   2.084   3.023   0.928
 7781SOL    HW124242   2.169   3.069   0.902
 7781SOL    HW224243   2.079   3.016   1.027
 7782SOL     OW24244   5.795   3.706   4.873
 7782SOL    HW124245   5.697   3.706   4.894
 7782SOL    HW224246   5.815   3.637   4.804
 7783SOL     OW24247   1.866   6.376   3.948
 7783SOL    HW124248   1.799   6.393   4.021
 7783SOL    HW224249   1.952   6.347   3.989
 7784SOL     OW24250   1.633   1.881   1.928
 7784SOL    HW124251   1.605   1.822   2.004
 7784SOL    HW224252   1.701   1.834   1.872
 7785SOL     OW24253   6.687   6.010   2.927
 7785SOL    HW124254   6.763   5.974   2.982
 7785SOL    HW224255   6.673   5.951   2.847
 7786SOL     OW24256   4.867   1.063   6.287
 7786SOL    HW124257   4.811   1.146   6.281
 7786SOL    HW224258   4.875   1.035   6.383
 7787SOL     OW24259   2.122   2.636   1.330
 7787SOL    HW124260   2.097   2.578   1.253
 7787SOL    HW224261   2.216   2.616   1.358
 7788SOL     OW24262   0.927   4.092   2.064
 7788SOL    HW124263   1.019   4.127   2.083
 7788SOL    HW224264   0.933   4.002   2.021
 7789SOL     OW24265   3.633   1.048   6.386
 7789SOL    HW124266   3.610   1.027   6.291
 7789SOL    HW224267   3.628   1.147   6.401
 7790SOL     OW24268   3.937   5.208   3.953
 7790SOL    HW124269   3.844   5.234   3.926
 7790SOL    HW224270   3.997   5.213   3.873
 7791SOL     OW24271   2.865   5.688   2.311
 7791SOL    HW124272   2.956   5.671   2.271
 7791SOL    HW224273   2.800   5.622   2.275
 7792SOL     OW24274   1.290   1.507   2.573
 7792SOL    HW124275   1.270   1.529   2.477
 7792SOL    HW224276   1.388   1.516   2.590
 7793SOL     OW24277   4.991   1.497   0.991
 7793SOL    HW124278   4.930   1.427   1.028
 7793SOL    HW224279   5.085   1.462   0.989
 7794SOL     OW24280   1.542   0.108   2.941
 7794SOL    HW124281   1.569   0.124   2.846
 7794SOL    HW224282   1.541   0.196   2.990
 7795SOL     OW24283   3.447   4.005   1.193
 7795SOL    HW124284   3.543   4.022   1.214
 7795SOL    HW224285   3.393   4.087   1.212
 7796SOL     OW24286   3.343   1.052   0.540
 7796SOL    HW124287   3.310   1.146   0.535
 7796SOL    HW224288   3.426   1.048   0.595
 7797SOL     OW24289   1.444   5.792   2.786
 7797SOL    HW124290   1.474   5.722   2.850
 7797SOL    HW224291   1.388   5.860   2.834
 7798SOL     OW24292   1.858   3.411   0.460
 7798SOL    HW124293   1.874   3.412   0.361
 7798SOL    HW224294   1.935   3.365   0.505
 7799SOL     OW24295   2.909   6.458   4.000
 7799SOL    HW124296   2.913   6.358   4.006
 7799SOL    HW224297   2.813   6.488   4.003
 7800SOL     OW24298   1.858   0.598   2.557
 7800SOL    HW124299   1.763   0.615   2.584
 7800SOL    HW224300   1.864   0.510   2.510
 7801SOL     OW24301   1.332   2.034   0.993
 7801SOL    HW124302   1.326   2.132   1.014
 7801SOL    HW224303   1.240   1.997   0.981
 7802SOL     OW24304   6.470   4.321   4.045
 7802SOL    HW124305   6.449   4.281   4.134
 7802SOL    HW224306   6.396   4.383   4.017
 7803SOL     OW24307   3.325   2.577   5.659
 7803SOL    HW124308   3.276   2.609   5.578
 7803SOL    HW224309   3.418   2.613   5.658
 7804SOL     OW24310   3.101   1.631   5.486
 7804SOL    HW124311   3.200   1.630   5.472
 7804SOL    HW224312   3.081   1.619   5.583
 7805SOL     OW24313   5.670   3.308   6.472
 7805SOL    HW124314   5.722   3.222   6.464
 7805SOL    HW224315   5.706   3.361   6.549
 7806SOL     OW24316   6.288   1.544   5.403
 7806SOL    HW124317   6.265   1.516   5.310
 7806SOL    HW224318   6.290   1.644   5.408
 7807SOL     OW24319   1.822   5.706   5.193
 7807SOL    HW124320   1.808   5.612   5.225
 7807SOL    HW224321   1.869   5.758   5.264
 7808SOL     OW24322   6.185   3.640   4.005
 7808SOL    HW124323   6.272   3.647   4.054
 7808SOL    HW224324   6.200   3.601   3.915
 7809SOL     OW24325   4.782   6.284   2.094
 7809SOL    HW124326   4.777   6.196   2.045
 7809SOL    HW224327   4.719   6.281   2.172
 7810SOL     OW24328   1.898   6.672   5.413
 7810SOL    HW124329   1.931   6.697   5.504
 7810SOL    HW224330   1.916   6.746   5.349
 7811SOL     OW24331   1.030   6.274   2.793
 7811SOL    HW124332   1.085   6.283   2.876
 7811SOL    HW224333   1.057   6.191   2.744
 7812SOL     OW24334   2.960   0.963   5.315
 7812SOL    HW124335   2.896   0.979   5.240
 7812SOL    HW224336   2.931   1.015   5.395
 7813SOL     OW24337   5.624   0.767   0.883
 7813SOL    HW124338   5.538   0.766   0.935
 7813SOL    HW224339   5.696   0.721   0.937
 7814SOL     OW24340   6.241   2.372   1.833
 7814SOL    HW124341   6.334   2.402   1.856
 7814SOL    HW224342   6.213   2.414   1.746
 7815SOL     OW24343   5.096   5.842   3.690
 7815SOL    HW124344   5.009   5.866   3.647
 7815SOL    HW224345   5.165   5.827   3.619
 7816SOL     OW24346   0.777   1.393   5.521
 7816SOL    HW124347   0.820   1.306   5.497
 7816SOL    HW224348   0.694   1.376   5.573
 7817SOL     OW24349   4.568   1.740   0.008
 7817SOL    HW124350   4.533   1.817   0.062
 7817SOL    HW224351   4.590   1.664   0.068
 7818SOL     OW24352   6.020   0.898   3.123
 7818SOL    HW124353   6.077   0.890   3.040
 7818SOL    HW224354   6.068   0.956   3.189
 7819SOL     OW24355   1.708   3.001   5.078
 7819SOL    HW124356   1.633   2.937   5.092
 7819SOL    HW224357   1.698   3.044   4.989
 7820SOL     OW24358   1.262   1.513   5.244
 7820SOL    HW124359   1.165   1.494   5.256
 7820SOL    HW224360   1.275   1.573   5.165
 7821SOL     OW24361   3.970   5.706   7.001
 7821SOL    HW124362   3.884   5.735   6.958
 7821SOL    HW224363   4.039   5.691   6.930
 7822SOL     OW24364   0.299   1.482   4.518
 7822SOL    HW124365   0.294   1.491   4.419
 7822SOL    HW224366   0.377   1.533   4.552
 7823SOL     OW24367   2.740   3.190   5.735
 7823SOL    HW124368   2.694   3.102   5.739
 7823SOL    HW224369   2.838   3.177   5.754
 7824SOL     OW24370   5.717   3.648   3.076
 7824SOL    HW124371   5.651   3.579   3.107
 7824SOL    HW224372   5.809   3.623   3.108
 7825SOL     OW24373   3.520   3.530   2.778
 7825SOL    HW124374   3.442   3.579   2.739
 7825SOL    HW224375   3.604   3.582   2.761
 7826SOL     OW24376   6.861   0.099   0.603
 7826SOL    HW124377   6.903   0.188   0.590
 7826SOL    HW224378   6.763   0.110   0.622
 7827SOL     OW24379   4.076   3.202   0.363
 7827SOL    HW124380   4.037   3.251   0.285
 7827SOL    HW224381   4.039   3.108   0.365
 7828SOL     OW24382   1.068   6.108   1.344
 7828SOL    HW124383   1.012   6.173   1.293
 7828SOL    HW224384   1.031   6.016   1.334
 7829SOL     OW24385   3.482   3.771   3.515
 7829SOL    HW124386   3.442   3.861   3.536
 7829SOL    HW224387   3.491   3.762   3.415
 7830SOL     OW24388   6.157   4.066   0.231
 7830SOL    HW124389   6.096   4.143   0.250
 7830SOL    HW224390   6.155   4.045   0.133
 7831SOL     OW24391   1.707   2.849   0.274
 7831SOL    HW124392   1.671   2.923   0.330
 7831SOL    HW224393   1.716   2.880   0.180
 7832SOL     OW24394   3.589   2.636   5.701
 7832SOL    HW124395   3.604   2.537   5.700
 7832SOL    HW224396   3.651   2.680   5.637
 7833SOL     OW24397   6.512   6.214   1.395
 7833SOL    HW124398   6.546   6.285   1.333
 7833SOL    HW224399   6.513   6.126   1.348
 7834SOL     OW24400   5.984   0.496   1.475
 7834SOL    HW124401   5.890   0.490   1.443
 7834SOL    HW224402   5.986   0.542   1.564
 7835SOL     OW24403   1.867   1.934   4.241
 7835SOL    HW124404   1.934   1.998   4.279
 7835SOL    HW224405   1.779   1.981   4.229
 7836SOL     OW24406   2.076   0.506   0.597
 7836SOL    HW124407   2.100   0.410   0.581
 7836SOL    HW224408   2.033   0.543   0.514
 7837SOL     OW24409   5.647   6.362   2.638
 7837SOL    HW124410   5.738   6.347   2.678
 7837SOL    HW224411   5.630   6.292   2.568
 7838SOL     OW24412   4.486   6.309   4.039
 7838SOL    HW124413   4.412   6.242   4.026
 7838SOL    HW224414   4.492   6.367   3.958
 7839SOL     OW24415   0.207   4.751   3.601
 7839SOL    HW124416   0.129   4.743   3.663
 7839SOL    HW224417   0.198   4.834   3.546
 7840SOL     OW24418   4.911   3.423   6.277
 7840SOL    HW124419   4.924   3.519   6.253
 7840SOL    HW224420   4.951   3.366   6.205
 7841SOL     OW24421   1.075   1.857   6.539
 7841SOL    HW124422   1.167   1.884   6.566
 7841SOL    HW224423   1.062   1.759   6.557
 7842SOL     OW24424   2.892   6.953   2.442
 7842SOL    HW124425   2.937   6.909   2.364
 7842SOL    HW224426   2.946   6.938   2.524
 7843SOL     OW24427   0.246   2.628   2.183
 7843SOL    HW124428   0.324   2.588   2.134
 7843SOL    HW224429   0.168   2.637   2.121
 7844SOL     OW24430   3.954   1.751   3.567
 7844SOL    HW124431   3.967   1.690   3.646
 7844SOL    HW224432   3.867   1.731   3.523
 7845SOL     OW24433   0.953   1.364   3.747
 7845SOL    HW124434   0.885   1.298   3.782
 7845SOL    HW224435   1.009   1.397   3.823
 7846SOL     OW24436   4.403   6.448   2.200
 7846SOL    HW124437   4.343   6.503   2.142
 7846SOL    HW224438   4.368   6.446   2.293
 7847SOL     OW24439   0.376   6.925   6.880
 7847SOL    HW124440   0.336   7.017   6.884
 7847SOL    HW224441   0.338   6.870   6.955
 7848SOL     OW24442   3.706   4.046   1.284
 7848SOL    HW124443   3.801   4.034   1.255
 7848SOL    HW224444   3.684   4.144   1.285
 7849SOL     OW24445   5.508   4.255   4.723
 7849SOL    HW124446   5.523   4.280   4.627
 7849SOL    HW224447   5.419   4.210   4.732
 7850SOL     OW24448   0.775   2.204   4.941
 7850SOL    HW124449   0.822   2.194   5.029
 7850SOL    HW224450   0.842   2.227   4.871
 7851SOL     OW24451   4.469   6.347   1.119
 7851SOL    HW124452   4.515   6.400   1.191
 7851SOL    HW224453   4.479   6.250   1.138
 7852SOL     OW24454   2.337   6.495   0.429
 7852SOL    HW124455   2.406   6.568   0.430
 7852SOL    HW224456   2.372   6.418   0.376
 7853SOL     OW24457   2.131   2.275   0.248
 7853SOL    HW124458   2.144   2.207   0.320
 7853SOL    HW224459   2.047   2.326   0.265
 7854SOL     OW24460   3.285   4.157   3.220
 7854SOL    HW124461   3.245   4.084   3.165
 7854SOL    HW224462   3.223   4.235   3.222
 7855SOL     OW24463   3.631   0.006   5.154
 7855SOL    HW124464   3.594   0.013   5.247
 7855SOL    HW224465   3.729   7.015   5.157
 7856SOL     OW24466   2.884   3.477   6.945
 7856SOL    HW124467   2.860   3.390   6.902
 7856SOL    HW224468   2.973   3.469   6.989
 7857SOL     OW24469   0.765   3.252   5.741
 7857SOL    HW124470   0.686   3.205   5.702
 7857SOL    HW224471   0.792   3.327   5.681
 7858SOL     OW24472   6.224   3.665   3.057
 7858SOL    HW124473   6.181   3.594   3.113
 7858SOL    HW224474   6.317   3.636   3.033
 7859SOL     OW24475   0.873   6.095   0.653
 7859SOL    HW124476   0.957   6.086   0.600
 7859SOL    HW224477   0.797   6.117   0.591
 7860SOL     OW24478   4.460   6.614   1.692
 7860SOL    HW124479   4.433   6.654   1.779
 7860SOL    HW224480   4.448   6.514   1.696
 7861SOL     OW24481   5.354   3.444   0.614
 7861SOL    HW124482   5.330   3.357   0.657
 7861SOL    HW224483   5.384   3.508   0.684
 7862SOL     OW24484   3.031   4.718   1.770
 7862SOL    HW124485   2.980   4.635   1.792
 7862SOL    HW224486   2.975   4.779   1.715
 7863SOL     OW24487   5.270   5.711   2.445
 7863SOL    HW124488   5.183   5.716   2.396
 7863SOL    HW224489   5.297   5.615   2.454
 7864SOL     OW24490   0.769   6.167   4.479
 7864SOL    HW124491   0.802   6.131   4.567
 7864SOL    HW224492   0.722   6.094   4.430
 7865SOL     OW24493   4.225   0.909   3.234
 7865SOL    HW124494   4.321   0.888   3.214
 7865SOL    HW224495   4.206   1.004   3.210
 7866SOL     OW24496   2.142   2.146   5.051
 7866SOL    HW124497   2.046   2.172   5.040
 7866SOL    HW224498   2.196   2.228   5.072
 7867SOL     OW24499   5.953   4.116   1.994
 7867SOL    HW124500   5.996   4.030   2.024
 7867SOL    HW224501   5.911   4.161   2.072
 7868SOL     OW24502   5.106   6.925   1.009
 7868SOL    HW124503   5.175   6.857   0.983
 7868SOL    HW224504   5.020   6.879   1.033
 7869SOL     OW24505   6.314   1.928   4.126
 7869SOL    HW124506   6.339   1.912   4.031
 7869SOL    HW224507   6.362   1.863   4.185
 7870SOL     OW24508   6.292   6.780   2.913
 7870SOL    HW124509   6.316   6.831   2.831
 7870SOL    HW224510   6.366   6.787   2.980
 7871SOL     OW24511   6.165   3.038   4.215
 7871SOL    HW124512   6.234   3.080   4.156
 7871SOL    HW224513   6.081   3.023   4.163
 7872SOL     OW24514   6.958   4.109   4.669
 7872SOL    HW124515   6.924   4.032   4.723
 7872SOL    HW224516   6.978   4.078   4.576
 7873SOL     OW24517   6.932   5.726   4.710
 7873SOL    HW124518   7.024   5.745   4.744
 7873SOL    HW224519   6.935   5.705   4.613
 7874SOL     OW24520   6.378   0.690   0.587
 7874SOL    HW124521   6.409   0.601   0.623
 7874SOL    HW224522   6.413   0.702   0.495
 7875SOL     OW24523   5.072   3.225   0.522
 7875SOL    HW124524   5.149   3.244   0.583
 7875SOL    HW224525   5.100   3.241   0.427
 7876SOL     OW24526   0.217   0.952   5.237
 7876SOL    HW124527   0.158   0.871   5.243
 7876SOL    HW224528   0.163   1.034   5.252
 7877SOL     OW24529   6.320   2.942   3.026
 7877SOL    HW124530   6.265   2.971   2.948
 7877SOL    HW224531   6.417   2.958   3.006
 7878SOL     OW24532   4.203   3.815   1.515
 7878SOL    HW124533   4.195   3.904   1.470
 7878SOL    HW224534   4.228   3.828   1.611
 7879SOL     OW24535   6.678   0.709   4.852
 7879SOL    HW124536   6.601   0.760   4.813
 7879SOL    HW224537   6.711   0.757   4.934
 7880SOL     OW24538   2.023   6.630   5.950
 7880SOL    HW124539   2.083   6.617   5.871
 7880SOL    HW224540   1.930   6.602   5.926
 7881SOL     OW24541   0.604   5.309   4.340
 7881SOL    HW124542   0.592   5.408   4.328
 7881SOL    HW224543   0.701   5.287   4.336
 7882SOL     OW24544   1.857   4.842   1.732
 7882SOL    HW124545   1.803   4.919   1.697
 7882SOL    HW224546   1.796   4.776   1.776
 7883SOL     OW24547   3.416   2.087   2.831
 7883SOL    HW124548   3.411   2.104   2.929
 7883SOL    HW224549   3.493   2.027   2.811
 7884SOL     OW24550   0.270   3.477   4.427
 7884SOL    HW124551   0.193   3.462   4.488
 7884SOL    HW224552   0.241   3.464   4.332
 7885SOL     OW24553   6.081   5.150   2.113
 7885SOL    HW124554   5.990   5.164   2.152
 7885SOL    HW224555   6.102   5.225   2.050
 7886SOL     OW24556   4.961   4.014   2.549
 7886SOL    HW124557   4.945   3.966   2.463
 7886SOL    HW224558   5.043   3.978   2.592
 7887SOL     OW24559   0.938   3.237   1.764
 7887SOL    HW124560   0.941   3.137   1.769
 7887SOL    HW224561   1.016   3.269   1.710
 7888SOL     OW24562   6.569   0.829   5.157
 7888SOL    HW124563   6.558   0.899   5.086
 7888SOL    HW224564   6.634   0.860   5.225
 7889SOL     OW24565   5.920   5.171   0.720
 7889SOL    HW124566   5.858   5.134   0.651
 7889SOL    HW224567   5.875   5.244   0.770
 7890SOL     OW24568   2.347   2.749   3.637
 7890SOL    HW124569   2.344   2.741   3.737
 7890SOL    HW224570   2.306   2.835   3.609
 7891SOL     OW24571   6.390   1.714   4.271
 7891SOL    HW124572   6.348   1.628   4.300
 7891SOL    HW224573   6.440   1.754   4.347
 7892SOL     OW24574   0.846   1.643   5.615
 7892SOL    HW124575   0.801   1.704   5.550
 7892SOL    HW224576   0.828   1.548   5.589
 7893SOL     OW24577   6.266   6.608   0.902
 7893SOL    HW124578   6.274   6.560   0.990
 7893SOL    HW224579   6.260   6.541   0.828
 7894SOL     OW24580   3.040   1.009   0.053
 7894SOL    HW124581   2.986   1.093   0.060
 7894SOL    HW224582   2.989   0.941   0.001
 7895SOL     OW24583   6.442   5.983   2.643
 7895SOL    HW124584   6.465   5.889   2.668
 7895SOL    HW224585   6.403   6.030   2.722
 7896SOL     OW24586   2.405   1.425   0.346
 7896SOL    HW124587   2.416   1.482   0.265
 7896SOL    HW224588   2.357   1.476   0.417
 7897SOL     OW24589   3.498   2.183   0.769
 7897SOL    HW124590   3.401   2.202   0.754
 7897SOL    HW224591   3.547   2.192   0.682
 7898SOL     OW24592   5.224   6.706   3.128
 7898SOL    HW124593   5.174   6.779   3.083
 7898SOL    HW224594   5.218   6.718   3.228
 7899SOL     OW24595   6.018   4.488   3.774
 7899SOL    HW124596   5.946   4.519   3.836
 7899SOL    HW224597   6.066   4.410   3.814
 7900SOL     OW24598   0.442   3.638   0.252
 7900SOL    HW124599   0.528   3.586   0.252
 7900SOL    HW224600   0.406   3.643   0.345
 7901SOL     OW24601   0.315   2.254   0.232
 7901SOL    HW124602   0.225   2.272   0.272
 7901SOL    HW224603   0.308   2.258   0.132
 7902SOL     OW24604   1.916   6.150   1.797
 7902SOL    HW124605   1.865   6.211   1.736
 7902SOL    HW224606   2.014   6.157   1.777
 7903SOL     OW24607   2.761   2.218   5.430
 7903SOL    HW124608   2.837   2.273   5.397
 7903SOL    HW224609   2.674   2.266   5.414
 7904SOL     OW24610   4.540   2.533   2.640
 7904SOL    HW124611   4.498   2.462   2.695
 7904SOL    HW224612   4.500   2.533   2.548
 7905SOL     OW24613   6.204   2.436   1.196
 7905SOL    HW124614   6.189   2.513   1.133
 7905SOL    HW224615   6.201   2.351   1.145
 7906SOL     OW24616   0.883   5.151   6.445
 7906SOL    HW124617   0.943   5.184   6.518
 7906SOL    HW224618   0.871   5.052   6.453
 7907SOL     OW24619   6.083   6.481   2.156
 7907SOL    HW124620   6.147   6.447   2.224
 7907SOL    HW224621   6.133   6.510   2.074
 7908SOL     OW24622   1.941   6.664   6.515
 7908SOL    HW124623   1.862   6.611   6.544
 7908SOL    HW224624   1.938   6.677   6.416
 7909SOL     OW24625   6.493   3.713   1.306
 7909SOL    HW124626   6.539   3.704   1.394
 7909SOL    HW224627   6.394   3.718   1.320
 7910SOL     OW24628   1.361   4.413   5.924
 7910SOL    HW124629   1.307   4.355   5.862
 7910SOL    HW224630   1.337   4.509   5.910
 7911SOL     OW24631   5.837   4.212   6.041
 7911SOL    HW124632   5.771   4.151   6.086
 7911SOL    HW224633   5.787   4.279   5.986
 7912SOL     OW24634   5.832   5.409   0.830
 7912SOL    HW124635   5.845   5.481   0.761
 7912SOL    HW224636   5.896   5.424   0.906
 7913SOL     OW24637   1.683   4.850   6.526
 7913SOL    HW124638   1.597   4.863   6.476
 7913SOL    HW224639   1.756   4.903   6.481
 7914SOL     OW24640   0.656   6.620   4.679
 7914SOL    HW124641   0.645   6.714   4.711
 7914SOL    HW224642   0.676   6.620   4.581
 7915SOL     OW24643   2.954   4.969   2.398
 7915SOL    HW124644   2.943   4.884   2.345
 7915SOL    HW224645   3.006   5.035   2.344
 7916SOL     OW24646   1.046   0.324   3.763
 7916SOL    HW124647   1.140   0.334   3.730
 7916SOL    HW224648   1.038   0.237   3.812
 7917SOL     OW24649   4.549   1.461   2.005
 7917SOL    HW124650   4.544   1.449   2.104
 7917SOL    HW224651   4.530   1.374   1.960
 7918SOL     OW24652   2.501   2.691   3.380
 7918SOL    HW124653   2.477   2.708   3.475
 7918SOL    HW224654   2.542   2.774   3.340
 7919SOL     OW24655   1.066   6.826   4.953
 7919SOL    HW124656   0.968   6.833   4.973
 7919SOL    HW224657   1.085   6.872   4.866
 7920SOL     OW24658   4.889   0.636   1.099
 7920SOL    HW124659   4.848   0.685   1.176
 7920SOL    HW224660   4.901   0.698   1.022
 7921SOL     OW24661   5.272   2.184   1.050
 7921SOL    HW124662   5.264   2.276   1.088
 7921SOL    HW224663   5.242   2.184   0.955
 7922SOL     OW24664   2.699   0.241   2.160
 7922SOL    HW124665   2.744   0.318   2.207
 7922SOL    HW224666   2.768   0.176   2.130
 7923SOL     OW24667   4.077   1.305   6.949
 7923SOL    HW124668   3.979   1.288   6.949
 7923SOL    HW224669   4.109   1.314   0.018
 7924SOL     OW24670   5.861   5.617   0.346
 7924SOL    HW124671   5.847   5.518   0.342
 7924SOL    HW224672   5.948   5.640   0.301
 7925SOL     OW24673   1.590   5.314   6.537
 7925SOL    HW124674   1.594   5.356   6.628
 7925SOL    HW224675   1.556   5.221   6.544
 7926SOL     OW24676   5.623   5.882   6.340
 7926SOL    HW124677   5.564   5.801   6.336
 7926SOL    HW224678   5.683   5.876   6.419
 7927SOL     OW24679   4.243   6.906   3.171
 7927SOL    HW124680   4.298   6.988   3.188
 7927SOL    HW224681   4.300   6.825   3.177
 7928SOL     OW24682   5.983   2.293   3.334
 7928SOL    HW124683   5.982   2.194   3.354
 7928SOL    HW224684   5.898   2.319   3.290
 7929SOL     OW24685   4.428   4.394   6.079
 7929SOL    HW124686   4.525   4.372   6.068
 7929SOL    HW224687   4.398   4.368   6.171
 7930SOL     OW24688   4.246   6.325   6.248
 7930SOL    HW124689   4.293   6.356   6.165
 7930SOL    HW224690   4.310   6.273   6.304
 7931SOL     OW24691   4.030   1.208   1.385
 7931SOL    HW124692   3.982   1.288   1.348
 7931SOL    HW224693   4.011   1.200   1.482
 7932SOL     OW24694   1.293   3.895   1.731
 7932SOL    HW124695   1.310   3.808   1.683
 7932SOL    HW224696   1.337   3.969   1.681
 7933SOL     OW24697   1.224   1.437   0.163
 7933SOL    HW124698   1.234   1.366   0.234
 7933SOL    HW224699   1.268   1.521   0.194
 7934SOL     OW24700   0.878   5.487   1.084
 7934SOL    HW124701   0.814   5.422   1.043
 7934SOL    HW224702   0.959   5.497   1.026
 7935SOL     OW24703   6.601   2.979   3.269
 7935SOL    HW124704   6.536   2.907   3.292
 7935SOL    HW224705   6.562   3.040   3.200
 7936SOL     OW24706   2.121   5.505   3.488
 7936SOL    HW124707   2.027   5.534   3.470
 7936SOL    HW224708   2.121   5.432   3.556
 7937SOL     OW24709   4.355   1.008   0.671
 7937SOL    HW124710   4.369   0.916   0.706
 7937SOL    HW224711   4.424   1.069   0.711
 7938SOL     OW24712   2.674   6.982   3.383
 7938SOL    HW124713   2.743   0.023   3.413
 7938SOL    HW224714   2.713   6.890   3.386
 7939SOL     OW24715   0.667   0.712   2.955
 7939SOL    HW124716   0.668   0.800   2.906
 7939SOL    HW224717   0.624   0.724   3.044
 7940SOL     OW24718   6.091   1.667   4.265
 7940SOL    HW124719   6.157   1.613   4.317
 7940SOL    HW224720   6.068   1.619   4.181
 7941SOL     OW24721   3.436   6.862   1.130
 7941SOL    HW124722   3.420   6.793   1.201
 7941SOL    HW224723   3.509   6.923   1.159
 7942SOL     OW24724   1.455   4.253   0.983
 7942SOL    HW124725   1.499   4.293   0.903
 7942SOL    HW224726   1.523   4.206   1.039
 7943SOL     OW24727   1.316   6.005   5.910
 7943SOL    HW124728   1.378   6.022   5.832
 7943SOL    HW224729   1.362   6.033   5.995
 7944SOL     OW24730   1.025   2.113   1.309
 7944SOL    HW124731   1.114   2.072   1.331
 7944SOL    HW224732   1.023   2.207   1.344
 7945SOL     OW24733   6.064   3.825   2.906
 7945SOL    HW124734   6.109   3.761   2.968
 7945SOL    HW224735   6.079   3.795   2.812
 7946SOL     OW24736   4.413   1.821   6.680
 7946SOL    HW124737   4.385   1.813   6.776
 7946SOL    HW224738   4.464   1.906   6.667
 7947SOL     OW24739   6.747   3.758   5.874
 7947SOL    HW124740   6.656   3.719   5.856
 7947SOL    HW224741   6.812   3.720   5.808
 7948SOL     OW24742   1.444   5.721   1.704
 7948SOL    HW124743   1.436   5.634   1.656
 7948SOL    HW224744   1.441   5.796   1.638
 7949SOL     OW24745   2.428   5.627   5.921
 7949SOL    HW124746   2.489   5.607   5.998
 7949SOL    HW224747   2.480   5.621   5.836
 7950SOL     OW24748   6.577   4.470   5.621
 7950SOL    HW124749   6.509   4.396   5.621
 7950SOL    HW224750   6.669   4.431   5.613
 7951SOL     OW24751   4.315   6.533   2.829
 7951SOL    HW124752   4.379   6.610   2.820
 7951SOL    HW224753   4.305   6.508   2.925
 7952SOL     OW24754   6.568   3.748   5.409
 7952SOL    HW124755   6.475   3.743   5.446
 7952SOL    HW224756   6.569   3.710   5.316
 7953SOL     OW24757   1.620   0.054   0.184
 7953SOL    HW124758   1.628   0.132   0.122
 7953SOL    HW224759   1.563   7.009   0.142
 7954SOL     OW24760   3.660   3.568   0.002
 7954SOL    HW124761   3.638   3.508   6.950
 7954SOL    HW224762   3.750   3.608   7.013
 7955SOL     OW24763   1.222   0.919   6.620
 7955SOL    HW124764   1.267   0.873   6.697
 7955SOL    HW224765   1.214   0.855   6.543
 7956SOL     OW24766   0.674   6.441   0.567
 7956SOL    HW124767   0.721   6.526   0.590
 7956SOL    HW224768   0.668   6.432   0.467
 7957SOL     OW24769   5.074   1.705   6.022
 7957SOL    HW124770   5.059   1.612   5.988
 7957SOL    HW224771   5.072   1.704   6.122
 7958SOL     OW24772   4.776   2.282   6.978
 7958SOL    HW124773   4.860   2.336   6.968
 7958SOL    HW224774   4.797   2.198   0.004
 7959SOL     OW24775   5.363   2.530   0.188
 7959SOL    HW124776   5.408   2.528   0.278
 7959SOL    HW224777   5.343   2.437   0.159
 7960SOL     OW24778   0.916   1.155   5.505
 7960SOL    HW124779   0.923   1.110   5.416
 7960SOL    HW224780   0.981   1.114   5.568
 7961SOL     OW24781   5.973   0.060   0.448
 7961SOL    HW124782   6.066   0.034   0.474
 7961SOL    HW224783   5.957   0.038   0.352
 7962SOL     OW24784   5.856   6.999   4.926
 7962SOL    HW124785   5.888   6.999   5.021
 7962SOL    HW224786   5.912   6.936   4.872
 7963SOL     OW24787   6.388   6.305   3.553
 7963SOL    HW124788   6.385   6.404   3.565
 7963SOL    HW224789   6.429   6.283   3.465
 7964SOL     OW24790   6.176   3.731   1.546
 7964SOL    HW124791   6.161   3.790   1.467
 7964SOL    HW224792   6.105   3.748   1.614
 7965SOL     OW24793   5.206   1.916   6.648
 7965SOL    HW124794   5.119   1.959   6.673
 7965SOL    HW224795   5.194   1.867   6.561
 7966SOL     OW24796   5.174   3.694   5.255
 7966SOL    HW124797   5.209   3.767   5.197
 7966SOL    HW224798   5.211   3.705   5.348
 7967SOL     OW24799   1.276   5.100   0.355
 7967SOL    HW124800   1.217   5.023   0.330
 7967SOL    HW224801   1.246   5.182   0.306
 7968SOL     OW24802   1.463   2.620   4.134
 7968SOL    HW124803   1.399   2.545   4.116
 7968SOL    HW224804   1.539   2.615   4.069
 7969SOL     OW24805   3.440   4.898   7.018
 7969SOL    HW124806   3.524   4.846   0.008
 7969SOL    HW224807   3.371   4.838   6.979
 7970SOL     OW24808   6.214   2.753   4.278
 7970SOL    HW124809   6.312   2.753   4.259
 7970SOL    HW224810   6.181   2.847   4.281
 7971SOL     OW24811   2.913   1.229   6.934
 7971SOL    HW124812   2.897   1.198   6.840
 7971SOL    HW224813   2.825   1.241   6.981
 7972SOL     OW24814   3.386   4.168   4.292
 7972SOL    HW124815   3.397   4.253   4.343
 7972SOL    HW224816   3.477   4.129   4.273
 7973SOL     OW24817   6.165   4.640   1.830
 7973SOL    HW124818   6.130   4.729   1.860
 7973SOL    HW224819   6.103   4.568   1.861
 7974SOL     OW24820   0.319   2.694   4.977
 7974SOL    HW124821   0.319   2.599   4.946
 7974SOL    HW224822   0.365   2.700   5.066
 7975SOL     OW24823   4.597   0.520   0.585
 7975SOL    HW124824   4.601   0.537   0.683
 7975SOL    HW224825   4.509   0.478   0.562
 7976SOL     OW24826   0.915   0.779   0.468
 7976SOL    HW124827   0.895   0.751   0.562
 7976SOL    HW224828   1.007   0.747   0.443
 7977SOL     OW24829   5.286   5.526   3.349
 7977SOL    HW124830   5.365   5.482   3.304
 7977SOL    HW224831   5.208   5.526   3.287
 7978SOL     OW24832   0.690   4.206   1.517
 7978SOL    HW124833   0.619   4.274   1.536
 7978SOL    HW224834   0.649   4.115   1.514
 7979SOL     OW24835   2.588   2.100   5.136
 7979SOL    HW124836   2.671   2.119   5.083
 7979SOL    HW224837   2.612   2.047   5.218
 7980SOL     OW24838   3.546   5.479   1.532
 7980SOL    HW124839   3.620   5.517   1.476
 7980SOL    HW224840   3.482   5.552   1.557
 7981SOL     OW24841   1.765   3.626   4.072
 7981SOL    HW124842   1.717   3.713   4.067
 7981SOL    HW224843   1.798   3.611   4.166
 7982SOL     OW24844   6.765   1.046   5.978
 7982SOL    HW124845   6.685   1.002   6.017
 7982SOL    HW224846   6.745   1.143   5.961
 7983SOL     OW24847   4.267   0.713   2.046
 7983SOL    HW124848   4.345   0.659   2.015
 7983SOL    HW224849   4.197   0.714   1.975
 7984SOL     OW24850   6.914   2.990   2.672
 7984SOL    HW124851   6.898   3.087   2.689
 7984SOL    HW224852   6.833   2.938   2.699
 7985SOL     OW24853   3.252   2.809   5.486
 7985SOL    HW124854   3.162   2.782   5.450
 7985SOL    HW224855   3.323   2.772   5.426
 7986SOL     OW24856   3.810   0.998   3.817
 7986SOL    HW124857   3.889   1.056   3.795
 7986SOL    HW224858   3.840   0.906   3.838
 7987SOL     OW24859   0.860   3.492   6.641
 7987SOL    HW124860   0.766   3.501   6.675
 7987SOL    HW224861   0.882   3.570   6.582
 7988SOL     OW24862   6.637   0.906   1.308
 7988SOL    HW124863   6.552   0.945   1.272
 7988SOL    HW224864   6.713   0.970   1.292
 7989SOL     OW24865   0.709   4.302   0.813
 7989SOL    HW124866   0.725   4.243   0.734
 7989SOL    HW224867   0.633   4.365   0.794
 7990SOL     OW24868   4.954   5.319   4.790
 7990SOL    HW124869   4.917   5.305   4.882
 7990SOL    HW224870   4.955   5.417   4.769
 7991SOL     OW24871   5.834   1.150   4.595
 7991SOL    HW124872   5.903   1.156   4.667
 7991SOL    HW224873   5.865   1.203   4.516
 7992SOL     OW24874   2.236   6.862   0.193
 7992SOL    HW124875   2.204   6.945   0.238
 7992SOL    HW224876   2.203   6.782   0.245
 7993SOL     OW24877   6.242   6.048   0.498
 7993SOL    HW124878   6.314   5.978   0.509
 7993SOL    HW224879   6.153   6.008   0.520
 7994SOL     OW24880   6.664   0.508   4.233
 7994SOL    HW124881   6.650   0.585   4.170
 7994SOL    HW224882   6.729   0.535   4.304
 7995SOL     OW24883   0.886   5.591   1.332
 7995SOL    HW124884   0.898   5.557   1.239
 7995SOL    HW224885   0.976   5.604   1.375
 7996SOL     OW24886   2.308   0.111   3.255
 7996SOL    HW124887   2.231   0.147   3.203
 7996SOL    HW224888   2.356   0.042   3.200
 7997SOL     OW24889   2.304   2.008   5.582
 7997SOL    HW124890   2.247   2.088   5.602
 7997SOL    HW224891   2.400   2.034   5.581
 7998SOL     OW24892   2.431   0.993   0.662
 7998SOL    HW124893   2.490   1.051   0.607
 7998SOL    HW224894   2.484   0.917   0.700
 7999SOL     OW24895   0.873   0.092   3.557
 7999SOL    HW124896   0.901   0.101   3.653
 7999SOL    HW224897   0.877   0.182   3.513
 8000SOL     OW24898   4.322   5.626   1.144
 8000SOL    HW124899   4.361   5.680   1.069
 8000SOL    HW224900   4.225   5.649   1.155
 8001SOL     OW24901   4.334   4.271   1.403
 8001SOL    HW124902   4.414   4.283   1.461
 8001SOL    HW224903   4.290   4.359   1.388
 8002SOL     OW24904   1.153   7.011   4.769
 8002SOL    HW124905   1.143   7.020   4.670
 8002SOL    HW224906   1.123   0.070   4.813
 8003SOL     OW24907   3.085   5.619   2.619
 8003SOL    HW124908   3.075   5.694   2.553
 8003SOL    HW224909   2.996   5.575   2.632
 8004SOL     OW24910   1.320   3.558   4.134
 8004SOL    HW124911   1.306   3.474   4.186
 8004SOL    HW224912   1.374   3.622   4.189
 8005SOL     OW24913   1.945   0.567   3.390
 8005SOL    HW124914   1.972   0.656   3.353
 8005SOL    HW224915   1.894   0.516   3.320
 8006SOL     OW24916   4.455   5.293   5.675
 8006SOL    HW124917   4.511   5.358   5.624
 8006SOL    HW224918   4.506   5.209   5.691
 8007SOL     OW24919   0.329   0.786   0.699
 8007SOL    HW124920   0.309   0.689   0.691
 8007SOL    HW224921   0.339   0.825   0.607
 8008SOL     OW24922   4.663   5.108   0.563
 8008SOL    HW124923   4.593   5.117   0.634
 8008SOL    HW224924   4.623   5.131   0.474
 8009SOL     OW24925   6.413   1.328   0.589
 8009SOL    HW124926   6.452   1.323   0.497
 8009SOL    HW224927   6.313   1.338   0.582
 8010SOL     OW24928   3.551   0.489   5.789
 8010SOL    HW124929   3.599   0.420   5.734
 8010SOL    HW224930   3.576   0.580   5.757
 8011SOL     OW24931   3.939   1.885   2.597
 8011SOL    HW124932   4.007   1.916   2.530
 8011SOL    HW224933   3.899   1.799   2.566
 8012SOL     OW24934   6.324   1.185   4.267
 8012SOL    HW124935   6.272   1.152   4.346
 8012SOL    HW224936   6.350   1.107   4.210
 8013SOL     OW24937   3.632   1.042   3.140
 8013SOL    HW124938   3.581   1.119   3.103
 8013SOL    HW224939   3.639   1.052   3.240
 8014SOL     OW24940   2.524   2.577   2.916
 8014SOL    HW124941   2.555   2.486   2.890
 8014SOL    HW224942   2.603   2.636   2.933
 8015SOL     OW24943   3.786   7.016   4.258
 8015SOL    HW124944   3.799   6.944   4.190
 8015SOL    HW224945   3.743   0.070   4.215
 8016SOL     OW24946   3.924   2.449   5.471
 8016SOL    HW124947   3.939   2.372   5.533
 8016SOL    HW224948   3.950   2.423   5.378
 8017SOL     OW24949   6.031   5.829   1.253
 8017SOL    HW124950   6.117   5.781   1.234
 8017SOL    HW224951   5.960   5.762   1.274
 8018SOL     OW24952   3.467   3.007   0.646
 8018SOL    HW124953   3.441   3.076   0.580
 8018SOL    HW224954   3.433   3.032   0.737
 8019SOL     OW24955   2.672   3.049   0.393
 8019SOL    HW124956   2.771   3.038   0.399
 8019SOL    HW224957   2.647   3.080   0.301
 8020SOL     OW24958   0.235   0.383   6.239
 8020SOL    HW124959   0.152   0.350   6.194
 8020SOL    HW224960   0.211   0.429   6.324
 8021SOL     OW24961   1.018   3.419   0.569
 8021SOL    HW124962   1.023   3.394   0.665
 8021SOL    HW224963   0.972   3.507   0.560
 8022SOL     OW24964   4.002   0.040   2.195
 8022SOL    HW124965   4.092   0.012   2.161
 8022SOL    HW224966   3.956   0.097   2.127
 8023SOL     OW24967   4.218   5.722   2.021
 8023SOL    HW124968   4.226   5.723   1.922
 8023SOL    HW224969   4.284   5.658   2.060
 8024SOL     OW24970   2.834   0.853   7.013
 8024SOL    HW124971   2.759   0.826   0.049
 8024SOL    HW224972   2.799   0.866   6.921
 8025SOL     OW24973   0.994   6.352   1.834
 8025SOL    HW124974   0.998   6.306   1.745
 8025SOL    HW224975   1.085   6.353   1.875
 8026SOL     OW24976   0.988   6.162   6.642
 8026SOL    HW124977   0.892   6.134   6.634
 8026SOL    HW224978   0.997   6.257   6.611
 8027SOL     OW24979   3.547   0.165   6.616
 8027SOL    HW124980   3.565   0.067   6.624
 8027SOL    HW224981   3.599   0.215   6.684
 8028SOL     OW24982   3.878   5.871   5.769
 8028SOL    HW124983   3.936   5.909   5.697
 8028SOL    HW224984   3.846   5.780   5.743
 8029SOL     OW24985   0.959   0.644   1.536
 8029SOL    HW124986   0.974   0.547   1.520
 8029SOL    HW224987   0.911   0.657   1.622
 8030SOL     OW24988   0.855   4.421   1.030
 8030SOL    HW124989   0.953   4.424   1.013
 8030SOL    HW224990   0.809   4.369   0.958
 8031SOL     OW24991   6.729   0.509   2.302
 8031SOL    HW124992   6.715   0.462   2.215
 8031SOL    HW224993   6.810   0.471   2.348
 8032SOL     OW24994   0.012   2.197   0.328
 8032SOL    HW124995   0.010   2.176   0.426
 8032SOL    HW224996   0.009   2.296   0.315
 8033SOL     OW24997   3.968   3.999   1.195
 8033SOL    HW124998   3.991   4.078   1.139
 8033SOL    HW224999   4.034   3.990   1.269
 8034SOL     OW25000   0.191   0.154   5.626
 8034SOL    HW125001   0.261   0.222   5.603
 8034SOL    HW225002   0.216   0.066   5.586
 8035SOL     OW25003   6.339   0.198   4.132
 8035SOL    HW125004   6.294   0.189   4.043
 8035SOL    HW225005   6.271   0.190   4.205
 8036SOL     OW25006   4.954   2.908   4.387
 8036SOL    HW125007   5.000   2.855   4.458
 8036SOL    HW225008   5.007   2.903   4.302
 8037SOL     OW25009   2.285   0.907   6.103
 8037SOL    HW125010   2.303   0.935   6.197
 8037SOL    HW225011   2.359   0.848   6.070
 8038SOL     OW25012   6.690   5.529   1.914
 8038SOL    HW125013   6.730   5.514   1.824
 8038SOL    HW225014   6.761   5.561   1.977
 8039SOL     OW25015   1.830   2.438   5.088
 8039SOL    HW125016   1.834   2.346   5.052
 8039SOL    HW225017   1.887   2.444   5.170
 8040SOL     OW25018   0.695   5.884   6.202
 8040SOL    HW125019   0.746   5.802   6.229
 8040SOL    HW225020   0.713   5.905   6.106
 8041SOL     OW25021   3.112   1.545   3.347
 8041SOL    HW125022   3.089   1.641   3.333
 8041SOL    HW225023   3.178   1.516   3.277
 8042SOL     OW25024   3.771   4.252   5.988
 8042SOL    HW125025   3.828   4.313   6.043
 8042SOL    HW225026   3.711   4.307   5.929
 8043SOL     OW25027   5.145   5.591   0.060
 8043SOL    HW125028   5.104   5.520   0.117
 8043SOL    HW225029   5.080   5.619   7.015
 8044SOL     OW25030   1.940   2.920   1.168
 8044SOL    HW125031   1.989   2.915   1.255
 8044SOL    HW225032   1.903   2.831   1.144
 8045SOL     OW25033   6.382   3.552   4.647
 8045SOL    HW125034   6.442   3.511   4.577
 8045SOL    HW225035   6.402   3.510   4.735
 8046SOL     OW25036   0.204   4.623   1.260
 8046SOL    HW125037   0.257   4.567   1.196
 8046SOL    HW225038   0.139   4.565   1.310
 8047SOL     OW25039   3.032   6.027   6.782
 8047SOL    HW125040   3.126   5.998   6.799
 8047SOL    HW225041   2.974   5.947   6.770
 8048SOL     OW25042   3.987   2.204   5.593
 8048SOL    HW125043   3.967   2.125   5.535
 8048SOL    HW225044   3.952   2.187   5.685
 8049SOL     OW25045   1.526   1.273   0.240
 8049SOL    HW125046   1.471   1.190   0.242
 8049SOL    HW225047   1.617   1.254   0.278
 8050SOL     OW25048   0.570   4.783   6.330
 8050SOL    HW125049   0.509   4.856   6.300
 8050SOL    HW225050   0.521   4.722   6.392
 8051SOL     OW25051   4.782   6.812   3.498
 8051SOL    HW125052   4.720   6.861   3.437
 8051SOL    HW225053   4.877   6.840   3.478
 8052SOL     OW25054   3.270   1.882   2.565
 8052SOL    HW125055   3.338   1.929   2.508
 8052SOL    HW225056   3.189   1.940   2.573
 8053SOL     OW25057   1.786   2.380   6.726
 8053SOL    HW125058   1.852   2.331   6.783
 8053SOL    HW225059   1.699   2.331   6.726
 8054SOL     OW25060   4.853   3.284   4.937
 8054SOL    HW125061   4.839   3.381   4.956
 8054SOL    HW225062   4.888   3.273   4.844
 8055SOL     OW25063   6.535   0.233   6.637
 8055SOL    HW125064   6.552   0.248   6.735
 8055SOL    HW225065   6.459   0.168   6.627
 8056SOL     OW25066   2.002   1.322   3.847
 8056SOL    HW125067   2.067   1.261   3.801
 8056SOL    HW225068   2.025   1.417   3.825
 8057SOL     OW25069   3.045   2.148   2.298
 8057SOL    HW125070   3.023   2.210   2.222
 8057SOL    HW225071   3.009   2.057   2.277
 8058SOL     OW25072   3.876   6.198   1.844
 8058SOL    HW125073   3.896   6.110   1.887
 8058SOL    HW225074   3.857   6.183   1.746
 8059SOL     OW25075   2.969   2.982   5.772
 8059SOL    HW125076   2.899   2.912   5.756
 8059SOL    HW225077   3.001   3.018   5.684
 8060SOL     OW25078   6.479   1.057   6.029
 8060SOL    HW125079   6.421   1.023   6.103
 8060SOL    HW225080   6.423   1.084   5.951
 8061SOL     OW25081   6.830   0.747   2.097
 8061SOL    HW125082   6.732   0.730   2.099
 8061SOL    HW225083   6.861   0.773   2.189
 8062SOL     OW25084   4.488   4.952   5.416
 8062SOL    HW125085   4.518   4.864   5.379
 8062SOL    HW225086   4.394   4.971   5.387
 8063SOL     OW25087   2.700   4.702   2.924
 8063SOL    HW125088   2.686   4.673   3.019
 8063SOL    HW225089   2.766   4.778   2.922
 8064SOL     OW25090   6.633   1.744   0.492
 8064SOL    HW125091   6.623   1.692   0.577
 8064SOL    HW225092   6.701   1.816   0.504
 8065SOL     OW25093   4.481   6.658   6.899
 8065SOL    HW125094   4.455   6.669   6.803
 8065SOL    HW225095   4.511   6.564   6.914
 8066SOL     OW25096   0.259   7.025   6.235
 8066SOL    HW125097   0.300   6.964   6.167
 8066SOL    HW225098   0.320   0.077   6.252
 8067SOL     OW25099   5.767   0.917   4.204
 8067SOL    HW125100   5.756   0.939   4.301
 8067SOL    HW225101   5.677   0.908   4.162
 8068SOL     OW25102   6.787   3.418   1.406
 8068SOL    HW125103   6.751   3.426   1.499
 8068SOL    HW225104   6.733   3.349   1.357
 8069SOL     OW25105   1.517   3.054   2.586
 8069SOL    HW125106   1.511   3.057   2.486
 8069SOL    HW225107   1.584   2.985   2.614
 8070SOL     OW25108   5.165   3.878   1.007
 8070SOL    HW125109   5.245   3.821   0.985
 8070SOL    HW225110   5.154   3.947   0.936
 8071SOL     OW25111   2.757   0.203   6.104
 8071SOL    HW125112   2.700   0.152   6.040
 8071SOL    HW225113   2.854   0.187   6.082
 8072SOL     OW25114   2.457   2.014   4.846
 8072SOL    HW125115   2.440   2.087   4.780
 8072SOL    HW225116   2.533   2.040   4.906
 8073SOL     OW25117   4.923   0.240   6.991
 8073SOL    HW125118   4.951   0.314   0.027
 8073SOL    HW225119   4.973   0.247   6.905
 8074SOL     OW25120   6.696   0.720   6.988
 8074SOL    HW125121   6.620   0.747   6.930
 8074SOL    HW225122   6.756   0.657   6.938
 8075SOL     OW25123   0.360   7.012   0.640
 8075SOL    HW125124   0.279   7.002   0.582
 8075SOL    HW225125   0.342   6.970   0.730
 8076SOL     OW25126   6.846   6.269   0.678
 8076SOL    HW125127   6.786   6.222   0.613
 8076SOL    HW225128   6.911   6.204   0.717
 8077SOL     OW25129   5.700   4.585   0.897
 8077SOL    HW125130   5.699   4.487   0.877
 8077SOL    HW225131   5.710   4.599   0.995
 8078SOL     OW25132   6.639   0.623   1.263
 8078SOL    HW125133   6.673   0.569   1.341
 8078SOL    HW225134   6.653   0.720   1.281
 8079SOL     OW25135   0.939   0.870   6.647
 8079SOL    HW125136   0.878   0.844   6.722
 8079SOL    HW225137   1.009   0.934   6.681
 8080SOL     OW25138   1.259   3.581   3.316
 8080SOL    HW125139   1.284   3.632   3.398
 8080SOL    HW225140   1.292   3.487   3.323
 8081SOL     OW25141   6.668   6.829   4.872
 8081SOL    HW125142   6.626   6.797   4.957
 8081SOL    HW225143   6.738   6.763   4.843
 8082SOL     OW25144   3.642   2.018   4.161
 8082SOL    HW125145   3.555   2.041   4.116
 8082SOL    HW225146   3.625   1.953   4.235
 8083SOL     OW25147   6.640   2.089   4.420
 8083SOL    HW125148   6.715   2.059   4.362
 8083SOL    HW225149   6.576   2.143   4.365
 8084SOL     OW25150   4.148   1.803   5.591
 8084SOL    HW125151   4.241   1.818   5.626
 8084SOL    HW225152   4.083   1.809   5.667
 8085SOL     OW25153   1.934   6.203   4.480
 8085SOL    HW125154   1.858   6.139   4.467
 8085SOL    HW225155   1.986   6.176   4.561
 8086SOL     OW25156   6.598   1.874   2.702
 8086SOL    HW125157   6.632   1.824   2.782
 8086SOL    HW225158   6.525   1.821   2.658
 8087SOL     OW25159   6.907   0.940   6.565
 8087SOL    HW125160   6.890   0.994   6.648
 8087SOL    HW225161   6.937   1.001   6.491
 8088SOL     OW25162   6.952   0.122   5.290
 8088SOL    HW125163   6.961   0.138   5.388
 8088SOL    HW225164   6.858   0.093   5.270
 8089SOL     OW25165   6.362   2.023   0.005
 8089SOL    HW125166   6.297   1.999   6.958
 8089SOL    HW225167   6.451   2.045   6.988
 8090SOL     OW25168   4.528   2.422   5.348
 8090SOL    HW125169   4.471   2.410   5.429
 8090SOL    HW225170   4.607   2.479   5.371
 8091SOL     OW25171   0.875   4.479   4.451
 8091SOL    HW125172   0.929   4.524   4.380
 8091SOL    HW225173   0.847   4.388   4.420
 8092SOL     OW25174   4.915   0.985   5.738
 8092SOL    HW125175   4.965   0.938   5.811
 8092SOL    HW225176   4.848   0.922   5.698
 8093SOL     OW25177   3.230   6.280   3.164
 8093SOL    HW125178   3.146   6.319   3.202
 8093SOL    HW225179   3.289   6.354   3.131
 8094SOL     OW25180   2.073   3.727   4.133
 8094SOL    HW125181   1.974   3.729   4.145
 8094SOL    HW225182   2.110   3.644   4.177
 8095SOL     OW25183   1.705   4.733   5.048
 8095SOL    HW125184   1.664   4.680   5.123
 8095SOL    HW225185   1.793   4.693   5.023
 8096SOL     OW25186   1.124   4.884   0.239
 8096SOL    HW125187   1.175   4.798   0.244
 8096SOL    HW225188   1.026   4.865   0.253
 8097SOL     OW25189   4.765   6.224   0.097
 8097SOL    HW125190   4.695   6.211   0.168
 8097SOL    HW225191   4.748   6.310   0.048
 8098SOL     OW25192   2.297   5.956   5.305
 8098SOL    HW125193   2.231   5.930   5.235
 8098SOL    HW225194   2.289   6.053   5.324
 8099SOL     OW25195   1.559   4.222   2.249
 8099SOL    HW125196   1.560   4.135   2.298
 8099SOL    HW225197   1.645   4.233   2.199
 8100SOL     OW25198   6.543   0.315   6.396
 8100SOL    HW125199   6.553   0.283   6.490
 8100SOL    HW225200   6.504   0.243   6.339
 8101SOL     OW25201   2.934   5.100   1.055
 8101SOL    HW125202   2.862   5.032   1.046
 8101SOL    HW225203   2.896   5.192   1.047
 8102SOL     OW25204   0.593   4.054   3.861
 8102SOL    HW125205   0.550   4.099   3.783
 8102SOL    HW225206   0.635   3.968   3.830
 8103SOL     OW25207   3.863   0.841   1.188
 8103SOL    HW125208   3.941   0.814   1.245
 8103SOL    HW225209   3.886   0.924   1.138
 8104SOL     OW25210   1.999   5.123   0.008
 8104SOL    HW125211   1.982   5.024   0.003
 8104SOL    HW225212   2.006   5.160   6.941
 8105SOL     OW25213   6.754   6.763   4.182
 8105SOL    HW125214   6.823   6.827   4.150
 8105SOL    HW225215   6.765   6.675   4.135
 8106SOL     OW25216   2.645   6.567   6.281
 8106SOL    HW125217   2.617   6.496   6.217
 8106SOL    HW225218   2.738   6.549   6.311
 8107SOL     OW25219   1.721   6.298   6.777
 8107SOL    HW125220   1.661   6.303   6.856
 8107SOL    HW225221   1.806   6.251   6.803
 8108SOL     OW25222   1.156   1.098   6.934
 8108SOL    HW125223   1.238   1.149   6.958
 8108SOL    HW225224   1.174   1.000   6.943
 8109SOL     OW25225   6.513   2.992   1.686
 8109SOL    HW125226   6.419   2.960   1.688
 8109SOL    HW225227   6.531   3.051   1.764
 8110SOL     OW25228   4.095   4.499   0.991
 8110SOL    HW125229   4.159   4.576   0.985
 8110SOL    HW225230   4.001   4.535   0.991
 8111SOL     OW25231   6.411   1.565   2.744
 8111SOL    HW125232   6.406   1.632   2.670
 8111SOL    HW225233   6.341   1.495   2.731
 8112SOL     OW25234   1.689   5.107   6.769
 8112SOL    HW125235   1.620   5.078   6.835
 8112SOL    HW225236   1.713   5.031   6.709
 8113SOL     OW25237   5.325   4.361   6.183
 8113SOL    HW125238   5.244   4.322   6.226
 8113SOL    HW225239   5.366   4.429   6.243
 8114SOL     OW25240   1.705   3.650   2.890
 8114SOL    HW125241   1.670   3.557   2.893
 8114SOL    HW225242   1.630   3.715   2.902
 8115SOL     OW25243   2.250   1.190   5.885
 8115SOL    HW125244   2.233   1.213   5.789
 8115SOL    HW225245   2.348   1.175   5.899
 8116SOL     OW25246   4.101   3.120   1.637
 8116SOL    HW125247   4.037   3.169   1.579
 8116SOL    HW225248   4.163   3.065   1.581
 8117SOL     OW25249   2.624   6.726   4.272
 8117SOL    HW125250   2.615   6.658   4.199
 8117SOL    HW225251   2.707   6.780   4.256
 8118SOL     OW25252   6.436   2.935   7.009
 8118SOL    HW125253   6.455   2.854   6.953
 8118SOL    HW225254   6.456   2.915   0.079
 8119SOL     OW25255   5.712   6.531   6.807
 8119SOL    HW125256   5.802   6.491   6.817
 8119SOL    HW225257   5.697   6.598   6.880
 8120SOL     OW25258   1.860   6.661   2.138
 8120SOL    HW125259   1.917   6.581   2.159
 8120SOL    HW225260   1.883   6.695   2.046
 8121SOL     OW25261   1.240   2.861   2.293
 8121SOL    HW125262   1.243   2.961   2.297
 8121SOL    HW225263   1.257   2.822   2.383
 8122SOL     OW25264   0.290   4.870   1.308
 8122SOL    HW125265   0.229   4.942   1.276
 8122SOL    HW225266   0.257   4.781   1.275
 8123SOL     OW25267   6.386   1.743   0.397
 8123SOL    HW125268   6.360   1.649   0.377
 8123SOL    HW225269   6.482   1.746   0.425
 8124SOL     OW25270   5.806   5.890   4.762
 8124SOL    HW125271   5.737   5.839   4.813
 8124SOL    HW225272   5.760   5.955   4.701
 8125SOL     OW25273   1.454   5.374   2.295
 8125SOL    HW125274   1.455   5.276   2.279
 8125SOL    HW225275   1.363   5.402   2.325
 8126SOL     OW25276   3.911   5.846   4.868
 8126SOL    HW125277   3.968   5.841   4.786
 8126SOL    HW225278   3.891   5.754   4.901
 8127SOL     OW25279   3.560   1.802   6.135
 8127SOL    HW125280   3.544   1.753   6.220
 8127SOL    HW225281   3.477   1.851   6.108
 8128SOL     OW25282   3.013   2.302   1.130
 8128SOL    HW125283   3.107   2.273   1.111
 8128SOL    HW225284   3.006   2.401   1.117
 8129SOL     OW25285   0.459   2.390   2.495
 8129SOL    HW125286   0.540   2.333   2.485
 8129SOL    HW225287   0.486   2.487   2.496
 8130SOL     OW25288   0.576   6.006   6.432
 8130SOL    HW125289   0.631   6.014   6.516
 8130SOL    HW225290   0.623   5.944   6.368
 8131SOL     OW25291   1.818   2.581   6.908
 8131SOL    HW125292   1.777   2.517   6.843
 8131SOL    HW225293   1.915   2.561   6.920
 8132SOL     OW25294   0.201   1.283   5.068
 8132SOL    HW125295   0.107   1.293   5.102
 8132SOL    HW225296   0.207   1.200   5.012
 8133SOL     OW25297   3.287   4.809   1.089
 8133SOL    HW125298   3.372   4.800   1.141
 8133SOL    HW225299   3.262   4.721   1.049
 8134SOL     OW25300   5.286   1.902   6.040
 8134SOL    HW125301   5.352   1.869   5.972
 8134SOL    HW225302   5.215   1.832   6.055
 8135SOL     OW25303   2.694   6.920   2.080
 8135SOL    HW125304   2.718   6.838   2.131
 8135SOL    HW225305   2.768   6.987   2.088
 8136SOL     OW25306   4.936   4.255   1.917
 8136SOL    HW125307   4.944   4.162   1.951
 8136SOL    HW225308   5.027   4.292   1.899
 8137SOL     OW25309   4.564   1.911   5.885
 8137SOL    HW125310   4.611   1.846   5.825
 8137SOL    HW225311   4.619   1.927   5.967
 8138SOL     OW25312   5.248   1.228   2.383
 8138SOL    HW125313   5.216   1.153   2.441
 8138SOL    HW225314   5.282   1.191   2.296
 8139SOL     OW25315   0.183   1.983   3.248
 8139SOL    HW125316   0.202   1.971   3.151
 8139SOL    HW225317   0.262   1.951   3.302
 8140SOL     OW25318   4.686   2.355   3.349
 8140SOL    HW125319   4.763   2.351   3.413
 8140SOL    HW225320   4.714   2.321   3.260
 8141SOL     OW25321   5.505   4.509   4.149
 8141SOL    HW125322   5.430   4.448   4.176
 8141SOL    HW225323   5.583   4.454   4.117
 8142SOL     OW25324   0.734   6.047   6.673
 8142SOL    HW125325   0.685   6.130   6.699
 8142SOL    HW225326   0.748   5.990   6.754
 8143SOL     OW25327   6.068   3.398   5.655
 8143SOL    HW125328   6.064   3.321   5.591
 8143SOL    HW225329   6.162   3.406   5.690
 8144SOL     OW25330   5.072   0.039   0.120
 8144SOL    HW125331   5.104   0.080   0.206
 8144SOL    HW225332   5.042   0.111   0.058
 8145SOL     OW25333   4.848   5.919   2.771
 8145SOL    HW125334   4.889   5.840   2.817
 8145SOL    HW225335   4.816   5.984   2.839
 8146SOL     OW25336   3.727   1.081   4.375
 8146SOL    HW125337   3.648   1.024   4.352
 8146SOL    HW225338   3.742   1.147   4.301
 8147SOL     OW25339   4.778   0.710   3.085
 8147SOL    HW125340   4.837   0.649   3.138
 8147SOL    HW225341   4.683   0.681   3.095
 8148SOL     OW25342   5.929   4.376   3.422
 8148SOL    HW125343   5.917   4.466   3.380
 8148SOL    HW225344   5.890   4.376   3.515
 8149SOL     OW25345   3.983   5.024   3.039
 8149SOL    HW125346   3.927   5.106   3.040
 8149SOL    HW225347   4.060   5.037   2.976
 8150SOL     OW25348   0.889   5.889   1.345
 8150SOL    HW125349   0.868   5.794   1.321
 8150SOL    HW225350   0.831   5.918   1.421
 8151SOL     OW25351   0.931   1.915   4.933
 8151SOL    HW125352   0.915   1.998   4.880
 8151SOL    HW225353   0.847   1.888   4.980
 8152SOL     OW25354   1.421   0.504   2.799
 8152SOL    HW125355   1.427   0.534   2.704
 8152SOL    HW225356   1.355   0.560   2.848
 8153SOL     OW25357   1.761   6.580   6.990
 8153SOL    HW125358   1.677   6.526   6.979
 8153SOL    HW225359   1.743   6.674   6.964
 8154SOL     OW25360   2.227   6.721   3.216
 8154SOL    HW125361   2.141   6.760   3.182
 8154SOL    HW225362   2.209   6.630   3.255
 8155SOL     OW25363   3.352   3.785   4.345
 8155SOL    HW125364   3.269   3.739   4.378
 8155SOL    HW225365   3.376   3.748   4.255
 8156SOL     OW25366   0.120   0.823   5.743
 8156SOL    HW125367   0.083   0.747   5.796
 8156SOL    HW225368   0.149   0.790   5.653
 8157SOL     OW25369   6.054   2.775   6.624
 8157SOL    HW125370   6.059   2.724   6.710
 8157SOL    HW225371   6.056   2.873   6.642
 8158SOL     OW25372   1.926   5.327   2.523
 8158SOL    HW125373   1.982   5.255   2.483
 8158SOL    HW225374   1.895   5.390   2.451
 8159SOL     OW25375   0.864   5.200   1.589
 8159SOL    HW125376   0.886   5.103   1.599
 8159SOL    HW225377   0.770   5.209   1.555
 8160SOL     OW25378   4.752   1.881   2.022
 8160SOL    HW125379   4.784   1.820   1.949
 8160SOL    HW225380   4.677   1.937   1.988
 8161SOL     OW25381   4.322   2.042   1.801
 8161SOL    HW125382   4.237   2.013   1.846
 8161SOL    HW225383   4.301   2.102   1.724
 8162SOL     OW25384   5.939   0.774   1.694
 8162SOL    HW125385   5.866   0.840   1.678
 8162SOL    HW225386   6.027   0.819   1.683
 8163SOL     OW25387   1.880   3.393   4.918
 8163SOL    HW125388   1.947   3.442   4.974
 8163SOL    HW225389   1.789   3.403   4.957
 8164SOL     OW25390   4.805   2.417   2.670
 8164SOL    HW125391   4.724   2.462   2.633
 8164SOL    HW225392   4.860   2.379   2.596
 8165SOL     OW25393   2.323   5.028   1.612
 8165SOL    HW125394   2.366   4.977   1.686
 8165SOL    HW225395   2.229   4.995   1.599
 8166SOL     OW25396   3.523   6.611   0.970
 8166SOL    HW125397   3.476   6.691   1.008
 8166SOL    HW225398   3.620   6.631   0.960
 8167SOL     OW25399   5.721   3.090   3.956
 8167SOL    HW125400   5.652   3.088   4.029
 8167SOL    HW225401   5.799   3.145   3.985
 8168SOL     OW25402   3.306   1.743   2.266
 8168SOL    HW125403   3.326   1.841   2.266
 8168SOL    HW225404   3.328   1.705   2.357
 8169SOL     OW25405   5.172   3.982   5.132
 8169SOL    HW125406   5.213   4.065   5.171
 8169SOL    HW225407   5.184   3.981   5.033
 8170SOL     OW25408   1.673   4.727   4.517
 8170SOL    HW125409   1.591   4.670   4.515
 8170SOL    HW225410   1.720   4.720   4.428
 8171SOL     OW25411   1.432   1.161   6.295
 8171SOL    HW125412   1.383   1.157   6.381
 8171SOL    HW225413   1.379   1.114   6.224
 8172SOL     OW25414   6.793   6.251   1.105
 8172SOL    HW125415   6.821   6.224   1.197
 8172SOL    HW225416   6.850   6.203   1.038
 8173SOL     OW25417   5.767   2.782   6.793
 8173SOL    HW125418   5.838   2.802   6.860
 8173SOL    HW225419   5.745   2.866   6.742
 8174SOL     OW25420   5.234   6.695   1.954
 8174SOL    HW125421   5.273   6.776   1.998
 8174SOL    HW225422   5.254   6.614   2.010
 8175SOL     OW25423   1.499   2.518   4.756
 8175SOL    HW125424   1.594   2.548   4.765
 8175SOL    HW225425   1.471   2.471   4.840
 8176SOL     OW25426   3.993   5.392   3.240
 8176SOL    HW125427   4.026   5.384   3.146
 8176SOL    HW225428   3.893   5.390   3.242
 8177SOL     OW25429   0.680   6.792   5.412
 8177SOL    HW125430   0.753   6.783   5.479
 8177SOL    HW225431   0.685   6.716   5.347
 8178SOL     OW25432   1.937   6.943   5.993
 8178SOL    HW125433   2.023   6.929   6.043
 8178SOL    HW225434   1.906   0.012   6.005
 8179SOL     OW25435   3.255   0.347   0.020
 8179SOL    HW125436   3.224   0.277   6.981
 8179SOL    HW225437   3.177   0.401   0.050
 8180SOL     OW25438   4.696   4.719   5.800
 8180SOL    HW125439   4.620   4.775   5.833
 8180SOL    HW225440   4.743   4.768   5.727
 8181SOL     OW25441   2.476   2.105   2.246
 8181SOL    HW125442   2.397   2.166   2.249
 8181SOL    HW225443   2.533   2.128   2.166
 8182SOL     OW25444   5.401   2.680   5.919
 8182SOL    HW125445   5.332   2.730   5.867
 8182SOL    HW225446   5.391   2.582   5.900
 8183SOL     OW25447   1.882   2.804   3.980
 8183SOL    HW125448   1.938   2.738   4.030
 8183SOL    HW225449   1.900   2.896   4.015
 8184SOL     OW25450   5.782   6.481   4.712
 8184SOL    HW125451   5.818   6.538   4.786
 8184SOL    HW225452   5.822   6.390   4.717
 8185SOL     OW25453   1.751   2.196   3.312
 8185SOL    HW125454   1.821   2.267   3.315
 8185SOL    HW225455   1.793   2.106   3.328
 8186SOL     OW25456   4.179   3.904   6.601
 8186SOL    HW125457   4.265   3.870   6.639
 8186SOL    HW225458   4.196   3.952   6.516
 8187SOL     OW25459   1.925   1.149   5.721
 8187SOL    HW125460   1.952   1.053   5.723
 8187SOL    HW225461   1.928   1.187   5.813
 8188SOL     OW25462   5.539   3.623   2.848
 8188SOL    HW125463   5.632   3.649   2.874
 8188SOL    HW225464   5.517   3.534   2.888
 8189SOL     OW25465   0.047   5.102   2.869
 8189SOL    HW125466   7.001   5.038   2.838
 8189SOL    HW225467   0.103   5.057   2.939
 8190SOL     OW25468   6.088   3.695   2.238
 8190SOL    HW125469   6.069   3.789   2.211
 8190SOL    HW225470   6.139   3.649   2.165
 8191SOL     OW25471   6.911   5.048   1.845
 8191SOL    HW125472   6.871   4.963   1.810
 8191SOL    HW225473   6.995   5.027   1.895
 8192SOL     OW25474   1.262   3.201   0.512
 8192SOL    HW125475   1.305   3.221   0.424
 8192SOL    HW225476   1.166   3.178   0.498
 8193SOL     OW25477   3.864   0.103   5.316
 8193SOL    HW125478   3.848   0.194   5.278
 8193SOL    HW225479   3.808   0.092   5.398
 8194SOL     OW25480   1.740   0.075   1.869
 8194SOL    HW125481   1.708   0.116   1.784
 8194SOL    HW225482   1.666   0.024   1.913
 8195SOL     OW25483   5.136   1.288   1.260
 8195SOL    HW125484   5.084   1.203   1.268
 8195SOL    HW225485   5.096   1.357   1.320
 8196SOL     OW25486   2.101   0.628   0.049
 8196SOL    HW125487   2.185   0.587   0.013
 8196SOL    HW225488   2.067   0.572   0.125
 8197SOL     OW25489   0.667   6.909   0.940
 8197SOL    HW125490   0.598   6.852   0.896
 8197SOL    HW225491   0.744   6.924   0.878
 8198SOL     OW25492   3.381   0.279   2.968
 8198SOL    HW125493   3.355   0.235   2.882
 8198SOL    HW225494   3.479   0.300   2.967
 8199SOL     OW25495   5.756   5.019   0.543
 8199SOL    HW125496   5.676   4.960   0.533
 8199SOL    HW225497   5.808   5.021   0.458
 8200SOL     OW25498   4.191   3.668   1.783
 8200SOL    HW125499   4.123   3.736   1.810
 8200SOL    HW225500   4.198   3.598   1.854
 8201SOL     OW25501   6.502   0.443   4.757
 8201SOL    HW125502   6.423   0.452   4.817
 8201SOL    HW225503   6.584   0.475   4.804
 8202SOL     OW25504   1.812   3.895   4.463
 8202SOL    HW125505   1.822   3.967   4.395
 8202SOL    HW225506   1.876   3.910   4.538
 8203SOL     OW25507   6.392   4.219   0.263
 8203SOL    HW125508   6.318   4.156   0.238
 8203SOL    HW225509   6.354   4.299   0.308
 8204SOL     OW25510   3.546   0.144   0.927
 8204SOL    HW125511   3.511   0.208   0.859
 8204SOL    HW225512   3.511   0.168   1.017
 8205SOL     OW25513   5.187   5.571   3.061
 8205SOL    HW125514   5.206   5.658   3.106
 8205SOL    HW225515   5.107   5.527   3.103
 8206SOL     OW25516   4.221   2.042   4.162
 8206SOL    HW125517   4.160   2.120   4.175
 8206SOL    HW225518   4.196   1.969   4.225
 8207SOL     OW25519   3.121   5.765   6.643
 8207SOL    HW125520   3.189   5.822   6.690
 8207SOL    HW225521   3.070   5.713   6.711
 8208SOL     OW25522   1.571   5.917   0.191
 8208SOL    HW125523   1.644   5.910   0.123
 8208SOL    HW225524   1.513   5.836   0.185
 8209SOL     OW25525   1.402   5.580   4.808
 8209SOL    HW125526   1.359   5.651   4.864
 8209SOL    HW225527   1.439   5.508   4.867
 8210SOL     OW25528   1.937   1.568   0.215
 8210SOL    HW125529   1.991   1.492   0.252
 8210SOL    HW225530   1.853   1.579   0.269
 8211SOL     OW25531   3.722   4.077   3.678
 8211SOL    HW125532   3.720   4.090   3.777
 8211SOL    HW225533   3.632   4.099   3.640
 8212SOL     OW25534   4.354   5.482   0.148
 8212SOL    HW125535   4.320   5.477   0.054
 8212SOL    HW225536   4.277   5.493   0.211
 8213SOL     OW25537   4.532   4.266   1.608
 8213SOL    HW125538   4.483   4.216   1.680
 8213SOL    HW225539   4.547   4.360   1.637
 8214SOL     OW25540   3.859   5.470   2.923
 8214SOL    HW125541   3.804   5.522   2.989
 8214SOL    HW225542   3.859   5.518   2.835
 8215SOL     OW25543   2.223   6.165   6.222
 8215SOL    HW125544   2.213   6.129   6.315
 8215SOL    HW225545   2.279   6.247   6.224
 8216SOL     OW25546   5.243   5.861   1.262
 8216SOL    HW125547   5.242   5.813   1.349
 8216SOL    HW225548   5.207   5.954   1.274
 8217SOL     OW25549   3.491   6.545   4.067
 8217SOL    HW125550   3.435   6.465   4.090
 8217SOL    HW225551   3.462   6.582   3.979
 8218SOL     OW25552   2.316   6.123   5.046
 8218SOL    HW125553   2.320   6.046   4.983
 8218SOL    HW225554   2.224   6.130   5.085
 8219SOL     OW25555   3.902   2.963   2.733
 8219SOL    HW125556   3.963   3.019   2.677
 8219SOL    HW225557   3.829   2.925   2.676
 8220SOL     OW25558   3.843   4.045   5.856
 8220SOL    HW125559   3.804   3.972   5.913
 8220SOL    HW225560   3.828   4.133   5.901
 8221SOL     OW25561   6.433   3.590   4.114
 8221SOL    HW125562   6.473   3.636   4.193
 8221SOL    HW225563   6.505   3.566   4.049
 8222SOL     OW25564   5.791   2.948   0.126
 8222SOL    HW125565   5.815   3.026   0.182
 8222SOL    HW225566   5.728   2.976   0.053
 8223SOL     OW25567   2.042   6.081   5.363
 8223SOL    HW125568   1.965   6.091   5.300
 8223SOL    HW225569   2.089   6.169   5.372
 8224SOL     OW25570   5.459   1.292   6.389
 8224SOL    HW125571   5.429   1.288   6.294
 8224SOL    HW225572   5.463   1.388   6.418
 8225SOL     OW25573   5.657   3.312   0.237
 8225SOL    HW125574   5.599   3.365   0.299
 8225SOL    HW225575   5.682   3.226   0.281
 8226SOL     OW25576   3.726   0.963   6.660
 8226SOL    HW125577   3.642   0.918   6.690
 8226SOL    HW225578   3.714   0.995   6.566
 8227SOL     OW25579   4.620   2.597   3.051
 8227SOL    HW125580   4.649   2.594   3.147
 8227SOL    HW225581   4.667   2.672   3.005
 8228SOL     OW25582   2.946   0.532   5.073
 8228SOL    HW125583   2.997   0.566   4.994
 8228SOL    HW225584   2.852   0.566   5.068
 8229SOL     OW25585   4.776   4.528   0.817
 8229SOL    HW125586   4.743   4.449   0.869
 8229SOL    HW225587   4.745   4.612   0.861
 8230SOL     OW25588   5.932   1.395   5.940
 8230SOL    HW125589   6.029   1.371   5.934
 8230SOL    HW225590   5.895   1.410   5.849
 8231SOL     OW25591   2.910   1.133   1.989
 8231SOL    HW125592   2.853   1.205   2.029
 8231SOL    HW225593   2.853   1.054   1.967
 8232SOL     OW25594   3.638   6.151   3.010
 8232SOL    HW125595   3.628   6.203   3.095
 8232SOL    HW225596   3.583   6.067   3.016
 8233SOL     OW25597   2.032   0.822   6.540
 8233SOL    HW125598   2.062   0.760   6.467
 8233SOL    HW225599   2.091   0.903   6.541
 8234SOL     OW25600   1.063   2.702   0.131
 8234SOL    HW125601   1.053   2.656   0.043
 8234SOL    HW225602   1.028   2.643   0.204
 8235SOL     OW25603   0.886   0.819   1.334
 8235SOL    HW125604   0.973   0.846   1.292
 8235SOL    HW225605   0.904   0.751   1.405
 8236SOL     OW25606   0.423   0.048   1.388
 8236SOL    HW125607   0.390   6.984   1.357
 8236SOL    HW225608   0.374   0.120   1.339
 8237SOL     OW25609   3.845   4.767   5.375
 8237SOL    HW125610   3.864   4.787   5.471
 8237SOL    HW225611   3.922   4.717   5.336
 8238SOL     OW25612   0.457   5.798   0.246
 8238SOL    HW125613   0.477   5.729   0.316
 8238SOL    HW225614   0.433   5.753   0.160
 8239SOL     OW25615   3.281   1.378   5.625
 8239SOL    HW125616   3.186   1.363   5.597
 8239SOL    HW225617   3.341   1.322   5.568
 8240SOL     OW25618   3.598   3.878   5.213
 8240SOL    HW125619   3.519   3.940   5.216
 8240SOL    HW225620   3.567   3.784   5.205
 8241SOL     OW25621   1.335   3.728   5.228
 8241SOL    HW125622   1.263   3.794   5.206
 8241SOL    HW225623   1.379   3.754   5.313
 8242SOL     OW25624   0.385   2.845   2.313
 8242SOL    HW125625   0.328   2.764   2.306
 8242SOL    HW225626   0.387   2.893   2.226
 8243SOL     OW25627   1.407   6.926   3.732
 8243SOL    HW125628   1.399   6.833   3.698
 8243SOL    HW225629   1.491   6.935   3.786
 8244SOL     OW25630   6.656   0.844   3.468
 8244SOL    HW125631   6.651   0.749   3.498
 8244SOL    HW225632   6.609   0.902   3.534
 8245SOL     OW25633   4.829   2.978   2.496
 8245SOL    HW125634   4.780   2.899   2.532
 8245SOL    HW225635   4.817   3.056   2.557
 8246SOL     OW25636   2.006   4.425   6.653
 8246SOL    HW125637   2.036   4.495   6.589
 8246SOL    HW225638   1.934   4.370   6.611
 8247SOL     OW25639   2.637   4.827   3.398
 8247SOL    HW125640   2.668   4.841   3.492
 8247SOL    HW225641   2.709   4.856   3.335
 8248SOL     OW25642   7.018   5.372   2.989
 8248SOL    HW125643   6.934   5.320   3.007
 8248SOL    HW225644   0.030   5.405   3.076
 8249SOL     OW25645   2.978   1.143   6.660
 8249SOL    HW125646   3.071   1.123   6.691
 8249SOL    HW225647   2.981   1.204   6.581
 8250SOL     OW25648   1.546   2.038   6.989
 8250SOL    HW125649   1.611   1.967   7.017
 8250SOL    HW225650   1.457   1.996   6.969
 8251SOL     OW25651   0.948   1.932   5.937
 8251SOL    HW125652   0.991   1.962   5.852
 8251SOL    HW225653   0.960   2.001   6.008
 8252SOL     OW25654   1.071   2.244   6.651
 8252SOL    HW125655   1.027   2.176   6.594
 8252SOL    HW225656   1.090   2.326   6.597
 8253SOL     OW25657   5.875   4.804   6.202
 8253SOL    HW125658   5.945   4.851   6.147
 8253SOL    HW225659   5.920   4.751   6.274
 8254SOL     OW25660   6.293   5.833   7.019
 8254SOL    HW125661   6.224   5.778   6.972
 8254SOL    HW225662   6.252   5.918   0.026
 8255SOL     OW25663   0.746   0.224   5.555
 8255SOL    HW125664   0.843   0.206   5.537
 8255SOL    HW225665   0.690   0.183   5.483
 8256SOL     OW25666   1.391   5.977   4.142
 8256SOL    HW125667   1.361   6.036   4.067
 8256SOL    HW225668   1.321   5.909   4.161
 8257SOL     OW25669   5.052   3.402   3.580
 8257SOL    HW125670   5.145   3.368   3.597
 8257SOL    HW225671   5.057   3.486   3.526
 8258SOL     OW25672   0.390   2.661   3.625
 8258SOL    HW125673   0.334   2.578   3.619
 8258SOL    HW225674   0.484   2.639   3.600
 8259SOL     OW25675   5.875   2.025   4.131
 8259SOL    HW125676   5.939   1.980   4.192
 8259SOL    HW225677   5.824   1.957   4.079
 8260SOL     OW25678   5.042   2.498   6.757
 8260SOL    HW125679   5.028   2.597   6.750
 8260SOL    HW225680   5.071   2.476   6.851
 8261SOL     OW25681   5.910   1.436   2.991
 8261SOL    HW125682   5.812   1.416   2.999
 8261SOL    HW225683   5.928   1.480   2.904
 8262SOL     OW25684   5.009   4.005   2.036
 8262SOL    HW125685   5.106   4.001   2.060
 8262SOL    HW225686   4.980   3.915   2.002
 8263SOL     OW25687   6.755   2.161   6.169
 8263SOL    HW125688   6.842   2.202   6.194
 8263SOL    HW225689   6.761   2.123   6.077
 8264SOL     OW25690   3.090   0.420   1.687
 8264SOL    HW125691   3.161   0.484   1.714
 8264SOL    HW225692   3.050   0.449   1.600
 8265SOL     OW25693   4.486   5.578   0.529
 8265SOL    HW125694   4.584   5.594   0.544
 8265SOL    HW225695   4.467   5.481   0.539
 8266SOL     OW25696   3.297   1.487   3.123
 8266SOL    HW125697   3.228   1.436   3.072
 8266SOL    HW225698   3.332   1.562   3.067
 8267SOL     OW25699   1.707   2.692   3.265
 8267SOL    HW125700   1.662   2.686   3.176
 8267SOL    HW225701   1.805   2.675   3.255
 8268SOL     OW25702   3.196   4.251   0.168
 8268SOL    HW125703   3.222   4.263   0.263
 8268SOL    HW225704   3.139   4.328   0.139
 8269SOL     OW25705   6.368   2.072   5.137
 8269SOL    HW125706   6.410   2.045   5.224
 8269SOL    HW225707   6.438   2.073   5.066
 8270SOL     OW25708   3.892   5.003   0.286
 8270SOL    HW125709   3.945   4.919   0.297
 8270SOL    HW225710   3.861   5.010   0.191
 8271SOL     OW25711   3.471   6.673   5.907
 8271SOL    HW125712   3.377   6.706   5.909
 8271SOL    HW225713   3.534   6.750   5.912
 8272SOL     OW25714   0.164   0.715   2.166
 8272SOL    HW125715   0.111   0.791   2.203
 8272SOL    HW225716   0.103   0.655   2.113
 8273SOL     OW25717   3.708   0.256   6.431
 8273SOL    HW125718   3.656   0.299   6.357
 8273SOL    HW225719   3.651   0.190   6.479
 8274SOL     OW25720   5.167   6.443   5.315
 8274SOL    HW125721   5.208   6.443   5.223
 8274SOL    HW225722   5.108   6.362   5.324
 8275SOL     OW25723   4.525   1.286   5.015
 8275SOL    HW125724   4.474   1.200   5.006
 8275SOL    HW225725   4.481   1.357   4.961
 8276SOL     OW25726   5.650   2.830   0.464
 8276SOL    HW125727   5.641   2.794   0.557
 8276SOL    HW225728   5.708   2.769   0.411
 8277SOL     OW25729   1.009   6.438   1.424
 8277SOL    HW125730   0.979   6.361   1.480
 8277SOL    HW225731   1.081   6.488   1.472
 8278SOL     OW25732   1.559   0.253   1.111
 8278SOL    HW125733   1.529   0.262   1.206
 8278SOL    HW225734   1.501   0.187   1.064
 8279SOL     OW25735   4.879   5.781   5.874
 8279SOL    HW125736   4.878   5.700   5.933
 8279SOL    HW225737   4.804   5.842   5.900
 8280SOL     OW25738   5.486   4.694   6.671
 8280SOL    HW125739   5.493   4.687   6.771
 8280SOL    HW225740   5.495   4.790   6.644
 8281SOL     OW25741   3.198   5.552   6.344
 8281SOL    HW125742   3.198   5.582   6.249
 8281SOL    HW225743   3.215   5.454   6.348
 8282SOL     OW25744   4.158   2.623   0.829
 8282SOL    HW125745   4.249   2.662   0.812
 8282SOL    HW225746   4.160   2.569   0.913
 8283SOL     OW25747   0.352   0.282   3.162
 8283SOL    HW125748   0.403   0.295   3.078
 8283SOL    HW225749   0.356   0.365   3.218
 8284SOL     OW25750   5.428   2.125   2.107
 8284SOL    HW125751   5.428   2.088   2.014
 8284SOL    HW225752   5.452   2.053   2.172
 8285SOL     OW25753   0.925   4.612   0.450
 8285SOL    HW125754   0.929   4.561   0.536
 8285SOL    HW225755   0.942   4.709   0.468
 8286SOL     OW25756   6.112   2.644   6.862
 8286SOL    HW125757   6.074   2.724   6.906
 8286SOL    HW225758   6.123   2.570   6.929
 8287SOL     OW25759   1.483   0.914   3.015
 8287SOL    HW125760   1.420   0.982   3.052
 8287SOL    HW225761   1.535   0.954   2.939
 8288SOL     OW25762   2.199   0.389   2.222
 8288SOL    HW125763   2.238   0.309   2.268
 8288SOL    HW225764   2.194   0.371   2.124
 8289SOL     OW25765   5.667   6.927   0.140
 8289SOL    HW125766   5.700   6.903   0.231
 8289SOL    HW225767   5.571   6.953   0.145
 8290SOL     OW25768   4.942   2.624   2.207
 8290SOL    HW125769   4.900   2.534   2.204
 8290SOL    HW225770   4.871   2.694   2.219
 8291SOL     OW25771   5.059   6.114   6.444
 8291SOL    HW125772   5.106   6.171   6.378
 8291SOL    HW225773   5.092   6.134   6.536
 8292SOL     OW25774   0.123   3.528   5.483
 8292SOL    HW125775   0.064   3.471   5.540
 8292SOL    HW225776   0.218   3.513   5.507
 8293SOL     OW25777   2.979   4.867   3.895
 8293SOL    HW125778   3.078   4.856   3.883
 8293SOL    HW225779   2.959   4.961   3.920
 8294SOL     OW25780   6.001   3.733   5.848
 8294SOL    HW125781   6.026   3.822   5.885
 8294SOL    HW225782   6.030   3.728   5.752
 8295SOL     OW25783   4.575   5.253   2.708
 8295SOL    HW125784   4.619   5.205   2.784
 8295SOL    HW225785   4.616   5.223   2.622
 8296SOL     OW25786   3.863   0.115   2.548
 8296SOL    HW125787   3.910   0.188   2.499
 8296SOL    HW225788   3.776   0.150   2.584
 8297SOL     OW25789   5.688   4.405   1.922
 8297SOL    HW125790   5.703   4.366   2.012
 8297SOL    HW225791   5.746   4.358   1.855
 8298SOL     OW25792   6.589   6.509   0.736
 8298SOL    HW125793   6.652   6.490   0.661
 8298SOL    HW225794   6.583   6.428   0.795
 8299SOL     OW25795   0.972   2.985   6.654
 8299SOL    HW125796   0.975   2.936   6.568
 8299SOL    HW225797   0.880   3.023   6.668
 8300SOL     OW25798   5.886   5.269   4.652
 8300SOL    HW125799   5.801   5.311   4.619
 8300SOL    HW225800   5.882   5.262   4.752
 8301SOL     OW25801   6.945   5.504   0.351
 8301SOL    HW125802   6.858   5.552   0.358
 8301SOL    HW225803   6.971   5.469   0.441
 8302SOL     OW25804   3.791   6.341   5.796
 8302SOL    HW125805   3.805   6.243   5.804
 8302SOL    HW225806   3.877   6.389   5.811
 8303SOL     OW25807   1.279   4.622   4.451
 8303SOL    HW125808   1.354   4.591   4.393
 8303SOL    HW225809   1.313   4.690   4.516
 8304SOL     OW25810   6.462   2.780   4.201
 8304SOL    HW125811   6.427   2.757   4.110
 8304SOL    HW225812   6.524   2.858   4.194
 8305SOL     OW25813   4.176   0.074   5.612
 8305SOL    HW125814   4.150   0.148   5.549
 8305SOL    HW225815   4.156   0.102   5.706
 8306SOL     OW25816   6.121   0.224   4.303
 8306SOL    HW125817   6.079   0.134   4.302
 8306SOL    HW225818   6.083   0.280   4.230
 8307SOL     OW25819   0.958   4.347   3.873
 8307SOL    HW125820   1.012   4.432   3.876
 8307SOL    HW225821   1.020   4.268   3.872
 8308SOL     OW25822   1.577   5.492   0.289
 8308SOL    HW125823   1.485   5.524   0.313
 8308SOL    HW225824   1.571   5.398   0.256
 8309SOL     OW25825   6.523   4.968   3.159
 8309SOL    HW125826   6.487   4.884   3.200
 8309SOL    HW225827   6.503   5.045   3.220
 8310SOL     OW25828   2.513   6.661   2.681
 8310SOL    HW125829   2.588   6.683   2.744
 8310SOL    HW225830   2.441   6.729   2.689
 8311SOL     OW25831   4.280   6.204   2.110
 8311SOL    HW125832   4.354   6.267   2.135
 8311SOL    HW225833   4.317   6.112   2.098
 8312SOL     OW25834   6.733   1.733   0.799
 8312SOL    HW125835   6.657   1.667   0.800
 8312SOL    HW225836   6.815   1.688   0.762
 8313SOL     OW25837   5.332   3.223   6.381
 8313SOL    HW125838   5.270   3.157   6.340
 8313SOL    HW225839   5.426   3.188   6.377
 8314SOL     OW25840   4.381   5.639   3.685
 8314SOL    HW125841   4.334   5.579   3.620
 8314SOL    HW225842   4.430   5.584   3.752
 8315SOL     OW25843   3.144   2.893   6.615
 8315SOL    HW125844   3.136   2.925   6.521
 8315SOL    HW225845   3.158   2.794   6.615
 8316SOL     OW25846   1.617   1.744   5.184
 8316SOL    HW125847   1.608   1.647   5.161
 8316SOL    HW225848   1.592   1.799   5.104
 8317SOL     OW25849   1.272   2.209   4.987
 8317SOL    HW125850   1.286   2.139   4.917
 8317SOL    HW225851   1.185   2.194   5.033
 8318SOL     OW25852   4.383   6.705   6.073
 8318SOL    HW125853   4.441   6.654   6.009
 8318SOL    HW225854   4.306   6.745   6.023
 8319SOL     OW25855   2.360   5.516   0.235
 8319SOL    HW125856   2.319   5.514   0.144
 8319SOL    HW225857   2.384   5.610   0.258
 8320SOL     OW25858   3.563   4.038   5.569
 8320SOL    HW125859   3.529   4.068   5.659
 8320SOL    HW225860   3.539   3.942   5.555
 8321SOL     OW25861   0.461   0.209   0.794
 8321SOL    HW125862   0.420   0.173   0.711
 8321SOL    HW225863   0.454   0.141   0.867
 8322SOL     OW25864   1.146   0.507   0.622
 8322SOL    HW125865   1.088   0.570   0.673
 8322SOL    HW225866   1.242   0.537   0.628
 8323SOL     OW25867   5.673   4.930   6.858
 8323SOL    HW125868   5.773   4.942   6.858
 8323SOL    HW225869   5.649   4.855   6.919
 8324SOL     OW25870   5.104   6.601   6.758
 8324SOL    HW125871   5.084   6.536   6.686
 8324SOL    HW225872   5.160   6.557   6.829
 8325SOL     OW25873   1.581   6.403   4.855
 8325SOL    HW125874   1.636   6.433   4.933
 8325SOL    HW225875   1.531   6.319   4.879
 8326SOL     OW25876   2.365   2.009   6.724
 8326SOL    HW125877   2.432   2.083   6.733
 8326SOL    HW225878   2.412   1.923   6.707
 8327SOL     OW25879   0.747   6.306   5.099
 8327SOL    HW125880   0.708   6.216   5.079
 8327SOL    HW225881   0.767   6.354   5.014
 8328SOL     OW25882   0.895   6.318   1.208
 8328SOL    HW125883   0.923   6.367   1.291
 8328SOL    HW225884   0.965   6.330   1.137
 8329SOL     OW25885   1.627   2.754   5.547
 8329SOL    HW125886   1.557   2.796   5.489
 8329SOL    HW225887   1.701   2.718   5.491
 8330SOL     OW25888   2.522   6.699   0.451
 8330SOL    HW125889   2.513   6.796   0.427
 8330SOL    HW225890   2.532   6.690   0.550
 8331SOL     OW25891   2.486   2.415   5.776
 8331SOL    HW125892   2.394   2.388   5.805
 8331SOL    HW225893   2.480   2.465   5.690
 8332SOL     OW25894   6.177   3.912   1.333
 8332SOL    HW125895   6.192   3.865   1.246
 8332SOL    HW225896   6.237   3.991   1.339
 8333SOL     OW25897   2.733   4.170   6.789
 8333SOL    HW125898   2.825   4.193   6.820
 8333SOL    HW225899   2.708   4.227   6.711
 8334SOL     OW25900   3.636   2.216   5.427
 8334SOL    HW125901   3.581   2.280   5.373
 8334SOL    HW225902   3.709   2.179   5.370
 8335SOL     OW25903   5.067   4.249   5.647
 8335SOL    HW125904   5.036   4.256   5.742
 8335SOL    HW225905   5.167   4.248   5.645
 8336SOL     OW25906   1.406   3.540   3.690
 8336SOL    HW125907   1.353   3.467   3.646
 8336SOL    HW225908   1.355   3.575   3.769
 8337SOL     OW25909   6.957   1.283   4.469
 8337SOL    HW125910   6.982   1.346   4.543
 8337SOL    HW225911   6.967   1.329   4.381
 8338SOL     OW25912   2.621   5.733   1.228
 8338SOL    HW125913   2.644   5.714   1.133
 8338SOL    HW225914   2.560   5.662   1.263
 8339SOL     OW25915   6.117   0.575   1.753
 8339SOL    HW125916   6.202   0.614   1.718
 8339SOL    HW225917   6.042   0.638   1.733
 8340SOL     OW25918   5.891   2.594   6.512
 8340SOL    HW125919   5.952   2.528   6.467
 8340SOL    HW225920   5.944   2.673   6.541
 8341SOL     OW25921   4.178   0.465   0.702
 8341SOL    HW125922   4.159   0.436   0.796
 8341SOL    HW225923   4.095   0.504   0.663
 8342SOL     OW25924   3.628   0.983   0.203
 8342SOL    HW125925   3.559   1.052   0.182
 8342SOL    HW225926   3.658   0.994   0.298
 8343SOL     OW25927   5.980   5.183   2.815
 8343SOL    HW125928   5.942   5.212   2.903
 8343SOL    HW225929   6.003   5.264   2.761
 8344SOL     OW25930   2.581   4.861   6.095
 8344SOL    HW125931   2.568   4.814   6.182
 8344SOL    HW225932   2.678   4.871   6.075
 8345SOL     OW25933   5.884   0.209   4.003
 8345SOL    HW125934   5.969   0.262   4.010
 8345SOL    HW225935   5.816   0.247   4.065
 8346SOL     OW25936   5.782   3.792   4.283
 8346SOL    HW125937   5.867   3.786   4.337
 8346SOL    HW225938   5.750   3.699   4.263
 8347SOL     OW25939   1.430   1.421   6.065
 8347SOL    HW125940   1.523   1.392   6.087
 8347SOL    HW225941   1.370   1.404   6.143
 8348SOL     OW25942   3.159   5.501   1.956
 8348SOL    HW125943   3.210   5.587   1.949
 8348SOL    HW225944   3.066   5.514   1.922
 8349SOL     OW25945   4.707   6.112   1.376
 8349SOL    HW125946   4.671   6.104   1.283
 8349SOL    HW225947   4.634   6.091   1.441
 8350SOL     OW25948   1.085   6.875   0.261
 8350SOL    HW125949   1.012   6.935   0.230
 8350SOL    HW225950   1.159   6.929   0.299
 8351SOL     OW25951   0.080   2.599   2.548
 8351SOL    HW125952   0.124   2.675   2.596
 8351SOL    HW225953   0.083   2.517   2.605
 8352SOL     OW25954   2.951   6.535   6.584
 8352SOL    HW125955   2.998   6.614   6.546
 8352SOL    HW225956   2.946   6.463   6.515
 8353SOL     OW25957   0.706   6.337   2.262
 8353SOL    HW125958   0.728   6.319   2.166
 8353SOL    HW225959   0.695   6.436   2.276
 8354SOL     OW25960   4.396   1.804   2.974
 8354SOL    HW125961   4.381   1.737   3.047
 8354SOL    HW225962   4.324   1.873   2.975
 8355SOL     OW25963   3.018   5.336   6.202
 8355SOL    HW125964   3.084   5.313   6.131
 8355SOL    HW225965   2.986   5.430   6.190
 8356SOL     OW25966   3.020   4.160   1.274
 8356SOL    HW125967   3.025   4.260   1.279
 8356SOL    HW225968   2.945   4.128   1.331
 8357SOL     OW25969   4.134   6.810   4.568
 8357SOL    HW125970   4.108   6.717   4.542
 8357SOL    HW225971   4.202   6.845   4.504
 8358SOL     OW25972   0.588   1.300   4.964
 8358SOL    HW125973   0.543   1.376   4.918
 8358SOL    HW225974   0.540   1.279   5.049
 8359SOL     OW25975   4.453   2.466   5.637
 8359SOL    HW125976   4.370   2.415   5.656
 8359SOL    HW225977   4.527   2.433   5.696
 8360SOL     OW25978   3.960   6.889   1.315
 8360SOL    HW125979   3.929   6.953   1.385
 8360SOL    HW225980   3.898   6.811   1.311
 8361SOL     OW25981   4.642   1.528   0.192
 8361SOL    HW125982   4.737   1.536   0.222
 8361SOL    HW225983   4.625   1.437   0.156
 8362SOL     OW25984   0.148   3.299   1.314
 8362SOL    HW125985   0.192   3.348   1.239
 8362SOL    HW225986   0.215   3.242   1.361
 8363SOL     OW25987   1.113   2.892   1.171
 8363SOL    HW125988   1.090   2.868   1.077
 8363SOL    HW225989   1.209   2.871   1.188
 8364SOL     OW25990   0.451   2.410   4.355
 8364SOL    HW125991   0.523   2.342   4.373
 8364SOL    HW225992   0.364   2.362   4.341
 8365SOL     OW25993   1.243   2.311   1.543
 8365SOL    HW125994   1.170   2.335   1.478
 8365SOL    HW225995   1.327   2.292   1.493
 8366SOL     OW25996   5.024   5.507   2.018
 8366SOL    HW125997   5.054   5.431   2.075
 8366SOL    HW225998   5.041   5.593   2.066
 8367SOL     OW25999   1.977   4.521   3.531
 8367SOL    HW126000   1.938   4.499   3.620
 8367SOL    HW226001   2.075   4.536   3.539
 8368SOL     OW26002   6.465   4.997   6.110
 8368SOL    HW126003   6.415   4.958   6.032
 8368SOL    HW226004   6.404   5.058   6.161
 8369SOL     OW26005   1.806   6.799   6.797
 8369SOL    HW126006   1.891   6.849   6.815
 8369SOL    HW226007   1.790   6.795   6.698
 8370SOL     OW26008   2.722   2.774   0.479
 8370SOL    HW126009   2.660   2.848   0.503
 8370SOL    HW226010   2.687   2.725   0.400
 8371SOL     OW26011   3.293   3.831   6.615
 8371SOL    HW126012   3.287   3.732   6.627
 8371SOL    HW226013   3.348   3.870   6.689
 8372SOL     OW26014   1.650   6.586   1.470
 8372SOL    HW126015   1.638   6.615   1.375
 8372SOL    HW226016   1.677   6.665   1.525
 8373SOL     OW26017   6.261   0.561   3.959
 8373SOL    HW126018   6.332   0.503   4.000
 8373SOL    HW226019   6.289   0.656   3.963
 8374SOL     OW26020   0.970   1.616   3.441
 8374SOL    HW126021   0.988   1.692   3.504
 8374SOL    HW226022   0.929   1.651   3.357
 8375SOL     OW26023   1.502   2.462   5.336
 8375SOL    HW126024   1.474   2.407   5.415
 8375SOL    HW226025   1.443   2.542   5.329
 8376SOL     OW26026   1.174   1.976   3.466
 8376SOL    HW126027   1.203   1.916   3.391
 8376SOL    HW226028   1.092   1.937   3.509
 8377SOL     OW26029   4.016   5.382   0.556
 8377SOL    HW126030   3.963   5.317   0.502
 8377SOL    HW226031   3.957   5.457   0.586
 8378SOL     OW26032   4.368   5.770   4.693
 8378SOL    HW126033   4.270   5.789   4.690
 8378SOL    HW226034   4.416   5.849   4.732
 8379SOL     OW26035   6.117   1.850   1.558
 8379SOL    HW126036   6.157   1.771   1.511
 8379SOL    HW226037   6.188   1.903   1.602
 8380SOL     OW26038   0.521   6.108   2.190
 8380SOL    HW126039   0.607   6.154   2.168
 8380SOL    HW226040   0.479   6.073   2.106
 8381SOL     OW26041   1.042   1.770   2.440
 8381SOL    HW126042   0.977   1.846   2.448
 8381SOL    HW226043   1.087   1.773   2.351
 8382SOL     OW26044   0.779   0.221   1.764
 8382SOL    HW126045   0.725   0.138   1.752
 8382SOL    HW226046   0.737   0.295   1.712
 8383SOL     OW26047   2.753   6.922   6.015
 8383SOL    HW126048   2.722   6.846   5.959
 8383SOL    HW226049   2.703   6.922   6.102
 8384SOL     OW26050   0.477   3.827   2.873
 8384SOL    HW126051   0.540   3.787   2.940
 8384SOL    HW226052   0.510   3.917   2.845
 8385SOL     OW26053   4.476   1.858   2.242
 8385SOL    HW126054   4.377   1.855   2.247
 8385SOL    HW226055   4.504   1.901   2.156
 8386SOL     OW26056   1.327   5.291   1.817
 8386SOL    HW126057   1.354   5.350   1.741
 8386SOL    HW226058   1.367   5.200   1.805
 8387SOL     OW26059   1.038   1.807   3.170
 8387SOL    HW126060   1.033   1.757   3.084
 8387SOL    HW226061   1.121   1.783   3.219
 8388SOL     OW26062   3.930   5.026   1.347
 8388SOL    HW126063   3.952   5.046   1.442
 8388SOL    HW226064   3.900   4.931   1.338
 8389SOL     OW26065   0.640   3.319   3.963
 8389SOL    HW126066   0.576   3.377   4.014
 8389SOL    HW226067   0.639   3.345   3.867
 8390SOL     OW26068   2.893   0.228   6.486
 8390SOL    HW126069   2.875   0.139   6.446
 8390SOL    HW226070   2.818   0.290   6.465
 8391SOL     OW26071   5.223   6.221   0.487
 8391SOL    HW126072   5.274   6.173   0.416
 8391SOL    HW226073   5.282   6.290   0.530
 8392SOL     OW26074   5.258   6.101   0.031
 8392SOL    HW126075   5.314   6.128   0.108
 8392SOL    HW226076   5.280   6.008   0.004
 8393SOL     OW26077   0.653   4.829   2.203
 8393SOL    HW126078   0.569   4.801   2.158
 8393SOL    HW226079   0.668   4.927   2.188
 8394SOL     OW26080   1.563   1.528   2.995
 8394SOL    HW126081   1.467   1.506   2.977
 8394SOL    HW226082   1.584   1.618   2.958
 8395SOL     OW26083   1.110   6.255   5.748
 8395SOL    HW126084   1.191   6.289   5.701
 8395SOL    HW226085   1.039   6.326   5.747
 8396SOL     OW26086   4.586   2.059   1.675
 8396SOL    HW126087   4.494   2.070   1.639
 8396SOL    HW226088   4.600   2.121   1.752
 8397SOL     OW26089   2.186   5.368   3.932
 8397SOL    HW126090   2.285   5.381   3.943
 8397SOL    HW226091   2.166   5.340   3.838
 8398SOL     OW26092   6.291   1.481   0.390
 8398SOL    HW126093   6.349   1.428   0.328
 8398SOL    HW226094   6.197   1.481   0.356
 8399SOL     OW26095   5.241   5.750   6.728
 8399SOL    HW126096   5.218   5.805   6.648
 8399SOL    HW226097   5.313   5.685   6.704
 8400SOL     OW26098   6.423   6.564   4.328
 8400SOL    HW126099   6.509   6.590   4.372
 8400SOL    HW226100   6.403   6.468   4.349
 8401SOL     OW26101   2.825   4.032   5.590
 8401SOL    HW126102   2.771   4.116   5.584
 8401SOL    HW226103   2.764   3.953   5.588
 8402SOL     OW26104   4.646   0.651   5.223
 8402SOL    HW126105   4.693   0.649   5.312
 8402SOL    HW226106   4.695   0.595   5.158
 8403SOL     OW26107   0.815   3.078   5.298
 8403SOL    HW126108   0.795   3.172   5.267
 8403SOL    HW226109   0.872   3.033   5.229
 8404SOL     OW26110   4.188   4.862   5.349
 8404SOL    HW126111   4.184   4.962   5.358
 8404SOL    HW226112   4.200   4.838   5.253
 8405SOL     OW26113   2.048   2.484   4.861
 8405SOL    HW126114   2.127   2.544   4.855
 8405SOL    HW226115   1.995   2.506   4.943
 8406SOL     OW26116   5.271   3.576   1.971
 8406SOL    HW126117   5.301   3.527   2.053
 8406SOL    HW226118   5.281   3.517   1.891
 8407SOL     OW26119   4.999   3.643   3.120
 8407SOL    HW126120   5.086   3.680   3.153
 8407SOL    HW226121   4.976   3.685   3.032
 8408SOL     OW26122   4.872   4.152   4.160
 8408SOL    HW126123   4.847   4.077   4.100
 8408SOL    HW226124   4.806   4.157   4.236
 8409SOL     OW26125   0.639   1.746   4.134
 8409SOL    HW126126   0.685   1.826   4.096
 8409SOL    HW226127   0.582   1.703   4.064
 8410SOL     OW26128   2.176   5.979   2.518
 8410SOL    HW126129   2.196   6.068   2.475
 8410SOL    HW226130   2.246   5.960   2.587
 8411SOL     OW26131   1.925   3.181   3.340
 8411SOL    HW126132   2.019   3.216   3.341
 8411SOL    HW226133   1.885   3.192   3.432
 8412SOL     OW26134   6.857   2.195   2.522
 8412SOL    HW126135   6.862   2.109   2.471
 8412SOL    HW226136   6.907   2.266   2.472
 8413SOL     OW26137   2.376   4.403   1.487
 8413SOL    HW126138   2.313   4.464   1.439
 8413SOL    HW226139   2.330   4.316   1.505
 8414SOL     OW26140   6.083   0.171   3.275
 8414SOL    HW126141   6.016   0.099   3.255
 8414SOL    HW226142   6.125   0.154   3.364
 8415SOL     OW26143   6.622   4.230   1.920
 8415SOL    HW126144   6.617   4.206   1.823
 8415SOL    HW226145   6.541   4.194   1.967
 8416SOL     OW26146   4.557   4.376   2.433
 8416SOL    HW126147   4.573   4.296   2.490
 8416SOL    HW226148   4.566   4.351   2.336
 8417SOL     OW26149   1.997   5.923   6.382
 8417SOL    HW126150   1.945   5.969   6.455
 8417SOL    HW226151   2.095   5.931   6.400
 8418SOL     OW26152   6.447   5.664   2.480
 8418SOL    HW126153   6.468   5.709   2.393
 8418SOL    HW226154   6.528   5.616   2.514
 8419SOL     OW26155   5.395   6.794   3.927
 8419SOL    HW126156   5.445   6.807   3.841
 8419SOL    HW226157   5.378   6.883   3.969
 8420SOL     OW26158   4.206   2.341   5.689
 8420SOL    HW126159   4.137   2.274   5.662
 8420SOL    HW226160   4.166   2.404   5.756
 8421SOL     OW26161   0.192   0.440   1.091
 8421SOL    HW126162   0.204   0.352   1.137
 8421SOL    HW226163   0.186   0.426   0.993
 8422SOL     OW26164   4.030   6.978   1.909
 8422SOL    HW126165   4.108   6.997   1.969
 8422SOL    HW226166   3.968   0.031   1.909
 8423SOL     OW26167   2.003   3.768   1.585
 8423SOL    HW126168   2.007   3.823   1.502
 8423SOL    HW226169   1.919   3.714   1.586
 8424SOL     OW26170   2.683   2.401   1.798
 8424SOL    HW126171   2.774   2.436   1.821
 8424SOL    HW226172   2.692   2.334   1.724
 8425SOL     OW26173   6.230   4.817   6.728
 8425SOL    HW126174   6.310   4.875   6.735
 8425SOL    HW226175   6.165   4.839   6.801
 8426SOL     OW26176   3.421   3.160   2.655
 8426SOL    HW126177   3.445   3.110   2.572
 8426SOL    HW226178   3.497   3.157   2.719
 8427SOL     OW26179   2.212   2.273   6.732
 8427SOL    HW126180   2.128   2.222   6.752
 8427SOL    HW226181   2.287   2.208   6.717
 8428SOL     OW26182   6.330   4.274   1.186
 8428SOL    HW126183   6.274   4.258   1.105
 8428SOL    HW226184   6.364   4.368   1.184
 8429SOL     OW26185   1.608   6.634   3.180
 8429SOL    HW126186   1.634   6.723   3.218
 8429SOL    HW226187   1.508   6.628   3.173
 8430SOL     OW26188   5.628   4.061   2.936
 8430SOL    HW126189   5.652   3.973   2.978
 8430SOL    HW226190   5.673   4.135   2.985
 8431SOL     OW26191   2.843   3.369   2.067
 8431SOL    HW126192   2.859   3.278   2.028
 8431SOL    HW226193   2.806   3.359   2.159
 8432SOL     OW26194   5.054   6.266   6.943
 8432SOL    HW126195   5.024   6.323   7.019
 8432SOL    HW226196   5.140   6.220   6.967
 8433SOL     OW26197   0.368   1.803   4.267
 8433SOL    HW126198   0.457   1.804   4.222
 8433SOL    HW226199   0.296   1.820   4.200
 8434SOL     OW26200   5.471   6.166   6.300
 8434SOL    HW126201   5.537   6.109   6.348
 8434SOL    HW226202   5.519   6.227   6.237
 8435SOL     OW26203   4.941   2.281   1.817
 8435SOL    HW126204   4.952   2.242   1.726
 8435SOL    HW226205   4.942   2.381   1.812
 8436SOL     OW26206   3.072   4.388   1.635
 8436SOL    HW126207   3.101   4.294   1.653
 8436SOL    HW226208   3.005   4.416   1.703
 8437SOL     OW26209   0.579   1.612   0.909
 8437SOL    HW126210   0.517   1.679   0.950
 8437SOL    HW226211   0.612   1.550   0.980
 8438SOL     OW26212   2.098   5.955   0.928
 8438SOL    HW126213   2.034   5.880   0.944
 8438SOL    HW226214   2.051   6.042   0.947
 8439SOL     OW26215   6.116   0.545   2.043
 8439SOL    HW126216   6.159   0.633   2.067
 8439SOL    HW226217   6.105   0.539   1.944
 8440SOL     OW26218   0.556   2.888   4.368
 8440SOL    HW126219   0.647   2.913   4.400
 8440SOL    HW226220   0.497   2.969   4.368
 8441SOL     OW26221   4.543   5.530   2.696
 8441SOL    HW126222   4.576   5.438   2.716
 8441SOL    HW226223   4.444   5.534   2.712
 8442SOL     OW26224   2.313   2.860   0.273
 8442SOL    HW126225   2.213   2.855   0.265
 8442SOL    HW226226   2.339   2.944   0.320
 8443SOL     OW26227   0.477   1.625   1.412
 8443SOL    HW126228   0.394   1.642   1.466
 8443SOL    HW226229   0.551   1.598   1.472
 8444SOL     OW26230   4.215   1.232   3.205
 8444SOL    HW126231   4.229   1.289   3.124
 8444SOL    HW226232   4.293   1.241   3.266
 8445SOL     OW26233   4.629   5.255   2.034
 8445SOL    HW126234   4.593   5.237   2.126
 8445SOL    HW226235   4.729   5.263   2.039
 8446SOL     OW26236   0.018   3.518   2.980
 8446SOL    HW126237   6.989   3.601   2.990
 8446SOL    HW226238   0.096   3.537   2.919
 8447SOL     OW26239   4.431   3.383   1.201
 8447SOL    HW126240   4.432   3.483   1.199
 8447SOL    HW226241   4.354   3.349   1.146
 8448SOL     OW26242   1.597   3.372   5.674
 8448SOL    HW126243   1.688   3.352   5.639
 8448SOL    HW226244   1.595   3.360   5.773
 8449SOL     OW26245   0.926   1.252   4.420
 8449SOL    HW126246   1.002   1.240   4.485
 8449SOL    HW226247   0.936   1.339   4.373
 8450SOL     OW26248   1.752   5.355   1.510
 8450SOL    HW126249   1.829   5.292   1.519
 8450SOL    HW226250   1.703   5.337   1.425
 8451SOL     OW26251   3.591   2.779   0.552
 8451SOL    HW126252   3.543   2.864   0.571
 8451SOL    HW226253   3.560   2.708   0.616
 8452SOL     OW26254   0.327   5.215   1.495
 8452SOL    HW126255   0.399   5.146   1.483
 8452SOL    HW226256   0.368   5.298   1.532
 8453SOL     OW26257   6.133   5.451   5.245
 8453SOL    HW126258   6.185   5.536   5.254
 8453SOL    HW226259   6.179   5.378   5.296
 8454SOL     OW26260   2.373   6.691   4.760
 8454SOL    HW126261   2.401   6.644   4.677
 8454SOL    HW226262   2.290   6.648   4.796
 8455SOL     OW26263   6.025   2.680   0.916
 8455SOL    HW126264   6.034   2.779   0.923
 8455SOL    HW226265   5.980   2.644   0.998
 8456SOL     OW26266   4.795   5.256   3.806
 8456SOL    HW126267   4.861   5.252   3.732
 8456SOL    HW226268   4.842   5.246   3.894
 8457SOL     OW26269   6.620   6.078   6.240
 8457SOL    HW126270   6.642   6.041   6.149
 8457SOL    HW226271   6.593   6.174   6.231
 8458SOL     OW26272   1.607   2.103   1.208
 8458SOL    HW126273   1.646   2.071   1.295
 8458SOL    HW226274   1.679   2.106   1.139
 8459SOL     OW26275   2.260   5.348   3.277
 8459SOL    HW126276   2.330   5.419   3.266
 8459SOL    HW226277   2.177   5.389   3.316
 8460SOL     OW26278   3.829   1.582   0.941
 8460SOL    HW126279   3.811   1.485   0.927
 8460SOL    HW226280   3.752   1.636   0.907
 8461SOL     OW26281   5.215   4.152   3.189
 8461SOL    HW126282   5.308   4.166   3.223
 8461SOL    HW226283   5.188   4.057   3.206
 8462SOL     OW26284   2.246   4.013   1.021
 8462SOL    HW126285   2.242   4.112   1.038
 8462SOL    HW226286   2.218   3.994   0.927
 8463SOL     OW26287   6.635   0.339   0.465
 8463SOL    HW126288   6.699   0.279   0.418
 8463SOL    HW226289   6.592   0.290   0.541
 8464SOL     OW26290   6.536   3.872   6.512
 8464SOL    HW126291   6.457   3.813   6.494
 8464SOL    HW226292   6.620   3.825   6.486
 8465SOL     OW26293   4.959   3.670   0.701
 8465SOL    HW126294   4.980   3.609   0.778
 8465SOL    HW226295   5.038   3.673   0.639
 8466SOL     OW26296   0.461   1.500   5.385
 8466SOL    HW126297   0.511   1.479   5.469
 8466SOL    HW226298   0.420   1.417   5.348
 8467SOL     OW26299   3.244   1.310   0.312
 8467SOL    HW126300   3.238   1.335   0.409
 8467SOL    HW226301   3.155   1.278   0.280
 8468SOL     OW26302   5.600   4.045   0.537
 8468SOL    HW126303   5.507   4.011   0.519
 8468SOL    HW226304   5.596   4.143   0.558
 8469SOL     OW26305   3.797   2.964   5.518
 8469SOL    HW126306   3.866   3.036   5.509
 8469SOL    HW226307   3.723   2.997   5.577
 8470SOL     OW26308   1.434   5.416   1.585
 8470SOL    HW126309   1.530   5.391   1.593
 8470SOL    HW226310   1.386   5.349   1.528
 8471SOL     OW26311   4.207   2.307   4.617
 8471SOL    HW126312   4.149   2.310   4.698
 8471SOL    HW226313   4.153   2.276   4.538
 8472SOL     OW26314   5.783   1.827   6.851
 8472SOL    HW126315   5.702   1.876   6.817
 8472SOL    HW226316   5.830   1.883   6.919
 8473SOL     OW26317   4.972   5.184   5.886
 8473SOL    HW126318   4.907   5.108   5.897
 8473SOL    HW226319   4.923   5.270   5.879
 8474SOL     OW26320   2.897   3.847   5.378
 8474SOL    HW126321   2.931   3.910   5.448
 8474SOL    HW226322   2.797   3.842   5.384
 8475SOL     OW26323   6.663   1.901   3.041
 8475SOL    HW126324   6.638   1.887   3.137
 8475SOL    HW226325   6.696   1.815   3.003
 8476SOL     OW26326   6.045   1.513   1.746
 8476SOL    HW126327   6.030   1.543   1.652
 8476SOL    HW226328   5.979   1.442   1.770
 8477SOL     OW26329   5.693   0.441   1.698
 8477SOL    HW126330   5.661   0.508   1.766
 8477SOL    HW226331   5.770   0.390   1.735
 8478SOL     OW26332   0.457   6.779   5.595
 8478SOL    HW126333   0.479   6.761   5.690
 8478SOL    HW226334   0.541   6.793   5.543
 8479SOL     OW26335   0.629   2.859   0.388
 8479SOL    HW126336   0.625   2.763   0.358
 8479SOL    HW226337   0.576   2.869   0.472
 8480SOL     OW26338   3.522   4.140   0.833
 8480SOL    HW126339   3.582   4.196   0.890
 8480SOL    HW226340   3.539   4.043   0.852
 8481SOL     OW26341   3.839   2.117   2.743
 8481SOL    HW126342   3.835   2.176   2.662
 8481SOL    HW226343   3.823   2.022   2.716
 8482SOL     OW26344   4.307   0.633   6.585
 8482SOL    HW126345   4.292   0.541   6.620
 8482SOL    HW226346   4.265   0.700   6.646
 8483SOL     OW26347   3.876   4.927   3.748
 8483SOL    HW126348   3.860   5.018   3.711
 8483SOL    HW226349   3.889   4.863   3.672
 8484SOL     OW26350   5.781   6.109   5.047
 8484SOL    HW126351   5.874   6.081   5.021
 8484SOL    HW226352   5.730   6.029   5.079
 8485SOL     OW26353   4.066   0.969   6.239
 8485SOL    HW126354   4.159   0.934   6.240
 8485SOL    HW226355   4.067   1.067   6.218
 8486SOL     OW26356   5.807   2.581   5.126
 8486SOL    HW126357   5.864   2.659   5.148
 8486SOL    HW226358   5.740   2.566   5.199
 8487SOL     OW26359   6.499   2.214   6.008
 8487SOL    HW126360   6.432   2.145   6.036
 8487SOL    HW226361   6.583   2.170   5.977
 8488SOL     OW26362   4.728   4.346   3.059
 8488SOL    HW126363   4.824   4.320   3.050
 8488SOL    HW226364   4.704   4.353   3.156
 8489SOL     OW26365   6.267   1.921   1.763
 8489SOL    HW126366   6.364   1.898   1.773
 8489SOL    HW226367   6.246   2.001   1.818
 8490SOL     OW26368   3.064   6.698   0.234
 8490SOL    HW126369   3.014   6.676   0.318
 8490SOL    HW226370   3.148   6.748   0.257
 8491SOL     OW26371   3.092   5.560   2.226
 8491SOL    HW126372   3.084   5.506   2.143
 8491SOL    HW226373   3.180   5.541   2.269
 8492SOL     OW26374   6.445   6.053   4.323
 8492SOL    HW126375   6.526   6.001   4.296
 8492SOL    HW226376   6.408   6.100   4.243
 8493SOL     OW26377   4.673   0.840   5.868
 8493SOL    HW126378   4.730   0.864   5.946
 8493SOL    HW226379   4.628   0.753   5.885
 8494SOL     OW26380   6.787   3.532   2.436
 8494SOL    HW126381   6.812   3.461   2.369
 8494SOL    HW226382   6.773   3.619   2.388
 8495SOL     OW26383   5.974   5.636   6.701
 8495SOL    HW126384   5.913   5.699   6.749
 8495SOL    HW226385   6.059   5.683   6.676
 8496SOL     OW26386   5.172   2.528   2.852
 8496SOL    HW126387   5.217   2.469   2.785
 8496SOL    HW226388   5.099   2.580   2.806
 8497SOL     OW26389   6.947   0.760   2.875
 8497SOL    HW126390   6.919   0.836   2.817
 8497SOL    HW226391   6.922   0.674   2.831
 8498SOL     OW26392   4.857   6.508   4.110
 8498SOL    HW126393   4.931   6.462   4.061
 8498SOL    HW226394   4.864   6.607   4.097
 8499SOL     OW26395   5.784   6.867   5.490
 8499SOL    HW126396   5.776   6.768   5.505
 8499SOL    HW226397   5.695   6.910   5.507
 8500SOL     OW26398   1.034   0.481   6.893
 8500SOL    HW126399   1.045   0.387   6.925
 8500SOL    HW226400   0.964   0.526   6.948
 8501SOL     OW26401   2.346   1.295   6.146
 8501SOL    HW126402   2.269   1.312   6.208
 8501SOL    HW226403   2.314   1.243   6.067
 8502SOL     OW26404   6.199   3.612   6.841
 8502SOL    HW126405   6.148   3.696   6.825
 8502SOL    HW226406   6.220   3.603   6.938
 8503SOL     OW26407   4.720   2.598   5.415
 8503SOL    HW126408   4.646   2.644   5.367
 8503SOL    HW226409   4.783   2.667   5.452
 8504SOL     OW26410   0.801   6.918   2.591
 8504SOL    HW126411   0.890   6.874   2.590
 8504SOL    HW226412   0.780   6.950   2.683
 8505SOL     OW26413   5.627   2.279   2.760
 8505SOL    HW126414   5.579   2.331   2.831
 8505SOL    HW226415   5.561   2.244   2.694
 8506SOL     OW26416   1.029   6.720   6.024
 8506SOL    HW126417   1.056   6.711   6.120
 8506SOL    HW226418   0.987   6.810   6.010
 8507SOL     OW26419   3.648   5.121   5.341
 8507SOL    HW126420   3.678   5.192   5.276
 8507SOL    HW226421   3.629   5.164   5.430
 8508SOL     OW26422   2.972   0.977   6.332
 8508SOL    HW126423   2.920   1.052   6.291
 8508SOL    HW226424   3.025   1.011   6.409
 8509SOL     OW26425   5.199   2.100   2.443
 8509SOL    HW126426   5.166   2.006   2.437
 8509SOL    HW226427   5.121   2.162   2.451
 8510SOL     OW26428   0.976   2.215   4.761
 8510SOL    HW126429   1.010   2.301   4.724
 8510SOL    HW226430   1.053   2.153   4.780
 8511SOL     OW26431   6.106   1.977   3.469
 8511SOL    HW126432   6.183   1.937   3.519
 8511SOL    HW226433   6.135   2.005   3.378
 8512SOL     OW26434   2.165   6.467   5.372
 8512SOL    HW126435   2.133   6.561   5.390
 8512SOL    HW226436   2.120   6.404   5.435
 8513SOL     OW26437   4.923   5.997   6.911
 8513SOL    HW126438   4.933   6.094   6.889
 8513SOL    HW226439   4.936   5.984   7.010
 8514SOL     OW26440   3.834   5.727   4.109
 8514SOL    HW126441   3.910   5.765   4.056
 8514SOL    HW226442   3.791   5.653   4.057
 8515SOL     OW26443   6.301   2.132   1.474
 8515SOL    HW126444   6.266   2.226   1.475
 8515SOL    HW226445   6.229   2.070   1.504
 8516SOL     OW26446   6.819   1.967   2.414
 8516SOL    HW126447   6.772   1.901   2.355
 8516SOL    HW226448   6.873   1.917   2.482
 8517SOL     OW26449   1.528   3.645   6.161
 8517SOL    HW126450   1.530   3.713   6.234
 8517SOL    HW226451   1.510   3.554   6.200
 8518SOL     OW26452   2.742   5.612   0.659
 8518SOL    HW126453   2.804   5.538   0.635
 8518SOL    HW226454   2.785   5.672   0.726
 8519SOL     OW26455   2.886   5.968   3.910
 8519SOL    HW126456   2.811   5.911   3.877
 8519SOL    HW226457   2.904   6.040   3.844
 8520SOL     OW26458   3.577   6.197   6.766
 8520SOL    HW126459   3.513   6.251   6.821
 8520SOL    HW226460   3.657   6.254   6.743
 8521SOL     OW26461   1.619   0.369   1.995
 8521SOL    HW126462   1.615   0.345   1.898
 8521SOL    HW226463   1.687   0.313   2.041
 8522SOL     OW26464   2.495   6.606   4.501
 8522SOL    HW126465   2.408   6.558   4.512
 8522SOL    HW226466   2.512   6.622   4.404
 8523SOL     OW26467   1.737   6.476   6.574
 8523SOL    HW126468   1.669   6.547   6.594
 8523SOL    HW226469   1.736   6.408   6.648
 8524SOL     OW26470   1.759   1.325   6.776
 8524SOL    HW126471   1.734   1.353   6.869
 8524SOL    HW226472   1.845   1.370   6.750
 8525SOL     OW26473   5.588   3.611   3.854
 8525SOL    HW126474   5.513   3.637   3.793
 8525SOL    HW226475   5.659   3.681   3.851
 8526SOL     OW26476   2.146   3.258   2.293
 8526SOL    HW126477   2.062   3.281   2.342
 8526SOL    HW226478   2.196   3.342   2.272
 8527SOL     OW26479   4.462   0.356   4.093
 8527SOL    HW126480   4.449   0.293   4.170
 8527SOL    HW226481   4.556   0.348   4.059
 8528SOL     OW26482   5.752   1.534   6.876
 8528SOL    HW126483   5.790   1.626   6.864
 8528SOL    HW226484   5.754   1.509   6.973
 8529SOL     OW26485   6.669   5.910   5.720
 8529SOL    HW126486   6.604   5.926   5.646
 8529SOL    HW226487   6.677   5.811   5.736
 8530SOL     OW26488   2.014   4.769   6.044
 8530SOL    HW126489   1.925   4.773   6.090
 8530SOL    HW226490   2.072   4.843   6.077
 8531SOL     OW26491   4.612   4.782   1.939
 8531SOL    HW126492   4.615   4.703   2.000
 8531SOL    HW226493   4.518   4.795   1.907
 8532SOL     OW26494   1.650   3.869   0.941
 8532SOL    HW126495   1.704   3.885   0.859
 8532SOL    HW226496   1.662   3.774   0.971
 8533SOL     OW26497   4.025   6.447   5.570
 8533SOL    HW126498   4.085   6.522   5.597
 8533SOL    HW226499   3.980   6.470   5.483
 8534SOL     OW26500   1.782   2.394   1.154
 8534SOL    HW126501   1.692   2.372   1.118
 8534SOL    HW226502   1.841   2.313   1.149
 8535SOL     OW26503   0.391   3.349   5.173
 8535SOL    HW126504   0.293   3.366   5.181
 8535SOL    HW226505   0.406   3.253   5.152
 8536SOL     OW26506   5.913   1.123   5.653
 8536SOL    HW126507   5.886   1.185   5.727
 8536SOL    HW226508   5.831   1.094   5.603
 8537SOL     OW26509   4.765   6.582   2.897
 8537SOL    HW126510   4.715   6.635   2.965
 8537SOL    HW226511   4.705   6.513   2.857
 8538SOL     OW26512   5.214   0.420   5.274
 8538SOL    HW126513   5.239   0.326   5.297
 8538SOL    HW226514   5.143   0.420   5.204
 8539SOL     OW26515   0.924   3.060   2.656
 8539SOL    HW126516   1.023   3.046   2.661
 8539SOL    HW226517   0.895   3.061   2.560
 8540SOL     OW26518   4.101   6.996   6.847
 8540SOL    HW126519   4.119   7.014   6.750
 8540SOL    HW226520   4.111   6.899   6.865
 8541SOL     OW26521   2.849   6.476   5.107
 8541SOL    HW126522   2.894   6.477   5.196
 8541SOL    HW226523   2.867   6.388   5.062
 8542SOL     OW26524   1.031   5.133   5.302
 8542SOL    HW126525   1.013   5.227   5.329
 8542SOL    HW226526   1.104   5.131   5.233
 8543SOL     OW26527   3.046   2.361   5.409
 8543SOL    HW126528   3.118   2.370   5.339
 8543SOL    HW226529   3.075   2.293   5.477
 8544SOL     OW26530   5.094   4.707   5.632
 8544SOL    HW126531   5.184   4.721   5.589
 8544SOL    HW226532   5.048   4.630   5.586
 8545SOL     OW26533   1.944   6.945   6.393
 8545SOL    HW126534   2.020   6.946   6.328
 8545SOL    HW226535   1.866   6.898   6.352
 8546SOL     OW26536   4.370   1.298   3.679
 8546SOL    HW126537   4.356   1.199   3.671
 8546SOL    HW226538   4.435   1.328   3.609
 8547SOL     OW26539   5.454   6.157   5.928
 8547SOL    HW126540   5.536   6.212   5.915
 8547SOL    HW226541   5.475   6.079   5.988
 8548SOL     OW26542   1.040   4.598   4.282
 8548SOL    HW126543   1.105   4.625   4.353
 8548SOL    HW226544   1.054   4.655   4.201
 8549SOL     OW26545   2.026   0.817   3.873
 8549SOL    HW126546   1.960   0.831   3.947
 8549SOL    HW226547   2.106   0.875   3.888
 8550SOL     OW26548   6.979   4.724   5.701
 8550SOL    HW126549   7.001   4.633   5.665
 8550SOL    HW226550   0.019   4.790   5.665
 8551SOL     OW26551   3.688   1.033   4.875
 8551SOL    HW126552   3.719   1.020   4.781
 8551SOL    HW226553   3.744   0.977   4.937
 8552SOL     OW26554   3.567   1.235   1.799
 8552SOL    HW126555   3.475   1.264   1.823
 8552SOL    HW226556   3.617   1.312   1.757
 8553SOL     OW26557   4.515   3.938   0.485
 8553SOL    HW126558   4.479   3.975   0.570
 8553SOL    HW226559   4.603   3.894   0.502
 8554SOL     OW26560   1.547   0.782   6.623
 8554SOL    HW126561   1.585   0.852   6.562
 8554SOL    HW226562   1.481   0.726   6.574
 8555SOL     OW26563   3.248   2.155   3.345
 8555SOL    HW126564   3.168   2.169   3.403
 8555SOL    HW226565   3.325   2.125   3.401
 8556SOL     OW26566   0.121   5.167   5.270
 8556SOL    HW126567   0.205   5.221   5.276
 8556SOL    HW226568   0.058   5.196   5.341
 8557SOL     OW26569   6.685   1.010   6.730
 8557SOL    HW126570   6.627   0.940   6.771
 8557SOL    HW226571   6.676   1.007   6.631
 8558SOL     OW26572   3.342   5.969   3.843
 8558SOL    HW126573   3.351   6.067   3.860
 8558SOL    HW226574   3.428   5.923   3.865
 8559SOL     OW26575   1.903   3.331   2.434
 8559SOL    HW126576   1.860   3.295   2.517
 8559SOL    HW226577   1.835   3.337   2.361
 8560SOL     OW26578   3.229   3.788   1.305
 8560SOL    HW126579   3.132   3.769   1.289
 8560SOL    HW226580   3.250   3.778   1.402
 8561SOL     OW26581   3.476   0.912   2.893
 8561SOL    HW126582   3.551   0.866   2.940
 8561SOL    HW226583   3.512   0.988   2.839
 8562SOL     OW26584   5.575   2.247   6.950
 8562SOL    HW126585   5.498   2.306   6.927
 8562SOL    HW226586   5.542   2.161   6.988
 8563SOL     OW26587   2.386   5.362   2.700
 8563SOL    HW126588   2.431   5.429   2.760
 8563SOL    HW226589   2.287   5.376   2.705
 8564SOL     OW26590   3.843   6.060   0.632
 8564SOL    HW126591   3.745   6.051   0.616
 8564SOL    HW226592   3.886   6.105   0.553
 8565SOL     OW26593   1.293   5.154   0.907
 8565SOL    HW126594   1.198   5.173   0.884
 8565SOL    HW226595   1.351   5.229   0.874
 8566SOL     OW26596   3.382   0.837   3.403
 8566SOL    HW126597   3.366   0.782   3.321
 8566SOL    HW226598   3.322   0.805   3.476
 8567SOL     OW26599   1.830   2.445   1.772
 8567SOL    HW126600   1.824   2.394   1.686
 8567SOL    HW226601   1.747   2.428   1.826
 8568SOL     OW26602   6.142   0.965   5.706
 8568SOL    HW126603   6.074   1.007   5.647
 8568SOL    HW226604   6.114   0.973   5.801
 8569SOL     OW26605   5.402   1.842   0.333
 8569SOL    HW126606   5.333   1.864   0.264
 8569SOL    HW226607   5.362   1.783   0.403
 8570SOL     OW26608   2.162   1.355   2.549
 8570SOL    HW126609   2.240   1.315   2.500
 8570SOL    HW226610   2.189   1.445   2.585
 8571SOL     OW26611   1.547   0.754   3.590
 8571SOL    HW126612   1.530   0.818   3.514
 8571SOL    HW226613   1.468   0.753   3.651
 8572SOL     OW26614   3.082   4.065   6.182
 8572SOL    HW126615   3.074   4.105   6.090
 8572SOL    HW226616   3.177   4.037   6.198
 8573SOL     OW26617   1.858   6.106   6.199
 8573SOL    HW126618   1.907   6.024   6.228
 8573SOL    HW226619   1.814   6.149   6.277
 8574SOL     OW26620   5.017   1.484   5.424
 8574SOL    HW126621   5.108   1.498   5.463
 8574SOL    HW226622   5.021   1.491   5.325
 8575SOL     OW26623   3.277   6.375   4.353
 8575SOL    HW126624   3.315   6.361   4.262
 8575SOL    HW226625   3.340   6.431   4.408
 8576SOL     OW26626   1.647   4.379   4.212
 8576SOL    HW126627   1.720   4.444   4.234
 8576SOL    HW226628   1.642   4.366   4.112
 8577SOL     OW26629   2.210   0.309   0.291
 8577SOL    HW126630   2.150   0.386   0.270
 8577SOL    HW226631   2.302   0.342   0.311
 8578SOL     OW26632   0.909   7.005   5.984
 8578SOL    HW126633   1.006   0.001   5.981
 8578SOL    HW226634   0.868   0.022   6.066
 8579SOL     OW26635   3.206   0.114   2.432
 8579SOL    HW126636   3.290   0.060   2.427
 8579SOL    HW226637   3.208   0.183   2.360
 8580SOL     OW26638   1.897   0.497   1.926
 8580SOL    HW126639   1.802   0.499   1.956
 8580SOL    HW226640   1.945   0.421   1.969
 8581SOL     OW26641   3.992   3.875   2.185
 8581SOL    HW126642   4.012   3.805   2.253
 8581SOL    HW226643   3.933   3.945   2.225
 8582SOL     OW26644   4.182   5.284   5.901
 8582SOL    HW126645   4.120   5.258   5.975
 8582SOL    HW226646   4.277   5.278   5.933
 8583SOL     OW26647   3.086   0.030   2.884
 8583SOL    HW126648   3.021   0.033   2.960
 8583SOL    HW226649   3.164   6.998   2.909
 8584SOL     OW26650   6.513   1.856   4.782
 8584SOL    HW126651   6.515   1.938   4.838
 8584SOL    HW226652   6.598   1.805   4.794
 8585SOL     OW26653   4.979   2.683   2.730
 8585SOL    HW126654   5.005   2.779   2.739
 8585SOL    HW226655   4.880   2.674   2.739
 8586SOL     OW26656   5.782   5.668   5.568
 8586SOL    HW126657   5.740   5.578   5.574
 8586SOL    HW226658   5.845   5.671   5.490
 8587SOL     OW26659   6.407   1.730   7.010
 8587SOL    HW126660   6.406   1.828   0.008
 8587SOL    HW226661   6.448   1.719   6.919
 8588SOL     OW26662   1.633   0.674   5.274
 8588SOL    HW126663   1.567   0.603   5.299
 8588SOL    HW226664   1.712   0.632   5.229
 8589SOL     OW26665   5.460   3.221   0.014
 8589SOL    HW126666   5.465   3.160   0.093
 8589SOL    HW226667   5.495   3.311   0.039
 8590SOL     OW26668   0.822   1.737   3.862
 8590SOL    HW126669   0.802   1.813   3.924
 8590SOL    HW226670   0.736   1.694   3.833
 8591SOL     OW26671   0.085   4.096   5.653
 8591SOL    HW126672   0.115   4.005   5.623
 8591SOL    HW226673   0.166   4.154   5.665
 8592SOL     OW26674   7.009   1.686   4.320
 8592SOL    HW126675   0.019   1.773   4.286
 8592SOL    HW226676   7.010   1.687   4.420
 8593SOL     OW26677   6.246   1.267   6.987
 8593SOL    HW126678   6.230   1.364   7.006
 8593SOL    HW226679   6.212   1.212   0.038
 8594SOL     OW26680   6.008   4.249   6.287
 8594SOL    HW126681   5.970   4.251   6.194
 8594SOL    HW226682   5.984   4.162   6.330
 8595SOL     OW26683   4.964   5.715   2.919
 8595SOL    HW126684   5.049   5.663   2.928
 8595SOL    HW226685   4.919   5.720   3.008
 8596SOL     OW26686   0.673   2.675   4.965
 8596SOL    HW126687   0.636   2.723   4.886
 8596SOL    HW226688   0.639   2.581   4.967
 8597SOL     OW26689   6.057   2.406   6.420
 8597SOL    HW126690   6.075   2.311   6.444
 8597SOL    HW226691   6.045   2.415   6.321
 8598SOL     OW26692   0.097   0.688   5.336
 8598SOL    HW126693   0.094   0.638   5.423
 8598SOL    HW226694   0.039   0.641   5.270
 8599SOL     OW26695   6.175   3.854   5.277
 8599SOL    HW126696   6.107   3.845   5.350
 8599SOL    HW226697   6.213   3.946   5.276
 8600SOL     OW26698   4.647   2.761   1.838
 8600SOL    HW126699   4.702   2.742   1.757
 8600SOL    HW226700   4.651   2.859   1.859
 8601SOL     OW26701   6.132   5.769   2.768
 8601SOL    HW126702   6.147   5.781   2.669
 8601SOL    HW226703   6.044   5.723   2.782
 8602SOL     OW26704   1.866   6.969   5.535
 8602SOL    HW126705   1.777   6.969   5.491
 8602SOL    HW226706   1.858   6.927   5.626
 8603SOL     OW26707   0.712   0.870   6.468
 8603SOL    HW126708   0.753   0.915   6.547
 8603SOL    HW226709   0.625   0.829   6.495
 8604SOL     OW26710   2.105   5.337   5.846
 8604SOL    HW126711   2.194   5.302   5.876
 8604SOL    HW226712   2.053   5.263   5.803
 8605SOL     OW26713   7.012   4.746   3.766
 8605SOL    HW126714   6.983   4.824   3.821
 8605SOL    HW226715   0.033   4.679   3.824
 8606SOL     OW26716   1.203   0.839   6.947
 8606SOL    HW126717   1.184   0.807   0.015
 8606SOL    HW226718   1.200   0.761   6.884
 8607SOL     OW26719   2.990   3.232   1.293
 8607SOL    HW126720   3.025   3.168   1.226
 8607SOL    HW226721   3.060   3.250   1.362
 8608SOL     OW26722   1.729   5.393   2.248
 8608SOL    HW126723   1.775   5.474   2.284
 8608SOL    HW226724   1.631   5.399   2.269
 8609SOL     OW26725   4.924   1.929   4.363
 8609SOL    HW126726   4.836   1.972   4.379
 8609SOL    HW226727   4.996   1.998   4.368
 8610SOL     OW26728   7.002   5.804   2.863
 8610SOL    HW126729   6.951   5.718   2.856
 8610SOL    HW226730   0.075   5.785   2.853
 8611SOL     OW26731   1.874   1.242   5.045
 8611SOL    HW126732   1.935   1.222   5.122
 8611SOL    HW226733   1.856   1.340   5.042
 8612SOL     OW26734   3.445   3.289   4.720
 8612SOL    HW126735   3.423   3.224   4.792
 8612SOL    HW226736   3.543   3.307   4.719
 8613SOL     OW26737   4.014   3.059   3.064
 8613SOL    HW126738   4.008   2.996   2.987
 8613SOL    HW226739   3.956   3.025   3.139
 8614SOL     OW26740   0.663   2.559   3.559
 8614SOL    HW126741   0.753   2.549   3.602
 8614SOL    HW226742   0.670   2.535   3.463
 8615SOL     OW26743   3.267   1.929   5.440
 8615SOL    HW126744   3.178   1.895   5.470
 8615SOL    HW226745   3.256   1.980   5.355
 8616SOL     OW26746   5.782   4.487   4.961
 8616SOL    HW126747   5.753   4.432   5.039
 8616SOL    HW226748   5.829   4.429   4.894
 8617SOL     OW26749   1.337   6.714   3.137
 8617SOL    HW126750   1.345   6.787   3.069
 8617SOL    HW226751   1.260   6.655   3.114
 8618SOL     OW26752   5.742   4.338   0.795
 8618SOL    HW126753   5.771   4.336   0.700
 8618SOL    HW226754   5.695   4.253   0.818
 8619SOL     OW26755   5.638   6.208   0.683
 8619SOL    HW126756   5.576   6.179   0.610
 8619SOL    HW226757   5.731   6.216   0.647
 8620SOL     OW26758   1.979   6.672   3.754
 8620SOL    HW126759   1.891   6.707   3.721
 8620SOL    HW226760   1.967   6.577   3.785
 8621SOL     OW26761   5.856   3.438   1.972
 8621SOL    HW126762   5.829   3.462   1.879
 8621SOL    HW226763   5.910   3.354   1.970
 8622SOL     OW26764   0.582   5.276   2.826
 8622SOL    HW126765   0.650   5.208   2.854
 8622SOL    HW226766   0.628   5.362   2.803
 8623SOL     OW26767   1.769   2.480   3.669
 8623SOL    HW126768   1.834   2.410   3.639
 8623SOL    HW226769   1.678   2.457   3.635
 8624SOL     OW26770   3.339   3.999   5.195
 8624SOL    HW126771   3.373   4.060   5.267
 8624SOL    HW226772   3.239   4.000   5.194
 8625SOL     OW26773   4.507   3.055   6.076
 8625SOL    HW126774   4.438   3.117   6.039
 8625SOL    HW226775   4.472   2.961   6.073
 8626SOL     OW26776   4.776   1.849   1.727
 8626SOL    HW126777   4.720   1.913   1.675
 8626SOL    HW226778   4.865   1.891   1.747
 8627SOL     OW26779   1.583   0.464   2.478
 8627SOL    HW126780   1.572   0.466   2.379
 8627SOL    HW226781   1.506   0.511   2.522
 8628SOL     OW26782   0.924   7.009   0.851
 8628SOL    HW126783   0.988   6.933   0.844
 8628SOL    HW226784   0.920   0.031   0.763
 8629SOL     OW26785   0.467   6.973   4.561
 8629SOL    HW126786   0.494   0.026   4.505
 8629SOL    HW226787   0.373   6.985   4.592
 8630SOL     OW26788   5.072   2.670   2.468
 8630SOL    HW126789   5.008   2.674   2.391
 8630SOL    HW226790   5.021   2.654   2.552
 8631SOL     OW26791   2.174   6.062   5.974
 8631SOL    HW126792   2.143   5.970   5.994
 8631SOL    HW226793   2.218   6.102   6.054
 8632SOL     OW26794   5.847   5.372   4.231
 8632SOL    HW126795   5.870   5.413   4.142
 8632SOL    HW226796   5.749   5.356   4.236
 8633SOL     OW26797   5.541   4.076   5.154
 8633SOL    HW126798   5.454   4.118   5.129
 8633SOL    HW226799   5.584   4.037   5.072
 8634SOL     OW26800   5.207   4.433   6.548
 8634SOL    HW126801   5.265   4.492   6.493
 8634SOL    HW226802   5.155   4.371   6.489
 8635SOL     OW26803   5.059   2.764   6.759
 8635SOL    HW126804   4.991   2.831   6.788
 8635SOL    HW226805   5.147   2.785   6.802
 8636SOL     OW26806   4.562   6.026   1.861
 8636SOL    HW126807   4.662   6.037   1.866
 8636SOL    HW226808   4.526   6.014   1.954
 8637SOL     OW26809   1.892   1.812   6.816
 8637SOL    HW126810   1.832   1.866   6.757
 8637SOL    HW226811   1.986   1.845   6.808
 8638SOL     OW26812   4.884   3.300   4.068
 8638SOL    HW126813   4.879   3.372   4.137
 8638SOL    HW226814   4.877   3.341   3.977
 8639SOL     OW26815   3.144   3.953   0.519
 8639SOL    HW126816   3.228   3.991   0.557
 8639SOL    HW226817   3.078   4.026   0.504
 8640SOL     OW26818   3.891   2.303   0.526
 8640SOL    HW126819   3.904   2.379   0.463
 8640SOL    HW226820   3.895   2.337   0.620
 8641SOL     OW26821   3.713   5.247   2.628
 8641SOL    HW126822   3.783   5.203   2.685
 8641SOL    HW226823   3.694   5.190   2.548
 8642SOL     OW26824   1.603   5.765   3.044
 8642SOL    HW126825   1.696   5.732   3.028
 8642SOL    HW226826   1.599   5.864   3.028
 8643SOL     OW26827   3.796   6.578   1.002
 8643SOL    HW126828   3.860   6.503   1.022
 8643SOL    HW226829   3.847   6.659   0.974
 8644SOL     OW26830   6.001   2.445   6.141
 8644SOL    HW126831   6.049   2.532   6.152
 8644SOL    HW226832   6.035   2.399   6.059
 8645SOL     OW26833   5.507   5.868   2.800
 8645SOL    HW126834   5.530   5.963   2.817
 8645SOL    HW226835   5.412   5.861   2.769
 8646SOL     OW26836   6.887   2.761   5.577
 8646SOL    HW126837   6.862   2.768   5.674
 8646SOL    HW226838   6.985   2.746   5.569
 8647SOL     OW26839   1.608   5.213   1.861
 8647SOL    HW126840   1.677   5.170   1.919
 8647SOL    HW226841   1.627   5.311   1.854
 8648SOL     OW26842   4.943   5.497   0.711
 8648SOL    HW126843   4.966   5.412   0.759
 8648SOL    HW226844   4.853   5.529   0.742
 8649SOL     OW26845   5.546   1.432   0.721
 8649SOL    HW126846   5.470   1.459   0.781
 8649SOL    HW226847   5.615   1.504   0.722
 8650SOL     OW26848   2.008   0.173   5.588
 8650SOL    HW126849   1.937   0.235   5.622
 8650SOL    HW226850   1.967   0.085   5.565
 8651SOL     OW26851   4.043   2.019   1.590
 8651SOL    HW126852   4.111   1.992   1.658
 8651SOL    HW226853   3.961   2.052   1.637
 8652SOL     OW26854   0.877   2.867   3.636
 8652SOL    HW126855   0.955   2.805   3.637
 8652SOL    HW226856   0.909   2.961   3.627
 8653SOL     OW26857   5.917   1.345   6.729
 8653SOL    HW126858   5.841   1.393   6.772
 8653SOL    HW226859   6.002   1.395   6.745
 8654SOL     OW26860   6.893   4.902   2.791
 8654SOL    HW126861   6.907   4.830   2.860
 8654SOL    HW226862   6.798   4.901   2.760
 8655SOL     OW26863   1.078   0.222   4.910
 8655SOL    HW126864   0.991   0.228   4.959
 8655SOL    HW226865   1.124   0.311   4.913
 8656SOL     OW26866   4.334   6.521   0.705
 8656SOL    HW126867   4.426   6.536   0.669
 8656SOL    HW226868   4.334   6.535   0.804
 8657SOL     OW26869   2.917   1.935   2.862
 8657SOL    HW126870   2.987   2.006   2.849
 8657SOL    HW226871   2.924   1.897   2.954
 8658SOL     OW26872   6.092   4.811   1.415
 8658SOL    HW126873   6.176   4.837   1.463
 8658SOL    HW226874   6.116   4.775   1.325
 8659SOL     OW26875   4.119   0.636   2.419
 8659SOL    HW126876   4.151   0.666   2.509
 8659SOL    HW226877   4.145   0.704   2.351
 8660SOL     OW26878   0.343   4.131   1.878
 8660SOL    HW126879   0.359   4.218   1.925
 8660SOL    HW226880   0.299   4.067   1.941
 8661SOL     OW26881   6.834   3.567   1.984
 8661SOL    HW126882   6.851   3.660   2.016
 8661SOL    HW226883   6.748   3.565   1.933
 8662SOL     OW26884   1.307   2.291   2.579
 8662SOL    HW126885   1.280   2.353   2.505
 8662SOL    HW226886   1.310   2.341   2.665
 8663SOL     OW26887   4.137   4.715   2.624
 8663SOL    HW126888   4.207   4.784   2.608
 8663SOL    HW226889   4.167   4.628   2.585
 8664SOL     OW26890   3.836   6.055   3.921
 8664SOL    HW126891   3.884   6.003   3.992
 8664SOL    HW226892   3.903   6.110   3.870
 8665SOL     OW26893   5.473   4.017   6.861
 8665SOL    HW126894   5.486   3.917   6.860
 8665SOL    HW226895   5.467   4.050   6.767
 8666SOL     OW26896   4.729   0.491   2.777
 8666SOL    HW126897   4.764   0.499   2.870
 8666SOL    HW226898   4.791   0.433   2.723
 8667SOL     OW26899   5.195   2.437   2.365
 8667SOL    HW126900   5.183   2.394   2.275
 8667SOL    HW226901   5.139   2.520   2.370
 8668SOL     OW26902   4.848   2.263   4.254
 8668SOL    HW126903   4.748   2.257   4.250
 8668SOL    HW226904   4.881   2.207   4.331
 8669SOL     OW26905   6.877   6.222   6.487
 8669SOL    HW126906   6.935   6.288   6.536
 8669SOL    HW226907   6.869   6.139   6.541
 8670SOL     OW26908   6.554   5.183   5.400
 8670SOL    HW126909   6.554   5.241   5.318
 8670SOL    HW226910   6.515   5.094   5.377
 8671SOL     OW26911   0.000   2.937   2.941
 8671SOL    HW126912   0.014   2.957   2.844
 8671SOL    HW226913   6.929   2.946   2.964
 8672SOL     OW26914   0.041   1.621   2.835
 8672SOL    HW126915   0.009   1.567   2.913
 8672SOL    HW226916   0.024   1.571   2.751
 8673SOL     OW26917   1.225   1.541   1.141
 8673SOL    HW126918   1.310   1.508   1.100
 8673SOL    HW226919   1.237   1.553   1.239
 8674SOL     OW26920   6.958   4.295   3.428
 8674SOL    HW126921   6.928   4.203   3.402
 8674SOL    HW226922   0.020   4.288   3.478
 8675SOL     OW26923   4.415   2.461   4.762
 8675SOL    HW126924   4.338   2.424   4.709
 8675SOL    HW226925   4.385   2.544   4.809
 8676SOL     OW26926   4.880   1.942   1.278
 8676SOL    HW126927   4.816   1.997   1.331
 8676SOL    HW226928   4.969   1.987   1.273
 8677SOL     OW26929   2.685   6.932   6.431
 8677SOL    HW126930   2.618   6.905   6.362
 8677SOL    HW226931   2.672   6.878   6.514
 8678SOL     OW26932   2.874   2.117   0.329
 8678SOL    HW126933   2.828   2.205   0.323
 8678SOL    HW226934   2.825   2.059   0.395
 8679SOL     OW26935   1.681   1.939   6.667
 8679SOL    HW126936   1.709   1.974   6.577
 8679SOL    HW226937   1.633   1.852   6.655
 8680SOL     OW26938   0.279   0.310   0.507
 8680SOL    HW126939   0.220   0.389   0.525
 8680SOL    HW226940   0.373   0.342   0.491
 8681SOL     OW26941   5.111   4.902   1.487
 8681SOL    HW126942   5.194   4.925   1.436
 8681SOL    HW226943   5.031   4.923   1.431
 8682SOL     OW26944   2.655   0.675   2.691
 8682SOL    HW126945   2.626   0.586   2.656
 8682SOL    HW226946   2.643   0.744   2.619
 8683SOL     OW26947   2.464   4.439   4.280
 8683SOL    HW126948   2.425   4.406   4.366
 8683SOL    HW226949   2.404   4.414   4.204
 8684SOL     OW26950   2.420   4.487   3.364
 8684SOL    HW126951   2.471   4.480   3.450
 8684SOL    HW226952   2.335   4.435   3.370
 8685SOL     OW26953   4.821   3.018   4.655
 8685SOL    HW126954   4.806   3.005   4.557
 8685SOL    HW226955   4.907   2.975   4.682
 8686SOL     OW26956   1.347   5.238   3.198
 8686SOL    HW126957   1.366   5.312   3.263
 8686SOL    HW226958   1.393   5.154   3.227
 8687SOL     OW26959   5.735   4.482   5.485
 8687SOL    HW126960   5.814   4.433   5.522
 8687SOL    HW226961   5.675   4.418   5.438
 8688SOL     OW26962   1.115   3.874   5.134
 8688SOL    HW126963   1.064   3.792   5.108
 8688SOL    HW226964   1.180   3.897   5.061
 8689SOL     OW26965   4.610   3.310   0.954
 8689SOL    HW126966   4.511   3.308   0.941
 8689SOL    HW226967   4.632   3.376   1.026
 8690SOL     OW26968   1.298   1.548   2.278
 8690SOL    HW126969   1.398   1.541   2.273
 8690SOL    HW226970   1.257   1.465   2.239
 8691SOL     OW26971   3.416   2.393   6.186
 8691SOL    HW126972   3.503   2.427   6.151
 8691SOL    HW226973   3.351   2.468   6.190
 8692SOL     OW26974   5.259   3.106   4.239
 8692SOL    HW126975   5.261   3.124   4.337
 8692SOL    HW226976   5.198   3.029   4.220
 8693SOL     OW26977   6.924   6.817   5.550
 8693SOL    HW126978   6.939   6.818   5.451
 8693SOL    HW226979   6.835   6.775   5.570
 8694SOL     OW26980   4.559   3.448   5.554
 8694SOL    HW126981   4.467   3.409   5.561
 8694SOL    HW226982   4.626   3.377   5.577
 8695SOL     OW26983   2.993   4.843   0.924
 8695SOL    HW126984   2.960   4.756   0.962
 8695SOL    HW226985   2.945   4.918   0.969
 8696SOL     OW26986   2.575   5.778   6.194
 8696SOL    HW126987   2.479   5.778   6.224
 8696SOL    HW226988   2.625   5.708   6.245
 8697SOL     OW26989   1.036   3.667   4.840
 8697SOL    HW126990   1.120   3.613   4.844
 8697SOL    HW226991   1.030   3.713   4.752
 8698SOL     OW26992   4.185   4.299   6.990
 8698SOL    HW126993   4.273   4.252   6.995
 8698SOL    HW226994   4.195   4.391   0.004
 8699SOL     OW26995   2.007   2.292   0.694
 8699SOL    HW126996   1.957   2.256   0.773
 8699SOL    HW226997   1.963   2.375   0.661
 8700SOL     OW26998   0.761   1.815   5.122
 8700SOL    HW126999   0.738   1.724   5.156
 8700SOL    HW227000   0.686   1.879   5.144
 8701SOL     OW27001   1.784   3.242   6.649
 8701SOL    HW127002   1.740   3.317   6.698
 8701SOL    HW227003   1.714   3.176   6.620
 8702SOL     OW27004   5.901   4.350   1.042
 8702SOL    HW127005   5.848   4.334   0.959
 8702SOL    HW227006   5.872   4.285   1.112
 8703SOL     OW27007   2.530   5.686   1.572
 8703SOL    HW127008   2.598   5.666   1.642
 8703SOL    HW227009   2.553   5.638   1.487
 8704SOL     OW27010   0.307   1.547   5.052
 8704SOL    HW127011   0.363   1.550   4.969
 8704SOL    HW227012   0.265   1.457   5.061
 8705SOL     OW27013   3.669   2.137   0.097
 8705SOL    HW127014   3.627   2.228   0.107
 8705SOL    HW227015   3.652   2.103   0.005
 8706SOL     OW27016   4.824   2.218   6.606
 8706SOL    HW127017   4.767   2.199   6.527
 8706SOL    HW227018   4.800   2.308   6.644
 8707SOL     OW27019   0.896   1.182   3.994
 8707SOL    HW127020   0.968   1.141   3.938
 8707SOL    HW227021   0.835   1.110   4.028
 8708SOL     OW27022   5.982   2.691   1.240
 8708SOL    HW127023   6.015   2.754   1.310
 8708SOL    HW227024   5.884   2.704   1.228
 8709SOL     OW27025   6.352   6.208   4.120
 8709SOL    HW127026   6.431   6.269   4.121
 8709SOL    HW227027   6.269   6.262   4.105
 8710SOL     OW27028   2.193   1.718   3.522
 8710SOL    HW127029   2.166   1.785   3.591
 8710SOL    HW227030   2.282   1.743   3.483
 8711SOL     OW27031   1.505   1.165   2.184
 8711SOL    HW127032   1.604   1.174   2.196
 8711SOL    HW227033   1.467   1.114   2.261
 8712SOL     OW27034   0.714   4.725   4.432
 8712SOL    HW127035   0.747   4.631   4.430
 8712SOL    HW227036   0.643   4.735   4.501
 8713SOL     OW27037   0.068   3.739   2.326
 8713SOL    HW127038   0.091   3.651   2.284
 8713SOL    HW227039   0.122   3.751   2.409
 8714SOL     OW27040   6.185   4.561   6.677
 8714SOL    HW127041   6.178   4.551   6.577
 8714SOL    HW227042   6.195   4.657   6.700
 8715SOL     OW27043   2.416   4.790   1.265
 8715SOL    HW127044   2.463   4.875   1.241
 8715SOL    HW227045   2.337   4.777   1.205
 8716SOL     OW27046   6.564   0.434   2.100
 8716SOL    HW127047   6.542   0.343   2.064
 8716SOL    HW227048   6.569   0.499   2.024
 8717SOL     OW27049   3.324   2.551   0.593
 8717SOL    HW127050   3.383   2.516   0.520
 8717SOL    HW227051   3.378   2.562   0.676
 8718SOL     OW27052   3.252   5.283   6.558
 8718SOL    HW127053   3.262   5.366   6.613
 8718SOL    HW227054   3.252   5.203   6.618
 8719SOL     OW27055   3.452   1.304   4.917
 8719SOL    HW127056   3.521   1.294   4.846
 8719SOL    HW227057   3.416   1.397   4.917
 8720SOL     OW27058   1.145   5.901   4.718
 8720SOL    HW127059   1.072   5.906   4.651
 8720SOL    HW227060   1.154   5.807   4.750
 8721SOL     OW27061   1.132   6.977   1.173
 8721SOL    HW127062   1.139   6.943   1.079
 8721SOL    HW227063   1.036   6.995   1.195
 8722SOL     OW27064   3.190   1.267   0.585
 8722SOL    HW127065   3.197   1.323   0.667
 8722SOL    HW227066   3.132   1.188   0.604
 8723SOL     OW27067   4.179   6.542   2.051
 8723SOL    HW127068   4.198   6.605   1.975
 8723SOL    HW227069   4.173   6.449   2.017
 8724SOL     OW27070   3.377   1.580   4.902
 8724SOL    HW127071   3.320   1.646   4.950
 8724SOL    HW227072   3.473   1.604   4.915
 8725SOL     OW27073   6.867   0.539   2.718
 8725SOL    HW127074   6.867   0.446   2.680
 8725SOL    HW227075   6.773   0.571   2.729
 8726SOL     OW27076   6.139   0.804   0.572
 8726SOL    HW127077   6.128   0.819   0.671
 8726SOL    HW227078   6.237   0.804   0.549
 8727SOL     OW27079   5.463   5.980   6.624
 8727SOL    HW127080   5.421   6.069   6.642
 8727SOL    HW227081   5.446   5.953   6.530
 8728SOL     OW27082   6.202   6.676   4.240
 8728SOL    HW127083   6.127   6.618   4.208
 8728SOL    HW227084   6.270   6.619   4.287
 8729SOL     OW27085   5.885   5.579   5.960
 8729SOL    HW127086   5.827   5.559   6.039
 8729SOL    HW227087   5.950   5.652   5.985
 8730SOL     OW27088   4.150   4.662   1.791
 8730SOL    HW127089   4.174   4.567   1.772
 8730SOL    HW227090   4.119   4.671   1.886
 8731SOL     OW27091   6.854   1.749   3.864
 8731SOL    HW127092   6.812   1.732   3.775
 8731SOL    HW227093   6.795   1.808   3.919
 8732SOL     OW27094   5.204   6.249   5.940
 8732SOL    HW127095   5.159   6.163   5.963
 8732SOL    HW227096   5.303   6.236   5.942
 8733SOL     OW27097   6.347   4.752   2.447
 8733SOL    HW127098   6.385   4.773   2.357
 8733SOL    HW227099   6.249   4.770   2.447
 8734SOL     OW27100   1.492   5.292   0.779
 8734SOL    HW127101   1.550   5.218   0.744
 8734SOL    HW227102   1.539   5.380   0.765
 8735SOL     OW27103   1.418   2.991   5.951
 8735SOL    HW127104   1.331   3.025   5.917
 8735SOL    HW227105   1.470   2.951   5.875
 8736SOL     OW27106   1.677   5.701   3.363
 8736SOL    HW127107   1.651   5.615   3.405
 8736SOL    HW227108   1.720   5.684   3.275
 8737SOL     OW27109   0.295   5.657   6.785
 8737SOL    HW127110   0.224   5.721   6.816
 8737SOL    HW227111   0.279   5.633   6.690
 8738SOL     OW27112   1.830   2.500   2.195
 8738SOL    HW127113   1.853   2.553   2.113
 8738SOL    HW227114   1.907   2.501   2.258
 8739SOL     OW27115   5.459   4.481   3.343
 8739SOL    HW127116   5.475   4.493   3.441
 8739SOL    HW227117   5.470   4.385   3.319
 8740SOL     OW27118   3.053   1.818   3.269
 8740SOL    HW127119   2.983   1.855   3.209
 8740SOL    HW227120   3.053   1.870   3.355
 8741SOL     OW27121   0.989   1.489   2.385
 8741SOL    HW127122   0.999   1.464   2.289
 8741SOL    HW227123   0.995   1.588   2.395
 8742SOL     OW27124   2.479   2.524   1.643
 8742SOL    HW127125   2.525   2.517   1.731
 8742SOL    HW227126   2.498   2.442   1.589
 8743SOL     OW27127   0.835   3.281   0.397
 8743SOL    HW127128   0.764   3.239   0.454
 8743SOL    HW227129   0.900   3.329   0.456
 8744SOL     OW27130   3.615   3.907   5.952
 8744SOL    HW127131   3.606   3.869   6.045
 8744SOL    HW227132   3.569   3.995   5.948
 8745SOL     OW27133   5.907   2.035   6.551
 8745SOL    HW127134   5.883   2.103   6.620
 8745SOL    HW227135   5.824   2.000   6.508
 8746SOL     OW27136   3.966   4.963   5.084
 8746SOL    HW127137   4.052   4.913   5.092
 8746SOL    HW227138   3.903   4.931   5.154
 8747SOL     OW27139   0.931   0.612   2.440
 8747SOL    HW127140   0.904   0.563   2.357
 8747SOL    HW227141   0.853   0.661   2.477
 8748SOL     OW27142   5.608   1.894   4.327
 8748SOL    HW127143   5.606   1.903   4.227
 8748SOL    HW227144   5.670   1.820   4.352
 8749SOL     OW27145   2.670   1.227   4.103
 8749SOL    HW127146   2.613   1.155   4.141
 8749SOL    HW227147   2.707   1.284   4.177
 8750SOL     OW27148   4.419   3.468   1.698
 8750SOL    HW127149   4.355   3.543   1.685
 8750SOL    HW227150   4.408   3.401   1.626
 8751SOL     OW27151   2.489   6.903   0.237
 8751SOL    HW127152   2.389   6.899   0.243
 8751SOL    HW227153   2.517   6.883   0.144
 8752SOL     OW27154   6.879   3.237   6.083
 8752SOL    HW127155   6.808   3.168   6.068
 8752SOL    HW227156   6.938   3.210   6.158
 8753SOL     OW27157   1.943   1.691   0.874
 8753SOL    HW127158   1.986   1.604   0.897
 8753SOL    HW227159   1.887   1.679   0.791
 8754SOL     OW27160   0.999   6.037   6.357
 8754SOL    HW127161   0.997   6.102   6.280
 8754SOL    HW227162   0.918   6.050   6.414
 8755SOL     OW27163   0.198   2.713   1.716
 8755SOL    HW127164   0.289   2.745   1.692
 8755SOL    HW227165   0.193   2.614   1.703
 8756SOL     OW27166   1.576   1.486   2.165
 8756SOL    HW127167   1.654   1.547   2.152
 8756SOL    HW227168   1.545   1.451   2.077
 8757SOL     OW27169   5.458   6.308   5.418
 8757SOL    HW127170   5.526   6.260   5.474
 8757SOL    HW227171   5.398   6.361   5.478
 8758SOL     OW27172   3.980   5.930   6.039
 8758SOL    HW127173   3.960   5.896   5.948
 8758SOL    HW227174   4.044   6.007   6.033
 8759SOL     OW27175   5.961   1.234   2.066
 8759SOL    HW127176   5.965   1.322   2.114
 8759SOL    HW227177   5.942   1.250   1.969
 8760SOL     OW27178   2.364   2.339   4.416
 8760SOL    HW127179   2.361   2.274   4.340
 8760SOL    HW227180   2.273   2.375   4.433
 8761SOL     OW27181   4.788   2.416   2.925
 8761SOL    HW127182   4.717   2.471   2.971
 8761SOL    HW227183   4.783   2.431   2.826
 8762SOL     OW27184   4.081   6.206   2.878
 8762SOL    HW127185   4.040   6.287   2.836
 8762SOL    HW227186   4.056   6.124   2.827
 8763SOL     OW27187   0.148   1.507   5.374
 8763SOL    HW127188   0.128   1.554   5.460
 8763SOL    HW227189   0.236   1.538   5.338
 8764SOL     OW27190   3.577   5.092   6.195
 8764SOL    HW127191   3.596   5.040   6.278
 8764SOL    HW227192   3.599   5.036   6.115
 8765SOL     OW27193   4.351   6.684   3.699
 8765SOL    HW127194   4.299   6.624   3.760
 8765SOL    HW227195   4.365   6.639   3.611
 8766SOL     OW27196   5.374   0.026   4.972
 8766SOL    HW127197   5.346   6.994   4.896
 8766SOL    HW227198   5.365   0.123   4.947
 8767SOL     OW27199   1.391   1.377   3.977
 8767SOL    HW127200   1.334   1.318   4.035
 8767SOL    HW227201   1.427   1.323   3.901
 8768SOL     OW27202   6.749   1.354   0.729
 8768SOL    HW127203   6.784   1.293   0.800
 8768SOL    HW227204   6.652   1.372   0.745
 8769SOL     OW27205   6.085   0.016   6.178
 8769SOL    HW127206   6.042   6.967   6.126
 8769SOL    HW227207   6.034   0.100   6.163
 8770SOL     OW27208   5.149   2.179   0.353
 8770SOL    HW127209   5.070   2.239   0.338
 8770SOL    HW227210   5.181   2.142   0.266
 8771SOL     OW27211   0.803   2.655   6.184
 8771SOL    HW127212   0.891   2.656   6.231
 8771SOL    HW227213   0.755   2.569   6.205
 8772SOL     OW27214   0.144   0.035   3.588
 8772SOL    HW127215   0.223   0.043   3.649
 8772SOL    HW227216   0.165   6.995   3.515
 8773SOL     OW27217   0.289   1.648   3.613
 8773SOL    HW127218   0.298   1.550   3.600
 8773SOL    HW227219   0.192   1.671   3.628
 8774SOL     OW27220   1.310   1.932   6.920
 8774SOL    HW127221   1.234   1.986   6.883
 8774SOL    HW227222   1.285   1.897   7.010
 8775SOL     OW27223   5.409   2.324   2.988
 8775SOL    HW127224   5.359   2.349   3.070
 8775SOL    HW227225   5.417   2.224   2.982
 8776SOL     OW27226   4.815   2.715   1.636
 8776SOL    HW127227   4.781   2.639   1.579
 8776SOL    HW227228   4.909   2.695   1.665
 8777SOL     OW27229   6.634   2.449   3.334
 8777SOL    HW127230   6.666   2.539   3.307
 8777SOL    HW227231   6.537   2.440   3.310
 8778SOL     OW27232   2.883   3.922   0.131
 8778SOL    HW127233   2.905   3.885   0.041
 8778SOL    HW227234   2.790   3.895   0.157
 8779SOL     OW27235   4.247   5.538   2.766
 8779SOL    HW127236   4.167   5.486   2.734
 8779SOL    HW227237   4.298   5.482   2.832
 8780SOL     OW27238   0.727   4.216   4.046
 8780SOL    HW127239   0.818   4.252   4.022
 8780SOL    HW227240   0.704   4.142   3.983
 8781SOL     OW27241   2.699   0.799   1.615
 8781SOL    HW127242   2.785   0.827   1.574
 8781SOL    HW227243   2.698   0.699   1.626
 8782SOL     OW27244   6.208   2.476   0.885
 8782SOL    HW127245   6.171   2.567   0.906
 8782SOL    HW227246   6.137   2.420   0.842
 8783SOL     OW27247   4.244   4.016   5.361
 8783SOL    HW127248   4.218   3.999   5.456
 8783SOL    HW227249   4.216   4.108   5.335
 8784SOL     OW27250   4.475   0.963   6.879
 8784SOL    HW127251   4.392   0.947   6.826
 8784SOL    HW227252   4.531   0.880   6.880
 8785SOL     OW27253   6.817   5.509   5.609
 8785SOL    HW127254   6.836   5.537   5.515
 8785SOL    HW227255   6.846   5.414   5.621
 8786SOL     OW27256   5.859   1.844   3.349
 8786SOL    HW127257   5.871   1.759   3.298
 8786SOL    HW227258   5.937   1.858   3.410
 8787SOL     OW27259   3.518   5.459   1.838
 8787SOL    HW127260   3.527   5.446   1.739
 8787SOL    HW227261   3.497   5.555   1.857
 8788SOL     OW27262   0.412   6.322   4.277
 8788SOL    HW127263   0.365   6.329   4.365
 8788SOL    HW227264   0.372   6.387   4.213
 8789SOL     OW27265   1.401   2.508   6.394
 8789SOL    HW127266   1.363   2.587   6.346
 8789SOL    HW227267   1.486   2.535   6.439
 8790SOL     OW27268   4.516   2.380   5.026
 8790SOL    HW127269   4.470   2.365   4.938
 8790SOL    HW227270   4.610   2.346   5.021
 8791SOL     OW27271   4.070   6.014   5.005
 8791SOL    HW127272   4.025   5.951   4.941
 8791SOL    HW227273   4.010   6.091   5.024
 8792SOL     OW27274   5.632   5.230   1.693
 8792SOL    HW127275   5.614   5.172   1.772
 8792SOL    HW227276   5.586   5.192   1.613
 8793SOL     OW27277   6.371   6.153   5.417
 8793SOL    HW127278   6.439   6.219   5.388
 8793SOL    HW227279   6.284   6.199   5.433
 8794SOL     OW27280   0.186   1.704   3.072
 8794SOL    HW127281   0.172   1.664   2.981
 8794SOL    HW227282   0.282   1.694   3.098
 8795SOL     OW27283   0.946   6.399   6.516
 8795SOL    HW127284   0.905   6.490   6.517
 8795SOL    HW227285   1.007   6.390   6.438
 8796SOL     OW27286   5.623   4.060   4.894
 8796SOL    HW127287   5.582   4.128   4.833
 8796SOL    HW227288   5.651   3.980   4.842
 8797SOL     OW27289   5.290   6.148   4.396
 8797SOL    HW127290   5.278   6.176   4.491
 8797SOL    HW227291   5.232   6.205   4.337
 8798SOL     OW27292   2.058   6.331   5.586
 8798SOL    HW127293   1.961   6.353   5.590
 8798SOL    HW227294   2.074   6.243   5.629
 8799SOL     OW27295   1.334   5.960   1.851
 8799SOL    HW127296   1.369   5.867   1.867
 8799SOL    HW227297   1.361   5.991   1.760
 8800SOL     OW27298   6.393   6.010   3.934
 8800SOL    HW127299   6.432   6.042   3.847
 8800SOL    HW227300   6.393   6.084   4.000
 8801SOL     OW27301   5.161   3.492   5.767
 8801SOL    HW127302   5.139   3.568   5.828
 8801SOL    HW227303   5.224   3.429   5.813
 8802SOL     OW27304   1.476   6.240   6.594
 8802SOL    HW127305   1.527   6.277   6.516
 8802SOL    HW227306   1.540   6.210   6.665
 8803SOL     OW27307   5.712   5.820   5.177
 8803SOL    HW127308   5.748   5.730   5.204
 8803SOL    HW227309   5.635   5.808   5.116
 8804SOL     OW27310   1.003   6.176   2.264
 8804SOL    HW127311   0.946   6.175   2.182
 8804SOL    HW227312   1.083   6.118   2.250
 8805SOL     OW27313   5.327   4.698   3.233
 8805SOL    HW127314   5.406   4.668   3.286
 8805SOL    HW227315   5.243   4.671   3.281
 8806SOL     OW27316   1.019   0.658   2.115
 8806SOL    HW127317   0.986   0.740   2.160
 8806SOL    HW227318   1.119   0.662   2.107
 8807SOL     OW27319   5.488   2.514   1.226
 8807SOL    HW127320   5.439   2.585   1.176
 8807SOL    HW227321   5.460   2.517   1.323
 8808SOL     OW27322   2.064   1.789   0.253
 8808SOL    HW127323   2.004   1.862   0.286
 8808SOL    HW227324   2.008   1.711   0.225
 8809SOL     OW27325   0.317   3.433   3.145
 8809SOL    HW127326   0.296   3.531   3.142
 8809SOL    HW227327   0.273   3.392   3.225
 8810SOL     OW27328   0.175   2.142   5.067
 8810SOL    HW127329   0.187   2.160   5.165
 8810SOL    HW227330   0.152   2.046   5.053
 8811SOL     OW27331   4.330   4.548   2.488
 8811SOL    HW127332   4.388   4.467   2.493
 8811SOL    HW227333   4.315   4.572   2.392
 8812SOL     OW27334   5.404   0.889   0.424
 8812SOL    HW127335   5.399   0.938   0.337
 8812SOL    HW227336   5.469   0.814   0.418
 8813SOL     OW27337   2.145   2.993   2.350
 8813SOL    HW127338   2.177   2.959   2.438
 8813SOL    HW227339   2.161   3.092   2.344
 8814SOL     OW27340   5.986   6.543   4.911
 8814SOL    HW127341   5.954   6.471   4.974
 8814SOL    HW227342   6.048   6.604   4.960
 8815SOL     OW27343   5.011   1.070   1.413
 8815SOL    HW127344   5.044   0.978   1.391
 8815SOL    HW227345   4.947   1.065   1.490
 8816SOL     OW27346   0.309   7.023   3.848
 8816SOL    HW127347   0.234   0.062   3.864
 8816SOL    HW227348   0.394   0.037   3.884
 8817SOL     OW27349   1.252   2.768   3.222
 8817SOL    HW127350   1.278   2.820   3.303
 8817SOL    HW227351   1.153   2.755   3.221
 8818SOL     OW27352   0.750   6.230   6.028
 8818SOL    HW127353   0.692   6.214   5.948
 8818SOL    HW227354   0.695   6.223   6.111
 8819SOL     OW27355   4.884   6.077   6.213
 8819SOL    HW127356   4.949   6.094   6.286
 8819SOL    HW227357   4.798   6.124   6.232
 8820SOL     OW27358   4.155   6.641   5.367
 8820SOL    HW127359   4.093   6.717   5.389
 8820SOL    HW227360   4.228   6.636   5.435
 8821SOL     OW27361   0.769   4.791   6.160
 8821SOL    HW127362   0.761   4.764   6.064
 8821SOL    HW227363   0.678   4.793   6.202
 8822SOL     OW27364   6.108   0.332   4.907
 8822SOL    HW127365   6.014   0.310   4.932
 8822SOL    HW227366   6.145   0.258   4.849
 8823SOL     OW27367   4.109   1.598   2.675
 8823SOL    HW127368   4.197   1.639   2.650
 8823SOL    HW227369   4.101   1.594   2.774
 8824SOL     OW27370   1.959   0.440   3.785
 8824SOL    HW127371   2.042   0.492   3.803
 8824SOL    HW227372   1.896   0.494   3.730
 8825SOL     OW27373   0.327   6.740   0.052
 8825SOL    HW127374   0.419   6.745   0.091
 8825SOL    HW227375   0.305   6.644   0.031
 8826SOL     OW27376   0.702   4.323   0.258
 8826SOL    HW127377   0.769   4.338   0.331
 8826SOL    HW227378   0.704   4.226   0.231
 8827SOL     OW27379   4.662   6.787   3.027
 8827SOL    HW127380   4.734   6.846   3.063
 8827SOL    HW227381   4.576   6.808   3.073
 8828SOL     OW27382   5.105   1.996   6.378
 8828SOL    HW127383   5.025   2.056   6.387
 8828SOL    HW227384   5.181   2.047   6.338
 8829SOL     OW27385   6.973   1.312   2.917
 8829SOL    HW127386   7.019   1.223   2.914
 8829SOL    HW227387   6.881   1.303   2.879
 8830SOL     OW27388   3.247   0.674   3.245
 8830SOL    HW127389   3.170   0.669   3.309
 8830SOL    HW227390   3.225   0.739   3.173
 8831SOL     OW27391   0.104   3.200   2.473
 8831SOL    HW127392   0.170   3.157   2.535
 8831SOL    HW227393   0.143   3.205   2.381
 8832SOL     OW27394   5.232   0.698   5.656
 8832SOL    HW127395   5.206   0.791   5.630
 8832SOL    HW227396   5.295   0.701   5.733
 8833SOL     OW27397   5.055   2.960   0.656
 8833SOL    HW127398   5.000   2.889   0.612
 8833SOL    HW227399   5.076   3.032   0.590
 8834SOL     OW27400   5.557   4.952   6.541
 8834SOL    HW127401   5.540   5.050   6.538
 8834SOL    HW227402   5.655   4.935   6.536
 8835SOL     OW27403   6.912   0.889   5.168
 8835SOL    HW127404   6.883   0.937   5.085
 8835SOL    HW227405   6.925   0.792   5.147
 8836SOL     OW27406   4.112   1.213   1.030
 8836SOL    HW127407   4.061   1.270   0.966
 8836SOL    HW227408   4.077   1.227   1.122
 8837SOL     OW27409   4.709   5.746   0.559
 8837SOL    HW127410   4.684   5.810   0.632
 8837SOL    HW227411   4.804   5.718   0.571
 8838SOL     OW27412   2.125   3.373   3.364
 8838SOL    HW127413   2.216   3.385   3.403
 8838SOL    HW227414   2.112   3.438   3.289
 8839SOL     OW27415   4.821   4.733   1.380
 8839SOL    HW127416   4.863   4.685   1.458
 8839SOL    HW227417   4.857   4.826   1.375
 8840SOL     OW27418   6.832   1.142   0.947
 8840SOL    HW127419   6.760   1.084   0.909
 8840SOL    HW227420   6.810   1.163   1.042
 8841SOL     OW27421   3.518   1.068   0.752
 8841SOL    HW127422   3.532   1.101   0.845
 8841SOL    HW227423   3.534   0.969   0.749
 8842SOL     OW27424   3.428   2.967   4.144
 8842SOL    HW127425   3.448   3.065   4.154
 8842SOL    HW227426   3.343   2.946   4.194
 8843SOL     OW27427   2.675   5.437   5.316
 8843SOL    HW127428   2.581   5.470   5.321
 8843SOL    HW227429   2.726   5.470   5.395
 8844SOL     OW27430   3.428   2.811   6.137
 8844SOL    HW127431   3.502   2.844   6.196
 8844SOL    HW227432   3.467   2.783   6.048
 8845SOL     OW27433   0.802   3.701   2.189
 8845SOL    HW127434   0.821   3.604   2.180
 8845SOL    HW227435   0.712   3.714   2.231
 8846SOL     OW27436   5.719   4.934   4.556
 8846SOL    HW127437   5.815   4.959   4.542
 8846SOL    HW227438   5.705   4.906   4.651
 8847SOL     OW27439   0.744   2.199   3.904
 8847SOL    HW127440   0.769   2.265   3.975
 8847SOL    HW227441   0.728   2.247   3.818
 8848SOL     OW27442   6.504   1.577   0.701
 8848SOL    HW127443   6.470   1.488   0.670
 8848SOL    HW227444   6.427   1.642   0.707
 8849SOL     OW27445   3.368   5.628   4.103
 8849SOL    HW127446   3.321   5.602   4.018
 8849SOL    HW227447   3.447   5.685   4.080
 8850SOL     OW27448   2.483   1.446   1.456
 8850SOL    HW127449   2.549   1.372   1.469
 8850SOL    HW227450   2.514   1.506   1.382
 8851SOL     OW27451   0.115   5.204   2.571
 8851SOL    HW127452   0.092   5.155   2.487
 8851SOL    HW227453   0.212   5.190   2.593
 8852SOL     OW27454   5.176   3.286   4.744
 8852SOL    HW127455   5.184   3.292   4.843
 8852SOL    HW227456   5.079   3.281   4.718
 8853SOL     OW27457   4.728   2.154   5.484
 8853SOL    HW127458   4.632   2.131   5.468
 8853SOL    HW227459   4.766   2.095   5.556
 8854SOL     OW27460   2.075   0.968   5.951
 8854SOL    HW127461   2.084   1.065   5.928
 8854SOL    HW227462   2.152   0.940   6.009
 8855SOL     OW27463   6.299   5.071   6.373
 8855SOL    HW127464   6.379   5.103   6.423
 8855SOL    HW227465   6.223   5.059   6.437
 8856SOL     OW27466   5.355   0.825   5.284
 8856SOL    HW127467   5.313   0.774   5.208
 8856SOL    HW227468   5.333   0.779   5.370
 8857SOL     OW27469   1.404   3.318   4.804
 8857SOL    HW127470   1.481   3.366   4.761
 8857SOL    HW227471   1.438   3.243   4.859
 8858SOL     OW27472   6.886   3.909   6.060
 8858SOL    HW127473   6.852   3.827   6.015
 8858SOL    HW227474   6.895   3.983   5.992
 8859SOL     OW27475   2.886   5.925   5.370
 8859SOL    HW127476   2.928   5.979   5.298
 8859SOL    HW227477   2.929   5.835   5.374
 8860SOL     OW27478   1.733   2.063   0.731
 8860SOL    HW127479   1.722   2.159   0.756
 8860SOL    HW227480   1.644   2.019   0.724
 8861SOL     OW27481   2.418   2.605   1.396
 8861SOL    HW127482   2.434   2.575   1.490
 8861SOL    HW227483   2.420   2.705   1.391
 8862SOL     OW27484   6.323   2.525   5.426
 8862SOL    HW127485   6.245   2.464   5.411
 8862SOL    HW227486   6.395   2.504   5.360
 8863SOL     OW27487   1.120   5.425   5.263
 8863SOL    HW127488   1.215   5.421   5.294
 8863SOL    HW227489   1.068   5.486   5.323
 8864SOL     OW27490   1.388   4.237   6.154
 8864SOL    HW127491   1.433   4.150   6.133
 8864SOL    HW227492   1.396   4.298   6.076
 8865SOL     OW27493   2.757   2.121   5.801
 8865SOL    HW127494   2.831   2.056   5.781
 8865SOL    HW227495   2.794   2.213   5.808
 8866SOL     OW27496   5.267   6.417   5.053
 8866SOL    HW127497   5.354   6.377   5.025
 8866SOL    HW227498   5.256   6.507   5.010
 8867SOL     OW27499   6.485   1.376   3.983
 8867SOL    HW127500   6.403   1.332   3.947
 8867SOL    HW227501   6.475   1.475   3.979
 8868SOL     OW27502   5.025   3.539   0.954
 8868SOL    HW127503   5.074   3.455   0.929
 8868SOL    HW227504   5.074   3.585   1.027
 8869SOL     OW27505   3.479   2.076   3.510
 8869SOL    HW127506   3.530   2.082   3.425
 8869SOL    HW227507   3.539   2.101   3.587
 8870SOL     OW27508   4.743   1.266   2.430
 8870SOL    HW127509   4.658   1.318   2.422
 8870SOL    HW227510   4.805   1.292   2.357
 8871SOL     OW27511   1.523   2.356   3.689
 8871SOL    HW127512   1.431   2.392   3.704
 8871SOL    HW227513   1.560   2.321   3.775
 8872SOL     OW27514   1.566   2.400   1.873
 8872SOL    HW127515   1.501   2.381   1.799
 8872SOL    HW227516   1.533   2.477   1.927
 8873SOL     OW27517   6.752   5.869   4.911
 8873SOL    HW127518   6.756   5.818   4.825
 8873SOL    HW227519   6.840   5.866   4.956
 8874SOL     OW27520   0.871   1.542   6.473
 8874SOL    HW127521   0.799   1.602   6.509
 8874SOL    HW227522   0.952   1.550   6.531
 8875SOL     OW27523   1.345   1.111   4.586
 8875SOL    HW127524   1.267   1.049   4.594
 8875SOL    HW227525   1.383   1.129   4.677
 8876SOL     OW27526   2.636   0.521   4.646
 8876SOL    HW127527   2.578   0.596   4.676
 8876SOL    HW227528   2.579   0.443   4.621
 8877SOL     OW27529   3.076   6.509   4.486
 8877SOL    HW127530   3.011   6.572   4.444
 8877SOL    HW227531   3.124   6.458   4.415
 8878SOL     OW27532   5.450   4.884   5.495
 8878SOL    HW127533   5.357   4.879   5.458
 8878SOL    HW227534   5.447   4.877   5.594
 8879SOL     OW27535   4.988   5.593   4.751
 8879SOL    HW127536   4.990   5.645   4.666
 8879SOL    HW227537   5.078   5.595   4.795
 8880SOL     OW27538   0.172   5.958   5.195
 8880SOL    HW127539   0.130   5.872   5.226
 8880SOL    HW227540   0.178   6.021   5.272
 8881SOL     OW27541   6.572   1.147   1.764
 8881SOL    HW127542   6.610   1.057   1.785
 8881SOL    HW227543   6.576   1.205   1.845
 8882SOL     OW27544   5.490   2.732   0.020
 8882SOL    HW127545   5.462   2.665   0.089
 8882SOL    HW227546   5.589   2.742   0.021
 8883SOL     OW27547   6.867   1.597   5.462
 8883SOL    HW127548   6.806   1.523   5.436
 8883SOL    HW227549   6.883   1.593   5.561
 8884SOL     OW27550   6.462   1.385   5.690
 8884SOL    HW127551   6.489   1.445   5.766
 8884SOL    HW227552   6.543   1.363   5.635
 8885SOL     OW27553   5.569   3.711   1.960
 8885SOL    HW127554   5.648   3.667   1.918
 8885SOL    HW227555   5.486   3.663   1.932
 8886SOL     OW27556   3.247   5.634   6.069
 8886SOL    HW127557   3.165   5.672   6.026
 8886SOL    HW227558   3.302   5.708   6.107
 8887SOL     OW27559   1.761   0.430   1.196
 8887SOL    HW127560   1.842   0.371   1.196
 8887SOL    HW227561   1.682   0.381   1.161
 8888SOL     OW27562   3.107   2.155   2.851
 8888SOL    HW127563   3.206   2.147   2.847
 8888SOL    HW227564   3.079   2.179   2.945
 8889SOL     OW27565   3.334   0.211   4.574
 8889SOL    HW127566   3.265   0.146   4.542
 8889SOL    HW227567   3.425   0.174   4.555
 8890SOL     OW27568   0.327   4.105   3.308
 8890SOL    HW127569   0.405   4.138   3.254
 8890SOL    HW227570   0.331   4.146   3.399
 8891SOL     OW27571   2.562   1.832   5.936
 8891SOL    HW127572   2.530   1.783   5.855
 8891SOL    HW227573   2.630   1.776   5.983
 8892SOL     OW27574   1.051   6.740   2.528
 8892SOL    HW127575   1.144   6.774   2.537
 8892SOL    HW227576   1.036   6.665   2.592
 8893SOL     OW27577   0.511   0.779   0.128
 8893SOL    HW127578   0.465   0.799   0.041
 8893SOL    HW227579   0.442   0.765   0.199
 8894SOL     OW27580   4.222   3.004   6.360
 8894SOL    HW127581   4.234   2.918   6.408
 8894SOL    HW227582   4.295   3.067   6.386
 8895SOL     OW27583   1.632   0.782   2.683
 8895SOL    HW127584   1.539   0.818   2.683
 8895SOL    HW227585   1.680   0.812   2.766
 8896SOL     OW27586   2.164   4.485   4.960
 8896SOL    HW127587   2.227   4.431   5.016
 8896SOL    HW227588   2.147   4.436   4.874
 8897SOL     OW27589   1.301   2.304   1.010
 8897SOL    HW127590   1.297   2.402   1.027
 8897SOL    HW227591   1.221   2.275   0.958
 8898SOL     OW27592   6.567   2.785   5.268
 8898SOL    HW127593   6.595   2.781   5.172
 8898SOL    HW227594   6.622   2.853   5.316
 8899SOL     OW27595   3.282   5.235   1.245
 8899SOL    HW127596   3.230   5.150   1.255
 8899SOL    HW227597   3.371   5.216   1.205
 8900SOL     OW27598   0.379   1.388   3.505
 8900SOL    HW127599   0.443   1.412   3.578
 8900SOL    HW227600   0.338   1.299   3.524
 8901SOL     OW27601   1.733   6.339   2.182
 8901SOL    HW127602   1.685   6.408   2.128
 8901SOL    HW227603   1.831   6.343   2.162
 8902SOL     OW27604   3.005   5.942   4.927
 8902SOL    HW127605   3.031   5.890   4.846
 8902SOL    HW227606   2.933   5.893   4.976
 8903SOL     OW27607   0.602   0.640   3.294
 8903SOL    HW127608   0.696   0.612   3.273
 8903SOL    HW227609   0.588   0.735   3.266
 8904SOL     OW27610   1.393   4.995   3.314
 8904SOL    HW127611   1.432   4.904   3.299
 8904SOL    HW227612   1.433   5.035   3.397
 8905SOL     OW27613   2.314   4.321   5.100
 8905SOL    HW127614   2.232   4.326   5.158
 8905SOL    HW227615   2.320   4.230   5.058
 8906SOL     OW27616   1.702   5.176   4.220
 8906SOL    HW127617   1.606   5.161   4.241
 8906SOL    HW227618   1.759   5.140   4.294
 8907SOL     OW27619   3.966   2.763   6.280
 8907SOL    HW127620   3.969   2.827   6.356
 8907SOL    HW227621   4.059   2.735   6.257
 8908SOL     OW27622   0.227   2.391   2.342
 8908SOL    HW127623   0.209   2.478   2.295
 8908SOL    HW227624   0.301   2.403   2.407
 8909SOL     OW27625   2.671   0.067   5.391
 8909SOL    HW127626   2.683   7.007   5.442
 8909SOL    HW227627   2.704   0.055   5.297
 8910SOL     OW27628   4.137   2.911   6.978
 8910SOL    HW127629   4.058   2.855   6.953
 8910SOL    HW227630   4.218   2.878   6.928
 8911SOL     OW27631   4.601   2.244   3.649
 8911SOL    HW127632   4.566   2.176   3.714
 8911SOL    HW227633   4.557   2.332   3.668
 8912SOL     OW27634   5.416   1.851   6.800
 8912SOL    HW127635   5.410   1.757   6.834
 8912SOL    HW227636   5.340   1.868   6.737
 8913SOL     OW27637   4.429   4.009   0.739
 8913SOL    HW127638   4.501   3.963   0.791
 8913SOL    HW227639   4.341   3.965   0.759
 8914SOL     OW27640   5.042   2.160   3.627
 8914SOL    HW127641   5.114   2.105   3.585
 8914SOL    HW227642   5.020   2.123   3.718
 8915SOL     OW27643   1.232   5.694   2.281
 8915SOL    HW127644   1.283   5.690   2.367
 8915SOL    HW227645   1.149   5.637   2.289
 8916SOL     OW27646   6.199   3.349   2.340
 8916SOL    HW127647   6.127   3.348   2.270
 8916SOL    HW227648   6.196   3.265   2.393
 8917SOL     OW27649   5.410   5.707   5.149
 8917SOL    HW127650   5.365   5.788   5.113
 8917SOL    HW227651   5.347   5.657   5.208
 8918SOL     OW27652   4.670   4.096   6.120
 8918SOL    HW127653   4.656   4.116   6.023
 8918SOL    HW227654   4.602   4.030   6.151
 8919SOL     OW27655   2.403   3.359   1.419
 8919SOL    HW127656   2.335   3.295   1.382
 8919SOL    HW227657   2.397   3.446   1.370
 8920SOL     OW27658   6.781   5.194   5.585
 8920SOL    HW127659   6.798   5.099   5.609
 8920SOL    HW227660   6.712   5.198   5.512
 8921SOL     OW27661   1.314   5.543   3.792
 8921SOL    HW127662   1.255   5.620   3.816
 8921SOL    HW227663   1.294   5.465   3.852
 8922SOL     OW27664   6.574   4.194   6.819
 8922SOL    HW127665   6.552   4.263   6.888
 8922SOL    HW227666   6.656   4.144   6.847
 8923SOL     OW27667   2.087   4.225   4.334
 8923SOL    HW127668   2.131   4.281   4.404
 8923SOL    HW227669   2.157   4.176   4.282
 8924SOL     OW27670   2.382   5.436   5.261
 8924SOL    HW127671   2.291   5.453   5.300
 8924SOL    HW227672   2.389   5.340   5.234
 8925SOL     OW27673   4.627   6.071   1.095
 8925SOL    HW127674   4.533   6.039   1.082
 8925SOL    HW227675   4.689   5.993   1.098
 8926SOL     OW27676   5.355   1.044   6.819
 8926SOL    HW127677   5.258   1.020   6.826
 8926SOL    HW227678   5.404   0.970   6.774
 8927SOL     OW27679   2.697   1.618   4.390
 8927SOL    HW127680   2.740   1.651   4.306
 8927SOL    HW227681   2.605   1.656   4.397
 8928SOL     OW27682   0.575   0.184   4.443
 8928SOL    HW127683   0.546   0.258   4.384
 8928SOL    HW227684   0.599   0.220   4.533
 8929SOL     OW27685   5.153   4.291   3.907
 8929SOL    HW127686   5.206   4.365   3.866
 8929SOL    HW227687   5.069   4.328   3.947
 8930SOL     OW27688   0.776   5.066   5.392
 8930SOL    HW127689   0.860   5.098   5.348
 8930SOL    HW227690   0.798   4.993   5.457
 8931SOL     OW27691   4.789   1.045   1.902
 8931SOL    HW127692   4.875   1.092   1.920
 8931SOL    HW227693   4.773   0.978   1.975
 8932SOL     OW27694   6.022   0.696   0.012
 8932SOL    HW127695   5.984   0.786   0.031
 8932SOL    HW227696   5.979   0.628   0.072
 8933SOL     OW27697   0.979   0.555   5.554
 8933SOL    HW127698   1.072   0.527   5.528
 8933SOL    HW227699   0.949   0.500   5.632
 8934SOL     OW27700   4.459   6.715   3.206
 8934SOL    HW127701   4.466   6.768   3.290
 8934SOL    HW227702   4.520   6.636   3.211
 8935SOL     OW27703   5.512   1.616   2.371
 8935SOL    HW127704   5.500   1.614   2.470
 8935SOL    HW227705   5.606   1.590   2.348
 8936SOL     OW27706   1.673   4.045   2.712
 8936SOL    HW127707   1.645   4.055   2.807
 8936SOL    HW227708   1.729   4.123   2.685
 8937SOL     OW27709   4.536   0.246   4.970
 8937SOL    HW127710   4.444   0.242   4.933
 8937SOL    HW227711   4.557   0.159   5.015
 8938SOL     OW27712   5.829   6.656   1.363
 8938SOL    HW127713   5.788   6.566   1.381
 8938SOL    HW227714   5.759   6.719   1.330
 8939SOL     OW27715   0.384   3.092   4.338
 8939SOL    HW127716   0.370   3.191   4.342
 8939SOL    HW227717   0.295   3.046   4.334
 8940SOL     OW27718   6.601   3.401   1.649
 8940SOL    HW127719   6.611   3.302   1.653
 8940SOL    HW227720   6.610   3.439   1.741
 8941SOL     OW27721   5.693   2.141   2.982
 8941SOL    HW127722   5.608   2.092   2.962
 8941SOL    HW227723   5.725   2.187   2.899
 8942SOL     OW27724   4.960   4.192   3.694
 8942SOL    HW127725   4.911   4.267   3.650
 8942SOL    HW227726   4.975   4.213   3.790
 8943SOL     OW27727   4.600   2.672   0.580
 8943SOL    HW127728   4.542   2.610   0.527
 8943SOL    HW227729   4.692   2.674   0.542
 8944SOL     OW27730   4.230   5.812   5.556
 8944SOL    HW127731   4.200   5.717   5.557
 8944SOL    HW227732   4.151   5.871   5.539
 8945SOL     OW27733   6.295   4.272   2.254
 8945SOL    HW127734   6.286   4.187   2.306
 8945SOL    HW227735   6.322   4.346   2.317
 8946SOL     OW27736   4.280   1.799   4.626
 8946SOL    HW127737   4.201   1.760   4.674
 8946SOL    HW227738   4.358   1.737   4.635
 8947SOL     OW27739   2.154   4.312   1.024
 8947SOL    HW127740   2.238   4.341   0.978
 8947SOL    HW227741   2.076   4.362   0.986
 8948SOL     OW27742   5.597   0.554   2.943
 8948SOL    HW127743   5.529   0.561   3.015
 8948SOL    HW227744   5.659   0.477   2.962
 8949SOL     OW27745   3.308   6.100   0.567
 8949SOL    HW127746   3.371   6.177   0.579
 8949SOL    HW227747   3.354   6.015   0.591
 8950SOL     OW27748   3.287   3.644   2.621
 8950SOL    HW127749   3.351   3.693   2.561
 8950SOL    HW227750   3.281   3.549   2.592
 8951SOL     OW27751   0.575   0.706   4.454
 8951SOL    HW127752   0.637   0.628   4.447
 8951SOL    HW227753   0.481   0.674   4.451
 8952SOL     OW27754   1.929   4.575   4.425
 8952SOL    HW127755   1.978   4.520   4.358
 8952SOL    HW227756   1.914   4.667   4.388
 8953SOL     OW27757   0.903   4.997   1.313
 8953SOL    HW127758   0.956   5.079   1.335
 8953SOL    HW227759   0.856   4.965   1.395
 8954SOL     OW27760   2.054   4.166   5.532
 8954SOL    HW127761   2.098   4.233   5.591
 8954SOL    HW227762   1.962   4.146   5.566
 8955SOL     OW27763   5.592   3.099   5.602
 8955SOL    HW127764   5.564   3.191   5.574
 8955SOL    HW227765   5.525   3.032   5.569
 8956SOL     OW27766   0.884   5.958   1.029
 8956SOL    HW127767   0.911   5.988   1.120
 8956SOL    HW227768   0.818   5.883   1.036
 8957SOL     OW27769   1.310   6.822   2.585
 8957SOL    HW127770   1.313   6.785   2.492
 8957SOL    HW227771   1.360   6.908   2.588
 8958SOL     OW27772   0.204   4.112   4.469
 8958SOL    HW127773   0.226   4.204   4.436
 8958SOL    HW227774   0.216   4.108   4.568
 8959SOL     OW27775   5.629   2.182   4.152
 8959SOL    HW127776   5.698   2.128   4.201
 8959SOL    HW227777   5.673   2.262   4.111
 8960SOL     OW27778   5.365   5.034   2.878
 8960SOL    HW127779   5.432   5.096   2.919
 8960SOL    HW227780   5.398   4.940   2.888
 8961SOL     OW27781   2.876   1.603   4.939
 8961SOL    HW127782   2.852   1.627   5.034
 8961SOL    HW227783   2.814   1.531   4.907
 8962SOL     OW27784   6.444   5.839   2.262
 8962SOL    HW127785   6.472   5.906   2.194
 8962SOL    HW227786   6.350   5.809   2.243
 8963SOL     OW27787   2.804   6.414   5.909
 8963SOL    HW127788   2.725   6.391   5.852
 8963SOL    HW227789   2.883   6.432   5.849
 8964SOL     OW27790   1.790   3.162   3.589
 8964SOL    HW127791   1.880   3.185   3.625
 8964SOL    HW227792   1.744   3.099   3.651
 8965SOL     OW27793   4.283   5.655   0.696
 8965SOL    HW127794   4.365   5.627   0.646
 8965SOL    HW227795   4.229   5.718   0.639
 8966SOL     OW27796   5.443   6.661   5.494
 8966SOL    HW127797   5.371   6.599   5.523
 8966SOL    HW227798   5.407   6.724   5.425
 8967SOL     OW27799   2.734   0.318   3.100
 8967SOL    HW127800   2.726   0.226   3.060
 8967SOL    HW227801   2.643   0.353   3.122
 8968SOL     OW27802   3.671   4.863   2.602
 8968SOL    HW127803   3.682   4.877   2.701
 8968SOL    HW227804   3.574   4.859   2.580
 8969SOL     OW27805   6.568   1.488   2.946
 8969SOL    HW127806   6.575   1.388   2.942
 8969SOL    HW227807   6.495   1.518   2.885
 8970SOL     OW27808   1.844   1.209   3.328
 8970SOL    HW127809   1.900   1.156   3.392
 8970SOL    HW227810   1.831   1.301   3.363
 8971SOL     OW27811   2.838   4.003   0.887
 8971SOL    HW127812   2.894   3.992   0.969
 8971SOL    HW227813   2.817   3.913   0.849
 8972SOL     OW27814   5.407   4.127   6.550
 8972SOL    HW127815   5.398   4.222   6.580
 8972SOL    HW227816   5.327   4.101   6.496
 8973SOL     OW27817   2.667   2.015   2.768
 8973SOL    HW127818   2.660   2.053   2.675
 8973SOL    HW227819   2.761   1.983   2.783
 8974SOL     OW27820   1.820   4.155   4.353
 8974SOL    HW127821   1.802   4.168   4.450
 8974SOL    HW227822   1.917   4.173   4.335
 8975SOL     OW27823   6.893   4.350   5.990
 8975SOL    HW127824   6.892   4.450   5.985
 8975SOL    HW227825   6.835   4.313   5.918
 8976SOL     OW27826   5.872   0.265   1.822
 8976SOL    HW127827   5.972   0.273   1.829
 8976SOL    HW227828   5.834   0.241   1.911
 8977SOL     OW27829   6.820   4.590   6.433
 8977SOL    HW127830   6.726   4.611   6.458
 8977SOL    HW227831   6.846   4.502   6.473
 8978SOL     OW27832   6.045   5.596   5.737
 8978SOL    HW127833   6.114   5.559   5.799
 8978SOL    HW227834   5.954   5.577   5.774
 8979SOL     OW27835   1.954   5.194   3.785
 8979SOL    HW127836   1.876   5.147   3.745
 8979SOL    HW227837   1.926   5.237   3.871
 8980SOL     OW27838   3.731   0.929   0.439
 8980SOL    HW127839   3.737   1.009   0.497
 8980SOL    HW227840   3.777   0.852   0.483
 8981SOL     OW27841   3.913   2.149   6.805
 8981SOL    HW127842   3.840   2.095   6.847
 8981SOL    HW227843   3.891   2.246   6.811
 8982SOL     OW27844   0.081   1.371   2.031
 8982SOL    HW127845   0.047   1.277   2.036
 8982SOL    HW227846   0.118   1.398   2.120
 8983SOL     OW27847   1.588   6.705   2.184
 8983SOL    HW127848   1.683   6.679   2.200
 8983SOL    HW227849   1.575   6.730   2.088
 8984SOL     OW27850   0.021   1.750   4.584
 8984SOL    HW127851   0.036   1.849   4.578
 8984SOL    HW227852   0.054   1.716   4.672
 8985SOL     OW27853   4.648   1.009   2.572
 8985SOL    HW127854   4.658   1.098   2.527
 8985SOL    HW227855   4.736   0.981   2.609
 8986SOL     OW27856   0.071   6.076   0.207
 8986SOL    HW127857   0.021   6.001   0.250
 8986SOL    HW227858   0.020   6.161   0.219
 8987SOL     OW27859   2.329   6.594   1.874
 8987SOL    HW127860   2.326   6.582   1.973
 8987SOL    HW227861   2.407   6.652   1.850
 8988SOL     OW27862   2.571   6.950   0.924
 8988SOL    HW127863   2.526   6.994   1.002
 8988SOL    HW227864   2.503   6.927   0.855
 8989SOL     OW27865   5.953   1.512   2.469
 8989SOL    HW127866   5.984   1.426   2.428
 8989SOL    HW227867   5.858   1.528   2.445
 8990SOL     OW27868   3.468   1.253   3.043
 8990SOL    HW127869   3.411   1.334   3.055
 8990SOL    HW227870   3.470   1.228   2.946
 8991SOL     OW27871   1.111   2.514   0.915
 8991SOL    HW127872   1.060   2.486   0.834
 8991SOL    HW227873   1.078   2.603   0.946
 8992SOL     OW27874   6.516   4.605   6.204
 8992SOL    HW127875   6.442   4.541   6.181
 8992SOL    HW227876   6.542   4.592   6.299
 8993SOL     OW27877   5.443   4.123   4.165
 8993SOL    HW127878   5.530   4.097   4.208
 8993SOL    HW227879   5.443   4.095   4.069
 8994SOL     OW27880   1.338   6.504   2.813
 8994SOL    HW127881   1.422   6.500   2.866
 8994SOL    HW227882   1.269   6.556   2.863
 8995SOL     OW27883   2.193   3.945   4.016
 8995SOL    HW127884   2.142   3.865   4.046
 8995SOL    HW227885   2.238   3.987   4.094
 8996SOL     OW27886   2.104   3.606   1.356
 8996SOL    HW127887   2.054   3.691   1.372
 8996SOL    HW227888   2.168   3.591   1.431
 8997SOL     OW27889   4.436   0.490   5.108
 8997SOL    HW127890   4.472   0.405   5.069
 8997SOL    HW227891   4.512   0.550   5.134
 8998SOL     OW27892   1.109   1.496   6.112
 8998SOL    HW127893   1.139   1.447   6.031
 8998SOL    HW227894   1.123   1.594   6.099
 8999SOL     OW27895   5.261   2.722   5.635
 8999SOL    HW127896   5.191   2.789   5.612
 8999SOL    HW227897   5.219   2.633   5.651
 9000SOL     OW27898   3.443   5.018   0.956
 9000SOL    HW127899   3.484   5.087   1.015
 9000SOL    HW227900   3.425   4.935   1.010
 9001SOL     OW27901   1.762   4.534   3.365
 9001SOL    HW127902   1.801   4.583   3.287
 9001SOL    HW227903   1.828   4.533   3.440
 9002SOL     OW27904   5.330   4.155   5.627
 9002SOL    HW127905   5.287   4.066   5.639
 9002SOL    HW227906   5.399   4.168   5.697
 9003SOL     OW27907   6.201   3.293   0.039
 9003SOL    HW127908   6.213   3.392   0.039
 9003SOL    HW227909   6.290   3.248   0.042
 9004SOL     OW27910   4.486   5.361   1.194
 9004SOL    HW127911   4.485   5.318   1.285
 9004SOL    HW227912   4.419   5.435   1.191
 9005SOL     OW27913   5.316   3.072   3.749
 9005SOL    HW127914   5.224   3.062   3.786
 9005SOL    HW227915   5.350   2.983   3.721
 9006SOL     OW27916   1.758   6.915   0.814
 9006SOL    HW127917   1.803   6.825   0.810
 9006SOL    HW227918   1.822   6.983   0.847
 9007SOL     OW27919   2.083   5.948   5.109
 9007SOL    HW127920   2.100   5.892   5.028
 9007SOL    HW227921   1.987   5.976   5.111
 9008SOL     OW27922   0.459   4.665   2.660
 9008SOL    HW127923   0.360   4.672   2.654
 9008SOL    HW227924   0.501   4.746   2.620
 9009SOL     OW27925   3.927   6.060   6.947
 9009SOL    HW127926   3.859   6.054   7.020
 9009SOL    HW227927   4.008   6.109   6.980
 9010SOL     OW27928   6.843   5.461   4.667
 9010SOL    HW127929   6.924   5.472   4.724
 9010SOL    HW227930   6.823   5.547   4.620
 9011SOL     OW27931   4.489   2.492   2.330
 9011SOL    HW127932   4.563   2.536   2.280
 9011SOL    HW227933   4.418   2.462   2.266
 9012SOL     OW27934   5.688   4.925   2.309
 9012SOL    HW127935   5.636   4.887   2.385
 9012SOL    HW227936   5.783   4.896   2.315
 9013SOL     OW27937   4.619   6.287   2.571
 9013SOL    HW127938   4.586   6.311   2.663
 9013SOL    HW227939   4.704   6.335   2.552
 9014SOL     OW27940   2.104   0.312   1.427
 9014SOL    HW127941   2.166   0.318   1.505
 9014SOL    HW227942   2.040   0.389   1.429
 9015SOL     OW27943   6.223   1.941   4.745
 9015SOL    HW127944   6.322   1.956   4.747
 9015SOL    HW227945   6.192   1.938   4.650
 9016SOL     OW27946   6.795   5.597   6.330
 9016SOL    HW127947   6.870   5.542   6.366
 9016SOL    HW227948   6.807   5.611   6.232
 9017SOL     OW27949   6.963   3.790   2.953
 9017SOL    HW127950   7.012   3.804   2.867
 9017SOL    HW227951   6.983   3.865   3.015
 9018SOL     OW27952   4.251   1.979   6.287
 9018SOL    HW127953   4.295   1.925   6.215
 9018SOL    HW227954   4.211   1.918   6.355
 9019SOL     OW27955   1.606   5.234   0.244
 9019SOL    HW127956   1.700   5.266   0.231
 9019SOL    HW227957   1.605   5.159   0.309
 9020SOL     OW27958   1.026   4.988   3.812
 9020SOL    HW127959   1.080   4.908   3.786
 9020SOL    HW227960   0.931   4.973   3.787
 9021SOL     OW27961   5.483   5.345   5.465
 9021SOL    HW127962   5.484   5.406   5.544
 9021SOL    HW227963   5.573   5.343   5.423
 9022SOL     OW27964   3.109   6.687   6.866
 9022SOL    HW127965   3.129   6.615   6.800
 9022SOL    HW227966   3.065   6.646   6.947
 9023SOL     OW27967   3.087   3.121   4.018
 9023SOL    HW127968   3.107   3.055   4.091
 9023SOL    HW227969   3.134   3.093   3.935
 9024SOL     OW27970   1.259   0.130   6.587
 9024SOL    HW127971   1.221   0.220   6.564
 9024SOL    HW227972   1.313   0.096   6.510
 9025SOL     OW27973   0.263   3.746   0.019
 9025SOL    HW127974   0.280   3.678   6.973
 9025SOL    HW227975   0.320   3.726   0.099
 9026SOL     OW27976   2.787   3.341   5.519
 9026SOL    HW127977   2.729   3.340   5.437
 9026SOL    HW227978   2.750   3.278   5.587
 9027SOL     OW27979   2.305   2.583   2.285
 9027SOL    HW127980   2.351   2.554   2.369
 9027SOL    HW227981   2.336   2.527   2.208
 9028SOL     OW27982   2.666   4.766   4.389
 9028SOL    HW127983   2.746   4.826   4.380
 9028SOL    HW227984   2.599   4.808   4.450
 9029SOL     OW27985   5.839   5.170   2.218
 9029SOL    HW127986   5.802   5.077   2.222
 9029SOL    HW227987   5.773   5.234   2.259
 9030SOL     OW27988   3.861   2.109   2.169
 9030SOL    HW127989   3.795   2.159   2.112
 9030SOL    HW227990   3.940   2.168   2.188
 9031SOL     OW27991   2.018   1.435   1.167
 9031SOL    HW127992   2.064   1.376   1.234
 9031SOL    HW227993   2.082   1.459   1.094
 9032SOL     OW27994   0.603   2.965   1.947
 9032SOL    HW127995   0.557   3.044   1.986
 9032SOL    HW227996   0.696   2.991   1.921
 9033SOL     OW27997   1.382   3.910   2.214
 9033SOL    HW127998   1.471   3.896   2.257
 9033SOL    HW227999   1.329   3.975   2.269
 9034SOL     OW28000   2.078   6.728   6.754
 9034SOL    HW128001   2.154   6.791   6.762
 9034SOL    HW228002   2.045   6.726   6.660
 9035SOL     OW28003   6.820   0.645   4.403
 9035SOL    HW128004   6.859   0.736   4.388
 9035SOL    HW228005   6.843   0.614   4.496
 9036SOL     OW28006   1.028   1.574   3.937
 9036SOL    HW128007   1.105   1.595   3.877
 9036SOL    HW228008   0.945   1.615   3.900
 9037SOL     OW28009   2.860   3.921   5.982
 9037SOL    HW128010   2.785   3.872   5.938
 9037SOL    HW228011   2.873   3.886   6.075
 9038SOL     OW28012   4.468   5.582   5.278
 9038SOL    HW128013   4.374   5.549   5.281
 9038SOL    HW228014   4.468   5.680   5.257
 9039SOL     OW28015   2.369   4.387   6.893
 9039SOL    HW128016   2.318   4.340   6.821
 9039SOL    HW228017   2.467   4.380   6.875
 9040SOL     OW28018   2.708   1.963   1.980
 9040SOL    HW128019   2.662   1.875   1.978
 9040SOL    HW228020   2.806   1.949   1.996
 9041SOL     OW28021   1.776   2.980   6.118
 9041SOL    HW128022   1.787   3.048   6.191
 9041SOL    HW228023   1.831   2.899   6.140
 9042SOL     OW28024   1.946   5.426   3.148
 9042SOL    HW128025   1.939   5.340   3.097
 9042SOL    HW228026   1.904   5.415   3.238
 9043SOL     OW28027   6.842   2.276   6.960
 9043SOL    HW128028   6.810   2.364   6.924
 9043SOL    HW228029   6.792   2.254   0.019
 9044SOL     OW28030   0.232   4.127   0.224
 9044SOL    HW128031   0.281   4.193   0.167
 9044SOL    HW228032   0.298   4.068   0.271
 9045SOL     OW28033   2.472   4.922   4.163
 9045SOL    HW128034   2.449   4.950   4.070
 9045SOL    HW228035   2.435   4.989   4.228
 9046SOL     OW28036   3.683   4.531   6.315
 9046SOL    HW128037   3.703   4.434   6.300
 9046SOL    HW228038   3.607   4.559   6.257
 9047SOL     OW28039   0.897   4.434   4.766
 9047SOL    HW128040   0.925   4.426   4.670
 9047SOL    HW228041   0.882   4.343   4.804
 9048SOL     OW28042   1.837   2.123   5.262
 9048SOL    HW128043   1.757   2.169   5.224
 9048SOL    HW228044   1.861   2.045   5.205
 9049SOL     OW28045   4.903   6.604   6.539
 9049SOL    HW128046   4.996   6.592   6.504
 9049SOL    HW228047   4.886   6.701   6.554
 9050SOL     OW28048   0.007   5.229   5.529
 9050SOL    HW128049   0.062   5.155   5.570
 9050SOL    HW228050   6.936   5.212   5.547
 9051SOL     OW28051   5.444   6.555   6.093
 9051SOL    HW128052   5.387   6.570   6.012
 9051SOL    HW228053   5.450   6.639   6.146
 9052SOL     OW28054   2.950   4.814   4.770
 9052SOL    HW128055   2.985   4.810   4.863
 9052SOL    HW228056   2.850   4.810   4.772
 9053SOL     OW28057   3.031   1.460   2.490
 9053SOL    HW128058   2.948   1.510   2.515
 9053SOL    HW228059   3.111   1.509   2.523
 9054SOL     OW28060   1.981   6.923   1.259
 9054SOL    HW128061   2.062   6.939   1.316
 9054SOL    HW228062   1.983   6.831   1.222
 9055SOL     OW28063   0.874   2.838   4.731
 9055SOL    HW128064   0.838   2.745   4.731
 9055SOL    HW228065   0.945   2.847   4.802
 9056SOL     OW28066   4.620   2.628   2.105
 9056SOL    HW128067   4.639   2.724   2.084
 9056SOL    HW228068   4.584   2.582   2.023
 9057SOL     OW28069   3.894   6.226   0.407
 9057SOL    HW128070   3.957   6.297   0.378
 9057SOL    HW228071   3.844   6.191   0.328
 9058SOL     OW28072   2.449   2.211   4.639
 9058SOL    HW128073   2.495   2.277   4.699
 9058SOL    HW228074   2.403   2.260   4.564
 9059SOL     OW28075   0.203   1.436   2.261
 9059SOL    HW128076   0.246   1.507   2.316
 9059SOL    HW228077   0.231   1.346   2.294
 9060SOL     OW28078   0.309   5.246   1.216
 9060SOL    HW128079   0.400   5.209   1.197
 9060SOL    HW228080   0.299   5.261   1.314
 9061SOL     OW28081   4.974   3.802   2.326
 9061SOL    HW128082   5.070   3.819   2.304
 9061SOL    HW228083   4.951   3.707   2.305
 9062SOL     OW28084   1.223   5.924   3.208
 9062SOL    HW128085   1.152   5.915   3.138
 9062SOL    HW228086   1.182   5.954   3.294
 9063SOL     OW28087   4.746   1.250   1.277
 9063SOL    HW128088   4.817   1.189   1.314
 9063SOL    HW228089   4.656   1.214   1.301
 9064SOL     OW28090   1.476   5.469   3.341
 9064SOL    HW128091   1.426   5.459   3.426
 9064SOL    HW228092   1.457   5.559   3.301
 9065SOL     OW28093   3.702   4.222   6.699
 9065SOL    HW128094   3.707   4.122   6.702
 9065SOL    HW228095   3.790   4.261   6.728
 9066SOL     OW28096   4.331   5.068   4.041
 9066SOL    HW128097   4.431   5.074   4.051
 9066SOL    HW228098   4.302   5.126   3.965
 9067SOL     OW28099   2.042   6.977   4.495
 9067SOL    HW128100   2.023   6.892   4.544
 9067SOL    HW228101   1.976   0.022   4.522
 9068SOL     OW28102   4.201   0.074   6.188
 9068SOL    HW128103   4.144   0.026   6.255
 9068SOL    HW228104   4.259   0.141   6.235
 9069SOL     OW28105   5.432   2.629   2.113
 9069SOL    HW128106   5.430   2.710   2.172
 9069SOL    HW228107   5.475   2.653   2.026
 9070SOL     OW28108   1.580   1.057   5.639
 9070SOL    HW128109   1.549   1.135   5.695
 9070SOL    HW228110   1.657   1.085   5.582
 9071SOL     OW28111   5.285   2.389   6.625
 9071SOL    HW128112   5.186   2.400   6.609
 9071SOL    HW228113   5.302   2.384   6.723
 9072SOL     OW28114   5.875   6.882   2.206
 9072SOL    HW128115   5.920   6.968   2.228
 9072SOL    HW228116   5.799   6.867   2.269
 9073SOL     OW28117   4.449   3.071   5.561
 9073SOL    HW128118   4.407   3.161   5.571
 9073SOL    HW228119   4.505   3.051   5.642
 9074SOL     OW28120   1.805   0.879   2.859
 9074SOL    HW128121   1.776   0.973   2.875
 9074SOL    HW228122   1.897   0.866   2.896
 9075SOL     OW28123   5.502   6.001   0.542
 9075SOL    HW128124   5.577   5.951   0.499
 9075SOL    HW228125   5.419   5.945   0.540
 9076SOL     OW28126   0.747   6.611   2.295
 9076SOL    HW128127   0.713   6.705   2.295
 9076SOL    HW228128   0.845   6.611   2.315
 9077SOL     OW28129   6.167   1.986   6.835
 9077SOL    HW128130   6.143   1.904   6.783
 9077SOL    HW228131   6.084   2.036   6.859
 9078SOL     OW28132   5.226   6.748   0.404
 9078SOL    HW128133   5.260   6.836   0.438
 9078SOL    HW228134   5.303   6.686   0.388
 9079SOL     OW28135   1.214   1.367   5.875
 9079SOL    HW128136   1.248   1.389   5.784
 9079SOL    HW228137   1.291   1.351   5.937
 9080SOL     OW28138   6.124   4.099   2.582
 9080SOL    HW128139   6.062   4.084   2.658
 9080SOL    HW228140   6.218   4.096   2.614
 9081SOL     OW28141   5.109   1.653   0.685
 9081SOL    HW128142   5.040   1.682   0.751
 9081SOL    HW228143   5.076   1.668   0.592
 9082SOL     OW28144   3.355   5.244   6.301
 9082SOL    HW128145   3.342   5.265   6.398
 9082SOL    HW228146   3.446   5.205   6.287
 9083SOL     OW28147   3.477   0.012   0.673
 9083SOL    HW128148   3.416   7.019   0.595
 9083SOL    HW228149   3.543   0.082   0.647
 9084SOL     OW28150   6.858   4.114   5.076
 9084SOL    HW128151   6.848   4.044   5.004
 9084SOL    HW228152   6.795   4.190   5.057
 9085SOL     OW28153   2.890   5.049   0.413
 9085SOL    HW128154   2.980   5.091   0.405
 9085SOL    HW228155   2.869   5.032   0.509
 9086SOL     OW28156   6.847   3.206   0.407
 9086SOL    HW128157   6.859   3.266   0.328
 9086SOL    HW228158   6.891   3.118   0.390
 9087SOL     OW28159   5.275   1.510   1.631
 9087SOL    HW128160   5.262   1.465   1.719
 9087SOL    HW228161   5.357   1.472   1.587
 9088SOL     OW28162   6.248   5.589   0.234
 9088SOL    HW128163   6.346   5.595   0.212
 9088SOL    HW228164   6.197   5.648   0.171
 9089SOL     OW28165   5.272   5.745   3.504
 9089SOL    HW128166   5.264   5.660   3.452
 9089SOL    HW228167   5.247   5.823   3.446
 9090SOL     OW28168   5.111   6.032   6.048
 9090SOL    HW128169   5.152   5.941   6.053
 9090SOL    HW228170   5.020   6.030   6.090
 9091SOL     OW28171   3.007   2.040   2.006
 9091SOL    HW128172   2.960   2.129   2.006
 9091SOL    HW228173   2.986   1.991   2.090
 9092SOL     OW28174   2.158   1.350   5.094
 9092SOL    HW128175   2.100   1.387   5.021
 9092SOL    HW228176   2.103   1.289   5.152
 9093SOL     OW28177   2.258   3.323   0.985
 9093SOL    HW128178   2.354   3.317   0.958
 9093SOL    HW228179   2.242   3.409   1.032
 9094SOL     OW28180   6.440   3.876   0.711
 9094SOL    HW128181   6.374   3.949   0.692
 9094SOL    HW228182   6.412   3.825   0.792
 9095SOL     OW28183   2.029   2.922   7.015
 9095SOL    HW128184   2.098   2.871   6.964
 9095SOL    HW228185   2.051   2.920   0.088
 9096SOL     OW28186   6.019   3.453   3.162
 9096SOL    HW128187   5.991   3.389   3.092
 9096SOL    HW228188   6.032   3.405   3.249
 9097SOL     OW28189   6.236   5.769   6.163
 9097SOL    HW128190   6.286   5.853   6.185
 9097SOL    HW228191   6.291   5.689   6.187
 9098SOL     OW28192   3.585   4.021   4.179
 9098SOL    HW128193   3.602   4.005   4.276
 9098SOL    HW228194   3.592   3.935   4.129
 9099SOL     OW28195   1.925   2.009   0.381
 9099SOL    HW128196   1.998   2.030   0.445
 9099SOL    HW228197   1.855   2.080   0.385
 9100SOL     OW28198   1.425   2.976   6.999
 9100SOL    HW128199   1.385   2.907   0.034
 9100SOL    HW228200   1.354   3.014   6.941
 9101SOL     OW28201   2.254   1.793   0.016
 9101SOL    HW128202   2.190   1.783   0.092
 9101SOL    HW228203   2.274   1.890   0.002
 9102SOL     OW28204   5.713   6.589   2.257
 9102SOL    HW128205   5.637   6.524   2.246
 9102SOL    HW228206   5.677   6.678   2.283
 9103SOL     OW28207   0.520   4.214   6.319
 9103SOL    HW128208   0.560   4.295   6.362
 9103SOL    HW228209   0.466   4.164   6.386
 9104SOL     OW28210   5.135   0.168   2.440
 9104SOL    HW128211   5.077   0.088   2.457
 9104SOL    HW228212   5.086   0.232   2.380
 9105SOL     OW28213   2.721   1.465   5.564
 9105SOL    HW128214   2.756   1.401   5.632
 9105SOL    HW228215   2.734   1.559   5.596
 9106SOL     OW28216   6.455   5.094   1.672
 9106SOL    HW128217   6.541   5.128   1.709
 9106SOL    HW228218   6.381   5.158   1.694
 9107SOL     OW28219   5.029   0.506   0.769
 9107SOL    HW128220   5.042   0.563   0.688
 9107SOL    HW228221   4.976   0.425   0.744
 9108SOL     OW28222   4.213   6.141   6.747
 9108SOL    HW128223   4.188   6.174   6.838
 9108SOL    HW228224   4.140   6.162   6.683
 9109SOL     OW28225   3.047   1.372   4.422
 9109SOL    HW128226   3.093   1.285   4.439
 9109SOL    HW228227   3.096   1.423   4.351
 9110SOL     OW28228   1.335   2.831   2.964
 9110SOL    HW128229   1.293   2.789   3.045
 9110SOL    HW228230   1.381   2.916   2.991
 9111SOL     OW28231   4.261   3.973   1.739
 9111SOL    HW128232   4.176   3.955   1.788
 9111SOL    HW228233   4.306   4.054   1.777
 9112SOL     OW28234   0.618   4.736   1.741
 9112SOL    HW128235   0.526   4.754   1.776
 9112SOL    HW228236   0.675   4.818   1.754
 9113SOL     OW28237   3.252   5.846   0.233
 9113SOL    HW128238   3.161   5.813   0.207
 9113SOL    HW228239   3.278   5.922   0.175
 9114SOL     OW28240   2.610   4.080   1.679
 9114SOL    HW128241   2.514   4.107   1.692
 9114SOL    HW228242   2.669   4.161   1.689
 9115SOL     OW28243   1.817   4.143   4.062
 9115SOL    HW128244   1.802   4.160   4.159
 9115SOL    HW228245   1.765   4.209   4.008
 9116SOL     OW28246   1.638   1.502   5.678
 9116SOL    HW128247   1.700   1.521   5.602
 9116SOL    HW228248   1.630   1.583   5.736
 9117SOL     OW28249   6.528   2.677   6.842
 9117SOL    HW128250   6.530   2.593   6.896
 9117SOL    HW228251   6.482   2.660   6.755
 9118SOL     OW28252   0.062   5.418   1.718
 9118SOL    HW128253   0.069   5.363   1.801
 9118SOL    HW228254   0.153   5.433   1.679
 9119SOL     OW28255   6.237   0.085   1.213
 9119SOL    HW128256   6.159   0.128   1.167
 9119SOL    HW228257   6.266   0.005   1.161
 9120SOL     OW28258   5.915   1.102   6.273
 9120SOL    HW128259   5.928   1.191   6.318
 9120SOL    HW228260   5.958   1.030   6.328
 9121SOL     OW28261   1.892   0.949   6.772
 9121SOL    HW128262   1.961   0.979   6.839
 9121SOL    HW228263   1.935   0.889   6.705
 9122SOL     OW28264   0.648   2.863   0.727
 9122SOL    HW128265   0.644   2.916   0.812
 9122SOL    HW228266   0.569   2.802   0.722
 9123SOL     OW28267   2.892   5.798   6.920
 9123SOL    HW128268   2.792   5.798   6.911
 9123SOL    HW228269   2.918   5.848   7.004
 9124SOL     OW28270   5.949   4.879   5.648
 9124SOL    HW128271   5.854   4.860   5.625
 9124SOL    HW228272   5.982   4.810   5.713
 9125SOL     OW28273   4.641   6.191   2.322
 9125SOL    HW128274   4.607   6.096   2.329
 9125SOL    HW228275   4.622   6.239   2.407
 9126SOL     OW28276   5.912   0.454   2.203
 9126SOL    HW128277   5.863   0.370   2.178
 9126SOL    HW228278   5.975   0.479   2.129
 9127SOL     OW28279   5.184   0.043   6.624
 9127SOL    HW128280   5.194   6.984   6.676
 9127SOL    HW228281   5.272   0.070   6.586
 9128SOL     OW28282   4.773   2.383   4.930
 9128SOL    HW128283   4.833   2.304   4.946
 9128SOL    HW228284   4.810   2.463   4.976
 9129SOL     OW28285   2.063   1.732   6.448
 9129SOL    HW128286   2.062   1.832   6.445
 9129SOL    HW228287   1.971   1.698   6.468
 9130SOL     OW28288   6.211   5.438   0.953
 9130SOL    HW128289   6.253   5.505   0.891
 9130SOL    HW228290   6.115   5.462   0.968
 9131SOL     OW28291   0.324   4.267   4.203
 9131SOL    HW128292   0.332   4.215   4.118
 9131SOL    HW228293   0.238   4.318   4.202
 9132SOL     OW28294   1.055   3.089   4.607
 9132SOL    HW128295   0.988   3.045   4.667
 9132SOL    HW228296   1.137   3.111   4.659
 9133SOL     OW28297   1.716   4.457   1.220
 9133SOL    HW128298   1.767   4.527   1.269
 9133SOL    HW228299   1.679   4.391   1.285
 9134SOL     OW28300   3.166   5.090   5.847
 9134SOL    HW128301   3.206   5.160   5.906
 9134SOL    HW228302   3.080   5.123   5.809
 9135SOL     OW28303   6.964   6.093   4.065
 9135SOL    HW128304   7.008   6.006   4.091
 9135SOL    HW228305   6.881   6.074   4.013
 9136SOL     OW28306   4.202   5.085   6.175
 9136SOL    HW128307   4.273   5.150   6.149
 9136SOL    HW228308   4.225   5.044   6.263
 9137SOL     OW28309   4.006   1.274   2.364
 9137SOL    HW128310   3.958   1.349   2.317
 9137SOL    HW228311   3.992   1.189   2.313
 9138SOL     OW28312   3.649   4.845   0.948
 9138SOL    HW128313   3.581   4.916   0.932
 9138SOL    HW228314   3.740   4.883   0.936
 9139SOL     OW28315   3.034   1.237   5.528
 9139SOL    HW128316   3.062   1.304   5.459
 9139SOL    HW228317   2.935   1.228   5.528
 9140SOL     OW28318   7.003   2.586   3.450
 9140SOL    HW128319   0.058   2.544   3.492
 9140SOL    HW228320   6.978   2.535   3.368
 9141SOL     OW28321   5.774   0.801   5.631
 9141SOL    HW128322   5.725   0.833   5.712
 9141SOL    HW228323   5.709   0.779   5.559
 9142SOL     OW28324   0.792   4.053   6.304
 9142SOL    HW128325   0.705   4.104   6.310
 9142SOL    HW228326   0.867   4.113   6.332
 9143SOL     OW28327   5.401   3.936   0.781
 9143SOL    HW128328   5.410   3.871   0.705
 9143SOL    HW228329   5.399   3.886   0.868
 9144SOL     OW28330   1.978   4.767   5.263
 9144SOL    HW128331   2.039   4.715   5.322
 9144SOL    HW228332   1.954   4.712   5.182
 9145SOL     OW28333   0.236   4.316   6.822
 9145SOL    HW128334   0.217   4.352   6.913
 9145SOL    HW228335   0.314   4.253   6.826
 9146SOL     OW28336   6.746   1.658   1.611
 9146SOL    HW128337   6.705   1.592   1.674
 9146SOL    HW228338   6.810   1.717   1.660
 9147SOL     OW28339   4.349   6.389   5.999
 9147SOL    HW128340   4.266   6.419   5.952
 9147SOL    HW228341   4.354   6.289   5.997
 9148SOL     OW28342   4.249   6.064   3.266
 9148SOL    HW128343   4.324   6.116   3.224
 9148SOL    HW228344   4.195   6.125   3.324
 9149SOL     OW28345   5.849   3.507   4.041
 9149SOL    HW128346   5.751   3.492   4.027
 9149SOL    HW228347   5.868   3.605   4.043
 9150SOL     OW28348   4.864   1.235   3.232
 9150SOL    HW128349   4.896   1.329   3.236
 9150SOL    HW228350   4.841   1.212   3.137
 9151SOL     OW28351   1.496   3.727   2.588
 9151SOL    HW128352   1.466   3.666   2.515
 9151SOL    HW228353   1.595   3.738   2.584
 9152SOL     OW28354   2.384   5.690   2.476
 9152SOL    HW128355   2.380   5.785   2.508
 9152SOL    HW228356   2.304   5.640   2.508
 9153SOL     OW28357   1.565   3.281   5.960
 9153SOL    HW128358   1.516   3.194   5.956
 9153SOL    HW228359   1.511   3.347   6.011
 9154SOL     OW28360   2.066   6.029   0.609
 9154SOL    HW128361   2.085   6.012   0.705
 9154SOL    HW228362   2.072   5.944   0.558
 9155SOL     OW28363   1.545   4.137   0.178
 9155SOL    HW128364   1.498   4.093   0.254
 9155SOL    HW228365   1.496   4.119   0.093
 9156SOL     OW28366   4.948   2.678   1.903
 9156SOL    HW128367   4.947   2.777   1.892
 9156SOL    HW228368   4.941   2.655   2.000
 9157SOL     OW28369   5.192   3.682   5.543
 9157SOL    HW128370   5.209   3.587   5.567
 9157SOL    HW228371   5.093   3.698   5.538
 9158SOL     OW28372   0.414   3.956   3.574
 9158SOL    HW128373   0.419   3.883   3.506
 9158SOL    HW228374   0.471   4.033   3.545
 9159SOL     OW28375   6.930   4.018   3.139
 9159SOL    HW128376   6.915   4.006   3.237
 9159SOL    HW228377   0.003   4.029   3.121
 9160SOL     OW28378   6.771   6.935   6.728
 9160SOL    HW128379   6.824   7.018   6.713
 9160SOL    HW228380   6.703   6.952   6.800
 9161SOL     OW28381   5.322   3.751   4.202
 9161SOL    HW128382   5.305   3.750   4.103
 9161SOL    HW228383   5.235   3.756   4.251
 9162SOL     OW28384   4.938   2.210   2.177
 9162SOL    HW128385   4.879   2.279   2.135
 9162SOL    HW228386   5.029   2.212   2.135
 9163SOL     OW28387   2.936   1.860   3.796
 9163SOL    HW128388   2.840   1.887   3.804
 9163SOL    HW228389   2.987   1.896   3.874
 9164SOL     OW28390   2.999   6.971   0.537
 9164SOL    HW128391   2.987   6.872   0.538
 9164SOL    HW228392   3.073   6.995   0.474
 9165SOL     OW28393   5.722   6.515   0.376
 9165SOL    HW128394   5.664   6.594   0.357
 9165SOL    HW228395   5.755   6.520   0.470
 9166SOL     OW28396   3.054   5.576   1.376
 9166SOL    HW128397   3.033   5.653   1.436
 9166SOL    HW228398   3.010   5.589   1.287
 9167SOL     OW28399   1.156   4.274   4.843
 9167SOL    HW128400   1.208   4.324   4.774
 9167SOL    HW228401   1.137   4.181   4.810
 9168SOL     OW28402   2.231   0.273   6.312
 9168SOL    HW128403   2.237   0.344   6.383
 9168SOL    HW228404   2.258   0.185   6.351
 9169SOL     OW28405   6.793   6.759   3.334
 9169SOL    HW128406   6.846   6.682   3.298
 9169SOL    HW228407   6.854   6.822   3.382
 9170SOL     OW28408   6.195   6.105   7.009
 9170SOL    HW128409   6.232   6.139   6.923
 9170SOL    HW228410   6.238   6.151   0.061
 9171SOL     OW28411   2.582   5.543   6.344
 9171SOL    HW128412   2.646   5.552   6.420
 9171SOL    HW228413   2.491   5.522   6.380
 9172SOL     OW28414   2.785   1.899   4.108
 9172SOL    HW128415   2.777   1.800   4.111
 9172SOL    HW228416   2.722   1.936   4.039
 9173SOL     OW28417   0.306   5.297   4.822
 9173SOL    HW128418   0.347   5.256   4.741
 9173SOL    HW228419   0.377   5.314   4.891
 9174SOL     OW28420   0.543   4.991   0.485
 9174SOL    HW128421   0.638   5.021   0.472
 9174SOL    HW228422   0.493   5.061   0.536
 9175SOL     OW28423   1.385   6.784   5.413
 9175SOL    HW128424   1.294   6.788   5.454
 9175SOL    HW228425   1.381   6.729   5.329
 9176SOL     OW28426   2.140   0.667   5.563
 9176SOL    HW128427   2.082   0.635   5.487
 9176SOL    HW228428   2.147   0.595   5.632
 9177SOL     OW28429   0.889   5.208   4.326
 9177SOL    HW128430   0.873   5.110   4.338
 9177SOL    HW228431   0.952   5.223   4.251
 9178SOL     OW28432   2.674   4.723   0.510
 9178SOL    HW128433   2.612   4.647   0.531
 9178SOL    HW228434   2.763   4.706   0.554
 9179SOL     OW28435   3.331   4.978   4.502
 9179SOL    HW128436   3.419   4.944   4.534
 9179SOL    HW228437   3.266   4.980   4.578
 9180SOL     OW28438   5.061   2.160   3.140
 9180SOL    HW128439   4.963   2.180   3.149
 9180SOL    HW228440   5.098   2.210   3.062
 9181SOL     OW28441   4.261   1.286   2.432
 9181SOL    HW128442   4.252   1.262   2.529
 9181SOL    HW228443   4.171   1.303   2.393
 9182SOL     OW28444   1.319   6.816   1.695
 9182SOL    HW128445   1.248   6.850   1.756
 9182SOL    HW228446   1.386   6.764   1.748
 9183SOL     OW28447   5.419   5.909   0.229
 9183SOL    HW128448   5.380   5.891   0.138
 9183SOL    HW228449   5.483   5.837   0.253
 9184SOL     OW28450   5.149   0.190   0.327
 9184SOL    HW128451   5.206   0.272   0.339
 9184SOL    HW228452   5.101   0.169   0.412
 9185SOL     OW28453   3.935   1.143   5.226
 9185SOL    HW128454   3.859   1.153   5.163
 9185SOL    HW228455   3.968   1.234   5.253
 9186SOL     OW28456   5.386   0.526   6.308
 9186SOL    HW128457   5.323   0.604   6.307
 9186SOL    HW228458   5.443   0.530   6.390
 9187SOL     OW28459   2.331   6.039   2.230
 9187SOL    HW128460   2.406   5.995   2.181
 9187SOL    HW228461   2.366   6.118   2.280
 9188SOL     OW28462   2.593   5.960   1.383
 9188SOL    HW128463   2.683   5.980   1.422
 9188SOL    HW228464   2.603   5.904   1.301
 9189SOL     OW28465   5.393   5.462   2.452
 9189SOL    HW128466   5.339   5.378   2.443
 9189SOL    HW228467   5.474   5.444   2.507
 9190SOL     OW28468   1.804   4.996   0.562
 9190SOL    HW128469   1.732   4.998   0.493
 9190SOL    HW228470   1.849   4.906   0.560
 9191SOL     OW28471   6.744   0.754   6.113
 9191SOL    HW128472   6.712   0.822   6.179
 9191SOL    HW228473   6.761   0.668   6.161
 9192SOL     OW28474   6.762   4.050   3.953
 9192SOL    HW128475   6.819   4.105   3.892
 9192SOL    HW228476   6.672   4.037   3.912
 9193SOL     OW28477   2.634   3.233   6.637
 9193SOL    HW128478   2.657   3.327   6.615
 9193SOL    HW228479   2.644   3.217   6.735
 9194SOL     OW28480   3.765   0.459   3.956
 9194SOL    HW128481   3.864   0.461   3.975
 9194SOL    HW228482   3.747   0.391   3.885
 9195SOL     OW28483   1.815   1.652   3.612
 9195SOL    HW128484   1.894   1.685   3.560
 9195SOL    HW228485   1.770   1.578   3.563
 9196SOL     OW28486   4.869   2.400   5.552
 9196SOL    HW128487   4.823   2.311   5.543
 9196SOL    HW228488   4.838   2.461   5.480
 9197SOL     OW28489   2.243   3.629   1.619
 9197SOL    HW128490   2.317   3.690   1.651
 9197SOL    HW228491   2.156   3.660   1.658
 9198SOL     OW28492   6.829   5.125   4.270
 9198SOL    HW128493   6.769   5.174   4.334
 9198SOL    HW228494   6.924   5.148   4.291
 9199SOL     OW28495   6.177   4.567   4.812
 9199SOL    HW128496   6.231   4.536   4.891
 9199SOL    HW228497   6.128   4.651   4.836
 9200SOL     OW28498   2.502   0.075   0.437
 9200SOL    HW128499   2.489   0.006   0.366
 9200SOL    HW228500   2.600   0.088   0.452
 9201SOL     OW28501   1.815   4.203   0.651
 9201SOL    HW128502   1.863   4.194   0.563
 9201SOL    HW228503   1.747   4.276   0.644
 9202SOL     OW28504   2.152   0.451   3.168
 9202SOL    HW128505   2.172   0.479   3.262
 9202SOL    HW228506   2.171   0.527   3.106
 9203SOL     OW28507   6.823   6.716   0.835
 9203SOL    HW128508   6.724   6.711   0.819
 9203SOL    HW228509   6.859   6.625   0.852
 9204SOL     OW28510   5.187   0.977   5.584
 9204SOL    HW128511   5.087   0.976   5.593
 9204SOL    HW228512   5.226   1.038   5.652
 9205SOL     OW28513   6.878   4.225   2.048
 9205SOL    HW128514   6.913   4.316   2.028
 9205SOL    HW228515   6.799   4.205   1.990
 9206SOL     OW28516   3.588   5.588   0.821
 9206SOL    HW128517   3.629   5.499   0.845
 9206SOL    HW228518   3.659   5.658   0.820
 9207SOL     OW28519   5.008   5.602   6.375
 9207SOL    HW128520   5.035   5.543   6.300
 9207SOL    HW228521   4.910   5.623   6.368
 9208SOL     OW28522   1.280   3.538   3.012
 9208SOL    HW128523   1.274   3.568   3.107
 9208SOL    HW228524   1.311   3.614   2.955
 9209SOL     OW28525   2.880   0.524   6.310
 9209SOL    HW128526   2.956   0.516   6.245
 9209SOL    HW228527   2.814   0.451   6.295
 9210SOL     OW28528   0.002   0.516   3.294
 9210SOL    HW128529   0.002   0.485   3.199
 9210SOL    HW228530   0.004   0.436   3.354
 9211SOL     OW28531   0.753   1.465   2.526
 9211SOL    HW128532   0.838   1.496   2.484
 9211SOL    HW228533   0.732   1.373   2.493
 9212SOL     OW28534   3.340   4.887   4.252
 9212SOL    HW128535   3.381   4.798   4.271
 9212SOL    HW228536   3.305   4.927   4.337
 9213SOL     OW28537   5.800   4.391   6.820
 9213SOL    HW128538   5.719   4.421   6.870
 9213SOL    HW228539   5.880   4.440   6.854
 9214SOL     OW28540   0.220   4.962   0.930
 9214SOL    HW128541   0.317   4.939   0.935
 9214SOL    HW228542   0.181   4.961   1.023
 9215SOL     OW28543   0.998   1.006   0.958
 9215SOL    HW128544   0.935   0.976   0.886
 9215SOL    HW228545   1.007   1.105   0.955
 9216SOL     OW28546   2.170   6.744   2.956
 9216SOL    HW128547   2.222   6.711   3.035
 9216SOL    HW228548   2.229   6.797   2.896
 9217SOL     OW28549   1.098   2.442   6.467
 9217SOL    HW128550   1.061   2.531   6.440
 9217SOL    HW228551   1.196   2.438   6.445
 9218SOL     OW28552   2.775   0.493   0.715
 9218SOL    HW128553   2.784   0.529   0.808
 9218SOL    HW228554   2.728   0.405   0.717
 9219SOL     OW28555   0.410   1.977   0.581
 9219SOL    HW128556   0.338   1.974   0.510
 9219SOL    HW228557   0.488   1.924   0.551
 9220SOL     OW28558   3.235   6.519   1.903
 9220SOL    HW128559   3.287   6.557   1.827
 9220SOL    HW228560   3.296   6.470   1.965
 9221SOL     OW28561   3.068   5.563   3.957
 9221SOL    HW128562   3.104   5.646   3.913
 9221SOL    HW228563   2.975   5.581   3.989
 9222SOL     OW28564   2.768   2.392   5.848
 9222SOL    HW128565   2.674   2.379   5.817
 9222SOL    HW228566   2.813   2.459   5.789
 9223SOL     OW28567   2.855   3.072   5.283
 9223SOL    HW128568   2.877   3.092   5.378
 9223SOL    HW228569   2.762   3.037   5.277
 9224SOL     OW28570   2.420   4.947   5.371
 9224SOL    HW128571   2.443   4.984   5.281
 9224SOL    HW228572   2.493   4.885   5.401
 9225SOL     OW28573   2.100   6.232   6.953
 9225SOL    HW128574   2.010   6.271   6.974
 9225SOL    HW228575   2.090   6.160   6.884
 9226SOL     OW28576   4.053   6.640   1.099
 9226SOL    HW128577   4.147   6.610   1.079
 9226SOL    HW228578   4.004   6.566   1.144
 9227SOL     OW28579   1.688   5.803   2.155
 9227SOL    HW128580   1.687   5.813   2.055
 9227SOL    HW228581   1.746   5.726   2.181
 9228SOL     OW28582   0.908   6.887   6.420
 9228SOL    HW128583   0.930   6.931   6.508
 9228SOL    HW228584   0.879   6.957   6.355
 9229SOL     OW28585   0.375   5.260   5.337
 9229SOL    HW128586   0.394   5.300   5.427
 9229SOL    HW228587   0.461   5.235   5.292
 9230SOL     OW28588   5.659   0.278   4.149
 9230SOL    HW128589   5.595   0.214   4.191
 9230SOL    HW228590   5.716   0.320   4.221
 9231SOL     OW28591   1.998   2.663   3.409
 9231SOL    HW128592   2.008   2.758   3.378
 9231SOL    HW228593   1.982   2.662   3.508
 9232SOL     OW28594   3.854   4.776   1.348
 9232SOL    HW128595   3.862   4.724   1.263
 9232SOL    HW228596   3.882   4.719   1.425
 9233SOL     OW28597   5.025   4.594   0.844
 9233SOL    HW128598   4.928   4.574   0.835
 9233SOL    HW228599   5.038   4.691   0.864
 9234SOL     OW28600   2.437   6.239   3.742
 9234SOL    HW128601   2.392   6.327   3.762
 9234SOL    HW228602   2.492   6.212   3.821
 9235SOL     OW28603   0.607   2.137   3.260
 9235SOL    HW128604   0.551   2.207   3.305
 9235SOL    HW228605   0.697   2.175   3.240
 9236SOL     OW28606   3.823   2.774   5.911
 9236SOL    HW128607   3.852   2.678   5.916
 9236SOL    HW228608   3.724   2.779   5.897
 9237SOL     OW28609   1.799   3.457   3.848
 9237SOL    HW128610   1.811   3.527   3.919
 9237SOL    HW228611   1.879   3.397   3.847
 9238SOL     OW28612   4.396   3.281   6.432
 9238SOL    HW128613   4.389   3.318   6.525
 9238SOL    HW228614   4.484   3.233   6.423
 9239SOL     OW28615   1.756   3.896   0.714
 9239SOL    HW128616   1.814   3.822   0.679
 9239SOL    HW228617   1.802   3.984   0.699
 9240SOL     OW28618   4.275   0.958   2.603
 9240SOL    HW128619   4.295   1.015   2.683
 9240SOL    HW228620   4.263   1.016   2.523
 9241SOL     OW28621   0.347   6.016   6.560
 9241SOL    HW128622   0.433   6.008   6.510
 9241SOL    HW228623   0.312   6.109   6.551
 9242SOL     OW28624   6.830   6.146   1.742
 9242SOL    HW128625   6.836   6.128   1.644
 9242SOL    HW228626   6.786   6.069   1.788
 9243SOL     OW28627   6.278   6.400   4.803
 9243SOL    HW128628   6.323   6.450   4.729
 9243SOL    HW228629   6.221   6.327   4.763
 9244SOL     OW28630   3.791   4.975   6.783
 9244SOL    HW128631   3.865   5.036   6.756
 9244SOL    HW228632   3.822   4.880   6.778
 9245SOL     OW28633   0.724   5.741   1.040
 9245SOL    HW128634   0.641   5.747   1.096
 9245SOL    HW228635   0.768   5.653   1.054
 9246SOL     OW28636   6.875   5.008   4.564
 9246SOL    HW128637   6.877   5.091   4.509
 9246SOL    HW228638   6.969   4.976   4.579
 9247SOL     OW28639   1.612   6.296   2.437
 9247SOL    HW128640   1.664   6.211   2.432
 9247SOL    HW228641   1.639   6.356   2.362
 9248SOL     OW28642   3.025   1.359   6.474
 9248SOL    HW128643   3.121   1.343   6.450
 9248SOL    HW228644   2.967   1.337   6.396
 9249SOL     OW28645   4.801   0.135   3.948
 9249SOL    HW128646   4.852   0.137   4.034
 9249SOL    HW228647   4.733   0.062   3.950
 9250SOL     OW28648   5.239   3.523   3.920
 9250SOL    HW128649   5.171   3.596   3.913
 9250SOL    HW228650   5.224   3.472   4.004
 9251SOL     OW28651   3.542   2.092   2.537
 9251SOL    HW128652   3.514   2.117   2.629
 9251SOL    HW228653   3.631   2.134   2.516
 9252SOL     OW28654   1.359   6.872   4.252
 9252SOL    HW128655   1.431   6.939   4.234
 9252SOL    HW228656   1.365   6.798   4.185
 9253SOL     OW28657   1.242   6.930   5.654
 9253SOL    HW128658   1.226   6.878   5.738
 9253SOL    HW228659   1.238   0.002   5.673
 9254SOL     OW28660   5.706   3.544   1.743
 9254SOL    HW128661   5.699   3.614   1.672
 9254SOL    HW228662   5.615   3.507   1.761
 9255SOL     OW28663   6.428   4.318   0.575
 9255SOL    HW128664   6.517   4.325   0.531
 9255SOL    HW228665   6.407   4.222   0.593
 9256SOL     OW28666   4.382   4.708   1.605
 9256SOL    HW128667   4.351   4.746   1.693
 9256SOL    HW228668   4.444   4.772   1.561
 9257SOL     OW28669   0.970   4.090   1.152
 9257SOL    HW128670   0.935   4.108   1.060
 9257SOL    HW228671   0.896   4.059   1.211
 9258SOL     OW28672   3.962   3.664   3.880
 9258SOL    HW128673   3.916   3.749   3.851
 9258SOL    HW228674   4.038   3.687   3.941
 9259SOL     OW28675   0.767   2.922   6.931
 9259SOL    HW128676   0.700   2.942   7.002
 9259SOL    HW228677   0.787   2.824   6.930
 9260SOL     OW28678   5.664   3.739   6.662
 9260SOL    HW128679   5.567   3.742   6.638
 9260SOL    HW228680   5.699   3.646   6.646
 9261SOL     OW28681   4.710   0.063   6.991
 9261SOL    HW128682   4.776   0.126   6.949
 9261SOL    HW228683   4.713   0.075   0.066
 9262SOL     OW28684   4.684   1.374   5.204
 9262SOL    HW128685   4.615   1.340   5.141
 9262SOL    HW228686   4.724   1.297   5.254
 9263SOL     OW28687   5.490   3.982   1.897
 9263SOL    HW128688   5.421   4.020   1.959
 9263SOL    HW228689   5.505   3.886   1.919
 9264SOL     OW28690   6.450   3.477   0.255
 9264SOL    HW128691   6.458   3.561   0.308
 9264SOL    HW228692   6.537   3.429   0.254
 9265SOL     OW28693   1.794   0.794   5.757
 9265SOL    HW128694   1.746   0.808   5.670
 9265SOL    HW228695   1.891   0.774   5.739
 9266SOL     OW28696   1.985   6.218   2.081
 9266SOL    HW128697   2.025   6.148   2.139
 9266SOL    HW228698   1.951   6.176   1.996
 9267SOL     OW28699   2.652   5.154   5.280
 9267SOL    HW128700   2.644   5.142   5.181
 9267SOL    HW228701   2.659   5.252   5.301
 9268SOL     OW28702   0.075   1.111   2.708
 9268SOL    HW128703   0.162   1.150   2.680
 9268SOL    HW228704   0.079   1.088   2.805
 9269SOL     OW28705   3.634   1.163   5.767
 9269SOL    HW128706   3.681   1.084   5.806
 9269SOL    HW228707   3.679   1.247   5.797
 9270SOL     OW28708   0.332   7.025   5.890
 9270SOL    HW128709   0.350   6.934   5.853
 9270SOL    HW228710   0.235   0.021   5.880
 9271SOL     OW28711   1.196   5.090   0.060
 9271SOL    HW128712   1.280   5.145   0.065
 9271SOL    HW228713   1.207   5.009   0.117
 9272SOL     OW28714   2.451   4.618   6.717
 9272SOL    HW128715   2.434   4.611   6.816
 9272SOL    HW228716   2.538   4.665   6.702
 9273SOL     OW28717   3.645   6.168   5.377
 9273SOL    HW128718   3.693   6.100   5.321
 9273SOL    HW228719   3.653   6.144   5.474
 9274SOL     OW28720   5.596   2.089   0.901
 9274SOL    HW128721   5.529   2.103   0.828
 9274SOL    HW228722   5.655   2.011   0.877
 9275SOL     OW28723   1.292   0.439   6.303
 9275SOL    HW128724   1.361   0.367   6.304
 9275SOL    HW228725   1.241   0.438   6.389
 9276SOL     OW28726   4.512   6.346   4.999
 9276SOL    HW128727   4.437   6.376   5.058
 9276SOL    HW228728   4.486   6.260   4.955
 9277SOL     OW28729   3.628   2.829   0.972
 9277SOL    HW128730   3.723   2.802   0.962
 9277SOL    HW228731   3.572   2.781   0.903
 9278SOL     OW28732   1.284   2.189   1.791
 9278SOL    HW128733   1.198   2.150   1.826
 9278SOL    HW228734   1.269   2.221   1.697
 9279SOL     OW28735   3.532   6.930   1.572
 9279SOL    HW128736   3.622   6.969   1.595
 9279SOL    HW228737   3.545   6.849   1.515
 9280SOL     OW28738   2.121   0.211   3.083
 9280SOL    HW128739   2.138   0.309   3.099
 9280SOL    HW228740   2.035   0.200   3.032
 9281SOL     OW28741   1.907   2.411   0.309
 9281SOL    HW128742   1.888   2.504   0.341
 9281SOL    HW228743   1.859   2.345   0.366
 9282SOL     OW28744   4.611   1.899   6.415
 9282SOL    HW128745   4.523   1.920   6.373
 9282SOL    HW228746   4.652   1.982   6.452
 9283SOL     OW28747   5.724   2.218   2.285
 9283SOL    HW128748   5.624   2.216   2.286
 9283SOL    HW228749   5.760   2.193   2.375
 9284SOL     OW28750   2.975   3.377   1.662
 9284SOL    HW128751   3.059   3.348   1.617
 9284SOL    HW228752   2.897   3.332   1.619
 9285SOL     OW28753   6.064   3.089   6.949
 9285SOL    HW128754   5.981   3.136   6.919
 9285SOL    HW228755   6.119   3.151   7.004
 9286SOL     OW28756   5.266   6.458   5.557
 9286SOL    HW128757   5.210   6.394   5.609
 9286SOL    HW228758   5.240   6.456   5.461
 9287SOL     OW28759   2.991   6.439   1.836
 9287SOL    HW128760   2.931   6.510   1.872
 9287SOL    HW228761   3.084   6.475   1.828
 9288SOL     OW28762   4.683   2.311   6.090
 9288SOL    HW128763   4.633   2.396   6.104
 9288SOL    HW228764   4.698   2.296   5.992
 9289SOL     OW28765   5.013   2.889   3.167
 9289SOL    HW128766   4.915   2.870   3.162
 9289SOL    HW228767   5.037   2.915   3.261
 9290SOL     OW28768   4.672   2.077   5.068
 9290SOL    HW128769   4.662   1.982   5.098
 9290SOL    HW228770   4.645   2.085   4.973
 9291SOL     OW28771   0.487   2.189   5.304
 9291SOL    HW128772   0.557   2.257   5.327
 9291SOL    HW228773   0.518   2.133   5.228
 9292SOL     OW28774   6.821   3.787   6.769
 9292SOL    HW128775   6.777   3.698   6.778
 9292SOL    HW228776   6.916   3.780   6.798
 9293SOL     OW28777   5.297   4.418   6.996
 9293SOL    HW128778   5.376   4.429   0.031
 9293SOL    HW228779   5.328   4.394   6.904
 9294SOL     OW28780   5.941   6.207   0.305
 9294SOL    HW128781   5.950   6.162   0.216
 9294SOL    HW228782   6.026   6.255   0.327
 9295SOL     OW28783   4.672   1.949   3.776
 9295SOL    HW128784   4.685   1.910   3.868
 9295SOL    HW228785   4.574   1.952   3.755
 9296SOL     OW28786   6.054   0.248   5.612
 9296SOL    HW128787   6.108   0.248   5.696
 9296SOL    HW228788   6.080   0.327   5.555
 9297SOL     OW28789   0.691   1.168   0.552
 9297SOL    HW128790   0.758   1.116   0.498
 9297SOL    HW228791   0.609   1.185   0.496
 9298SOL     OW28792   1.060   6.393   4.807
 9298SOL    HW128793   1.069   6.294   4.810
 9298SOL    HW228794   1.069   6.424   4.713
 9299SOL     OW28795   2.264   2.968   4.403
 9299SOL    HW128796   2.220   2.914   4.331
 9299SOL    HW228797   2.340   2.916   4.442
 9300SOL     OW28798   5.606   4.676   4.479
 9300SOL    HW128799   5.661   4.757   4.498
 9300SOL    HW228800   5.667   4.599   4.458
 9301SOL     OW28801   5.526   4.220   2.695
 9301SOL    HW128802   5.554   4.191   2.786
 9301SOL    HW228803   5.584   4.295   2.664
 9302SOL     OW28804   2.175   1.944   2.264
 9302SOL    HW128805   2.137   2.020   2.211
 9302SOL    HW228806   2.190   1.974   2.359
 9303SOL     OW28807   3.648   5.325   0.818
 9303SOL    HW128808   3.691   5.236   0.800
 9303SOL    HW228809   3.556   5.326   0.779
 9304SOL     OW28810   4.277   3.199   1.045
 9304SOL    HW128811   4.244   3.113   1.007
 9304SOL    HW228812   4.283   3.267   0.972
 9305SOL     OW28813   5.455   2.691   2.542
 9305SOL    HW128814   5.407   2.623   2.597
 9305SOL    HW228815   5.554   2.681   2.556
 9306SOL     OW28816   6.934   4.285   3.837
 9306SOL    HW128817   6.895   4.319   3.923
 9306SOL    HW228818   6.863   4.241   3.782
 9307SOL     OW28819   1.970   1.259   6.487
 9307SOL    HW128820   2.050   1.228   6.540
 9307SOL    HW228821   1.907   1.307   6.548
 9308SOL     OW28822   6.624   3.021   0.987
 9308SOL    HW128823   6.716   3.052   1.010
 9308SOL    HW228824   6.579   3.091   0.931
 9309SOL     OW28825   4.596   3.513   6.654
 9309SOL    HW128826   4.614   3.514   6.555
 9309SOL    HW228827   4.680   3.532   6.703
 9310SOL     OW28828   3.964   5.813   0.470
 9310SOL    HW128829   3.992   5.820   0.374
 9310SOL    HW228830   4.042   5.837   0.529
 9311SOL     OW28831   6.066   2.957   0.864
 9311SOL    HW128832   6.129   3.034   0.865
 9311SOL    HW228833   6.030   2.944   0.772
 9312SOL     OW28834   1.234   4.681   5.852
 9312SOL    HW128835   1.207   4.716   5.941
 9312SOL    HW228836   1.156   4.685   5.789
 9313SOL     OW28837   6.161   6.704   2.598
 9313SOL    HW128838   6.118   6.702   2.508
 9313SOL    HW228839   6.259   6.684   2.588
 9314SOL     OW28840   5.322   4.742   0.152
 9314SOL    HW128841   5.292   4.822   0.205
 9314SOL    HW228842   5.242   4.694   0.116
 9315SOL     OW28843   6.743   6.383   6.278
 9315SOL    HW128844   6.651   6.414   6.298
 9315SOL    HW228845   6.774   6.321   6.350
 9316SOL     OW28846   3.573   5.822   4.129
 9316SOL    HW128847   3.539   5.841   4.221
 9316SOL    HW228848   3.672   5.812   4.132
 9317SOL     OW28849   6.076   4.289   4.457
 9317SOL    HW128850   6.109   4.274   4.550
 9317SOL    HW228851   6.018   4.370   4.455
 9318SOL     OW28852   6.627   0.103   6.212
 9318SOL    HW128853   6.651   0.090   6.116
 9318SOL    HW228854   6.711   0.107   6.267
 9319SOL     OW28855   0.204   3.147   4.704
 9319SOL    HW128856   0.124   3.133   4.647
 9319SOL    HW228857   0.205   3.078   4.778
 9320SOL     OW28858   4.636   2.595   6.385
 9320SOL    HW128859   4.599   2.576   6.294
 9320SOL    HW228860   4.639   2.694   6.400
 9321SOL     OW28861   6.514   5.749   3.096
 9321SOL    HW128862   6.447   5.796   3.038
 9321SOL    HW228863   6.544   5.811   3.168
 9322SOL     OW28864   0.730   6.457   6.962
 9322SOL    HW128865   0.724   6.539   7.020
 9322SOL    HW228866   0.710   6.376   7.017
 9323SOL     OW28867   6.698   1.641   6.039
 9323SOL    HW128868   6.774   1.601   6.089
 9323SOL    HW228869   6.673   1.729   6.079
 9324SOL     OW28870   1.751   5.979   6.987
 9324SOL    HW128871   1.696   5.922   6.926
 9324SOL    HW228872   1.848   5.957   6.976
 9325SOL     OW28873   6.705   2.741   0.973
 9325SOL    HW128874   6.675   2.836   0.978
 9325SOL    HW228875   6.668   2.689   1.050
 9326SOL     OW28876   2.537   6.226   1.274
 9326SOL    HW128877   2.594   6.283   1.332
 9326SOL    HW228878   2.552   6.129   1.297
 9327SOL     OW28879   3.956   1.172   3.222
 9327SOL    HW128880   4.055   1.185   3.220
 9327SOL    HW228881   3.922   1.191   3.314
 9328SOL     OW28882   3.054   0.732   2.123
 9328SOL    HW128883   3.027   0.734   2.026
 9328SOL    HW228884   2.974   0.750   2.180
 9329SOL     OW28885   1.337   3.635   1.581
 9329SOL    HW128886   1.245   3.659   1.550
 9329SOL    HW228887   1.403   3.655   1.509
 9330SOL     OW28888   5.854   0.550   0.218
 9330SOL    HW128889   5.858   0.546   0.318
 9330SOL    HW228890   5.761   0.568   0.188
 9331SOL     OW28891   0.815   1.177   6.789
 9331SOL    HW128892   0.837   1.079   6.800
 9331SOL    HW228893   0.728   1.197   6.834
 9332SOL     OW28894   3.705   3.802   4.053
 9332SOL    HW128895   3.646   3.781   4.131
 9332SOL    HW228896   3.723   3.719   4.001
 9333SOL     OW28897   5.622   5.245   1.111
 9333SOL    HW128898   5.614   5.147   1.096
 9333SOL    HW228899   5.597   5.293   1.027
 9334SOL     OW28900   3.129   6.890   4.785
 9334SOL    HW128901   3.039   6.898   4.827
 9334SOL    HW228902   3.143   6.796   4.753
 9335SOL     OW28903   0.799   0.748   0.980
 9335SOL    HW128904   0.864   0.819   0.953
 9335SOL    HW228905   0.849   0.668   1.012
 9336SOL     OW28906   3.372   6.653   5.549
 9336SOL    HW128907   3.454   6.629   5.601
 9336SOL    HW228908   3.399   6.683   5.457
 9337SOL     OW28909   4.959   0.060   2.714
 9337SOL    HW128910   4.951   0.096   2.807
 9337SOL    HW228911   4.991   6.991   2.718
 9338SOL     OW28912   3.835   0.269   1.388
 9338SOL    HW128913   3.908   0.337   1.392
 9338SOL    HW228914   3.865   0.185   1.432
 9339SOL     OW28915   4.224   5.993   1.048
 9339SOL    HW128916   4.193   6.075   0.999
 9339SOL    HW228917   4.265   5.929   0.983
 9340SOL     OW28918   5.913   3.480   0.589
 9340SOL    HW128919   5.929   3.462   0.492
 9340SOL    HW228920   5.949   3.404   0.643
 9341SOL     OW28921   7.014   5.146   5.937
 9341SOL    HW128922   6.921   5.173   5.909
 9341SOL    HW228923   7.010   5.101   6.026
 9342SOL     OW28924   1.074   5.912   5.930
 9342SOL    HW128925   1.168   5.939   5.908
 9342SOL    HW228926   1.075   5.854   6.012
 9343SOL     OW28927   6.516   5.636   4.784
 9343SOL    HW128928   6.445   5.583   4.738
 9343SOL    HW228929   6.543   5.712   4.726
 9344SOL     OW28930   4.934   6.882   1.703
 9344SOL    HW128931   5.006   6.813   1.692
 9344SOL    HW228932   4.845   6.836   1.705
 9345SOL     OW28933   6.813   2.864   0.586
 9345SOL    HW128934   6.714   2.859   0.600
 9345SOL    HW228935   6.858   2.877   0.675
 9346SOL     OW28936   6.214   0.384   0.037
 9346SOL    HW128937   6.115   0.377   0.033
 9346SOL    HW228938   6.251   0.302   0.081
 9347SOL     OW28939   1.349   6.139   2.037
 9347SOL    HW128940   1.322   6.078   1.962
 9347SOL    HW228941   1.449   6.147   2.039
 9348SOL     OW28942   3.112   4.778   0.004
 9348SOL    HW128943   3.020   4.815   7.017
 9348SOL    HW228944   3.149   4.808   0.092
 9349SOL     OW28945   1.901   6.333   2.593
 9349SOL    HW128946   1.905   6.417   2.538
 9349SOL    HW228947   1.852   6.262   2.541
 9350SOL     OW28948   0.740   2.913   5.729
 9350SOL    HW128949   0.682   2.902   5.810
 9350SOL    HW228950   0.692   2.876   5.649
 9351SOL     OW28951   2.446   1.104   6.901
 9351SOL    HW128952   2.497   1.133   6.982
 9351SOL    HW228953   2.348   1.121   6.915
 9352SOL     OW28954   2.482   4.598   5.672
 9352SOL    HW128955   2.535   4.677   5.643
 9352SOL    HW228956   2.485   4.591   5.772
 9353SOL     OW28957   6.030   0.559   0.956
 9353SOL    HW128958   6.001   0.629   1.022
 9353SOL    HW228959   6.123   0.579   0.926
 9354SOL     OW28960   0.776   1.793   6.593
 9354SOL    HW128961   0.712   1.867   6.572
 9354SOL    HW228962   0.755   1.754   6.683
 9355SOL     OW28963   0.402   1.917   5.617
 9355SOL    HW128964   0.447   2.007   5.615
 9355SOL    HW228965   0.437   1.862   5.541
 9356SOL     OW28966   5.599   0.073   3.305
 9356SOL    HW128967   5.572   0.165   3.332
 9356SOL    HW228968   5.527   0.008   3.329
 9357SOL     OW28969   0.902   1.860   0.064
 9357SOL    HW128970   0.944   1.805   7.017
 9357SOL    HW228971   0.952   1.846   0.150
 9358SOL     OW28972   0.642   3.031   1.583
 9358SOL    HW128973   0.640   3.126   1.612
 9358SOL    HW228974   0.731   3.011   1.541
 9359SOL     OW28975   0.630   0.031   5.361
 9359SOL    HW128976   0.552   0.041   5.423
 9359SOL    HW228977   0.668   6.964   5.371
 9360SOL     OW28978   0.884   0.400   5.804
 9360SOL    HW128979   0.821   0.473   5.831
 9360SOL    HW228980   0.832   0.327   5.758
 9361SOL     OW28981   2.127   6.070   4.045
 9361SOL    HW128982   2.111   6.165   4.073
 9361SOL    HW228983   2.083   6.008   4.110
 9362SOL     OW28984   2.199   0.085   1.852
 9362SOL    HW128985   2.211   7.022   1.807
 9362SOL    HW228986   2.273   0.147   1.826
 9363SOL     OW28987   1.894   5.001   2.630
 9363SOL    HW128988   1.876   4.918   2.578
 9363SOL    HW228989   1.966   4.984   2.697
 9364SOL     OW28990   1.492   2.577   1.093
 9364SOL    HW128991   1.592   2.584   1.093
 9364SOL    HW228992   1.459   2.571   0.998
 9365SOL     OW28993   3.135   1.109   4.475
 9365SOL    HW128994   3.091   1.048   4.542
 9365SOL    HW228995   3.213   1.154   4.517
 9366SOL     OW28996   4.372   5.938   2.088
 9366SOL    HW128997   4.419   5.910   2.172
 9366SOL    HW228998   4.300   5.872   2.067
 9367SOL     OW28999   6.776   0.851   1.603
 9367SOL    HW129000   6.801   0.756   1.620
 9367SOL    HW229001   6.853   0.897   1.557
 9368SOL     OW29002   2.782   0.447   2.864
 9368SOL    HW129003   2.772   0.385   2.942
 9368SOL    HW229004   2.827   0.399   2.789
 9369SOL     OW29005   3.341   4.994   0.422
 9369SOL    HW129006   3.366   4.965   0.514
 9369SOL    HW229007   3.403   5.067   0.392
 9370SOL     OW29008   4.528   1.808   4.809
 9370SOL    HW129009   4.599   1.869   4.773
 9370SOL    HW229010   4.511   1.735   4.743
 9371SOL     OW29011   4.672   4.734   0.950
 9371SOL    HW129012   4.627   4.702   1.033
 9371SOL    HW229013   4.631   4.821   0.922
 9372SOL     OW29014   4.358   6.081   1.675
 9372SOL    HW129015   4.444   6.054   1.718
 9372SOL    HW229016   4.337   6.017   1.601
 9373SOL     OW29017   6.942   2.891   0.853
 9373SOL    HW129018   6.925   2.878   0.951
 9373SOL    HW229019   7.023   2.839   0.826
 9374SOL     OW29020   0.407   5.816   5.770
 9374SOL    HW129021   0.343   5.893   5.768
 9374SOL    HW229022   0.495   5.845   5.733
 9375SOL     OW29023   0.588   1.210   6.922
 9375SOL    HW129024   0.572   1.169   7.012
 9375SOL    HW229025   0.523   1.284   6.907
 9376SOL     OW29026   2.416   3.957   1.258
 9376SOL    HW129027   2.514   3.956   1.237
 9376SOL    HW229028   2.363   3.966   1.174
 9377SOL     OW29029   1.814   0.867   3.238
 9377SOL    HW129030   1.868   0.864   3.322
 9377SOL    HW229031   1.797   0.962   3.213
 9378SOL     OW29032   3.719   1.219   5.071
 9378SOL    HW129033   3.692   1.150   5.004
 9378SOL    HW229034   3.717   1.310   5.028
 9379SOL     OW29035   5.317   6.883   4.179
 9379SOL    HW129036   5.308   6.795   4.131
 9379SOL    HW229037   5.270   6.878   4.267
 9380SOL     OW29038   5.533   5.494   0.030
 9380SOL    HW129039   5.572   5.406   0.059
 9380SOL    HW229040   5.474   5.530   0.103
 9381SOL     OW29041   5.947   1.522   5.306
 9381SOL    HW129042   6.008   1.491   5.232
 9381SOL    HW229043   5.876   1.454   5.322
 9382SOL     OW29044   2.935   5.185   5.725
 9382SOL    HW129045   2.890   5.098   5.746
 9382SOL    HW229046   2.866   5.258   5.721
 9383SOL     OW29047   5.923   4.001   2.741
 9383SOL    HW129048   5.975   3.949   2.809
 9383SOL    HW229049   5.873   3.938   2.681
 9384SOL     OW29050   3.649   0.560   1.539
 9384SOL    HW129051   3.581   0.537   1.470
 9384SOL    HW229052   3.689   0.475   1.576
 9385SOL     OW29053   4.795   1.524   3.783
 9385SOL    HW129054   4.741   1.470   3.718
 9385SOL    HW229055   4.836   1.602   3.735
 9386SOL     OW29056   4.976   6.182   0.392
 9386SOL    HW129057   5.065   6.211   0.426
 9386SOL    HW229058   4.987   6.103   0.332
 9387SOL     OW29059   2.846   1.567   0.255
 9387SOL    HW129060   2.808   1.572   0.162
 9387SOL    HW229061   2.880   1.657   0.282
 9388SOL     OW29062   2.491   0.071   5.037
 9388SOL    HW129063   2.472   0.145   5.101
 9388SOL    HW229064   2.408   0.020   5.019
 9389SOL     OW29065   2.081   4.499   2.156
 9389SOL    HW129066   2.177   4.495   2.126
 9389SOL    HW229067   2.022   4.469   2.082
 9390SOL     OW29068   5.005   4.936   4.405
 9390SOL    HW129069   5.043   4.914   4.315
 9390SOL    HW229070   5.076   4.975   4.463
 9391SOL     OW29071   1.554   3.817   4.515
 9391SOL    HW129072   1.647   3.847   4.493
 9391SOL    HW229073   1.558   3.727   4.558
 9392SOL     OW29074   5.056   4.707   2.861
 9392SOL    HW129075   5.106   4.634   2.815
 9392SOL    HW229076   5.022   4.674   2.949
 9393SOL     OW29077   1.963   6.277   5.972
 9393SOL    HW129078   2.036   6.240   5.914
 9393SOL    HW229079   1.951   6.218   6.052
 9394SOL     OW29080   3.900   0.694   0.523
 9394SOL    HW129081   3.812   0.663   0.489
 9394SOL    HW229082   3.965   0.699   0.448
 9395SOL     OW29083   1.514   1.445   1.058
 9395SOL    HW129084   1.521   1.526   1.116
 9395SOL    HW229085   1.541   1.469   0.964
 9396SOL     OW29086   0.664   0.316   6.037
 9396SOL    HW129087   0.691   0.408   6.011
 9396SOL    HW229088   0.745   0.258   6.048
 9397SOL     OW29089   3.418   0.992   4.947
 9397SOL    HW129090   3.500   0.995   4.890
 9397SOL    HW229091   3.426   1.058   5.021
 9398SOL     OW29092   0.856   2.118   0.016
 9398SOL    HW129093   0.890   2.165   0.097
 9398SOL    HW229094   0.848   2.020   0.035
 9399SOL     OW29095   1.102   2.395   4.628
 9399SOL    HW129096   1.013   2.438   4.613
 9399SOL    HW229097   1.174   2.464   4.628
 9400SOL     OW29098   5.806   1.426   1.101
 9400SOL    HW129099   5.764   1.501   1.152
 9400SOL    HW229100   5.823   1.455   1.007
 9401SOL     OW29101   0.068   2.200   3.762
 9401SOL    HW129102   0.167   2.188   3.764
 9401SOL    HW229103   0.033   2.173   3.672
 9402SOL     OW29104   2.475   0.020   4.345
 9402SOL    HW129105   2.540   6.970   4.347
 9402SOL    HW229106   2.412   0.012   4.422
 9403SOL     OW29107   5.282   2.058   1.435
 9403SOL    HW129108   5.340   2.139   1.441
 9403SOL    HW229109   5.191   2.079   1.471
 9404SOL     OW29110   2.296   2.196   1.203
 9404SOL    HW129111   2.294   2.295   1.215
 9404SOL    HW229112   2.264   2.173   1.111
 9405SOL     OW29113   6.118   5.767   5.493
 9405SOL    HW129114   6.075   5.705   5.559
 9405SOL    HW229115   6.188   5.717   5.442
 9406SOL     OW29116   0.923   2.200   0.268
 9406SOL    HW129117   0.835   2.168   0.304
 9406SOL    HW229118   0.996   2.177   0.331
 9407SOL     OW29119   2.336   5.066   4.807
 9407SOL    HW129120   2.346   5.101   4.714
 9407SOL    HW229121   2.292   4.976   4.805
 9408SOL     OW29122   6.487   4.029   4.640
 9408SOL    HW129123   6.446   4.100   4.584
 9408SOL    HW229124   6.425   3.951   4.646
 9409SOL     OW29125   6.243   5.260   1.744
 9409SOL    HW129126   6.168   5.203   1.713
 9409SOL    HW229127   6.244   5.346   1.692
 9410SOL     OW29128   3.918   0.719   0.798
 9410SOL    HW129129   3.933   0.713   0.699
 9410SOL    HW229130   4.002   0.693   0.846
 9411SOL     OW29131   3.231   3.659   3.375
 9411SOL    HW129132   3.242   3.753   3.409
 9411SOL    HW229133   3.300   3.641   3.305
 9412SOL     OW29134   4.648   6.861   1.749
 9412SOL    HW129135   4.610   6.770   1.764
 9412SOL    HW229136   4.583   6.916   1.696
 9413SOL     OW29137   4.813   3.990   3.086
 9413SOL    HW129138   4.856   3.909   3.045
 9413SOL    HW229139   4.715   3.986   3.069
 9414SOL     OW29140   2.291   2.441   2.962
 9414SOL    HW129141   2.359   2.506   2.995
 9414SOL    HW229142   2.329   2.388   2.886
 9415SOL     OW29143   5.586   0.602   1.886
 9415SOL    HW129144   5.610   0.634   1.978
 9415SOL    HW229145   5.497   0.555   1.890
 9416SOL     OW29146   5.553   5.492   5.695
 9416SOL    HW129147   5.575   5.583   5.730
 9416SOL    HW229148   5.469   5.459   5.740
 9417SOL     OW29149   3.174   5.508   2.849
 9417SOL    HW129150   3.141   5.568   2.922
 9417SOL    HW229151   3.152   5.547   2.760
 9418SOL     OW29152   3.036   1.826   4.964
 9418SOL    HW129153   2.988   1.740   4.946
 9418SOL    HW229154   3.047   1.876   4.878
 9419SOL     OW29155   2.002   2.747   6.442
 9419SOL    HW129156   1.946   2.686   6.385
 9419SOL    HW229157   2.067   2.693   6.495
 9420SOL     OW29158   5.427   4.476   5.653
 9420SOL    HW129159   5.387   4.433   5.734
 9420SOL    HW229160   5.517   4.514   5.676
 9421SOL     OW29161   3.791   6.547   6.944
 9421SOL    HW129162   3.804   6.454   6.908
 9421SOL    HW229163   3.783   6.611   6.867
 9422SOL     OW29164   2.589   6.368   5.732
 9422SOL    HW129165   2.630   6.404   5.648
 9422SOL    HW229166   2.535   6.287   5.711
 9423SOL     OW29167   4.589   4.632   2.359
 9423SOL    HW129168   4.503   4.667   2.324
 9423SOL    HW229169   4.577   4.538   2.392
 9424SOL     OW29170   6.511   0.390   4.046
 9424SOL    HW129171   6.576   0.418   4.117
 9424SOL    HW229172   6.459   0.310   4.077
 9425SOL     OW29173   0.098   3.934   0.986
 9425SOL    HW129174   0.122   3.939   0.889
 9425SOL    HW229175   0.007   3.972   1.000
 9426SOL     OW29176   5.200   3.086   6.006
 9426SOL    HW129177   5.245   3.031   5.935
 9426SOL    HW229178   5.224   3.049   6.096
 9427SOL     OW29179   4.782   4.086   2.757
 9427SOL    HW129180   4.736   4.174   2.739
 9427SOL    HW229181   4.831   4.057   2.675
 9428SOL     OW29182   1.083   5.998   5.658
 9428SOL    HW129183   1.105   6.090   5.692
 9428SOL    HW229184   1.061   5.939   5.736
 9429SOL     OW29185   2.457   2.433   4.112
 9429SOL    HW129186   2.543   2.400   4.074
 9429SOL    HW229187   2.391   2.358   4.116
 9430SOL     OW29188   1.712   1.726   3.858
 9430SOL    HW129189   1.731   1.628   3.854
 9430SOL    HW229190   1.732   1.767   3.769
 9431SOL     OW29191   0.768   4.559   5.668
 9431SOL    HW129192   0.754   4.463   5.643
 9431SOL    HW229193   0.691   4.614   5.633
 9432SOL     OW29194   6.655   1.039   4.409
 9432SOL    HW129195   6.672   1.104   4.335
 9432SOL    HW229196   6.660   1.086   4.497
 9433SOL     OW29197   4.582   5.098   1.783
 9433SOL    HW129198   4.645   5.020   1.784
 9433SOL    HW229199   4.588   5.147   1.870
 9434SOL     OW29200   4.072   5.649   3.795
 9434SOL    HW129201   3.976   5.662   3.770
 9434SOL    HW229202   4.130   5.673   3.718
 9435SOL     OW29203   6.293   3.831   1.053
 9435SOL    HW129204   6.384   3.790   1.058
 9435SOL    HW229205   6.224   3.759   1.049
 9436SOL     OW29206   2.921   0.804   3.301
 9436SOL    HW129207   2.971   0.868   3.243
 9436SOL    HW229208   2.980   0.769   3.373
 9437SOL     OW29209   5.448   0.770   4.891
 9437SOL    HW129210   5.450   0.733   4.984
 9437SOL    HW229211   5.367   0.736   4.843
 9438SOL     OW29212   4.847   0.312   2.577
 9438SOL    HW129213   4.891   0.233   2.619
 9438SOL    HW229214   4.748   0.305   2.589
 9439SOL     OW29215   2.004   3.811   1.033
 9439SOL    HW129216   1.966   3.781   0.946
 9439SOL    HW229217   2.016   3.910   1.032
 9440SOL     OW29218   1.441   5.316   3.970
 9440SOL    HW129219   1.346   5.348   3.979
 9440SOL    HW229220   1.500   5.373   4.027
 9441SOL     OW29221   0.376   6.703   4.350
 9441SOL    HW129222   0.467   6.664   4.334
 9441SOL    HW229223   0.350   6.690   4.446
 9442SOL     OW29224   5.810   3.410   0.991
 9442SOL    HW129225   5.802   3.502   1.029
 9442SOL    HW229226   5.776   3.343   1.057
 9443SOL     OW29227   2.081   4.357   1.687
 9443SOL    HW129228   2.131   4.302   1.753
 9443SOL    HW229229   2.137   4.434   1.658
 9444SOL     OW29230   2.078   4.834   6.578
 9444SOL    HW129231   2.017   4.906   6.545
 9444SOL    HW229232   2.063   4.750   6.525
 9445SOL     OW29233   0.296   1.485   4.224
 9445SOL    HW129234   0.227   1.553   4.200
 9445SOL    HW229235   0.296   1.411   4.156
 9446SOL     OW29236   6.190   3.802   4.992
 9446SOL    HW129237   6.129   3.747   4.934
 9446SOL    HW229238   6.154   3.804   5.086
 9447SOL     OW29239   4.916   4.905   2.149
 9447SOL    HW129240   4.864   4.860   2.222
 9447SOL    HW229241   4.920   4.844   2.069
 9448SOL     OW29242   6.057   2.408   6.710
 9448SOL    HW129243   6.152   2.378   6.702
 9448SOL    HW229244   6.053   2.494   6.761
 9449SOL     OW29245   5.366   6.917   2.122
 9449SOL    HW129246   5.455   6.913   2.076
 9449SOL    HW229247   5.378   6.904   2.220
 9450SOL     OW29248   1.171   0.180   3.302
 9450SOL    HW129249   1.241   0.173   3.373
 9450SOL    HW229250   1.097   0.239   3.334
 9451SOL     OW29251   3.825   5.197   0.447
 9451SOL    HW129252   3.862   5.124   0.389
 9451SOL    HW229253   3.727   5.208   0.429
 9452SOL     OW29254   6.323   4.092   6.526
 9452SOL    HW129255   6.413   4.053   6.543
 9452SOL    HW229256   6.294   4.072   6.433
 9453SOL     OW29257   5.334   4.688   1.740
 9453SOL    HW129258   5.239   4.702   1.771
 9453SOL    HW229259   5.374   4.612   1.791
 9454SOL     OW29260   6.535   4.965   0.692
 9454SOL    HW129261   6.510   5.030   0.763
 9454SOL    HW229262   6.460   4.955   0.626
 9455SOL     OW29263   4.432   0.754   1.438
 9455SOL    HW129264   4.394   0.738   1.528
 9455SOL    HW229265   4.359   0.757   1.370
 9456SOL     OW29266   6.362   2.187   3.135
 9456SOL    HW129267   6.383   2.153   3.043
 9456SOL    HW229268   6.446   2.195   3.188
 9457SOL     OW29269   6.608   6.269   4.496
 9457SOL    HW129270   6.589   6.352   4.549
 9457SOL    HW229271   6.536   6.255   4.429
 9458SOL     OW29272   5.976   4.243   0.272
 9458SOL    HW129273   5.884   4.223   0.240
 9458SOL    HW229274   6.008   4.329   0.230
 9459SOL     OW29275   4.681   4.205   4.868
 9459SOL    HW129276   4.614   4.136   4.896
 9459SOL    HW229277   4.641   4.296   4.875
 9460SOL     OW29278   1.080   2.997   1.994
 9460SOL    HW129279   1.020   2.919   2.012
 9460SOL    HW229280   1.173   2.965   1.979
 9461SOL     OW29281   1.921   1.317   1.881
 9461SOL    HW129282   1.950   1.236   1.933
 9461SOL    HW229283   1.895   1.289   1.789
 9462SOL     OW29284   6.702   1.144   5.426
 9462SOL    HW129285   6.700   1.190   5.338
 9462SOL    HW229286   6.734   1.050   5.413
 9463SOL     OW29287   6.666   3.731   0.196
 9463SOL    HW129288   6.589   3.781   0.236
 9463SOL    HW229289   6.632   3.647   0.154
 9464SOL     OW29290   1.252   0.514   1.473
 9464SOL    HW129291   1.218   0.576   1.402
 9464SOL    HW229292   1.206   0.535   1.560
 9465SOL     OW29293   6.976   5.924   0.394
 9465SOL    HW129294   6.920   5.971   0.462
 9465SOL    HW229295   6.932   5.839   0.366
 9466SOL     OW29296   4.475   3.617   5.308
 9466SOL    HW129297   4.494   3.571   5.394
 9466SOL    HW229298   4.553   3.607   5.246
 9467SOL     OW29299   1.041   3.575   0.978
 9467SOL    HW129300   1.082   3.516   1.048
 9467SOL    HW229301   1.068   3.670   0.994
 9468SOL     OW29302   5.834   1.375   0.785
 9468SOL    HW129303   5.740   1.343   0.794
 9468SOL    HW229304   5.894   1.314   0.837
 9469SOL     OW29305   6.718   6.956   1.386
 9469SOL    HW129306   6.635   7.009   1.400
 9469SOL    HW229307   6.718   6.919   1.293
 9470SOL     OW29308   3.734   3.076   0.512
 9470SOL    HW129309   3.638   3.061   0.536
 9470SOL    HW229310   3.787   2.994   0.532
 9471SOL     OW29311   6.519   2.534   5.212
 9471SOL    HW129312   6.447   2.517   5.144
 9471SOL    HW229313   6.524   2.632   5.231
 9472SOL     OW29314   1.723   3.652   5.414
 9472SOL    HW129315   1.653   3.685   5.478
 9472SOL    HW229316   1.813   3.660   5.456
 9473SOL     OW29317   2.783   3.195   1.064
 9473SOL    HW129318   2.838   3.266   1.021
 9473SOL    HW229319   2.839   3.144   1.129
 9474SOL     OW29320   5.435   4.272   0.976
 9474SOL    HW129321   5.452   4.292   1.073
 9474SOL    HW229322   5.495   4.198   0.946
 9475SOL     OW29323   4.880   3.972   5.837
 9475SOL    HW129324   4.867   3.974   5.738
 9475SOL    HW229325   4.860   3.880   5.871
 9476SOL     OW29326   4.421   3.899   1.165
 9476SOL    HW129327   4.412   3.996   1.141
 9476SOL    HW229328   4.460   3.891   1.256
 9477SOL     OW29329   2.581   4.499   1.108
 9477SOL    HW129330   2.487   4.512   1.077
 9477SOL    HW229331   2.609   4.575   1.166
 9478SOL     OW29332   5.662   4.037   6.486
 9478SOL    HW129333   5.724   4.071   6.556
 9478SOL    HW229334   5.568   4.064   6.508
 9479SOL     OW29335   4.530   0.888   2.284
 9479SOL    HW129336   4.616   0.874   2.335
 9479SOL    HW229337   4.526   0.983   2.252
 9480SOL     OW29338   5.781   0.824   0.269
 9480SOL    HW129339   5.875   0.848   0.294
 9480SOL    HW229340   5.764   0.848   0.174
 9481SOL     OW29341   4.555   0.575   3.164
 9481SOL    HW129342   4.541   0.653   3.225
 9481SOL    HW229343   4.467   0.546   3.127
 9482SOL     OW29344   6.230   5.477   5.925
 9482SOL    HW129345   6.238   5.382   5.894
 9482SOL    HW229346   6.208   5.479   6.022
 9483SOL     OW29347   6.183   6.419   6.880
 9483SOL    HW129348   6.234   6.421   6.966
 9483SOL    HW229349   6.159   6.513   6.854
 9484SOL     OW29350   3.057   5.803   4.692
 9484SOL    HW129351   2.958   5.790   4.693
 9484SOL    HW229352   3.102   5.715   4.706
 9485SOL     OW29353   0.142   1.636   5.645
 9485SOL    HW129354   0.195   1.596   5.720
 9485SOL    HW229355   0.056   1.672   5.681
 9486SOL     OW29356   6.284   5.437   6.924
 9486SOL    HW129357   6.335   5.390   6.996
 9486SOL    HW229358   6.316   5.531   6.916
 9487SOL     OW29359   3.554   3.657   3.730
 9487SOL    HW129360   3.473   3.622   3.776
 9487SOL    HW229361   3.531   3.686   3.638
 9488SOL     OW29362   1.667   0.774   1.179
 9488SOL    HW129363   1.706   0.804   1.266
 9488SOL    HW229364   1.739   0.740   1.119
 9489SOL     OW29365   5.737   3.916   0.233
 9489SOL    HW129366   5.733   4.015   0.234
 9489SOL    HW229367   5.645   3.878   0.227
 9490SOL     OW29368   5.770   3.678   5.370
 9490SOL    HW129369   5.710   3.755   5.392
 9490SOL    HW229370   5.752   3.647   5.276
 9491SOL     OW29371   5.767   0.263   2.637
 9491SOL    HW129372   5.703   0.340   2.633
 9491SOL    HW229373   5.859   0.298   2.657
 9492SOL     OW29374   4.998   2.652   3.645
 9492SOL    HW129375   5.060   2.610   3.711
 9492SOL    HW229376   5.028   2.744   3.624
 9493SOL     OW29377   3.751   6.145   1.590
 9493SOL    HW129378   3.710   6.234   1.605
 9493SOL    HW229379   3.680   6.078   1.570
 9494SOL     OW29380   5.508   2.438   1.916
 9494SOL    HW129381   5.450   2.502   1.967
 9494SOL    HW229382   5.451   2.374   1.865
 9495SOL     OW29383   5.464   2.991   1.081
 9495SOL    HW129384   5.385   3.002   1.022
 9495SOL    HW229385   5.545   2.972   1.026
 9496SOL     OW29386   5.712   2.745   1.171
 9496SOL    HW129387   5.656   2.784   1.244
 9496SOL    HW229388   5.703   2.800   1.089
 9497SOL     OW29389   4.403   5.037   4.985
 9497SOL    HW129390   4.472   5.104   5.009
 9497SOL    HW229391   4.326   5.082   4.939
 9498SOL     OW29392   0.592   5.686   4.793
 9498SOL    HW129393   0.597   5.716   4.888
 9498SOL    HW229394   0.591   5.586   4.789
 9499SOL     OW29395   5.717   5.913   4.322
 9499SOL    HW129396   5.630   5.958   4.341
 9499SOL    HW229397   5.791   5.979   4.331
 9500SOL     OW29398   2.972   1.548   0.795
 9500SOL    HW129399   2.981   1.598   0.710
 9500SOL    HW229400   2.924   1.462   0.778
 9501SOL     OW29401   2.118   4.083   5.217
 9501SOL    HW129402   2.120   4.119   5.310
 9501SOL    HW229403   2.211   4.062   5.187
 9502SOL     OW29404   5.477   4.697   3.776
 9502SOL    HW129405   5.554   4.645   3.738
 9502SOL    HW229406   5.419   4.731   3.702
 9503SOL     OW29407   6.290   0.822   0.196
 9503SOL    HW129408   6.327   0.812   0.103
 9503SOL    HW229409   6.253   0.734   0.226
 9504SOL     OW29410   6.316   5.510   1.644
 9504SOL    HW129411   6.353   5.551   1.727
 9504SOL    HW229412   6.251   5.573   1.602
 9505SOL     OW29413   4.405   4.401   6.345
 9505SOL    HW129414   4.332   4.451   6.392
 9505SOL    HW229415   4.484   4.460   6.333
 9506SOL     OW29416   2.634   0.917   0.925
 9506SOL    HW129417   2.732   0.905   0.912
 9506SOL    HW229418   2.585   0.874   0.849
 9507SOL     OW29419   6.085   0.052   1.901
 9507SOL    HW129420   6.024   0.017   1.830
 9507SOL    HW229421   6.139   0.128   1.863
 9508SOL     OW29422   4.268   1.237   2.704
 9508SOL    HW129423   4.240   1.331   2.722
 9508SOL    HW229424   4.233   1.177   2.776
 9509SOL     OW29425   5.377   1.224   3.655
 9509SOL    HW129426   5.338   1.134   3.636
 9509SOL    HW229427   5.471   1.227   3.622
 9510SOL     OW29428   1.622   2.689   3.013
 9510SOL    HW129429   1.648   2.613   2.953
 9510SOL    HW229430   1.564   2.753   2.962
 9511SOL     OW29431   0.649   2.043   1.221
 9511SOL    HW129432   0.656   1.989   1.305
 9511SOL    HW229433   0.715   2.008   1.154
 9512SOL     OW29434   6.516   1.812   1.750
 9512SOL    HW129435   6.605   1.832   1.711
 9512SOL    HW229436   6.527   1.753   1.831
 9513SOL     OW29437   4.499   3.903   5.305
 9513SOL    HW129438   4.487   3.804   5.296
 9513SOL    HW229439   4.411   3.945   5.327
 9514SOL     OW29440   3.713   2.627   0.347
 9514SOL    HW129441   3.670   2.694   0.407
 9514SOL    HW229442   3.810   2.619   0.369
 9515SOL     OW29443   0.808   5.332   3.753
 9515SOL    HW129444   0.779   5.426   3.766
 9515SOL    HW229445   0.800   5.282   3.840
 9516SOL     OW29446   7.013   4.103   5.915
 9516SOL    HW129447   6.966   4.192   5.913
 9516SOL    HW229448   0.022   4.082   5.823
 9517SOL     OW29449   0.182   6.640   1.058
 9517SOL    HW129450   0.095   6.610   1.097
 9517SOL    HW229451   0.178   6.631   0.958
 9518SOL     OW29452   1.447   0.681   1.267
 9518SOL    HW129453   1.522   0.738   1.232
 9518SOL    HW229454   1.405   0.631   1.191
 9519SOL     OW29455   0.859   2.594   5.437
 9519SOL    HW129456   0.818   2.678   5.399
 9519SOL    HW229457   0.913   2.617   5.517
 9520SOL     OW29458   3.800   6.772   1.611
 9520SOL    HW129459   3.813   6.781   1.709
 9520SOL    HW229460   3.818   6.677   1.583
 9521SOL     OW29461   5.020   5.209   3.601
 9521SOL    HW129462   5.086   5.264   3.651
 9521SOL    HW229463   5.037   5.112   3.618
 9522SOL     OW29464   3.145   5.026   6.856
 9522SOL    HW129465   3.102   4.941   6.886
 9522SOL    HW229466   3.180   5.015   6.763
 9523SOL     OW29467   2.619   6.736   5.420
 9523SOL    HW129468   2.580   6.767   5.507
 9523SOL    HW229469   2.561   6.769   5.345
 9524SOL     OW29470   4.860   2.492   0.957
 9524SOL    HW129471   4.825   2.559   1.022
 9524SOL    HW229472   4.786   2.433   0.926
 9525SOL     OW29473   3.806   0.280   4.492
 9525SOL    HW129474   3.850   0.190   4.502
 9525SOL    HW229475   3.710   0.267   4.469
 9526SOL     OW29476   4.947   5.814   1.560
 9526SOL    HW129477   5.045   5.832   1.571
 9526SOL    HW229478   4.923   5.810   1.463
 9527SOL     OW29479   6.893   2.249   0.966
 9527SOL    HW129480   6.907   2.337   1.011
 9527SOL    HW229481   6.802   2.248   0.923
 9528SOL     OW29482   6.892   1.288   1.533
 9528SOL    HW129483   6.923   1.200   1.568
 9528SOL    HW229484   6.792   1.291   1.534
 9529SOL     OW29485   1.236   3.520   4.903
 9529SOL    HW129486   1.226   3.509   5.002
 9529SOL    HW229487   1.282   3.439   4.866
 9530SOL     OW29488   1.501   1.897   4.073
 9530SOL    HW129489   1.417   1.894   4.019
 9530SOL    HW229490   1.555   1.816   4.054
 9531SOL     OW29491   2.858   6.479   3.539
 9531SOL    HW129492   2.776   6.423   3.541
 9531SOL    HW229493   2.930   6.434   3.592
 9532SOL     OW29494   3.338   1.348   1.864
 9532SOL    HW129495   3.329   1.444   1.891
 9532SOL    HW229496   3.283   1.291   1.925
 9533SOL     OW29497   0.681   1.571   5.205
 9533SOL    HW129498   0.596   1.539   5.246
 9533SOL    HW229499   0.756   1.511   5.230
 9534SOL     OW29500   5.794   1.689   4.334
 9534SOL    HW129501   5.894   1.701   4.331
 9534SOL    HW229502   5.772   1.605   4.382
 9535SOL     OW29503   3.229   2.112   4.550
 9535SOL    HW129504   3.223   2.184   4.480
 9535SOL    HW229505   3.184   2.142   4.633
 9536SOL     OW29506   2.629   6.254   6.511
 9536SOL    HW129507   2.582   6.325   6.564
 9536SOL    HW229508   2.703   6.296   6.459
 9537SOL     OW29509   2.751   6.686   0.697
 9537SOL    HW129510   2.651   6.679   0.698
 9537SOL    HW229511   2.780   6.764   0.753
 9538SOL     OW29512   6.124   4.061   3.185
 9538SOL    HW129513   6.155   3.972   3.217
 9538SOL    HW229514   6.028   4.074   3.211
 9539SOL     OW29515   0.290   3.961   6.864
 9539SOL    HW129516   0.240   3.928   6.784
 9539SOL    HW229517   0.339   3.885   6.906
 9540SOL     OW29518   5.260   3.217   5.682
 9540SOL    HW129519   5.295   3.138   5.731
 9540SOL    HW229520   5.170   3.242   5.720
 9541SOL     OW29521   6.972   1.848   3.448
 9541SOL    HW129522   6.887   1.818   3.490
 9541SOL    HW229523   6.969   1.832   3.349
 9542SOL     OW29524   4.679   4.577   4.384
 9542SOL    HW129525   4.599   4.582   4.445
 9542SOL    HW229526   4.650   4.544   4.294
 9543SOL     OW29527   5.172   2.516   1.979
 9543SOL    HW129528   5.089   2.549   1.933
 9543SOL    HW229529   5.194   2.578   2.054
 9544SOL     OW29530   4.499   1.169   1.389
 9544SOL    HW129531   4.465   1.257   1.357
 9544SOL    HW229532   4.424   1.104   1.395
 9545SOL     OW29533   1.336   0.118   4.501
 9545SOL    HW129534   1.252   0.112   4.449
 9545SOL    HW229535   1.376   0.027   4.511
 9546SOL     OW29536   2.317   4.763   1.935
 9546SOL    HW129537   2.226   4.802   1.919
 9546SOL    HW229538   2.386   4.827   1.902
 9547SOL     OW29539   5.806   5.387   3.243
 9547SOL    HW129540   5.822   5.444   3.323
 9547SOL    HW229541   5.725   5.331   3.257
 9548SOL     OW29542   5.346   0.245   2.608
 9548SOL    HW129543   5.325   0.338   2.641
 9548SOL    HW229544   5.264   0.205   2.567
 9549SOL     OW29545   2.438   5.786   0.304
 9549SOL    HW129546   2.514   5.850   0.297
 9549SOL    HW229547   2.427   5.757   0.400
 9550SOL     OW29548   1.812   1.183   0.335
 9550SOL    HW129549   1.806   1.170   0.434
 9550SOL    HW229550   1.813   1.093   0.290
 9551SOL     OW29551   1.726   5.360   4.934
 9551SOL    HW129552   1.750   5.446   4.889
 9551SOL    HW229553   1.749   5.284   4.874
 9552SOL     OW29554   0.455   5.082   3.688
 9552SOL    HW129555   0.447   5.020   3.766
 9552SOL    HW229556   0.458   5.030   3.603
 9553SOL     OW29557   5.476   4.796   6.355
 9553SOL    HW129558   5.560   4.747   6.330
 9553SOL    HW229559   5.497   4.867   6.422
 9554SOL     OW29560   1.933   1.676   1.305
 9554SOL    HW129561   1.978   1.685   1.394
 9554SOL    HW229562   1.953   1.587   1.266
 9555SOL     OW29563   0.257   2.784   6.249
 9555SOL    HW129564   0.207   2.744   6.172
 9555SOL    HW229565   0.308   2.712   6.296
 9556SOL     OW29566   6.829   1.077   1.289
 9556SOL    HW129567   6.867   1.031   1.370
 9556SOL    HW229568   6.840   1.176   1.300
 9557SOL     OW29569   5.050   1.530   2.021
 9557SOL    HW129570   5.045   1.471   2.101
 9557SOL    HW229571   5.103   1.612   2.043
 9558SOL     OW29572   6.399   4.062   1.335
 9558SOL    HW129573   6.379   4.149   1.289
 9558SOL    HW229574   6.473   4.016   1.287
 9559SOL     OW29575   0.405   4.066   2.584
 9559SOL    HW129576   0.341   4.119   2.640
 9559SOL    HW229577   0.389   4.085   2.488
 9560SOL     OW29578   4.007   2.293   5.265
 9560SOL    HW129579   4.084   2.247   5.309
 9560SOL    HW229580   4.038   2.334   5.180
 9561SOL     OW29581   3.176   6.440   5.983
 9561SOL    HW129582   3.217   6.530   5.999
 9561SOL    HW229583   3.120   6.443   5.900
 9562SOL     OW29584   5.900   5.143   4.415
 9562SOL    HW129585   5.895   5.160   4.513
 9562SOL    HW229586   5.946   5.220   4.370
 9563SOL     OW29587   0.590   6.791   6.780
 9563SOL    HW129588   0.683   6.826   6.794
 9563SOL    HW229589   0.526   6.848   6.831
 9564SOL     OW29590   1.499   0.711   6.102
 9564SOL    HW129591   1.542   0.800   6.085
 9564SOL    HW229592   1.570   0.643   6.123
 9565SOL     OW29593   3.463   5.917   4.712
 9565SOL    HW129594   3.398   5.933   4.786
 9565SOL    HW229595   3.448   5.825   4.674
 9566SOL     OW29596   3.276   4.706   6.110
 9566SOL    HW129597   3.276   4.756   6.024
 9566SOL    HW229598   3.185   4.667   6.125
 9567SOL     OW29599   6.091   5.065   4.882
 9567SOL    HW129600   6.154   5.089   4.956
 9567SOL    HW229601   6.006   5.116   4.893
 9568SOL     OW29602   5.161   3.986   5.972
 9568SOL    HW129603   5.118   4.063   5.924
 9568SOL    HW229604   5.253   4.013   6.001
 9569SOL     OW29605   5.521   0.007   1.668
 9569SOL    HW129606   5.544   6.941   1.633
 9569SOL    HW229607   5.509   0.070   1.591
 9570SOL     OW29608   1.249   1.546   6.901
 9570SOL    HW129609   1.236   1.558   7.000
 9570SOL    HW229610   1.329   1.489   6.885
 9571SOL     OW29611   2.653   2.305   0.874
 9571SOL    HW129612   2.581   2.357   0.919
 9571SOL    HW229613   2.617   2.218   0.842
 9572SOL     OW29614   0.207   3.721   1.104
 9572SOL    HW129615   0.159   3.788   1.048
 9572SOL    HW229616   0.303   3.748   1.113
 9573SOL     OW29617   4.969   1.487   3.138
 9573SOL    HW129618   4.964   1.484   3.039
 9573SOL    HW229619   5.037   1.554   3.167
 9574SOL     OW29620   2.655   2.439   3.427
 9574SOL    HW129621   2.624   2.451   3.333
 9574SOL    HW229622   2.588   2.478   3.490
 9575SOL     OW29623   4.119   1.561   2.934
 9575SOL    HW129624   4.193   1.495   2.946
 9575SOL    HW229625   4.041   1.535   2.991
 9576SOL     OW29626   3.982   3.160   5.486
 9576SOL    HW129627   3.995   3.251   5.447
 9576SOL    HW229628   4.070   3.114   5.495
 9577SOL     OW29629   0.873   6.009   3.612
 9577SOL    HW129630   0.784   6.048   3.589
 9577SOL    HW229631   0.863   5.945   3.688
 9578SOL     OW29632   6.873   4.069   1.521
 9578SOL    HW129633   6.891   3.980   1.564
 9578SOL    HW229634   6.884   4.061   1.422
 9579SOL     OW29635   1.948   5.181   2.975
 9579SOL    HW129636   1.873   5.137   3.024
 9579SOL    HW229637   2.036   5.144   3.006
 9580SOL     OW29638   4.139   3.544   5.657
 9580SOL    HW129639   4.212   3.612   5.672
 9580SOL    HW229640   4.071   3.553   5.729
 9581SOL     OW29641   0.999   5.596   5.423
 9581SOL    HW129642   0.943   5.522   5.462
 9581SOL    HW229643   1.070   5.622   5.487
 9582SOL     OW29644   4.691   5.206   3.211
 9582SOL    HW129645   4.644   5.294   3.200
 9582SOL    HW229646   4.776   5.221   3.262
 9583SOL     OW29647   2.025   4.627   1.598
 9583SOL    HW129648   1.936   4.658   1.630
 9583SOL    HW229649   2.093   4.637   1.671
 9584SOL     OW29650   5.039   4.927   0.139
 9584SOL    HW129651   5.130   4.939   0.179
 9584SOL    HW229652   5.047   4.921   0.039
 9585SOL     OW29653   0.071   1.054   2.973
 9585SOL    HW129654   0.129   1.122   3.018
 9585SOL    HW229655   0.028   0.996   3.043
 9586SOL     OW29656   5.205   3.594   2.665
 9586SOL    HW129657   5.263   3.542   2.603
 9586SOL    HW229658   5.169   3.533   2.736
 9587SOL     OW29659   4.937   6.190   1.478
 9587SOL    HW129660   4.864   6.146   1.426
 9587SOL    HW229661   4.903   6.213   1.569
 9588SOL     OW29662   6.385   1.126   3.244
 9588SOL    HW129663   6.287   1.109   3.230
 9588SOL    HW229664   6.416   1.072   3.323
 9589SOL     OW29665   3.058   1.976   4.728
 9589SOL    HW129666   3.036   1.950   4.634
 9589SOL    HW229667   3.001   2.053   4.755
 9590SOL     OW29668   0.962   4.817   4.654
 9590SOL    HW129669   0.934   4.912   4.664
 9590SOL    HW229670   0.884   4.757   4.675
 9591SOL     OW29671   1.334   4.309   2.671
 9591SOL    HW129672   1.369   4.385   2.725
 9591SOL    HW229673   1.235   4.313   2.668
 9592SOL     OW29674   4.689   5.585   1.138
 9592SOL    HW129675   4.775   5.611   1.182
 9592SOL    HW229676   4.648   5.509   1.188
 9593SOL     OW29677   2.447   1.925   2.868
 9593SOL    HW129678   2.535   1.964   2.841
 9593SOL    HW229679   2.436   1.835   2.825
 9594SOL     OW29680   6.038   0.182   1.037
 9594SOL    HW129681   6.054   0.148   0.945
 9594SOL    HW229682   5.960   0.245   1.036
 9595SOL     OW29683   0.889   5.735   4.897
 9595SOL    HW129684   0.846   5.720   4.808
 9595SOL    HW229685   0.934   5.651   4.927
 9596SOL     OW29686   5.212   5.746   1.782
 9596SOL    HW129687   5.260   5.658   1.788
 9596SOL    HW229688   5.195   5.780   1.875
 9597SOL     OW29689   2.729   4.375   1.393
 9597SOL    HW129690   2.809   4.405   1.341
 9597SOL    HW229691   2.657   4.445   1.387
 9598SOL     OW29692   0.382   6.147   5.671
 9598SOL    HW129693   0.304   6.152   5.735
 9598SOL    HW229694   0.466   6.173   5.720
 9599SOL     OW29695   3.842   1.918   5.000
 9599SOL    HW129696   3.746   1.928   4.973
 9599SOL    HW229697   3.900   1.929   4.920
 9600SOL     OW29698   1.531   6.659   6.623
 9600SOL    HW129699   1.555   6.727   6.554
 9600SOL    HW229700   1.455   6.603   6.590
 9601SOL     OW29701   0.671   6.535   5.270
 9601SOL    HW129702   0.657   6.486   5.356
 9601SOL    HW229703   0.661   6.470   5.194
 9602SOL     OW29704   1.533   5.305   6.282
 9602SOL    HW129705   1.554   5.299   6.380
 9602SOL    HW229706   1.478   5.386   6.265
 9603SOL     OW29707   1.021   4.736   2.379
 9603SOL    HW129708   1.115   4.700   2.381
 9603SOL    HW229709   1.020   4.824   2.332
 9604SOL     OW29710   0.064   0.134   6.687
 9604SOL    HW129711   6.991   0.147   6.701
 9604SOL    HW229712   0.088   0.161   6.593
 9605SOL     OW29713   2.636   4.663   0.806
 9605SOL    HW129714   2.676   4.678   0.897
 9605SOL    HW229715   2.539   4.687   0.808
 9606SOL     OW29716   0.271   0.279   5.148
 9606SOL    HW129717   0.324   0.259   5.230
 9606SOL    HW229718   0.332   0.278   5.068
 9607SOL     OW29719   0.351   2.028   2.509
 9607SOL    HW129720   0.309   2.109   2.552
 9607SOL    HW229721   0.412   1.984   2.575
 9608SOL     OW29722   6.543   0.734   2.166
 9608SOL    HW129723   6.542   0.644   2.209
 9608SOL    HW229724   6.451   0.756   2.132
 9609SOL     OW29725   1.537   2.164   3.484
 9609SOL    HW129726   1.530   2.228   3.560
 9609SOL    HW229727   1.613   2.191   3.425
 9610SOL     OW29728   3.674   0.810   5.249
 9610SOL    HW129729   3.576   0.795   5.264
 9610SOL    HW229730   3.699   0.902   5.280
 9611SOL     OW29731   5.314   5.899   0.760
 9611SOL    HW129732   5.257   5.884   0.841
 9611SOL    HW229733   5.275   5.850   0.683
 9612SOL     OW29734   5.389   3.613   3.654
 9612SOL    HW129735   5.309   3.662   3.620
 9612SOL    HW229736   5.364   3.518   3.672
 9613SOL     OW29737   5.663   1.168   4.818
 9613SOL    HW129738   5.737   1.159   4.751
 9613SOL    HW229739   5.581   1.124   4.783
 9614SOL     OW29740   2.606   2.424   0.631
 9614SOL    HW129741   2.624   2.395   0.725
 9614SOL    HW229742   2.649   2.513   0.616
 9615SOL     OW29743   0.611   5.701   3.705
 9615SOL    HW129744   0.539   5.640   3.671
 9615SOL    HW229745   0.568   5.776   3.756
 9616SOL     OW29746   1.005   2.783   0.908
 9616SOL    HW129747   0.906   2.777   0.918
 9616SOL    HW229748   1.028   2.857   0.845
 9617SOL     OW29749   0.595   2.915   2.516
 9617SOL    HW129750   0.591   2.993   2.578
 9617SOL    HW229751   0.531   2.931   2.440
 9618SOL     OW29752   4.728   3.729   1.746
 9618SOL    HW129753   4.635   3.760   1.724
 9618SOL    HW229754   4.791   3.806   1.739
 9619SOL     OW29755   0.325   6.857   1.162
 9619SOL    HW129756   0.419   6.839   1.137
 9619SOL    HW229757   0.271   6.773   1.157
 9620SOL     OW29758   3.714   1.392   6.869
 9620SOL    HW129759   3.637   1.453   6.850
 9620SOL    HW229760   3.790   1.414   6.808
 9621SOL     OW29761   6.988   0.915   1.439
 9621SOL    HW129762   0.041   0.971   1.468
 9621SOL    HW229763   7.019   0.822   1.419
 9622SOL     OW29764   6.220   5.932   5.767
 9622SOL    HW129765   6.286   5.858   5.750
 9622SOL    HW229766   6.172   5.953   5.681
 9623SOL     OW29767   3.140   5.864   5.589
 9623SOL    HW129768   3.120   5.847   5.685
 9623SOL    HW229769   3.227   5.914   5.581
 9624SOL     OW29770   4.416   5.768   5.822
 9624SOL    HW129771   4.353   5.752   5.746
 9624SOL    HW229772   4.366   5.761   5.909
 9625SOL     OW29773   4.593   4.395   6.698
 9625SOL    HW129774   4.641   4.454   6.633
 9625SOL    HW229775   4.498   4.386   6.671
 9626SOL     OW29776   2.772   2.426   6.390
 9626SOL    HW129777   2.833   2.501   6.415
 9626SOL    HW229778   2.819   2.364   6.327
 9627SOL     OW29779   0.219   5.800   0.684
 9627SOL    HW129780   0.159   5.722   0.700
 9627SOL    HW229781   0.210   5.830   0.589
 9628SOL     OW29782   5.757   1.175   5.916
 9628SOL    HW129783   5.827   1.236   5.953
 9628SOL    HW229784   5.786   1.080   5.928
 9629SOL     OW29785   0.404   5.530   3.668
 9629SOL    HW129786   0.348   5.474   3.729
 9629SOL    HW229787   0.399   5.492   3.575
 9630SOL     OW29788   5.153   1.140   6.318
 9630SOL    HW129789   5.214   1.097   6.251
 9630SOL    HW229790   5.060   1.106   6.304
 9631SOL     OW29791   4.603   6.243   0.578
 9631SOL    HW129792   4.670   6.182   0.621
 9631SOL    HW229793   4.580   6.317   0.640
 9632SOL     OW29794   2.565   5.155   3.173
 9632SOL    HW129795   2.576   5.059   3.196
 9632SOL    HW229796   2.480   5.190   3.212
 9633SOL     OW29797   3.711   3.021   5.242
 9633SOL    HW129798   3.708   3.001   5.340
 9633SOL    HW229799   3.654   3.102   5.223
 9634SOL     OW29800   5.611   4.740   2.970
 9634SOL    HW129801   5.656   4.829   2.961
 9634SOL    HW229802   5.515   4.748   2.945
 9635SOL     OW29803   0.582   5.018   4.343
 9635SOL    HW129804   0.518   4.957   4.390
 9635SOL    HW229805   0.548   5.112   4.348
 9636SOL     OW29806   5.965   3.751   4.013
 9636SOL    HW129807   6.051   3.701   4.017
 9636SOL    HW229808   5.979   3.845   4.043
 9637SOL     OW29809   1.343   3.424   6.867
 9637SOL    HW129810   1.258   3.469   6.894
 9637SOL    HW229811   1.408   3.428   6.943
 9638SOL     OW29812   6.244   5.199   5.867
 9638SOL    HW129813   6.302   5.198   5.786
 9638SOL    HW229814   6.148   5.190   5.839
 9639SOL     OW29815   4.788   2.118   1.484
 9639SOL    HW129816   4.761   2.204   1.442
 9639SOL    HW229817   4.716   2.085   1.544
 9640SOL     OW29818   3.652   0.166   3.049
 9640SOL    HW129819   3.712   0.183   3.127
 9640SOL    HW229820   3.574   0.112   3.078
 9641SOL     OW29821   0.198   2.938   4.923
 9641SOL    HW129822   0.226   2.842   4.930
 9641SOL    HW229823   0.241   2.990   4.997
 9642SOL     OW29824   0.520   2.760   4.751
 9642SOL    HW129825   0.451   2.736   4.819
 9642SOL    HW229826   0.490   2.729   4.661
 9643SOL     OW29827   5.663   4.890   4.839
 9643SOL    HW129828   5.743   4.848   4.882
 9643SOL    HW229829   5.581   4.839   4.865
 9644SOL     OW29830   1.454   4.661   3.930
 9644SOL    HW129831   1.472   4.614   3.844
 9644SOL    HW229832   1.519   4.736   3.942
 9645SOL     OW29833   1.356   5.152   6.580
 9645SOL    HW129834   1.327   5.060   6.607
 9645SOL    HW229835   1.355   5.159   6.480
 9646SOL     OW29836   3.237   5.368   0.596
 9646SOL    HW129837   3.176   5.443   0.623
 9646SOL    HW229838   3.282   5.391   0.510
 9647SOL     OW29839   5.478   6.711   3.010
 9647SOL    HW129840   5.399   6.683   3.065
 9647SOL    HW229841   5.521   6.631   2.969
 9648SOL     OW29842   2.975   2.011   1.363
 9648SOL    HW129843   2.887   2.053   1.341
 9648SOL    HW229844   2.993   1.936   1.300
 9649SOL     OW29845   0.495   5.641   1.170
 9649SOL    HW129846   0.409   5.612   1.212
 9649SOL    HW229847   0.505   5.596   1.082
 9650SOL     OW29848   0.581   5.051   4.846
 9650SOL    HW129849   0.601   4.990   4.770
 9650SOL    HW229850   0.658   5.114   4.859
 9651SOL     OW29851   3.702   1.931   6.585
 9651SOL    HW129852   3.678   1.990   6.508
 9651SOL    HW229853   3.793   1.891   6.570
 9652SOL     OW29854   0.400   3.989   0.419
 9652SOL    HW129855   0.470   3.924   0.389
 9652SOL    HW229856   0.332   3.942   0.475
 9653SOL     OW29857   5.080   4.657   5.903
 9653SOL    HW129858   5.072   4.671   5.804
 9653SOL    HW229859   5.088   4.746   5.948
 9654SOL     OW29860   3.754   3.709   3.237
 9654SOL    HW129861   3.836   3.658   3.262
 9654SOL    HW229862   3.772   3.807   3.244
 9655SOL     OW29863   4.707   1.503   1.221
 9655SOL    HW129864   4.727   1.409   1.251
 9655SOL    HW229865   4.766   1.567   1.270
 9656SOL     OW29866   4.481   4.235   6.923
 9656SOL    HW129867   4.524   4.299   6.859
 9656SOL    HW229868   4.498   4.265   7.017
 9657SOL     OW29869   5.129   4.640   3.424
 9657SOL    HW129870   5.050   4.670   3.480
 9657SOL    HW229871   5.112   4.547   3.391
 9658SOL     OW29872   5.564   1.497   2.651
 9658SOL    HW129873   5.580   1.496   2.749
 9658SOL    HW229874   5.465   1.493   2.633
 9659SOL     OW29875   3.359   2.930   6.800
 9659SOL    HW129876   3.296   2.907   6.725
 9659SOL    HW229877   3.402   2.846   6.834
 9660SOL     OW29878   1.460   6.296   1.218
 9660SOL    HW129879   1.423   6.264   1.305
 9660SOL    HW229880   1.396   6.275   1.144
 9661SOL     OW29881   4.139   3.354   2.097
 9661SOL    HW129882   4.203   3.430   2.113
 9661SOL    HW229883   4.175   3.296   2.024
 9662SOL     OW29884   4.742   6.872   5.581
 9662SOL    HW129885   4.659   6.868   5.637
 9662SOL    HW229886   4.727   6.934   5.504
 9663SOL     OW29887   1.041   5.541   2.802
 9663SOL    HW129888   1.121   5.551   2.861
 9663SOL    HW229889   1.043   5.611   2.731
 9664SOL     OW29890   3.085   5.237   2.876
 9664SOL    HW129891   3.069   5.165   2.808
 9664SOL    HW229892   3.160   5.295   2.846
 9665SOL     OW29893   6.552   4.678   6.482
 9665SOL    HW129894   6.487   4.610   6.516
 9665SOL    HW229895   6.590   4.729   6.560
 9666SOL     OW29896   5.381   3.743   0.969
 9666SOL    HW129897   5.419   3.651   0.956
 9666SOL    HW229898   5.374   3.763   1.067
 9667SOL     OW29899   5.379   6.532   6.908
 9667SOL    HW129900   5.332   6.524   6.996
 9667SOL    HW229901   5.425   6.445   6.887
 9668SOL     OW29902   1.628   0.972   6.470
 9668SOL    HW129903   1.633   1.044   6.400
 9668SOL    HW229904   1.637   1.012   6.561
 9669SOL     OW29905   2.762   0.198   6.978
 9669SOL    HW129906   2.813   0.145   0.020
 9669SOL    HW229907   2.797   0.178   6.887
 9670SOL     OW29908   0.551   0.624   0.977
 9670SOL    HW129909   0.649   0.642   0.977
 9670SOL    HW229910   0.509   0.671   1.054
 9671SOL     OW29911   1.313   5.147   6.321
 9671SOL    HW129912   1.334   5.060   6.275
 9671SOL    HW229913   1.390   5.210   6.308
 9672SOL     OW29914   0.690   3.678   4.091
 9672SOL    HW129915   0.706   3.701   4.187
 9672SOL    HW229916   0.768   3.707   4.036
 9673SOL     OW29917   2.475   2.628   6.571
 9673SOL    HW129918   2.478   2.538   6.528
 9673SOL    HW229919   2.522   2.694   6.513
 9674SOL     OW29920   1.651   6.917   3.864
 9674SOL    HW129921   1.709   6.986   3.907
 9674SOL    HW229922   1.703   6.872   3.790
 9675SOL     OW29923   6.482   4.639   5.831
 9675SOL    HW129924   6.516   4.593   5.913
 9675SOL    HW229925   6.542   4.619   5.754
 9676SOL     OW29926   0.533   3.388   5.425
 9676SOL    HW129927   0.539   3.319   5.497
 9676SOL    HW229928   0.468   3.357   5.355
 9677SOL     OW29929   6.854   4.868   2.513
 9677SOL    HW129930   6.777   4.887   2.575
 9677SOL    HW229931   6.938   4.905   2.553
 9678SOL     OW29932   3.534   3.241   5.462
 9678SOL    HW129933   3.435   3.247   5.462
 9678SOL    HW229934   3.564   3.180   5.536
 9679SOL     OW29935   1.247   1.192   4.084
 9679SOL    HW129936   1.206   1.156   4.001
 9679SOL    HW229937   1.177   1.203   4.154
 9680SOL     OW29938   4.577   0.411   2.545
 9680SOL    HW129939   4.602   0.478   2.615
 9680SOL    HW229940   4.477   0.406   2.539
 9681SOL     OW29941   1.446   3.354   1.475
 9681SOL    HW129942   1.423   3.440   1.521
 9681SOL    HW229943   1.362   3.304   1.453
 9682SOL     OW29944   4.830   0.137   5.802
 9682SOL    HW129945   4.898   0.188   5.855
 9682SOL    HW229946   4.827   0.042   5.834
 9683SOL     OW29947   3.980   6.018   4.202
 9683SOL    HW129948   4.005   5.944   4.140
 9683SOL    HW229949   4.008   6.105   4.162
 9684SOL     OW29950   6.935   3.413   5.886
 9684SOL    HW129951   6.990   3.496   5.891
 9684SOL    HW229952   6.931   3.369   5.976
 9685SOL     OW29953   3.288   4.644   1.713
 9685SOL    HW129954   3.344   4.587   1.773
 9685SOL    HW229955   3.191   4.630   1.734
 9686SOL     OW29956   0.301   1.540   5.851
 9686SOL    HW129957   0.379   1.602   5.851
 9686SOL    HW229958   0.311   1.474   5.925
 9687SOL     OW29959   5.659   1.270   3.601
 9687SOL    HW129960   5.696   1.327   3.526
 9687SOL    HW229961   5.687   1.309   3.689
 9688SOL     OW29962   0.212   4.459   1.661
 9688SOL    HW129963   0.128   4.486   1.613
 9688SOL    HW229964   0.270   4.539   1.673
 9689SOL     OW29965   1.612   5.611   1.217
 9689SOL    HW129966   1.593   5.525   1.263
 9689SOL    HW229967   1.669   5.594   1.136
 9690SOL     OW29968   0.561   4.450   5.414
 9690SOL    HW129969   0.641   4.414   5.462
 9690SOL    HW229970   0.577   4.449   5.316
 9691SOL     OW29971   3.963   3.600   2.020
 9691SOL    HW129972   3.896   3.625   1.950
 9691SOL    HW229973   3.992   3.505   2.007
 9692SOL     OW29974   5.056   4.522   0.352
 9692SOL    HW129975   4.972   4.575   0.341
 9692SOL    HW229976   5.104   4.551   0.434
 9693SOL     OW29977   4.530   3.426   5.931
 9693SOL    HW129978   4.458   3.376   5.980
 9693SOL    HW229979   4.569   3.495   5.992
 9694SOL     OW29980   2.735   6.053   0.925
 9694SOL    HW129981   2.736   6.149   0.895
 9694SOL    HW229982   2.771   6.047   1.017
 9695SOL     OW29983   1.117   2.979   4.169
 9695SOL    HW129984   1.023   2.989   4.136
 9695SOL    HW229985   1.116   2.943   4.262
 9696SOL     OW29986   4.785   3.014   3.497
 9696SOL    HW129987   4.818   3.096   3.450
 9696SOL    HW229988   4.854   2.984   3.564
 9697SOL     OW29989   0.205   0.546   1.594
 9697SOL    HW129990   0.214   0.446   1.591
 9697SOL    HW229991   0.296   0.587   1.600
 9698SOL     OW29992   0.020   3.637   1.801
 9698SOL    HW129993   6.984   3.580   1.857
 9698SOL    HW229994   0.096   3.668   1.857
 9699SOL     OW29995   0.615   6.018   1.901
 9699SOL    HW129996   0.616   6.087   1.829
 9699SOL    HW229997   0.528   5.969   1.900
 9700SOL     OW29998   5.621   0.746   6.167
 9700SOL    HW129999   5.620   0.845   6.160
 9700SOL    HW230000   5.621   0.706   6.075
 9701SOL     OW30001   5.363   3.969   0.387
 9701SOL    HW130002   5.426   4.041   0.358
 9701SOL    HW230003   5.269   4.005   0.387
 9702SOL     OW30004   3.619   3.864   1.822
 9702SOL    HW130005   3.597   3.940   1.883
 9702SOL    HW230006   3.600   3.891   1.728
 9703SOL     OW30007   5.855   5.024   3.297
 9703SOL    HW130008   5.940   4.986   3.332
 9703SOL    HW230009   5.786   5.023   3.370
 9704SOL     OW30010   1.449   4.076   2.524
 9704SOL    HW130011   1.442   4.151   2.589
 9704SOL    HW230012   1.526   4.017   2.549
 9705SOL     OW30013   0.364   3.514   5.636
 9705SOL    HW130014   0.415   3.453   5.576
 9705SOL    HW230015   0.426   3.554   5.703
 9706SOL     OW30016   0.513   0.880   2.391
 9706SOL    HW130017   0.571   0.881   2.310
 9706SOL    HW230018   0.441   0.811   2.380
 9707SOL     OW30019   0.731   5.100   2.201
 9707SOL    HW130020   0.725   5.136   2.294
 9707SOL    HW230021   0.827   5.099   2.172
 9708SOL     OW30022   3.042   0.213   1.831
 9708SOL    HW130023   2.951   0.182   1.805
 9708SOL    HW230024   3.066   0.295   1.778
 9709SOL     OW30025   5.229   1.738   2.017
 9709SOL    HW130026   5.186   1.828   2.022
 9709SOL    HW230027   5.312   1.744   1.961
 9710SOL     OW30028   4.994   4.986   4.979
 9710SOL    HW130029   5.027   5.029   5.063
 9710SOL    HW230030   5.055   5.009   4.903
 9711SOL     OW30031   2.813   0.923   6.735
 9711SOL    HW130032   2.878   0.848   6.744
 9711SOL    HW230033   2.856   1.001   6.691
 9712SOL     OW30034   4.791   0.589   5.475
 9712SOL    HW130035   4.855   0.611   5.549
 9712SOL    HW230036   4.821   0.506   5.429
 9713SOL     OW30037   1.955   0.226   2.645
 9713SOL    HW130038   2.017   0.148   2.637
 9713SOL    HW230039   1.952   0.276   2.559
 9714SOL     OW30040   2.036   3.122   4.435
 9714SOL    HW130041   2.026   3.179   4.518
 9714SOL    HW230042   2.124   3.076   4.437
 9715SOL     OW30043   0.152   2.844   6.499
 9715SOL    HW130044   0.053   2.832   6.503
 9715SOL    HW230045   0.182   2.842   6.404
 9716SOL     OW30046   2.652   6.287   0.777
 9716SOL    HW130047   2.641   6.264   0.681
 9716SOL    HW230048   2.749   6.297   0.799
 9717SOL     OW30049   3.800   2.435   5.921
 9717SOL    HW130050   3.854   2.351   5.925
 9717SOL    HW230051   3.763   2.447   5.829
 9718SOL     OW30052   4.133   2.707   6.567
 9718SOL    HW130053   4.079   2.791   6.580
 9718SOL    HW230054   4.148   2.663   6.656
 9719SOL     OW30055   4.631   0.304   5.740
 9719SOL    HW130056   4.545   0.257   5.756
 9719SOL    HW230057   4.703   0.237   5.723
 9720SOL     OW30058   1.893   2.167   2.483
 9720SOL    HW130059   1.829   2.101   2.525
 9720SOL    HW230060   1.846   2.215   2.409
 9721SOL     OW30061   0.690   1.658   1.243
 9721SOL    HW130062   0.698   1.563   1.212
 9721SOL    HW230063   0.605   1.669   1.295
 9722SOL     OW30064   4.259   2.332   5.406
 9722SOL    HW130065   4.237   2.421   5.368
 9722SOL    HW230066   4.259   2.337   5.506
 9723SOL     OW30067   5.865   0.302   4.994
 9723SOL    HW130068   5.829   0.260   4.910
 9723SOL    HW230069   5.850   0.240   5.071
 9724SOL     OW30070   1.381   4.485   1.132
 9724SOL    HW130071   1.453   4.542   1.172
 9724SOL    HW230072   1.416   4.394   1.114
 9725SOL     OW30073   5.416   5.619   3.742
 9725SOL    HW130074   5.334   5.657   3.699
 9725SOL    HW230075   5.390   5.576   3.829
 9726SOL     OW30076   6.635   7.001   2.724
 9726SOL    HW130077   6.670   6.956   2.642
 9726SOL    HW230078   6.544   6.965   2.746
 9727SOL     OW30079   5.979   2.976   1.375
 9727SOL    HW130080   6.060   2.949   1.427
 9727SOL    HW230081   5.898   2.939   1.420
 9728SOL     OW30082   5.528   2.338   4.407
 9728SOL    HW130083   5.531   2.243   4.437
 9728SOL    HW230084   5.564   2.346   4.314
 9729SOL     OW30085   0.528   3.572   2.812
 9729SOL    HW130086   0.497   3.546   2.721
 9729SOL    HW230087   0.503   3.667   2.830
 9730SOL     OW30088   1.140   5.632   3.097
 9730SOL    HW130089   1.233   5.668   3.105
 9730SOL    HW230090   1.075   5.708   3.096
 9731SOL     OW30091   6.328   2.823   1.225
 9731SOL    HW130092   6.252   2.797   1.285
 9731SOL    HW230093   6.340   2.922   1.228
 9732SOL     OW30094   1.414   3.311   2.618
 9732SOL    HW130095   1.315   3.318   2.625
 9732SOL    HW230096   1.440   3.214   2.608
 9733SOL     OW30097   6.081   4.894   1.944
 9733SOL    HW130098   6.040   4.950   2.017
 9733SOL    HW230099   6.067   4.939   1.856
 9734SOL     OW30100   4.436   5.215   6.653
 9734SOL    HW130101   4.500   5.290   6.675
 9734SOL    HW230102   4.412   5.219   6.556
 9735SOL     OW30103   0.487   1.926   0.213
 9735SOL    HW130104   0.421   1.960   0.280
 9735SOL    HW230105   0.492   1.827   0.218
 9736SOL     OW30106   4.931   2.647   5.136
 9736SOL    HW130107   4.880   2.715   5.189
 9736SOL    HW230108   4.923   2.668   5.038
 9737SOL     OW30109   5.574   3.003   4.494
 9737SOL    HW130110   5.567   3.095   4.455
 9737SOL    HW230111   5.495   2.986   4.552
 9738SOL     OW30112   2.662   6.427   1.476
 9738SOL    HW130113   2.660   6.461   1.382
 9738SOL    HW230114   2.576   6.449   1.522
 9739SOL     OW30115   5.720   6.988   0.410
 9739SOL    HW130116   5.686   6.919   0.475
 9739SOL    HW230117   5.796   0.013   0.452
 9740SOL     OW30118   6.516   0.622   1.861
 9740SOL    HW130119   6.450   0.619   1.786
 9740SOL    HW230120   6.515   0.714   1.902
 9741SOL     OW30121   2.544   2.496   3.199
 9741SOL    HW130122   2.506   2.520   3.110
 9741SOL    HW230123   2.518   2.565   3.266
 9742SOL     OW30124   3.808   1.976   6.187
 9742SOL    HW130125   3.789   2.067   6.149
 9742SOL    HW230126   3.726   1.920   6.183
 9743SOL     OW30127   6.587   3.625   4.366
 9743SOL    HW130128   6.662   3.609   4.302
 9743SOL    HW230129   6.608   3.706   4.422
 9744SOL     OW30130   1.988   1.760   2.620
 9744SOL    HW130131   1.956   1.680   2.672
 9744SOL    HW230132   1.910   1.804   2.576
 9745SOL     OW30133   0.073   7.001   5.863
 9745SOL    HW130134   0.052   6.908   5.832
 9745SOL    HW230135   0.011   0.001   5.938
 9746SOL     OW30136   3.407   6.221   5.662
 9746SOL    HW130137   3.314   6.238   5.693
 9746SOL    HW230138   3.407   6.151   5.591
 9747SOL     OW30139   3.649   1.501   3.803
 9747SOL    HW130140   3.596   1.536   3.726
 9747SOL    HW230141   3.587   1.474   3.877
 9748SOL     OW30142   0.504   1.420   2.102
 9748SOL    HW130143   0.458   1.376   2.179
 9748SOL    HW230144   0.597   1.382   2.094
 9749SOL     OW30145   0.005   0.848   1.936
 9749SOL    HW130146   6.971   0.804   2.004
 9749SOL    HW230147   7.009   0.812   1.845
 9750SOL     OW30148   5.651   2.765   5.801
 9750SOL    HW130149   5.653   2.865   5.803
 9750SOL    HW230150   5.566   2.733   5.843
 9751SOL     OW30151   3.152   6.716   1.224
 9751SOL    HW130152   3.087   6.698   1.151
 9751SOL    HW230153   3.110   6.695   1.312
 9752SOL     OW30154   3.129   3.052   0.617
 9752SOL    HW130155   3.206   2.993   0.642
 9752SOL    HW230156   3.075   3.009   0.546
 9753SOL     OW30157   6.807   5.880   3.787
 9753SOL    HW130158   6.891   5.828   3.803
 9753SOL    HW230159   6.748   5.829   3.726
 9754SOL     OW30160   3.288   0.934   2.101
 9754SOL    HW130161   3.357   0.945   2.173
 9754SOL    HW230162   3.224   0.861   2.127
 9755SOL     OW30163   3.493   3.717   0.175
 9755SOL    HW130164   3.538   3.805   0.158
 9755SOL    HW230165   3.530   3.649   0.113
 9756SOL     OW30166   5.697   0.649   5.900
 9756SOL    HW130167   5.737   0.570   5.947
 9756SOL    HW230168   5.666   0.621   5.809
 9757SOL     OW30169   5.544   3.585   4.309
 9757SOL    HW130170   5.471   3.649   4.287
 9757SOL    HW230171   5.562   3.526   4.231
 9758SOL     OW30172   2.686   0.700   2.097
 9758SOL    HW130173   2.645   0.764   2.162
 9758SOL    HW230174   2.621   0.680   2.024
 9759SOL     OW30175   6.635   1.933   1.167
 9759SOL    HW130176   6.715   1.965   1.218
 9759SOL    HW230177   6.657   1.932   1.069
 9760SOL     OW30178   4.518   0.352   6.703
 9760SOL    HW130179   4.424   0.369   6.671
 9760SOL    HW230180   4.549   0.264   6.668
 9761SOL     OW30181   0.777   2.415   1.391
 9761SOL    HW130182   0.708   2.392   1.323
 9761SOL    HW230183   0.762   2.508   1.424
 9762SOL     OW30184   3.054   0.882   5.907
 9762SOL    HW130185   3.080   0.786   5.899
 9762SOL    HW230186   3.103   0.936   5.839
 9763SOL     OW30187   6.756   2.829   1.289
 9763SOL    HW130188   6.758   2.891   1.367
 9763SOL    HW230189   6.686   2.760   1.303
 9764SOL     OW30190   0.827   2.621   2.580
 9764SOL    HW130191   0.870   2.544   2.626
 9764SOL    HW230192   0.813   2.696   2.645
 9765SOL     OW30193   6.673   1.495   1.394
 9765SOL    HW130194   6.699   1.537   1.481
 9765SOL    HW230195   6.720   1.543   1.319
 9766SOL     OW30196   0.641   2.876   3.097
 9766SOL    HW130197   0.659   2.839   3.189
 9766SOL    HW230198   0.633   2.976   3.103
 9767SOL     OW30199   2.803   1.705   5.177
 9767SOL    HW130200   2.830   1.797   5.205
 9767SOL    HW230201   2.721   1.678   5.227
 9768SOL     OW30202   5.175   2.698   0.077
 9768SOL    HW130203   5.249   2.664   0.135
 9768SOL    HW230204   5.210   2.772   0.019
 9769SOL     OW30205   3.373   1.668   5.470
 9769SOL    HW130206   3.442   1.663   5.542
 9769SOL    HW230207   3.358   1.764   5.446
 9770SOL     OW30208   1.852   2.995   5.533
 9770SOL    HW130209   1.852   3.025   5.629
 9770SOL    HW230210   1.798   3.060   5.479
 9771SOL     OW30211   3.788   0.807   1.529
 9771SOL    HW130212   3.703   0.753   1.522
 9771SOL    HW230213   3.786   0.862   1.613
 9772SOL     OW30214   1.114   0.363   1.230
 9772SOL    HW130215   1.210   0.382   1.206
 9772SOL    HW230216   1.081   0.286   1.175
 9773SOL     OW30217   6.000   6.028   2.080
 9773SOL    HW130218   5.941   5.984   2.012
 9773SOL    HW230219   5.946   6.090   2.136
 9774SOL     OW30220   2.366   5.143   4.282
 9774SOL    HW130221   2.376   5.112   4.376
 9774SOL    HW230222   2.269   5.159   4.262
 9775SOL     OW30223   1.979   1.374   2.330
 9775SOL    HW130224   2.039   1.390   2.409
 9775SOL    HW230225   1.925   1.456   2.312
 9776SOL     OW30226   2.475   5.525   1.335
 9776SOL    HW130227   2.494   5.441   1.386
 9776SOL    HW230228   2.425   5.502   1.251
 9777SOL     OW30229   4.484   1.893   5.327
 9777SOL    HW130230   4.495   1.849   5.237
 9777SOL    HW230231   4.475   1.822   5.397
 9778SOL     OW30232   1.241   4.006   2.861
 9778SOL    HW130233   1.212   4.096   2.893
 9778SOL    HW230234   1.193   3.984   2.776
 9779SOL     OW30235   3.125   0.326   3.411
 9779SOL    HW130236   3.119   0.353   3.315
 9779SOL    HW230237   3.141   0.227   3.417
 9780SOL     OW30238   0.443   1.646   0.276
 9780SOL    HW130239   0.369   1.594   0.321
 9780SOL    HW230240   0.517   1.661   0.342
 9781SOL     OW30241   1.045   1.461   2.125
 9781SOL    HW130242   1.091   1.397   2.064
 9781SOL    HW230243   1.027   1.546   2.076
 9782SOL     OW30244   0.340   2.574   0.414
 9782SOL    HW130245   0.372   2.626   0.334
 9782SOL    HW230246   0.382   2.483   0.412
 9783SOL     OW30247   4.333   1.409   3.016
 9783SOL    HW130248   4.406   1.353   2.977
 9783SOL    HW230249   4.372   1.471   3.084
 9784SOL     OW30250   1.666   1.087   6.704
 9784SOL    HW130251   1.742   1.022   6.710
 9784SOL    HW230252   1.692   1.173   6.747
 9785SOL     OW30253   0.878   3.981   4.576
 9785SOL    HW130254   0.786   3.972   4.614
 9785SOL    HW230255   0.874   4.031   4.490
 9786SOL     OW30256   2.662   3.966   6.505
 9786SOL    HW130257   2.646   3.939   6.600
 9786SOL    HW230258   2.644   4.064   6.495
 9787SOL     OW30259   3.068   3.615   2.096
 9787SOL    HW130260   3.110   3.567   2.172
 9787SOL    HW230261   2.968   3.610   2.104
 9788SOL     OW30262   3.445   6.943   2.587
 9788SOL    HW130263   3.407   6.893   2.509
 9788SOL    HW230264   3.543   6.921   2.596
 9789SOL     OW30265   3.318   0.809   0.401
 9789SOL    HW130266   3.352   0.818   0.307
 9789SOL    HW230267   3.329   0.896   0.449
 9790SOL     OW30268   4.288   5.544   4.854
 9790SOL    HW130269   4.324   5.613   4.792
 9790SOL    HW230270   4.344   5.540   4.937
 9791SOL     OW30271   0.310   0.263   1.251
 9791SOL    HW130272   0.324   0.280   1.348
 9791SOL    HW230273   0.376   0.316   1.198
 9792SOL     OW30274   3.602   4.471   1.036
 9792SOL    HW130275   3.693   4.443   1.008
 9792SOL    HW230276   3.547   4.493   0.955
 9793SOL     OW30277   6.241   0.915   2.888
 9793SOL    HW130278   6.179   0.934   2.812
 9793SOL    HW230279   6.300   0.994   2.905
 9794SOL     OW30280   4.249   5.109   4.319
 9794SOL    HW130281   4.281   5.048   4.391
 9794SOL    HW230282   4.283   5.077   4.231
 9795SOL     OW30283   0.932   3.496   3.683
 9795SOL    HW130284   0.896   3.466   3.594
 9795SOL    HW230285   0.974   3.418   3.729
 9796SOL     OW30286   3.097   3.625   4.320
 9796SOL    HW130287   3.042   3.699   4.283
 9796SOL    HW230288   3.046   3.577   4.391
 9797SOL     OW30289   3.297   5.471   6.766
 9797SOL    HW130290   3.209   5.506   6.798
 9797SOL    HW230291   3.340   5.417   6.839
 9798SOL     OW30292   6.955   4.319   6.497
 9798SOL    HW130293   7.016   4.247   6.530
 9798SOL    HW230294   6.922   4.294   6.405
 9799SOL     OW30295   3.313   6.804   0.250
 9799SOL    HW130296   3.285   6.827   0.157
 9799SOL    HW230297   3.369   6.879   0.287
 9800SOL     OW30298   6.669   3.867   4.487
 9800SOL    HW130299   6.628   3.920   4.561
 9800SOL    HW230300   6.700   3.929   4.415
 9801SOL     OW30301   4.941   6.125   0.920
 9801SOL    HW130302   4.959   6.196   0.988
 9801SOL    HW230303   5.012   6.126   0.850
 9802SOL     OW30304   3.872   3.788   0.507
 9802SOL    HW130305   3.943   3.725   0.475
 9802SOL    HW230306   3.916   3.866   0.552
 9803SOL     OW30307   1.231   3.884   6.472
 9803SOL    HW130308   1.191   3.909   6.561
 9803SOL    HW230309   1.178   3.927   6.399
 9804SOL     OW30310   1.091   4.386   3.309
 9804SOL    HW130311   1.150   4.310   3.336
 9804SOL    HW230312   1.142   4.472   3.313
 9805SOL     OW30313   0.255   5.731   4.035
 9805SOL    HW130314   0.252   5.637   4.001
 9805SOL    HW230315   0.165   5.756   4.071
 9806SOL     OW30316   3.724   1.912   0.296
 9806SOL    HW130317   3.710   1.819   0.261
 9806SOL    HW230318   3.712   1.978   0.221
 9807SOL     OW30319   4.123   3.334   3.407
 9807SOL    HW130320   4.073   3.322   3.321
 9807SOL    HW230321   4.214   3.371   3.388
 9808SOL     OW30322   3.750   5.378   2.282
 9808SOL    HW130323   3.677   5.384   2.214
 9808SOL    HW230324   3.711   5.380   2.374
 9809SOL     OW30325   6.069   2.418   0.649
 9809SOL    HW130326   5.980   2.403   0.605
 9809SOL    HW230327   6.098   2.512   0.633
 9810SOL     OW30328   2.217   2.163   0.954
 9810SOL    HW130329   2.226   2.067   0.928
 9810SOL    HW230330   2.199   2.217   0.872
 9811SOL     OW30331   5.583   3.893   4.678
 9811SOL    HW130332   5.504   3.879   4.618
 9811SOL    HW230333   5.660   3.929   4.625
 9812SOL     OW30334   3.398   5.849   5.741
 9812SOL    HW130335   3.460   5.904   5.685
 9812SOL    HW230336   3.443   5.829   5.829
 9813SOL     OW30337   4.745   0.680   2.453
 9813SOL    HW130338   4.784   0.696   2.362
 9813SOL    HW230339   4.818   0.679   2.521
 9814SOL     OW30340   6.885   1.565   6.223
 9814SOL    HW130341   6.978   1.559   6.185
 9814SOL    HW230342   6.888   1.544   6.320
 9815SOL     OW30343   4.118   2.299   4.164
 9815SOL    HW130344   4.042   2.328   4.105
 9815SOL    HW230345   4.204   2.309   4.115
 9816SOL     OW30346   2.834   1.205   1.269
 9816SOL    HW130347   2.831   1.274   1.197
 9816SOL    HW230348   2.776   1.128   1.244
 9817SOL     OW30349   6.549   0.153   2.023
 9817SOL    HW130350   6.522   0.137   2.118
 9817SOL    HW230351   6.528   0.072   1.969
 9818SOL     OW30352   4.494   2.738   5.322
 9818SOL    HW130353   4.513   2.836   5.315
 9818SOL    HW230354   4.402   2.720   5.287
 9819SOL     OW30355   4.081   0.672   1.862
 9819SOL    HW130356   4.084   0.572   1.867
 9819SOL    HW230357   3.987   0.703   1.876
 9820SOL     OW30358   3.950   2.726   6.911
 9820SOL    HW130359   3.940   2.651   6.846
 9820SOL    HW230360   3.859   2.760   6.936
 9821SOL     OW30361   0.081   5.292   6.957
 9821SOL    HW130362   0.068   5.388   6.930
 9821SOL    HW230363   0.019   5.270   0.007
 9822SOL     OW30364   0.862   0.604   3.181
 9822SOL    HW130365   0.909   0.686   3.148
 9822SOL    HW230366   0.892   0.524   3.129
 9823SOL     OW30367   3.500   6.694   1.422
 9823SOL    HW130368   3.588   6.705   1.375
 9823SOL    HW230369   3.475   6.597   1.422
 9824SOL     OW30370   1.466   3.983   6.144
 9824SOL    HW130371   1.548   3.969   6.089
 9824SOL    HW230372   1.480   3.948   6.236
 9825SOL     OW30373   4.166   5.181   5.641
 9825SOL    HW130374   4.235   5.214   5.704
 9825SOL    HW230375   4.159   5.081   5.647
 9826SOL     OW30376   4.996   0.533   5.649
 9826SOL    HW130377   5.082   0.576   5.679
 9826SOL    HW230378   5.012   0.436   5.630
 9827SOL     OW30379   0.877   3.964   4.218
 9827SOL    HW130380   0.853   3.889   4.279
 9827SOL    HW230381   0.915   3.928   4.133
 9828SOL     OW30382   2.975   2.599   6.453
 9828SOL    HW130383   2.963   2.610   6.551
 9828SOL    HW230384   3.008   2.685   6.413
 9829SOL     OW30385   3.066   4.249   1.002
 9829SOL    HW130386   3.054   4.201   1.089
 9829SOL    HW230387   2.977   4.283   0.969
 9830SOL     OW30388   6.637   0.975   0.394
 9830SOL    HW130389   6.537   0.980   0.405
 9830SOL    HW230390   6.679   1.058   0.429
 9831SOL     OW30391   5.703   7.024   0.785
 9831SOL    HW130392   5.714   0.088   0.742
 9831SOL    HW230393   5.788   7.000   0.834
 9832SOL     OW30394   3.925   5.103   1.064
 9832SOL    HW130395   3.904   5.201   1.058
 9832SOL    HW230396   3.922   5.075   1.160
 9833SOL     OW30397   4.309   4.262   5.859
 9833SOL    HW130398   4.356   4.307   5.935
 9833SOL    HW230399   4.280   4.331   5.793
 9834SOL     OW30400   1.627   2.300   3.941
 9834SOL    HW130401   1.717   2.321   3.978
 9834SOL    HW230402   1.561   2.291   4.016
 9835SOL     OW30403   4.848   1.747   4.572
 9835SOL    HW130404   4.760   1.709   4.542
 9835SOL    HW230405   4.879   1.815   4.505
 9836SOL     OW30406   5.167   4.979   2.296
 9836SOL    HW130407   5.089   4.958   2.236
 9836SOL    HW230408   5.138   4.971   2.392
 9837SOL     OW30409   1.284   6.663   4.658
 9837SOL    HW130410   1.358   6.598   4.637
 9837SOL    HW230411   1.249   6.645   4.750
 9838SOL     OW30412   6.520   5.478   5.290
 9838SOL    HW130413   6.600   5.535   5.305
 9838SOL    HW230414   6.452   5.497   5.361
 9839SOL     OW30415   0.312   2.256   2.647
 9839SOL    HW130416   0.235   2.311   2.680
 9839SOL    HW230417   0.376   2.314   2.598
 9840SOL     OW30418   6.365   0.749   1.034
 9840SOL    HW130419   6.461   0.770   1.049
 9840SOL    HW230420   6.358   0.667   0.977
 9841SOL     OW30421   1.848   3.664   4.342
 9841SOL    HW130422   1.822   3.745   4.395
 9841SOL    HW230423   1.839   3.582   4.400
 9842SOL     OW30424   3.093   3.180   3.381
 9842SOL    HW130425   3.172   3.226   3.340
 9842SOL    HW230426   3.075   3.218   3.471
 9843SOL     OW30427   5.762   3.433   2.815
 9843SOL    HW130428   5.676   3.385   2.805
 9843SOL    HW230429   5.838   3.368   2.809
 9844SOL     OW30430   5.233   0.576   2.427
 9844SOL    HW130431   5.275   0.646   2.486
 9844SOL    HW230432   5.301   0.544   2.362
 9845SOL     OW30433   0.857   2.090   3.468
 9845SOL    HW130434   0.854   1.997   3.431
 9845SOL    HW230435   0.858   2.156   3.393
 9846SOL     OW30436   3.108   3.510   3.007
 9846SOL    HW130437   3.047   3.530   3.083
 9846SOL    HW230438   3.090   3.417   2.973
 9847SOL     OW30439   2.480   4.515   5.015
 9847SOL    HW130440   2.424   4.435   5.036
 9847SOL    HW230441   2.461   4.587   5.081
 9848SOL     OW30442   5.150   3.625   0.513
 9848SOL    HW130443   5.219   3.554   0.526
 9848SOL    HW230444   5.085   3.596   0.443
 9849SOL     OW30445   0.058   6.954   5.111
 9849SOL    HW130446   6.988   6.951   5.080
 9849SOL    HW230447   0.084   0.023   5.131
 9850SOL     OW30448   4.316   6.721   2.548
 9850SOL    HW130449   4.368   6.719   2.633
 9850SOL    HW230450   4.335   6.806   2.500
 9851SOL     OW30451   5.688   3.092   5.009
 9851SOL    HW130452   5.651   3.056   5.095
 9851SOL    HW230453   5.734   3.179   5.027
 9852SOL     OW30454   4.901   2.128   3.895
 9852SOL    HW130455   4.928   2.109   3.989
 9852SOL    HW230456   4.807   2.097   3.880
 9853SOL     OW30457   0.240   4.062   1.184
 9853SOL    HW130458   0.305   4.124   1.140
 9853SOL    HW230459   0.168   4.039   1.119
 9854SOL     OW30460   4.639   6.092   3.258
 9854SOL    HW130461   4.716   6.153   3.274
 9854SOL    HW230462   4.625   6.034   3.339
 9855SOL     OW30463   1.586   3.504   0.922
 9855SOL    HW130464   1.643   3.521   0.842
 9855SOL    HW230465   1.490   3.502   0.894
 9856SOL     OW30466   3.799   2.442   0.781
 9856SOL    HW130467   3.758   2.384   0.851
 9856SOL    HW230468   3.893   2.465   0.807
 9857SOL     OW30469   6.116   4.178   3.477
 9857SOL    HW130470   6.060   4.259   3.456
 9857SOL    HW230471   6.134   4.128   3.393
 9858SOL     OW30472   4.215   1.616   1.258
 9858SOL    HW130473   4.311   1.599   1.281
 9858SOL    HW230474   4.184   1.546   1.193
 9859SOL     OW30475   6.371   0.590   1.588
 9859SOL    HW130476   6.402   0.672   1.539
 9859SOL    HW230477   6.357   0.516   1.522
 9860SOL     OW30478   0.376   1.211   2.260
 9860SOL    HW130479   0.326   1.128   2.237
 9860SOL    HW230480   0.428   1.197   2.344
 9861SOL     OW30481   3.723   6.688   5.048
 9861SOL    HW130482   3.653   6.670   5.117
 9861SOL    HW230483   3.784   6.760   5.081
 9862SOL     OW30484   0.877   2.759   0.599
 9862SOL    HW130485   0.825   2.822   0.656
 9862SOL    HW230486   0.927   2.810   0.529
 9863SOL     OW30487   3.023   0.029   0.817
 9863SOL    HW130488   3.116   0.026   0.855
 9863SOL    HW230489   3.028   0.022   0.717
 9864SOL     OW30490   4.433   5.973   2.387
 9864SOL    HW130491   4.388   6.043   2.442
 9864SOL    HW230492   4.419   5.884   2.429
 9865SOL     OW30493   0.795   2.996   4.998
 9865SOL    HW130494   0.744   2.971   4.917
 9865SOL    HW230495   0.818   3.093   4.995
 9866SOL     OW30496   4.146   4.852   3.241
 9866SOL    HW130497   4.171   4.929   3.300
 9866SOL    HW230498   4.228   4.798   3.220
 9867SOL     OW30499   3.962   0.393   6.245
 9867SOL    HW130500   3.873   0.436   6.234
 9867SOL    HW230501   4.023   0.454   6.296
 9868SOL     OW30502   6.969   5.289   6.661
 9868SOL    HW130503   6.876   5.318   6.636
 9868SOL    HW230504   6.994   5.328   6.749
 9869SOL     OW30505   1.828   3.681   3.546
 9869SOL    HW130506   1.777   3.604   3.585
 9869SOL    HW230507   1.826   3.758   3.610
 9870SOL     OW30508   4.913   4.272   2.435
 9870SOL    HW130509   4.869   4.220   2.362
 9870SOL    HW230510   4.977   4.214   2.485
 9871SOL     OW30511   1.403   1.767   5.389
 9871SOL    HW130512   1.483   1.789   5.333
 9871SOL    HW230513   1.364   1.680   5.359
 9872SOL     OW30514   1.484   4.936   3.768
 9872SOL    HW130515   1.453   4.963   3.859
 9872SOL    HW230516   1.582   4.950   3.760
 9873SOL     OW30517   1.086   2.999   0.402
 9873SOL    HW130518   1.160   2.932   0.400
 9873SOL    HW230519   1.039   2.999   0.314
 9874SOL     OW30520   0.784   3.172   3.529
 9874SOL    HW130521   0.741   3.245   3.583
 9874SOL    HW230522   0.874   3.151   3.568
 9875SOL     OW30523   0.949   1.077   3.145
 9875SOL    HW130524   0.944   0.983   3.112
 9875SOL    HW230525   1.038   1.093   3.188
 9876SOL     OW30526   0.038   6.003   2.656
 9876SOL    HW130527   7.002   5.954   2.719
 9876SOL    HW230528   0.077   5.938   2.591
 9877SOL     OW30529   3.409   0.225   2.042
 9877SOL    HW130530   3.462   0.235   2.126
 9877SOL    HW230531   3.462   0.264   1.965
 9878SOL     OW30532   0.783   0.135   5.136
 9878SOL    HW130533   0.729   0.216   5.111
 9878SOL    HW230534   0.732   0.081   5.203
 9879SOL     OW30535   5.631   5.973   6.056
 9879SOL    HW130536   5.607   5.942   6.148
 9879SOL    HW230537   5.727   6.003   6.055
 9880SOL     OW30538   1.864   1.636   4.797
 9880SOL    HW130539   1.872   1.735   4.798
 9880SOL    HW230540   1.847   1.605   4.703
 9881SOL     OW30541   6.945   2.305   6.421
 9881SOL    HW130542   6.970   2.393   6.379
 9881SOL    HW230543   6.874   2.320   6.489
 9882SOL     OW30544   1.253   1.770   2.775
 9882SOL    HW130545   1.157   1.744   2.768
 9882SOL    HW230546   1.298   1.758   2.687
 9883SOL     OW30547   2.053   0.730   1.963
 9883SOL    HW130548   1.982   0.662   1.948
 9883SOL    HW230549   2.042   0.806   1.899
 9884SOL     OW30550   3.609   0.681   4.326
 9884SOL    HW130551   3.559   0.599   4.352
 9884SOL    HW230552   3.706   0.670   4.348
 9885SOL     OW30553   6.177   4.825   3.792
 9885SOL    HW130554   6.153   4.785   3.704
 9885SOL    HW230555   6.262   4.785   3.825
 9886SOL     OW30556   1.202   3.441   2.344
 9886SOL    HW130557   1.297   3.470   2.353
 9886SOL    HW230558   1.142   3.507   2.390
 9887SOL     OW30559   4.333   0.338   6.046
 9887SOL    HW130560   4.287   0.420   6.079
 9887SOL    HW230561   4.432   0.348   6.056
 9888SOL     OW30562   0.261   4.573   0.509
 9888SOL    HW130563   0.253   4.590   0.607
 9888SOL    HW230564   0.351   4.534   0.490
 9889SOL     OW30565   0.608   5.391   0.328
 9889SOL    HW130566   0.524   5.340   0.308
 9889SOL    HW230567   0.635   5.444   0.247
 9890SOL     OW30568   0.842   3.050   1.019
 9890SOL    HW130569   0.863   3.143   1.050
 9890SOL    HW230570   0.903   3.027   0.942
 9891SOL     OW30571   4.938   1.341   1.709
 9891SOL    HW130572   5.004   1.416   1.716
 9891SOL    HW230573   4.847   1.373   1.736
 9892SOL     OW30574   6.984   5.866   6.325
 9892SOL    HW130575   6.956   5.776   6.289
 9892SOL    HW230576   0.047   5.857   6.371
 9893SOL     OW30577   2.184   1.269   1.297
 9893SOL    HW130578   2.180   1.230   1.389
 9893SOL    HW230579   2.265   1.234   1.249
 9894SOL     OW30580   1.616   1.619   0.821
 9894SOL    HW130581   1.615   1.716   0.845
 9894SOL    HW230582   1.684   1.602   0.750
 9895SOL     OW30583   4.838   3.679   5.890
 9895SOL    HW130584   4.785   3.667   5.974
 9895SOL    HW230585   4.791   3.633   5.814
 9896SOL     OW30586   6.020   6.588   6.696
 9896SOL    HW130587   6.041   6.672   6.646
 9896SOL    HW230588   5.980   6.521   6.634
 9897SOL     OW30589   5.230   5.268   3.778
 9897SOL    HW130590   5.325   5.287   3.753
 9897SOL    HW230591   5.221   5.268   3.878
 9898SOL     OW30592   3.035   6.106   5.213
 9898SOL    HW130593   3.070   6.083   5.122
 9898SOL    HW230594   2.992   6.196   5.210
 9899SOL     OW30595   0.000   5.533   6.899
 9899SOL    HW130596   0.058   5.608   6.931
 9899SOL    HW230597   6.956   5.568   6.837
 9900SOL     OW30598   2.075   3.480   3.637
 9900SOL    HW130599   2.110   3.552   3.696
 9900SOL    HW230600   1.999   3.516   3.582
 9901SOL     OW30601   2.299   2.819   5.503
 9901SOL    HW130602   2.205   2.820   5.469
 9901SOL    HW230603   2.346   2.902   5.473
 9902SOL     OW30604   2.402   3.966   6.996
 9902SOL    HW130605   2.447   3.929   6.915
 9902SOL    HW230606   2.440   4.055   7.018
 9903SOL     OW30607   5.939   0.481   3.824
 9903SOL    HW130608   5.850   0.481   3.870
 9903SOL    HW230609   5.962   0.573   3.796
 9904SOL     OW30610   6.724   2.509   6.527
 9904SOL    HW130611   6.777   2.495   6.611
 9904SOL    HW230612   6.628   2.486   6.545
 9905SOL     OW30613   4.631   1.303   0.024
 9905SOL    HW130614   4.619   1.291   6.951
 9905SOL    HW230615   4.679   1.224   0.062
 9906SOL     OW30616   4.153   3.382   4.672
 9906SOL    HW130617   4.161   3.296   4.722
 9906SOL    HW230618   4.154   3.458   4.737
 9907SOL     OW30619   0.659   0.619   1.320
 9907SOL    HW130620   0.714   0.702   1.325
 9907SOL    HW230621   0.565   0.642   1.293
 9908SOL     OW30622   4.868   3.384   3.116
 9908SOL    HW130623   4.886   3.341   3.205
 9908SOL    HW230624   4.906   3.477   3.116
 9909SOL     OW30625   2.227   0.012   4.971
 9909SOL    HW130626   2.182   6.949   4.984
 9909SOL    HW230627   2.159   0.082   4.952
 9910SOL     OW30628   0.812   4.315   3.368
 9910SOL    HW130629   0.838   4.302   3.464
 9910SOL    HW230630   0.848   4.401   3.335
 9911SOL     OW30631   3.102   6.376   2.245
 9911SOL    HW130632   3.026   6.400   2.306
 9911SOL    HW230633   3.075   6.301   2.185
 9912SOL     OW30634   5.104   0.918   6.854
 9912SOL    HW130635   5.040   0.848   6.822
 9912SOL    HW230636   5.053   0.994   6.895
 9913SOL     OW30637   5.441   3.392   6.716
 9913SOL    HW130638   5.452   3.414   6.619
 9913SOL    HW230639   5.438   3.292   6.727
 9914SOL     OW30640   6.901   2.887   4.961
 9914SOL    HW130641   6.885   2.960   4.894
 9914SOL    HW230642   6.962   2.819   4.921
 9915SOL     OW30643   5.544   0.581   3.812
 9915SOL    HW130644   5.559   0.482   3.811
 9915SOL    HW230645   5.617   0.625   3.864
 9916SOL     OW30646   2.244   2.229   1.681
 9916SOL    HW130647   2.193   2.314   1.693
 9916SOL    HW230648   2.330   2.248   1.633
 9917SOL     OW30649   6.163   4.073   5.040
 9917SOL    HW130650   6.198   4.102   5.130
 9917SOL    HW230651   6.179   3.975   5.028
 9918SOL     OW30652   4.414   2.341   2.766
 9918SOL    HW130653   4.458   2.261   2.807
 9918SOL    HW230654   4.378   2.400   2.838
 9919SOL     OW30655   6.748   6.313   0.136
 9919SOL    HW130656   6.752   6.237   0.072
 9919SOL    HW230657   6.818   6.302   0.207
 9920SOL     OW30658   5.001   1.267   2.217
 9920SOL    HW130659   4.973   1.232   2.127
 9920SOL    HW230660   5.098   1.247   2.231
 9921SOL     OW30661   3.555   5.760   5.935
 9921SOL    HW130662   3.649   5.791   5.948
 9921SOL    HW230663   3.498   5.794   6.010
 9922SOL     OW30664   0.642   5.381   0.621
 9922SOL    HW130665   0.647   5.348   0.527
 9922SOL    HW230666   0.712   5.451   0.635
 9923SOL     OW30667   5.326   4.770   0.725
 9923SOL    HW130668   5.359   4.677   0.744
 9923SOL    HW230669   5.278   4.805   0.806
 9924SOL     OW30670   0.796   4.153   4.818
 9924SOL    HW130671   0.852   4.102   4.753
 9924SOL    HW230672   0.818   4.124   4.911
 9925SOL     OW30673   5.294   2.751   3.718
 9925SOL    HW130674   5.386   2.721   3.747
 9925SOL    HW230675   5.282   2.731   3.620
 9926SOL     OW30676   2.297   5.266   6.954
 9926SOL    HW130677   2.263   5.200   6.888
 9926SOL    HW230678   2.359   5.221   7.018
 9927SOL     OW30679   6.358   6.944   2.704
 9927SOL    HW130680   6.380   6.886   2.626
 9927SOL    HW230681   6.284   7.007   2.680
 9928SOL     OW30682   4.769   4.122   1.541
 9928SOL    HW130683   4.748   4.101   1.446
 9928SOL    HW230684   4.684   4.135   1.592
 9929SOL     OW30685   1.810   4.335   3.109
 9929SOL    HW130686   1.796   4.412   3.171
 9929SOL    HW230687   1.891   4.283   3.138
 9930SOL     OW30688   6.958   0.413   3.860
 9930SOL    HW130689   6.869   0.367   3.859
 9930SOL    HW230690   6.950   0.502   3.815
 9931SOL     OW30691   0.800   4.847   5.555
 9931SOL    HW130692   0.741   4.877   5.630
 9931SOL    HW230693   0.870   4.785   5.592
 9932SOL     OW30694   0.973   6.259   5.260
 9932SOL    HW130695   0.887   6.282   5.214
 9932SOL    HW230696   0.954   6.201   5.339
 9933SOL     OW30697   0.208   5.940   2.243
 9933SOL    HW130698   0.302   5.970   2.261
 9933SOL    HW230699   0.147   6.019   2.246
 9934SOL     OW30700   6.537   2.142   6.333
 9934SOL    HW130701   6.615   2.138   6.270
 9934SOL    HW230702   6.458   2.100   6.289
 9935SOL     OW30703   3.293   0.933   6.327
 9935SOL    HW130704   3.250   0.845   6.309
 9935SOL    HW230705   3.280   0.957   6.423
 9936SOL     OW30706   0.467   4.542   4.407
 9936SOL    HW130707   0.408   4.582   4.337
 9936SOL    HW230708   0.529   4.475   4.364
 9937SOL     OW30709   6.465   2.324   6.586
 9937SOL    HW130710   6.515   2.239   6.566
 9937SOL    HW230711   6.381   2.302   6.635
 9938SOL     OW30712   6.371   6.254   2.791
 9938SOL    HW130713   6.358   6.346   2.828
 9938SOL    HW230714   6.433   6.258   2.713
 9939SOL     OW30715   3.451   2.837   2.125
 9939SOL    HW130716   3.522   2.874   2.186
 9939SOL    HW230717   3.495   2.787   2.050
 9940SOL     OW30718   0.203   0.931   0.170
 9940SOL    HW130719   0.206   0.888   0.079
 9940SOL    HW230720   0.113   0.917   0.211
 9941SOL     OW30721   3.291   4.835   5.883
 9941SOL    HW130722   3.345   4.824   5.799
 9941SOL    HW230723   3.239   4.920   5.879
 9942SOL     OW30724   2.671   5.357   3.425
 9942SOL    HW130725   2.591   5.303   3.450
 9942SOL    HW230726   2.657   5.401   3.337
 9943SOL     OW30727   1.059   6.711   5.212
 9943SOL    HW130728   1.097   6.761   5.135
 9943SOL    HW230729   1.072   6.763   5.296
 9944SOL     OW30730   0.682   3.884   0.397
 9944SOL    HW130731   0.733   3.800   0.377
 9944SOL    HW230732   0.702   3.953   0.328
 9945SOL     OW30733   6.615   5.784   0.283
 9945SOL    HW130734   6.593   5.879   0.263
 9945SOL    HW230735   6.580   5.725   0.210
 9946SOL     OW30736   5.250   1.308   4.818
 9946SOL    HW130737   5.175   1.294   4.754
 9946SOL    HW230738   5.218   1.294   4.911
 9947SOL     OW30739   6.140   4.632   3.587
 9947SOL    HW130740   6.068   4.630   3.518
 9947SOL    HW230741   6.108   4.583   3.669
 9948SOL     OW30742   5.310   4.336   4.228
 9948SOL    HW130743   5.344   4.244   4.209
 9948SOL    HW230744   5.234   4.331   4.294
 9949SOL     OW30745   5.621   5.113   2.600
 9949SOL    HW130746   5.545   5.063   2.560
 9949SOL    HW230747   5.707   5.079   2.562
 9950SOL     OW30748   3.577   5.815   5.449
 9950SOL    HW130749   3.648   5.883   5.428
 9950SOL    HW230750   3.618   5.725   5.459
 9951SOL     OW30751   6.053   2.133   2.924
 9951SOL    HW130752   6.084   2.210   2.979
 9951SOL    HW230753   5.954   2.128   2.926
 9952SOL     OW30754   0.644   5.544   0.098
 9952SOL    HW130755   0.555   5.565   0.057
 9952SOL    HW230756   0.697   5.488   0.034
 9953SOL     OW30757   6.681   2.159   4.120
 9953SOL    HW130758   6.665   2.256   4.140
 9953SOL    HW230759   6.639   2.136   4.032
 9954SOL     OW30760   4.603   0.274   5.337
 9954SOL    HW130761   4.545   0.350   5.365
 9954SOL    HW230762   4.546   0.194   5.317
 9955SOL     OW30763   0.499   4.646   4.655
 9955SOL    HW130764   0.487   4.607   4.564
 9955SOL    HW230765   0.464   4.582   4.724
 9956SOL     OW30766   1.289   6.164   1.021
 9956SOL    HW130767   1.365   6.156   0.956
 9956SOL    HW230768   1.279   6.078   1.071
 9957SOL     OW30769   6.249   4.417   2.708
 9957SOL    HW130770   6.237   4.488   2.776
 9957SOL    HW230771   6.167   4.411   2.650
 9958SOL     OW30772   2.290   4.125   1.409
 9958SOL    HW130773   2.305   4.109   1.506
 9958SOL    HW230774   2.342   4.058   1.355
 9959SOL     OW30775   3.864   3.383   0.986
 9959SOL    HW130776   3.907   3.411   0.900
 9959SOL    HW230777   3.894   3.291   1.010
 9960SOL     OW30778   0.774   1.394   2.158
 9960SOL    HW130779   0.866   1.418   2.126
 9960SOL    HW230780   0.732   1.473   2.201
 9961SOL     OW30781   2.307   4.606   4.722
 9961SOL    HW130782   2.396   4.580   4.683
 9961SOL    HW230783   2.280   4.540   4.792
 9962SOL     OW30784   5.670   6.223   4.830
 9962SOL    HW130785   5.627   6.312   4.849
 9962SOL    HW230786   5.706   6.185   4.915
 9963SOL     OW30787   3.167   0.398   0.480
 9963SOL    HW130788   3.108   0.374   0.403
 9963SOL    HW230789   3.197   0.315   0.527
 9964SOL     OW30790   4.847   5.897   5.088
 9964SOL    HW130791   4.882   5.805   5.072
 9964SOL    HW230792   4.816   5.906   5.182
 9965SOL     OW30793   3.826   0.358   0.172
 9965SOL    HW130794   3.878   0.405   0.101
 9965SOL    HW230795   3.880   0.282   0.209
 9966SOL     OW30796   6.948   7.004   2.753
 9966SOL    HW130797   6.900   6.919   2.775
 9966SOL    HW230798   0.003   7.014   2.812
 9967SOL     OW30799   1.266   5.299   0.529
 9967SOL    HW130800   1.329   5.317   0.605
 9967SOL    HW230801   1.295   5.216   0.482
 9968SOL     OW30802   3.421   2.885   2.792
 9968SOL    HW130803   3.374   2.920   2.874
 9968SOL    HW230804   3.376   2.922   2.711
 9969SOL     OW30805   1.292   3.551   1.832
 9969SOL    HW130806   1.334   3.581   1.918
 9969SOL    HW230807   1.347   3.583   1.755
 9970SOL     OW30808   5.839   4.425   1.497
 9970SOL    HW130809   5.783   4.503   1.470
 9970SOL    HW230810   5.936   4.449   1.490
 9971SOL     OW30811   2.670   5.965   0.302
 9971SOL    HW130812   2.681   5.999   0.208
 9971SOL    HW230813   2.687   6.040   0.366
 9972SOL     OW30814   6.865   4.717   1.404
 9972SOL    HW130815   6.920   4.661   1.465
 9972SOL    HW230816   6.874   4.684   1.310
 9973SOL     OW30817   5.759   6.819   4.428
 9973SOL    HW130818   5.779   6.721   4.435
 9973SOL    HW230819   5.768   6.849   4.333
 9974SOL     OW30820   2.172   1.069   4.019
 9974SOL    HW130821   2.194   1.005   4.093
 9974SOL    HW230822   2.100   1.131   4.049
 9975SOL     OW30823   6.758   3.409   0.770
 9975SOL    HW130824   6.836   3.442   0.823
 9975SOL    HW230825   6.727   3.481   0.708
 9976SOL     OW30826   2.051   0.230   4.992
 9976SOL    HW130827   1.999   0.299   4.942
 9976SOL    HW230828   2.065   0.260   5.086
 9977SOL     OW30829   6.602   4.688   4.292
 9977SOL    HW130830   6.508   4.719   4.309
 9977SOL    HW230831   6.627   4.708   4.197
 9978SOL     OW30832   0.214   2.715   4.510
 9978SOL    HW130833   0.304   2.677   4.489
 9978SOL    HW230834   0.206   2.806   4.468
 9979SOL     OW30835   0.740   3.920   5.489
 9979SOL    HW130836   0.806   3.944   5.417
 9979SOL    HW230837   0.718   3.823   5.482
 9980SOL     OW30838   3.357   6.797   5.013
 9980SOL    HW130839   3.424   6.727   5.038
 9980SOL    HW230840   3.315   6.773   4.926
 9981SOL     OW30841   3.261   1.957   4.156
 9981SOL    HW130842   3.264   1.863   4.121
 9981SOL    HW230843   3.285   1.958   4.253
 9982SOL     OW30844   6.328   5.893   2.954
 9982SOL    HW130845   6.269   5.961   2.999
 9982SOL    HW230846   6.286   5.866   2.867
 9983SOL     OW30847   0.219   1.256   1.421
 9983SOL    HW130848   0.226   1.160   1.449
 9983SOL    HW230849   0.219   1.314   1.502
 9984SOL     OW30850   2.819   0.982   0.416
 9984SOL    HW130851   2.755   0.906   0.409
 9984SOL    HW230852   2.910   0.953   0.386
 9985SOL     OW30853   1.173   1.311   1.923
 9985SOL    HW130854   1.271   1.317   1.938
 9985SOL    HW230855   1.150   1.350   1.834
 9986SOL     OW30856   5.095   4.291   5.032
 9986SOL    HW130857   5.098   4.362   4.962
 9986SOL    HW230858   5.034   4.218   5.002
 9987SOL     OW30859   0.323   4.610   5.756
 9987SOL    HW130860   0.405   4.649   5.714
 9987SOL    HW230861   0.283   4.542   5.694
 9988SOL     OW30862   6.876   6.991   4.605
 9988SOL    HW130863   6.844   0.048   4.558
 9988SOL    HW230864   6.939   7.017   4.678
 9989SOL     OW30865   0.815   3.498   4.497
 9989SOL    HW130866   0.733   3.533   4.452
 9989SOL    HW230867   0.880   3.573   4.510
 9990SOL     OW30868   1.005   5.102   2.196
 9990SOL    HW130869   1.040   5.158   2.272
 9990SOL    HW230870   1.072   5.032   2.173
 9991SOL     OW30871   3.671   2.126   3.304
 9991SOL    HW130872   3.741   2.195   3.325
 9991SOL    HW230873   3.692   2.082   3.217
 9992SOL     OW30874   6.584   5.723   6.098
 9992SOL    HW130875   6.563   5.816   6.067
 9992SOL    HW230876   6.679   5.701   6.074
 9993SOL     OW30877   1.031   1.081   1.907
 9993SOL    HW130878   0.959   1.086   1.976
 9993SOL    HW230879   1.070   1.173   1.894
 9994SOL     OW30880   5.989   4.667   3.087
 9994SOL    HW130881   6.050   4.650   3.164
 9994SOL    HW230882   6.038   4.716   3.015
 9995SOL     OW30883   5.011   1.333   4.651
 9995SOL    HW130884   5.002   1.433   4.651
 9995SOL    HW230885   4.922   1.292   4.668
 9996SOL     OW30886   2.312   3.216   0.065
 9996SOL    HW130887   2.403   3.180   0.081
 9996SOL    HW230888   2.281   3.188   6.999
 9997SOL     OW30889   2.937   6.857   4.569
 9997SOL    HW130890   2.946   6.877   4.666
 9997SOL    HW230891   2.862   6.792   4.556
 9998SOL     OW30892   5.950   6.451   5.305
 9998SOL    HW130893   5.929   6.421   5.398
 9998SOL    HW230894   5.943   6.551   5.299
 9999SOL     OW30895   6.824   2.563   4.564
 9999SOL    HW130896   6.767   2.543   4.485
 9999SOL    HW230897   6.811   2.659   4.591
10000SOL     OW30898   0.015   4.079   6.934
10000SOL    HW130899   0.046   4.143   7.003
10000SOL    HW230900   0.092   4.025   6.901
10001SOL     OW30901   4.117   0.204   3.079
10001SOL    HW130902   4.058   0.197   2.999
10001SOL    HW230903   4.212   0.210   3.050
10002SOL     OW30904   1.090   1.451   1.700
10002SOL    HW130905   1.072   1.530   1.642
10002SOL    HW230906   1.003   1.414   1.733
10003SOL     OW30907   5.447   2.496   3.768
10003SOL    HW130908   5.505   2.575   3.792
10003SOL    HW230909   5.445   2.485   3.669
10004SOL     OW30910   0.481   2.208   2.885
10004SOL    HW130911   0.508   2.119   2.924
10004SOL    HW230912   0.415   2.193   2.812
10005SOL     OW30913   5.232   6.790   4.421
10005SOL    HW130914   5.141   6.752   4.406
10005SOL    HW230915   5.299   6.717   4.420
10006SOL     OW30916   4.523   1.619   4.631
10006SOL    HW130917   4.551   1.617   4.535
10006SOL    HW230918   4.574   1.549   4.681
10007SOL     OW30919   6.197   3.614   4.450
10007SOL    HW130920   6.158   3.544   4.389
10007SOL    HW230921   6.254   3.569   4.519
10008SOL     OW30922   4.082   6.948   4.081
10008SOL    HW130923   4.011   6.883   4.056
10008SOL    HW230924   4.107   7.004   4.002
10009SOL     OW30925   1.186   4.280   1.702
10009SOL    HW130926   1.090   4.263   1.680
10009SOL    HW230927   1.194   4.361   1.759
10010SOL     OW30928   6.448   1.641   6.261
10010SOL    HW130929   6.382   1.682   6.325
10010SOL    HW230930   6.405   1.628   6.172
10011SOL     OW30931   0.017   6.817   4.280
10011SOL    HW130932   0.020   6.722   4.247
10011SOL    HW230933   6.995   6.820   4.368
10012SOL     OW30934   5.763   0.371   4.385
10012SOL    HW130935   5.674   0.391   4.428
10012SOL    HW230936   5.813   0.305   4.442
10013SOL     OW30937   1.319   0.959   2.085
10013SOL    HW130938   1.401   1.013   2.099
10013SOL    HW230939   1.241   1.020   2.069
10014SOL     OW30940   2.030   5.076   5.775
10014SOL    HW130941   1.979   5.053   5.858
10014SOL    HW230942   1.983   5.037   5.696
10015SOL     OW30943   2.297   4.769   6.915
10015SOL    HW130944   2.216   4.715   6.892
10015SOL    HW230945   2.275   4.832   6.990
10016SOL     OW30946   2.834   0.563   5.363
10016SOL    HW130947   2.923   0.542   5.323
10016SOL    HW230948   2.814   0.660   5.353
10017SOL     OW30949   0.570   2.169   4.169
10017SOL    HW130950   0.610   2.253   4.133
10017SOL    HW230951   0.563   2.101   4.096
10018SOL     OW30952   4.881   6.918   5.910
10018SOL    HW130953   4.796   6.873   5.938
10018SOL    HW230954   4.927   6.957   5.990
10019SOL     OW30955   1.789   1.167   2.279
10019SOL    HW130956   1.800   1.104   2.356
10019SOL    HW230957   1.843   1.250   2.297
10020SOL     OW30958   0.166   2.868   6.977
10020SOL    HW130959   0.205   2.950   7.019
10020SOL    HW230960   0.227   2.835   6.904
10021SOL     OW30961   5.431   3.215   1.736
10021SOL    HW130962   5.374   3.139   1.765
10021SOL    HW230963   5.519   3.181   1.704
10022SOL     OW30964   1.822   0.467   6.387
10022SOL    HW130965   1.780   0.405   6.453
10022SOL    HW230966   1.776   0.556   6.391
10023SOL     OW30967   0.407   3.183   1.066
10023SOL    HW130968   0.316   3.173   1.026
10023SOL    HW230969   0.403   3.164   1.164
10024SOL     OW30970   1.503   4.593   3.667
10024SOL    HW130971   1.550   4.629   3.586
10024SOL    HW230972   1.484   4.496   3.654
10025SOL     OW30973   1.288   1.373   0.673
10025SOL    HW130974   1.206   1.334   0.631
10025SOL    HW230975   1.279   1.371   0.772
10026SOL     OW30976   0.112   0.198   3.955
10026SOL    HW130977   0.060   0.237   4.031
10026SOL    HW230978   0.084   0.242   3.870
10027SOL     OW30979   5.317   2.418   5.870
10027SOL    HW130980   5.408   2.378   5.862
10027SOL    HW230981   5.276   2.390   5.957
10028SOL     OW30982   1.910   0.510   1.412
10028SOL    HW130983   1.854   0.485   1.333
10028SOL    HW230984   1.854   0.561   1.477
10029SOL     OW30985   4.929   1.560   4.017
10029SOL    HW130986   4.943   1.655   4.045
10029SOL    HW230987   4.868   1.557   3.938
10030SOL     OW30988   1.291   0.728   3.006
10030SOL    HW130989   1.299   0.695   3.100
10030SOL    HW230990   1.351   0.808   2.993
10031SOL     OW30991   6.694   4.500   3.903
10031SOL    HW130992   6.636   4.445   3.963
10031SOL    HW230993   6.702   4.592   3.940
10032SOL     OW30994   3.067   1.148   4.902
10032SOL    HW130995   3.106   1.147   4.994
10032SOL    HW230996   3.133   1.187   4.838
10033SOL     OW30997   5.354   2.891   4.646
10033SOL    HW130998   5.417   2.918   4.720
10033SOL    HW230999   5.367   2.794   4.626
10034SOL     OW31000   4.612   0.370   6.076
10034SOL    HW131001   4.700   0.417   6.084
10034SOL    HW231002   4.626   0.280   6.034
10035SOL     OW31003   0.053   6.459   3.749
10035SOL    HW131004   0.144   6.427   3.776
10035SOL    HW231005   0.048   6.558   3.762
10036SOL     OW31006   6.903   0.395   0.028
10036SOL    HW131007   6.828   0.338   7.020
10036SOL    HW231008   6.925   0.465   6.985
10037SOL     OW31009   0.005   0.096   1.033
10037SOL    HW131010   6.950   0.137   1.077
10037SOL    HW231011   7.000   0.037   0.958
10038SOL     OW31012   6.315   0.539   0.872
10038SOL    HW131013   6.290   0.459   0.818
10038SOL    HW231014   6.379   0.512   0.944
10039SOL     OW31015   3.705   0.781   2.983
10039SOL    HW131016   3.759   0.787   2.899
10039SOL    HW231017   3.690   0.685   3.006
10040SOL     OW31018   0.410   2.424   0.834
10040SOL    HW131019   0.331   2.384   0.882
10040SOL    HW231020   0.479   2.452   0.902
10041SOL     OW31021   1.407   6.026   0.626
10041SOL    HW131022   1.445   6.084   0.699
10041SOL    HW231023   1.438   5.932   0.639
10042SOL     OW31024   6.369   2.431   3.263
10042SOL    HW131025   6.349   2.510   3.205
10042SOL    HW231026   6.353   2.346   3.212
10043SOL     OW31027   0.915   3.268   4.956
10043SOL    HW131028   0.879   3.319   5.034
10043SOL    HW231029   0.939   3.331   4.883
10044SOL     OW31030   4.044   2.068   6.095
10044SOL    HW131031   3.954   2.038   6.127
10044SOL    HW231032   4.113   2.044   6.162
10045SOL     OW31033   2.555   0.754   0.719
10045SOL    HW131034   2.621   0.678   0.714
10045SOL    HW231035   2.463   0.719   0.700
10046SOL     OW31036   1.054   5.244   1.179
10046SOL    HW131037   0.993   5.302   1.125
10046SOL    HW231038   1.094   5.297   1.253
10047SOL     OW31039   1.250   3.640   0.470
10047SOL    HW131040   1.214   3.548   0.452
10047SOL    HW231041   1.350   3.635   0.480
10048SOL     OW31042   5.761   4.974   2.011
10048SOL    HW131043   5.759   4.880   1.976
10048SOL    HW231044   5.675   4.994   2.059
10049SOL     OW31045   5.699   1.300   5.073
10049SOL    HW131046   5.647   1.385   5.082
10049SOL    HW231047   5.686   1.262   4.982
10050SOL     OW31048   0.113   2.973   5.758
10050SOL    HW131049   0.131   3.053   5.815
10050SOL    HW231050   0.178   2.901   5.780
10051SOL     OW31051   2.139   1.481   4.492
10051SOL    HW131052   2.177   1.390   4.475
10051SOL    HW231053   2.109   1.487   4.587
10052SOL     OW31054   1.337   0.457   3.536
10052SOL    HW131055   1.306   0.404   3.615
10052SOL    HW231056   1.436   0.451   3.528
10053SOL     OW31057   5.905   5.213   3.066
10053SOL    HW131058   5.918   5.149   3.142
10053SOL    HW231059   5.880   5.303   3.101
10054SOL     OW31060   6.824   4.284   4.127
10054SOL    HW131061   6.747   4.220   4.131
10054SOL    HW231062   6.808   4.359   4.192
10055SOL     OW31063   1.421   2.158   6.495
10055SOL    HW131064   1.458   2.203   6.576
10055SOL    HW231065   1.476   2.182   6.415
10056SOL     OW31066   6.201   2.290   4.474
10056SOL    HW131067   6.150   2.213   4.512
10056SOL    HW231068   6.159   2.376   4.504
10057SOL     OW31069   5.400   4.914   5.763
10057SOL    HW131070   5.438   4.847   5.827
10057SOL    HW231071   5.333   4.971   5.810
10058SOL     OW31072   0.121   4.288   4.791
10058SOL    HW131073   0.056   4.226   4.747
10058SOL    HW231074   0.072   4.349   4.854
10059SOL     OW31075   5.404   6.771   6.266
10059SOL    HW131076   5.426   6.770   6.364
10059SOL    HW231077   5.309   6.741   6.253
10060SOL     OW31078   3.020   1.706   1.917
10060SOL    HW131079   3.010   1.795   1.874
10060SOL    HW231080   3.112   1.697   1.956
10061SOL     OW31081   2.964   0.190   2.496
10061SOL    HW131082   3.058   0.170   2.467
10061SOL    HW231083   2.905   0.112   2.475
10062SOL     OW31084   0.171   6.820   4.859
10062SOL    HW131085   0.161   6.787   4.953
10062SOL    HW231086   0.262   6.860   4.847
10063SOL     OW31087   2.784   2.313   4.464
10063SOL    HW131088   2.800   2.223   4.423
10063SOL    HW231089   2.826   2.317   4.554
10064SOL     OW31090   2.851   0.513   2.205
10064SOL    HW131091   2.782   0.578   2.172
10064SOL    HW231092   2.898   0.471   2.128
10065SOL     OW31093   0.197   1.950   1.452
10065SOL    HW131094   0.242   1.994   1.374
10065SOL    HW231095   0.190   1.852   1.434
10066SOL     OW31096   6.632   5.011   3.584
10066SOL    HW131097   6.714   4.959   3.563
10066SOL    HW231098   6.575   4.959   3.648
10067SOL     OW31099   0.003   3.659   5.282
10067SOL    HW131100   6.930   3.642   5.288
10067SOL    HW231101   0.047   3.633   5.368
10068SOL     OW31102   1.593   2.645   2.373
10068SOL    HW131103   1.619   2.572   2.311
10068SOL    HW231104   1.594   2.732   2.324
10069SOL     OW31105   3.136   5.007   1.211
10069SOL    HW131106   3.176   4.936   1.152
10069SOL    HW231107   3.058   5.049   1.165
10070SOL     OW31108   5.292   0.166   0.609
10070SOL    HW131109   5.328   0.236   0.547
10070SOL    HW231110   5.231   0.208   0.675
10071SOL     OW31111   5.412   1.035   5.443
10071SOL    HW131112   5.405   0.980   5.360
10071SOL    HW231113   5.337   1.012   5.505
10072SOL     OW31114   6.360   3.148   2.134
10072SOL    HW131115   6.270   3.110   2.154
10072SOL    HW231116   6.359   3.191   2.044
10073SOL     OW31117   5.609   5.513   5.019
10073SOL    HW131118   5.645   5.528   5.111
10073SOL    HW231119   5.540   5.442   5.021
10074SOL     OW31120   2.287   4.754   0.390
10074SOL    HW131121   2.203   4.710   0.359
10074SOL    HW231122   2.349   4.684   0.427
10075SOL     OW31123   1.387   2.805   1.517
10075SOL    HW131124   1.302   2.829   1.470
10075SOL    HW231125   1.465   2.837   1.462
10076SOL     OW31126   5.724   4.342   4.098
10076SOL    HW131127   5.758   4.320   4.006
10076SOL    HW231128   5.711   4.258   4.150
10077SOL     OW31129   4.454   3.784   6.454
10077SOL    HW131130   4.442   3.691   6.420
10077SOL    HW231131   4.433   3.786   6.552
10078SOL     OW31132   6.104   5.401   4.542
10078SOL    HW131133   6.067   5.471   4.480
10078SOL    HW231134   6.029   5.354   4.587
10079SOL     OW31135   5.319   4.384   3.676
10079SOL    HW131136   5.280   4.329   3.603
10079SOL    HW231137   5.286   4.478   3.669
10080SOL     OW31138   4.838   1.649   5.514
10080SOL    HW131139   4.882   1.739   5.524
10080SOL    HW231140   4.906   1.581   5.489
10081SOL     OW31141   1.165   4.713   6.970
10081SOL    HW131142   1.126   4.622   6.985
10081SOL    HW231143   1.123   4.778   0.008
10082SOL     OW31144   1.346   4.635   0.869
10082SOL    HW131145   1.334   4.725   0.910
10082SOL    HW231146   1.347   4.566   0.941
10083SOL     OW31147   2.720   5.970   2.106
10083SOL    HW131148   2.778   5.978   2.188
10083SOL    HW231149   2.771   6.002   2.026
10084SOL     OW31150   1.358   2.743   4.402
10084SOL    HW131151   1.427   2.814   4.385
10084SOL    HW231152   1.332   2.700   4.316
10085SOL     OW31153   4.819   0.028   1.906
10085SOL    HW131154   4.915   0.006   1.890
10085SOL    HW231155   4.762   6.978   1.873
10086SOL     OW31156   4.292   6.517   3.085
10086SOL    HW131157   4.345   6.594   3.121
10086SOL    HW231158   4.214   6.500   3.144
10087SOL     OW31159   1.722   6.532   5.102
10087SOL    HW131160   1.796   6.469   5.125
10087SOL    HW231161   1.684   6.570   5.186
10088SOL     OW31162   6.529   2.665   1.312
10088SOL    HW131163   6.506   2.653   1.408
10088SOL    HW231164   6.471   2.736   1.272
10089SOL     OW31165   4.298   0.291   2.078
10089SOL    HW131166   4.285   0.349   2.158
10089SOL    HW231167   4.394   0.295   2.049
10090SOL     OW31168   1.783   5.984   2.790
10090SOL    HW131169   1.743   5.972   2.881
10090SOL    HW231170   1.722   6.041   2.735
10091SOL     OW31171   5.469   5.111   4.494
10091SOL    HW131172   5.396   5.046   4.471
10091SOL    HW231173   5.549   5.061   4.529
10092SOL     OW31174   0.742   1.791   3.031
10092SOL    HW131175   0.727   1.882   2.993
10092SOL    HW231176   0.803   1.739   2.971
10093SOL     OW31177   4.493   3.913   6.225
10093SOL    HW131178   4.489   3.888   6.322
10093SOL    HW231179   4.470   3.834   6.169
10094SOL     OW31180   3.627   2.200   0.532
10094SOL    HW131181   3.611   2.102   0.516
10094SOL    HW231182   3.726   2.217   0.536
10095SOL     OW31183   4.036   3.391   5.366
10095SOL    HW131184   3.992   3.391   5.276
10095SOL    HW231185   3.978   3.439   5.432
10096SOL     OW31186   6.582   3.542   1.878
10096SOL    HW131187   6.575   3.550   1.977
10096SOL    HW231188   6.575   3.633   1.837
10097SOL     OW31189   0.920   1.562   1.010
10097SOL    HW131190   1.010   1.589   1.043
10097SOL    HW231191   0.881   1.493   1.071
10098SOL     OW31192   3.298   6.037   4.905
10098SOL    HW131193   3.217   5.982   4.923
10098SOL    HW231194   3.340   6.063   4.993
10099SOL     OW31195   0.103   5.006   3.451
10099SOL    HW131196   0.063   5.030   3.362
10099SOL    HW231197   0.060   5.061   3.523
10100SOL     OW31198   5.118   4.857   4.164
10100SOL    HW131199   5.113   4.900   4.073
10100SOL    HW231200   5.145   4.761   4.154
10101SOL     OW31201   6.824   2.660   0.263
10101SOL    HW131202   6.737   2.629   0.224
10101SOL    HW231203   6.824   2.643   0.362
10102SOL     OW31204   6.321   4.992   3.528
10102SOL    HW131205   6.395   5.047   3.490
10102SOL    HW231206   6.345   4.895   3.521
10103SOL     OW31207   0.401   6.617   6.714
10103SOL    HW131208   0.429   6.522   6.728
10103SOL    HW231209   0.469   6.678   6.755
10104SOL     OW31210   2.922   0.475   4.668
10104SOL    HW131211   2.825   0.488   4.648
10104SOL    HW231212   2.957   0.555   4.717
10105SOL     OW31213   3.040   1.334   3.524
10105SOL    HW131214   3.082   1.424   3.508
10105SOL    HW231215   3.111   1.264   3.522
10106SOL     OW31216   5.805   4.277   1.710
10106SOL    HW131217   5.822   4.329   1.627
10106SOL    HW231218   5.783   4.182   1.685
10107SOL     OW31219   5.325   5.553   6.084
10107SOL    HW131220   5.381   5.480   6.045
10107SOL    HW231221   5.320   5.629   6.018
10108SOL     OW31222   2.508   2.595   5.062
10108SOL    HW131223   2.440   2.650   5.014
10108SOL    HW231224   2.501   2.612   5.160
10109SOL     OW31225   1.341   3.241   0.959
10109SOL    HW131226   1.360   3.181   0.881
10109SOL    HW231227   1.393   3.209   1.039
10110SOL     OW31228   6.430   5.792   1.594
10110SOL    HW131229   6.347   5.757   1.550
10110SOL    HW231230   6.423   5.891   1.604
10111SOL     OW31231   6.176   2.791   1.475
10111SOL    HW131232   6.200   2.698   1.504
10111SOL    HW231233   6.235   2.856   1.522
10112SOL     OW31234   6.816   2.715   3.943
10112SOL    HW131235   6.839   2.805   3.905
10112SOL    HW231236   6.739   2.676   3.892
10113SOL     OW31237   6.622   6.334   5.637
10113SOL    HW131238   6.684   6.272   5.685
10113SOL    HW231239   6.573   6.390   5.704
10114SOL     OW31240   5.150   3.238   1.971
10114SOL    HW131241   5.175   3.148   2.005
10114SOL    HW231242   5.216   3.306   2.003
10115SOL     OW31243   3.681   2.942   6.467
10115SOL    HW131244   3.623   3.023   6.466
10115SOL    HW231245   3.679   2.899   6.377
10116SOL     OW31246   0.439   0.215   6.185
10116SOL    HW131247   0.518   0.270   6.159
10116SOL    HW231248   0.363   0.275   6.208
10117SOL     OW31249   6.850   4.641   1.107
10117SOL    HW131250   6.900   4.559   1.134
10117SOL    HW231251   6.781   4.618   1.039
10118SOL     OW31252   4.179   4.897   3.830
10118SOL    HW131253   4.152   4.834   3.903
10118SOL    HW231254   4.097   4.928   3.781
10119SOL     OW31255   5.907   6.257   6.851
10119SOL    HW131256   6.006   6.243   6.848
10119SOL    HW231257   5.872   6.261   6.757
10120SOL     OW31258   2.453   2.460   2.508
10120SOL    HW131259   2.448   2.388   2.578
10120SOL    HW231260   2.545   2.464   2.471
10121SOL     OW31261   6.669   5.649   1.547
10121SOL    HW131262   6.724   5.733   1.546
10121SOL    HW231263   6.573   5.673   1.560
10122SOL     OW31264   1.744   0.211   3.163
10122SOL    HW131265   1.705   0.193   3.072
10122SOL    HW231266   1.796   0.296   3.160
10123SOL     OW31267   6.018   6.169   6.299
10123SOL    HW131268   5.955   6.117   6.356
10123SOL    HW231269   6.112   6.152   6.329
10124SOL     OW31270   2.531   5.198   2.256
10124SOL    HW131271   2.614   5.226   2.304
10124SOL    HW231272   2.555   5.141   2.177
10125SOL     OW31273   1.330   0.978   5.119
10125SOL    HW131274   1.254   0.972   5.053
10125SOL    HW231275   1.399   1.042   5.085
10126SOL     OW31276   6.774   6.149   5.034
10126SOL    HW131277   6.844   6.080   5.016
10126SOL    HW231278   6.801   6.205   5.113
10127SOL     OW31279   2.119   6.994   5.783
10127SOL    HW131280   2.056   6.971   5.857
10127SOL    HW231281   2.074   0.030   5.718
10128SOL     OW31282   2.649   1.955   6.867
10128SOL    HW131283   2.676   2.017   6.940
10128SOL    HW231284   2.636   2.007   6.782
10129SOL     OW31285   6.599   2.066   4.961
10129SOL    HW131286   6.560   2.158   4.954
10129SOL    HW231287   6.675   2.058   4.896
10130SOL     OW31288   1.345   2.376   3.195
10130SOL    HW131289   1.390   2.442   3.255
10130SOL    HW231290   1.414   2.319   3.151
10131SOL     OW31291   1.898   0.315   5.229
10131SOL    HW131292   1.827   0.348   5.290
10131SOL    HW231293   1.988   0.328   5.271
10132SOL     OW31294   5.661   0.763   2.490
10132SOL    HW131295   5.685   0.747   2.586
10132SOL    HW231296   5.569   0.800   2.485
10133SOL     OW31297   4.479   5.820   1.258
10133SOL    HW131298   4.549   5.782   1.197
10133SOL    HW231299   4.399   5.759   1.260
10134SOL     OW31300   0.093   6.503   3.481
10134SOL    HW131301   0.101   6.458   3.569
10134SOL    HW231302   0.078   6.435   3.409
10135SOL     OW31303   6.518   6.637   3.672
10135SOL    HW131304   6.591   6.689   3.715
10135SOL    HW231305   6.456   6.602   3.742
10136SOL     OW31306   4.558   0.758   3.725
10136SOL    HW131307   4.615   0.803   3.794
10136SOL    HW231308   4.542   0.663   3.751
10137SOL     OW31309   7.013   5.835   4.154
10137SOL    HW131310   7.001   5.888   4.238
10137SOL    HW231311   6.981   5.741   4.168
10138SOL     OW31312   0.147   2.432   1.756
10138SOL    HW131313   0.147   2.353   1.695
10138SOL    HW231314   0.220   2.421   1.825
10139SOL     OW31315   4.425   2.816   0.093
10139SOL    HW131316   4.434   2.893   0.156
10139SOL    HW231317   4.371   2.844   0.013
10140SOL     OW31318   6.618   5.707   5.359
10140SOL    HW131319   6.704   5.752   5.384
10140SOL    HW231320   6.554   5.713   5.436
10141SOL     OW31321   1.872   2.167   4.964
10141SOL    HW131322   1.796   2.211   4.916
10141SOL    HW231323   1.866   2.068   4.951
10142SOL     OW31324   5.061   5.710   2.269
10142SOL    HW131325   5.057   5.615   2.301
10142SOL    HW231326   5.003   5.767   2.327
10143SOL     OW31327   5.546   3.433   6.284
10143SOL    HW131328   5.466   3.477   6.324
10143SOL    HW231329   5.600   3.388   6.357
10144SOL     OW31330   3.465   0.374   0.751
10144SOL    HW131331   3.477   0.324   0.666
10144SOL    HW231332   3.528   0.451   0.754
10145SOL     OW31333   6.425   0.052   5.167
10145SOL    HW131334   6.430   0.144   5.207
10145SOL    HW231335   6.466   0.053   5.076
10146SOL     OW31336   1.589   2.947   5.746
10146SOL    HW131337   1.605   2.873   5.681
10146SOL    HW231338   1.675   2.969   5.793
10147SOL     OW31339   3.788   5.497   0.340
10147SOL    HW131340   3.784   5.398   0.342
10147SOL    HW231341   3.806   5.532   0.432
10148SOL     OW31342   0.345   5.069   6.607
10148SOL    HW131343   0.317   5.060   6.703
10148SOL    HW231344   0.286   5.011   6.550
10149SOL     OW31345   4.027   3.083   2.535
10149SOL    HW131346   4.113   3.127   2.508
10149SOL    HW231347   3.994   3.025   2.461
10150SOL     OW31348   4.921   3.967   1.715
10150SOL    HW131349   4.951   4.035   1.782
10150SOL    HW231350   4.850   4.007   1.658
10151SOL     OW31351   7.010   1.041   6.085
10151SOL    HW131352   0.025   1.127   6.055
10151SOL    HW231353   6.929   1.021   6.029
10152SOL     OW31354   4.056   6.661   3.528
10152SOL    HW131355   4.082   6.757   3.517
10152SOL    HW231356   4.133   6.610   3.566
10153SOL     OW31357   4.910   3.550   1.707
10153SOL    HW131358   4.957   3.541   1.795
10153SOL    HW231359   4.838   3.619   1.714
10154SOL     OW31360   4.236   5.464   5.306
10154SOL    HW131361   4.148   5.456   5.259
10154SOL    HW231362   4.219   5.490   5.402
10155SOL     OW31363   4.681   2.035   4.443
10155SOL    HW131364   4.709   2.075   4.530
10155SOL    HW231365   4.622   2.100   4.394
10156SOL     OW31366   4.060   2.377   6.114
10156SOL    HW131367   4.070   2.278   6.109
10156SOL    HW231368   4.058   2.406   6.209
10157SOL     OW31369   0.825   4.739   0.854
10157SOL    HW131370   0.764   4.817   0.870
10157SOL    HW231371   0.777   4.667   0.804
10158SOL     OW31372   5.272   4.961   0.292
10158SOL    HW131373   5.350   5.022   0.304
10158SOL    HW231374   5.222   4.952   0.379
10159SOL     OW31375   3.554   2.768   1.875
10159SOL    HW131376   3.604   2.687   1.848
10159SOL    HW231377   3.614   2.830   1.926
10160SOL     OW31378   0.251   4.305   2.647
10160SOL    HW131379   0.325   4.355   2.602
10160SOL    HW231380   0.183   4.277   2.579
10161SOL     OW31381   5.889   3.348   6.177
10161SOL    HW131382   5.906   3.327   6.273
10161SOL    HW231383   5.880   3.447   6.165
10162SOL     OW31384   1.616   2.332   2.449
10162SOL    HW131385   1.680   2.394   2.494
10162SOL    HW231386   1.530   2.330   2.499
10163SOL     OW31387   3.162   5.006   4.712
10163SOL    HW131388   3.119   5.084   4.757
10163SOL    HW231389   3.093   4.935   4.695
10164SOL     OW31390   0.246   1.277   4.045
10164SOL    HW131391   0.238   1.261   3.947
10164SOL    HW231392   0.195   1.207   4.095
10165SOL     OW31393   1.663   3.105   4.015
10165SOL    HW131394   1.568   3.082   3.994
10165SOL    HW231395   1.667   3.196   4.057
10166SOL     OW31396   3.242   6.010   3.061
10166SOL    HW131397   3.334   5.982   3.035
10166SOL    HW231398   3.244   6.105   3.094
10167SOL     OW31399   3.248   2.072   6.545
10167SOL    HW131400   3.309   2.010   6.595
10167SOL    HW231401   3.297   2.156   6.524
10168SOL     OW31402   0.590   1.001   6.108
10168SOL    HW131403   0.646   0.958   6.037
10168SOL    HW231404   0.500   1.021   6.071
10169SOL     OW31405   4.550   5.487   3.291
10169SOL    HW131406   4.459   5.458   3.261
10169SOL    HW231407   4.556   5.586   3.288
10170SOL     OW31408   5.015   6.876   0.757
10170SOL    HW131409   5.039   6.935   0.834
10170SOL    HW231410   4.975   6.932   0.684
10171SOL     OW31411   2.070   4.246   3.980
10171SOL    HW131412   1.980   4.210   4.000
10171SOL    HW231413   2.127   4.174   3.939
10172SOL     OW31414   0.300   0.731   2.667
10172SOL    HW131415   0.345   0.808   2.713
10172SOL    HW231416   0.339   0.719   2.576
10173SOL     OW31417   3.845   3.509   5.172
10173SOL    HW131418   3.856   3.602   5.139
10173SOL    HW231419   3.901   3.447   5.116
10174SOL     OW31420   4.982   4.292   1.522
10174SOL    HW131421   4.979   4.341   1.435
10174SOL    HW231422   4.900   4.236   1.532
10175SOL     OW31423   6.522   6.932   3.954
10175SOL    HW131424   6.530   6.999   3.881
10175SOL    HW231425   6.557   6.970   4.039
10176SOL     OW31426   6.965   1.159   4.733
10176SOL    HW131427   7.016   1.245   4.739
10176SOL    HW231428   6.901   1.163   4.657
10177SOL     OW31429   3.015   1.627   3.921
10177SOL    HW131430   2.968   1.702   3.875
10177SOL    HW231431   3.021   1.548   3.860
10178SOL     OW31432   0.198   1.385   1.671
10178SOL    HW131433   0.162   1.475   1.693
10178SOL    HW231434   0.242   1.345   1.751
10179SOL     OW31435   0.090   6.218   1.074
10179SOL    HW131436   0.159   6.268   1.021
10179SOL    HW231437   0.136   6.165   1.145
10180SOL     OW31438   3.208   6.715   5.983
10180SOL    HW131439   3.224   6.736   6.080
10180SOL    HW231440   3.136   6.775   5.948
10181SOL     OW31441   0.166   3.483   2.252
10181SOL    HW131442   0.110   3.400   2.251
10181SOL    HW231443   0.255   3.463   2.293
10182SOL     OW31444   3.773   0.384   0.512
10182SOL    HW131445   3.746   0.478   0.491
10182SOL    HW231446   3.796   0.376   0.609
10183SOL     OW31447   4.107   6.218   5.762
10183SOL    HW131448   4.103   6.209   5.862
10183SOL    HW231449   4.100   6.314   5.737
10184SOL     OW31450   5.463   3.007   4.887
10184SOL    HW131451   5.547   3.035   4.933
10184SOL    HW231452   5.435   2.917   4.921
10185SOL     OW31453   2.699   4.660   2.455
10185SOL    HW131454   2.660   4.608   2.531
10185SOL    HW231455   2.669   4.756   2.462
10186SOL     OW31456   2.871   2.825   0.906
10186SOL    HW131457   2.931   2.792   0.979
10186SOL    HW231458   2.838   2.747   0.852
10187SOL     OW31459   2.349   3.797   5.516
10187SOL    HW131460   2.389   3.708   5.540
10187SOL    HW231461   2.305   3.791   5.427
10188SOL     OW31462   2.139   6.543   6.938
10188SOL    HW131463   2.065   6.490   6.979
10188SOL    HW231464   2.102   6.603   6.867
10189SOL     OW31465   2.198   1.689   5.124
10189SOL    HW131466   2.225   1.646   5.211
10189SOL    HW231467   2.275   1.743   5.090
10190SOL     OW31468   3.789   3.961   0.786
10190SOL    HW131469   3.769   3.997   0.695
10190SOL    HW231470   3.884   3.981   0.809
10191SOL     OW31471   5.609   0.597   0.070
10191SOL    HW131472   5.592   0.692   0.043
10191SOL    HW231473   5.529   0.563   0.120
10192SOL     OW31474   1.986   1.241   4.109
10192SOL    HW131475   1.977   1.275   4.015
10192SOL    HW231476   1.912   1.279   4.165
10193SOL     OW31477   3.508   3.906   3.872
10193SOL    HW131478   3.582   3.930   3.935
10193SOL    HW231479   3.536   3.827   3.817
10194SOL     OW31480   3.043   6.068   2.776
10194SOL    HW131481   3.023   6.004   2.849
10194SOL    HW231482   3.141   6.064   2.754
10195SOL     OW31483   5.253   0.511   3.174
10195SOL    HW131484   5.293   0.546   3.259
10195SOL    HW231485   5.288   0.564   3.097
10196SOL     OW31486   5.067   4.248   4.337
10196SOL    HW131487   5.013   4.190   4.275
10196SOL    HW231488   5.006   4.308   4.388
10197SOL     OW31489   4.844   1.799   2.883
10197SOL    HW131490   4.884   1.821   2.972
10197SOL    HW231491   4.771   1.732   2.896
10198SOL     OW31492   3.455   1.081   1.575
10198SOL    HW131493   3.509   1.131   1.642
10198SOL    HW231494   3.390   1.022   1.622
10199SOL     OW31495   1.026   1.729   6.897
10199SOL    HW131496   1.019   1.805   6.832
10199SOL    HW231497   1.110   1.678   6.880
10200SOL     OW31498   5.795   6.303   4.462
10200SOL    HW131499   5.852   6.238   4.412
10200SOL    HW231500   5.703   6.265   4.474
10201SOL     OW31501   1.545   4.749   2.840
10201SOL    HW131502   1.545   4.823   2.908
10201SOL    HW231503   1.462   4.695   2.851
10202SOL     OW31504   0.627   1.881   3.507
10202SOL    HW131505   0.676   1.807   3.461
10202SOL    HW231506   0.666   1.969   3.479
10203SOL     OW31507   0.236   2.210   0.638
10203SOL    HW131508   0.259   2.285   0.700
10203SOL    HW231509   0.317   2.153   0.624
10204SOL     OW31510   2.473   5.870   4.487
10204SOL    HW131511   2.545   5.837   4.426
10204SOL    HW231512   2.477   5.820   4.573
10205SOL     OW31513   3.568   0.276   1.301
10205SOL    HW131514   3.661   0.283   1.335
10205SOL    HW231515   3.517   0.359   1.325
10206SOL     OW31516   5.500   6.819   6.521
10206SOL    HW131517   5.595   6.801   6.545
10206SOL    HW231518   5.443   6.815   6.603
10207SOL     OW31519   3.997   1.357   2.622
10207SOL    HW131520   4.014   1.328   2.528
10207SOL    HW231521   4.033   1.449   2.636
10208SOL     OW31522   6.622   3.052   6.120
10208SOL    HW131523   6.644   3.020   6.212
10208SOL    HW231524   6.547   3.119   6.125
10209SOL     OW31525   3.819   6.303   6.813
10209SOL    HW131526   3.879   6.313   6.734
10209SOL    HW231527   3.835   6.214   6.856
10210SOL     OW31528   5.653   5.377   0.545
10210SOL    HW131529   5.738   5.342   0.506
10210SOL    HW231530   5.605   5.303   0.593
10211SOL     OW31531   3.878   5.623   5.612
10211SOL    HW131532   3.809   5.604   5.541
10211SOL    HW231533   3.919   5.537   5.642
10212SOL     OW31534   6.140   6.264   6.058
10212SOL    HW131535   6.084   6.227   6.132
10212SOL    HW231536   6.178   6.352   6.086
10213SOL     OW31537   4.291   0.714   4.197
10213SOL    HW131538   4.290   0.614   4.192
10213SOL    HW231539   4.375   0.745   4.240
10214SOL     OW31540   0.755   0.401   0.191
10214SOL    HW131541   0.838   0.353   0.218
10214SOL    HW231542   0.764   0.498   0.212
10215SOL     OW31543   4.346   2.394   0.312
10215SOL    HW131544   4.253   2.391   0.275
10215SOL    HW231545   4.412   2.381   0.237
10216SOL     OW31546   5.153   0.296   3.055
10216SOL    HW131547   5.225   0.232   3.027
10216SOL    HW231548   5.195   0.379   3.091
10217SOL     OW31549   3.506   2.224   5.812
10217SOL    HW131550   3.457   2.169   5.745
10217SOL    HW231551   3.441   2.282   5.862
10218SOL     OW31552   3.439   1.891   6.625
10218SOL    HW131553   3.533   1.922   6.607
10218SOL    HW231554   3.440   1.825   6.700
10219SOL     OW31555   1.407   5.280   0.087
10219SOL    HW131556   1.492   5.287   0.139
10219SOL    HW231557   1.330   5.299   0.148
10220SOL     OW31558   4.065   2.438   0.172
10220SOL    HW131559   4.072   2.498   0.093
10220SOL    HW231560   4.012   2.356   0.147
10221SOL     OW31561   2.523   0.925   4.128
10221SOL    HW131562   2.474   0.922   4.215
10221SOL    HW231563   2.567   0.836   4.111
10222SOL     OW31564   1.967   4.472   5.544
10222SOL    HW131565   2.003   4.563   5.565
10222SOL    HW231566   1.947   4.424   5.630
10223SOL     OW31567   0.938   4.578   6.478
10223SOL    HW131568   0.907   4.618   6.565
10223SOL    HW231569   1.023   4.528   6.494
10224SOL     OW31570   2.884   6.993   4.862
10224SOL    HW131571   2.796   6.970   4.820
10224SOL    HW231572   2.908   0.063   4.839
10225SOL     OW31573   4.938   5.968   4.821
10225SOL    HW131574   5.014   5.949   4.759
10225SOL    HW231575   4.946   5.909   4.902
10226SOL     OW31576   6.405   2.714   6.264
10226SOL    HW131577   6.401   2.636   6.327
10226SOL    HW231578   6.314   2.730   6.225
10227SOL     OW31579   4.638   5.095   5.636
10227SOL    HW131580   4.582   5.045   5.569
10227SOL    HW231581   4.683   5.172   5.591
10228SOL     OW31582   0.899   3.211   2.034
10228SOL    HW131583   0.971   3.141   2.039
10228SOL    HW231584   0.894   3.248   1.942
10229SOL     OW31585   2.573   0.410   1.500
10229SOL    HW131586   2.502   0.425   1.431
10229SOL    HW231587   2.645   0.353   1.462
10230SOL     OW31588   6.417   6.535   3.231
10230SOL    HW131589   6.491   6.557   3.294
10230SOL    HW231590   6.330   6.561   3.273
10231SOL     OW31591   4.855   6.794   4.563
10231SOL    HW131592   4.884   6.885   4.535
10231SOL    HW231593   4.855   6.788   4.663
10232SOL     OW31594   3.820   2.046   3.591
10232SOL    HW131595   3.796   1.948   3.592
10232SOL    HW231596   3.749   2.097   3.639
10233SOL     OW31597   4.904   0.242   5.357
10233SOL    HW131598   4.805   0.234   5.367
10233SOL    HW231599   4.925   0.297   5.276
10234SOL     OW31600   4.422   5.205   1.413
10234SOL    HW131601   4.372   5.127   1.375
10234SOL    HW231602   4.364   5.251   1.480
10235SOL     OW31603   5.134   0.903   0.418
10235SOL    HW131604   5.090   0.873   0.334
10235SOL    HW231605   5.233   0.888   0.411
10236SOL     OW31606   1.635   5.739   1.477
10236SOL    HW131607   1.675   5.700   1.393
10236SOL    HW231608   1.675   5.693   1.557
10237SOL     OW31609   5.705   2.258   3.220
10237SOL    HW131610   5.651   2.342   3.211
10237SOL    HW231611   5.689   2.199   3.141
10238SOL     OW31612   4.362   6.110   5.035
10238SOL    HW131613   4.334   6.123   5.130
10238SOL    HW231614   4.282   6.117   4.976
10239SOL     OW31615   5.966   3.221   4.804
10239SOL    HW131616   5.952   3.218   4.903
10239SOL    HW231617   5.904   3.156   4.759
10240SOL     OW31618   5.132   3.583   3.396
10240SOL    HW131619   5.207   3.647   3.379
10240SOL    HW231620   5.091   3.556   3.309
10241SOL     OW31621   1.870   1.685   3.039
10241SOL    HW131622   1.951   1.743   3.029
10241SOL    HW231623   1.790   1.734   3.006
10242SOL     OW31624   1.237   5.567   5.815
10242SOL    HW131625   1.263   5.488   5.759
10242SOL    HW231626   1.313   5.591   5.876
10243SOL     OW31627   0.748   6.580   3.061
10243SOL    HW131628   0.748   6.628   2.974
10243SOL    HW231629   0.737   6.646   3.136
10244SOL     OW31630   1.788   5.613   0.135
10244SOL    HW131631   1.721   5.565   0.192
10244SOL    HW231632   1.875   5.618   0.183
10245SOL     OW31633   2.456   2.603   0.529
10245SOL    HW131634   2.499   2.517   0.556
10245SOL    HW231635   2.471   2.619   0.432
10246SOL     OW31636   2.881   3.645   4.614
10246SOL    HW131637   2.957   3.710   4.600
10246SOL    HW231638   2.875   3.621   4.710
10247SOL     OW31639   0.826   5.767   5.618
10247SOL    HW131640   0.880   5.713   5.684
10247SOL    HW231641   0.837   5.727   5.527
10248SOL     OW31642   5.771   0.709   3.898
10248SOL    HW131643   5.826   0.731   3.979
10248SOL    HW231644   5.755   0.793   3.845
10249SOL     OW31645   4.868   0.905   6.061
10249SOL    HW131646   4.887   0.935   6.154
10249SOL    HW231647   4.954   0.890   6.012
10250SOL     OW31648   5.179   6.655   0.726
10250SOL    HW131649   5.144   6.745   0.752
10250SOL    HW231650   5.165   6.642   0.627
10251SOL     OW31651   3.622   4.302   1.286
10251SOL    HW131652   3.588   4.359   1.360
10251SOL    HW231653   3.597   4.342   1.198
10252SOL     OW31654   0.352   4.438   1.115
10252SOL    HW131655   0.331   4.431   1.018
10252SOL    HW231656   0.449   4.419   1.130
10253SOL     OW31657   3.613   4.862   0.359
10253SOL    HW131658   3.560   4.795   0.411
10253SOL    HW231659   3.629   4.943   0.415
10254SOL     OW31660   2.079   1.447   4.764
10254SOL    HW131661   2.005   1.512   4.781
10254SOL    HW231662   2.162   1.479   4.808
10255SOL     OW31663   3.153   5.748   3.021
10255SOL    HW131664   3.199   5.836   3.004
10255SOL    HW231665   3.164   5.723   3.117
10256SOL     OW31666   6.079   6.799   0.308
10256SOL    HW131667   6.047   6.889   0.279
10256SOL    HW231668   6.031   6.728   0.257
10257SOL     OW31669   1.543   5.714   5.429
10257SOL    HW131670   1.558   5.695   5.526
10257SOL    HW231671   1.548   5.813   5.414
10258SOL     OW31672   4.029   0.769   3.104
10258SOL    HW131673   3.953   0.777   3.168
10258SOL    HW231674   4.109   0.815   3.141
10259SOL     OW31675   0.476   3.549   3.991
10259SOL    HW131676   0.565   3.593   3.999
10259SOL    HW231677   0.407   3.605   4.037
10260SOL     OW31678   0.105   5.799   2.463
10260SOL    HW131679   0.151   5.727   2.515
10260SOL    HW231680   0.148   5.808   2.373
10261SOL     OW31681   1.943   0.207   1.985
10261SOL    HW131682   2.016   0.184   1.920
10261SOL    HW231683   1.862   0.151   1.966
10262SOL     OW31684   1.340   6.222   3.968
10262SOL    HW131685   1.372   6.284   4.039
10262SOL    HW231686   1.269   6.267   3.914
10263SOL     OW31687   6.246   2.981   5.581
10263SOL    HW131688   6.341   2.956   5.561
10263SOL    HW231689   6.245   3.059   5.644
10264SOL     OW31690   0.606   6.822   0.111
10264SOL    HW131691   0.696   6.779   0.107
10264SOL    HW231692   0.615   6.920   0.095
10265SOL     OW31693   4.515   2.111   2.867
10265SOL    HW131694   4.613   2.111   2.886
10265SOL    HW231695   4.465   2.093   2.952
10266SOL     OW31696   3.976   3.878   6.799
10266SOL    HW131697   4.027   3.891   6.714
10266SOL    HW231698   4.036   3.896   6.877
10267SOL     OW31699   6.385   1.292   6.271
10267SOL    HW131700   6.345   1.357   6.335
10267SOL    HW231701   6.482   1.314   6.257
10268SOL     OW31702   6.735   3.758   1.225
10268SOL    HW131703   6.642   3.751   1.261
10268SOL    HW231704   6.795   3.696   1.275
10269SOL     OW31705   3.705   2.056   5.898
10269SOL    HW131706   3.674   1.966   5.927
10269SOL    HW231707   3.626   2.117   5.888
10270SOL     OW31708   2.982   6.185   1.922
10270SOL    HW131709   3.015   6.162   2.013
10270SOL    HW231710   3.012   6.277   1.897
10271SOL     OW31711   2.519   5.239   1.142
10271SOL    HW131712   2.504   5.179   1.221
10271SOL    HW231713   2.451   5.312   1.144
10272SOL     OW31714   1.442   1.877   4.347
10272SOL    HW131715   1.465   1.900   4.252
10272SOL    HW231716   1.404   1.785   4.350
10273SOL     OW31717   4.554   7.016   3.946
10273SOL    HW131718   4.505   7.002   4.032
10273SOL    HW231719   4.491   0.025   3.877
10274SOL     OW31720   2.768   4.776   6.519
10274SOL    HW131721   2.778   4.875   6.505
10274SOL    HW231722   2.803   4.752   6.609
10275SOL     OW31723   1.040   6.780   1.600
10275SOL    HW131724   1.091   6.810   1.680
10275SOL    HW231725   0.985   6.856   1.566
10276SOL     OW31726   1.234   6.383   0.015
10276SOL    HW131727   1.224   6.483   0.017
10276SOL    HW231728   1.329   6.359   7.020
10277SOL     OW31729   0.634   5.798   2.155
10277SOL    HW131730   0.727   5.796   2.191
10277SOL    HW231731   0.630   5.858   2.075
10278SOL     OW31732   6.697   0.039   5.292
10278SOL    HW131733   6.625   7.002   5.321
10278SOL    HW231734   6.674   0.133   5.320
10279SOL     OW31735   3.685   6.081   5.056
10279SOL    HW131736   3.696   6.068   4.957
10279SOL    HW231737   3.723   6.170   5.082
10280SOL     OW31738   3.625   2.774   6.963
10280SOL    HW131739   3.635   2.683   6.923
10280SOL    HW231740   3.557   2.772   0.011
10281SOL     OW31741   5.029   0.029   4.065
10281SOL    HW131742   5.118   0.037   4.110
10281SOL    HW231743   5.036   6.993   3.986
10282SOL     OW31744   1.134   2.891   4.417
10282SOL    HW131745   1.201   2.825   4.450
10282SOL    HW231746   1.110   2.954   4.490
10283SOL     OW31747   1.691   4.252   6.032
10283SOL    HW131748   1.744   4.262   6.117
10283SOL    HW231749   1.743   4.290   5.956
10284SOL     OW31750   4.818   3.264   6.817
10284SOL    HW131751   4.914   3.272   6.844
10284SOL    HW231752   4.773   3.352   6.827
10285SOL     OW31753   5.228   1.393   1.007
10285SOL    HW131754   5.201   1.353   1.094
10285SOL    HW231755   5.324   1.420   1.011
10286SOL     OW31756   4.404   0.527   3.868
10286SOL    HW131757   4.342   0.598   3.901
10286SOL    HW231758   4.409   0.453   3.935
10287SOL     OW31759   1.714   4.656   2.159
10287SOL    HW131760   1.675   4.741   2.195
10287SOL    HW231761   1.733   4.593   2.234
10288SOL     OW31762   4.565   6.269   4.440
10288SOL    HW131763   4.609   6.313   4.361
10288SOL    HW231764   4.615   6.291   4.523
10289SOL     OW31765   3.127   1.379   1.574
10289SOL    HW131766   3.045   1.436   1.574
10289SOL    HW231767   3.181   1.398   1.655
10290SOL     OW31768   3.055   3.039   2.425
10290SOL    HW131769   3.117   2.964   2.448
10290SOL    HW231770   3.068   3.064   2.329
10291SOL     OW31771   4.121   0.449   4.988
10291SOL    HW131772   4.137   0.427   4.892
10291SOL    HW231773   4.163   0.537   5.010
10292SOL     OW31774   0.526   2.149   4.657
10292SOL    HW131775   0.510   2.111   4.566
10292SOL    HW231776   0.614   2.116   4.692
10293SOL     OW31777   3.213   5.392   3.095
10293SOL    HW131778   3.312   5.409   3.090
10293SOL    HW231779   3.171   5.418   3.008
10294SOL     OW31780   6.549   1.571   3.233
10294SOL    HW131781   6.587   1.485   3.267
10294SOL    HW231782   6.561   1.576   3.134
10295SOL     OW31783   1.519   4.221   4.401
10295SOL    HW131784   1.586   4.256   4.335
10295SOL    HW231785   1.516   4.281   4.480
10296SOL     OW31786   6.807   2.960   1.861
10296SOL    HW131787   6.797   2.860   1.867
10296SOL    HW231788   6.901   2.982   1.836
10297SOL     OW31789   3.253   5.663   5.019
10297SOL    HW131790   3.264   5.756   5.053
10297SOL    HW231791   3.328   5.606   5.052
10298SOL     OW31792   5.789   3.286   3.263
10298SOL    HW131793   5.848   3.300   3.343
10298SOL    HW231794   5.693   3.290   3.292
10299SOL     OW31795   4.855   4.085   2.234
10299SOL    HW131796   4.836   4.005   2.291
10299SOL    HW231797   4.928   4.064   2.169
10300SOL     OW31798   0.844   5.550   1.645
10300SOL    HW131799   0.772   5.547   1.714
10300SOL    HW231800   0.807   5.519   1.557
10301SOL     OW31801   4.464   1.110   1.671
10301SOL    HW131802   4.509   1.148   1.590
10301SOL    HW231803   4.494   1.160   1.752
10302SOL     OW31804   2.306   4.149   4.210
10302SOL    HW131805   2.324   4.227   4.150
10302SOL    HW231806   2.374   4.147   4.283
10303SOL     OW31807   4.453   2.716   1.456
10303SOL    HW131808   4.431   2.748   1.548
10303SOL    HW231809   4.545   2.677   1.455
10304SOL     OW31810   6.134   6.441   3.387
10304SOL    HW131811   6.101   6.534   3.403
10304SOL    HW231812   6.157   6.398   3.474
10305SOL     OW31813   1.985   5.446   1.301
10305SOL    HW131814   1.979   5.379   1.375
10305SOL    HW231815   1.920   5.422   1.229
10306SOL     OW31816   4.062   4.215   1.029
10306SOL    HW131817   4.140   4.155   1.011
10306SOL    HW231818   4.093   4.310   1.030
10307SOL     OW31819   2.414   1.623   5.342
10307SOL    HW131820   2.427   1.589   5.435
10307SOL    HW231821   2.464   1.709   5.331
10308SOL     OW31822   2.875   5.502   3.519
10308SOL    HW131823   2.957   5.444   3.513
10308SOL    HW231824   2.797   5.453   3.481
10309SOL     OW31825   6.951   6.060   3.584
10309SOL    HW131826   6.911   5.974   3.551
10309SOL    HW231827   6.883   6.108   3.639
10310SOL     OW31828   3.690   2.846   4.842
10310SOL    HW131829   3.751   2.855   4.920
10310SOL    HW231830   3.719   2.909   4.769
10311SOL     OW31831   0.698   0.146   0.638
10311SOL    HW131832   0.632   0.169   0.709
10311SOL    HW231833   0.665   0.178   0.549
10312SOL     OW31834   2.384   4.701   0.928
10312SOL    HW131835   2.336   4.662   1.006
10312SOL    HW231836   2.403   4.798   0.946
10313SOL     OW31837   6.635   5.672   3.647
10313SOL    HW131838   6.562   5.736   3.673
10313SOL    HW231839   6.617   5.583   3.689
10314SOL     OW31840   6.302   5.481   5.461
10314SOL    HW131841   6.370   5.477   5.534
10314SOL    HW231842   6.251   5.395   5.458
10315SOL     OW31843   4.498   6.899   5.419
10315SOL    HW131844   4.553   6.823   5.386
10315SOL    HW231845   4.435   6.866   5.490
10316SOL     OW31846   0.223   3.860   2.902
10316SOL    HW131847   0.322   3.861   2.889
10316SOL    HW231848   0.195   3.945   2.948
10317SOL     OW31849   4.838   4.793   0.259
10317SOL    HW131850   4.920   4.822   0.210
10317SOL    HW231851   4.849   4.811   0.357
10318SOL     OW31852   6.084   5.391   2.669
10318SOL    HW131853   6.042   5.472   2.711
10318SOL    HW231854   6.061   5.389   2.571
10319SOL     OW31855   5.384   6.545   4.508
10319SOL    HW131856   5.431   6.571   4.592
10319SOL    HW231857   5.330   6.463   4.524
10320SOL     OW31858   4.367   5.614   2.219
10320SOL    HW131859   4.461   5.630   2.248
10320SOL    HW231860   4.307   5.614   2.298
10321SOL     OW31861   4.083   0.083   4.286
10321SOL    HW131862   4.053   0.173   4.253
10321SOL    HW231863   4.086   0.019   4.209
10322SOL     OW31864   0.844   2.349   6.790
10322SOL    HW131865   0.898   2.290   6.729
10322SOL    HW231866   0.859   2.321   6.885
10323SOL     OW31867   0.678   2.392   5.407
10323SOL    HW131868   0.761   2.425   5.364
10323SOL    HW231869   0.688   2.396   5.507
10324SOL     OW31870   3.703   3.036   4.643
10324SOL    HW131871   3.784   3.001   4.596
10324SOL    HW231872   3.624   3.026   4.582
10325SOL     OW31873   6.802   3.696   3.503
10325SOL    HW131874   6.754   3.752   3.437
10325SOL    HW231875   6.849   3.621   3.456
10326SOL     OW31876   5.638   1.898   1.623
10326SOL    HW131877   5.594   1.823   1.573
10326SOL    HW231878   5.713   1.862   1.678
10327SOL     OW31879   6.107   1.086   3.320
10327SOL    HW131880   6.092   1.027   3.399
10327SOL    HW231881   6.066   1.176   3.336
10328SOL     OW31882   6.379   4.035   2.654
10328SOL    HW131883   6.374   3.940   2.625
10328SOL    HW231884   6.475   4.063   2.659
10329SOL     OW31885   3.608   5.714   2.838
10329SOL    HW131886   3.697   5.744   2.872
10329SOL    HW231887   3.611   5.617   2.815
10330SOL     OW31888   3.164   3.582   0.973
10330SOL    HW131889   3.122   3.636   0.900
10330SOL    HW231890   3.264   3.587   0.965
10331SOL     OW31891   5.469   1.400   4.231
10331SOL    HW131892   5.440   1.485   4.275
10331SOL    HW231893   5.433   1.397   4.138
10332SOL     OW31894   0.870   1.414   6.210
10332SOL    HW131895   0.958   1.438   6.170
10332SOL    HW231896   0.855   1.467   6.293
10333SOL     OW31897   6.456   4.707   5.451
10333SOL    HW131898   6.514   4.631   5.480
10333SOL    HW231899   6.364   4.674   5.431
10334SOL     OW31900   0.594   5.182   5.209
10334SOL    HW131901   0.642   5.161   5.294
10334SOL    HW231902   0.635   5.131   5.133
10335SOL     OW31903   3.174   5.313   2.542
10335SOL    HW131904   3.237   5.236   2.542
10335SOL    HW231905   3.223   5.397   2.517
10336SOL     OW31906   5.066   6.824   2.697
10336SOL    HW131907   5.156   6.830   2.654
10336SOL    HW231908   5.017   6.744   2.662
10337SOL     OW31909   0.330   4.221   5.680
10337SOL    HW131910   0.403   4.176   5.628
10337SOL    HW231911   0.359   4.231   5.775
10338SOL     OW31912   2.635   5.050   2.636
10338SOL    HW131913   2.690   5.132   2.621
10338SOL    HW231914   2.644   4.989   2.557
10339SOL     OW31915   2.596   5.379   0.914
10339SOL    HW131916   2.664   5.332   0.858
10339SOL    HW231917   2.552   5.314   0.976
10340SOL     OW31918   1.844   6.758   0.451
10340SOL    HW131919   1.775   6.700   0.408
10340SOL    HW231920   1.871   6.719   0.539
10341SOL     OW31921   0.850   2.236   1.797
10341SOL    HW131922   0.826   2.201   1.707
10341SOL    HW231923   0.779   2.300   1.828
10342SOL     OW31924   3.780   6.253   4.503
10342SOL    HW131925   3.816   6.162   4.484
10342SOL    HW231926   3.684   6.245   4.533
10343SOL     OW31927   2.453   2.637   4.298
10343SOL    HW131928   2.514   2.617   4.375
10343SOL    HW231929   2.437   2.554   4.246
10344SOL     OW31930   4.382   3.301   1.494
10344SOL    HW131931   4.437   3.330   1.415
10344SOL    HW231932   4.339   3.213   1.474
10345SOL     OW31933   3.005   2.287   6.220
10345SOL    HW131934   3.076   2.229   6.182
10345SOL    HW231935   2.957   2.334   6.146
10346SOL     OW31936   6.323   5.627   0.792
10346SOL    HW131937   6.346   5.667   0.881
10346SOL    HW231938   6.251   5.681   0.750
10347SOL     OW31939   4.483   0.027   1.609
10347SOL    HW131940   4.516   7.008   1.526
10347SOL    HW231941   4.502   0.125   1.605
10348SOL     OW31942   6.849   4.959   5.712
10348SOL    HW131943   6.879   4.864   5.708
10348SOL    HW231944   6.826   4.982   5.807
10349SOL     OW31945   6.470   2.309   0.313
10349SOL    HW131946   6.511   2.299   0.403
10349SOL    HW231947   6.374   2.337   0.323
10350SOL     OW31948   2.268   4.769   4.489
10350SOL    HW131949   2.262   4.756   4.588
10350SOL    HW231950   2.222   4.693   4.443
10351SOL     OW31951   3.626   4.916   4.844
10351SOL    HW131952   3.566   4.928   4.764
10351SOL    HW231953   3.570   4.898   4.925
10352SOL     OW31954   6.799   0.780   0.534
10352SOL    HW131955   6.755   0.839   0.467
10352SOL    HW231956   6.892   0.812   0.551
10353SOL     OW31957   6.418   2.353   3.859
10353SOL    HW131958   6.367   2.358   3.773
10353SOL    HW231959   6.369   2.295   3.923
10354SOL     OW31960   6.405   2.827   0.964
10354SOL    HW131961   6.355   2.813   1.050
10354SOL    HW231962   6.486   2.883   0.981
10355SOL     OW31963   0.802   1.859   1.077
10355SOL    HW131964   0.746   1.869   0.995
10355SOL    HW231965   0.803   1.762   1.104
10356SOL     OW31966   5.739   2.518   6.719
10356SOL    HW131967   5.750   2.608   6.761
10356SOL    HW231968   5.804   2.508   6.644
10357SOL     OW31969   1.167   0.016   6.000
10357SOL    HW131970   1.185   0.003   6.098
10357SOL    HW231971   1.204   0.104   5.971
10358SOL     OW31972   0.468   2.511   2.877
10358SOL    HW131973   0.472   2.526   2.778
10358SOL    HW231974   0.450   2.414   2.895
10359SOL     OW31975   0.612   2.100   2.072
10359SOL    HW131976   0.606   2.120   1.974
10359SOL    HW231977   0.540   2.036   2.098
10360SOL     OW31978   6.164   4.031   0.901
10360SOL    HW131979   6.090   3.984   0.853
10360SOL    HW231980   6.208   3.967   0.965
10361SOL     OW31981   6.468   1.897   2.165
10361SOL    HW131982   6.477   1.918   2.068
10361SOL    HW231983   6.479   1.981   2.218
10362SOL     OW31984   1.186   5.517   1.860
10362SOL    HW131985   1.203   5.419   1.866
10362SOL    HW231986   1.238   5.565   1.930
10363SOL     OW31987   5.674   5.157   6.692
10363SOL    HW131988   5.656   5.080   6.753
10363SOL    HW231989   5.587   5.193   6.658
10364SOL     OW31990   5.728   5.754   2.644
10364SOL    HW131991   5.648   5.790   2.693
10364SOL    HW231992   5.717   5.772   2.547
10365SOL     OW31993   6.275   5.317   0.278
10365SOL    HW131994   6.293   5.325   0.376
10365SOL    HW231995   6.235   5.402   0.244
10366SOL     OW31996   2.651   6.554   4.065
10366SOL    HW131997   2.594   6.477   4.036
10366SOL    HW231998   2.621   6.637   4.016
10367SOL     OW31999   5.316   6.357   1.592
10367SOL    HW132000   5.350   6.301   1.517
10367SOL    HW232001   5.372   6.440   1.600
10368SOL     OW32002   0.840   5.402   2.093
10368SOL    HW132003   0.798   5.488   2.064
10368SOL    HW232004   0.775   5.349   2.148
10369SOL     OW32005   2.570   0.540   5.551
10369SOL    HW132006   2.570   0.529   5.650
10369SOL    HW232007   2.664   0.541   5.517
10370SOL     OW32008   2.033   1.548   5.537
10370SOL    HW132009   1.985   1.540   5.450
10370SOL    HW232010   2.078   1.637   5.543
10371SOL     OW32011   4.295   5.659   3.031
10371SOL    HW132012   4.239   5.649   2.949
10371SOL    HW232013   4.290   5.575   3.086
10372SOL     OW32014   2.373   6.342   1.086
10372SOL    HW132015   2.359   6.266   1.023
10372SOL    HW232016   2.413   6.308   1.171
10373SOL     OW32017   6.024   0.406   6.658
10373SOL    HW132018   5.999   0.501   6.680
10373SOL    HW232019   6.099   0.377   6.717
10374SOL     OW32020   2.791   4.896   3.183
10374SOL    HW132021   2.803   4.920   3.087
10374SOL    HW232022   2.880   4.895   3.229
10375SOL     OW32023   2.303   5.341   0.747
10375SOL    HW132024   2.403   5.342   0.743
10375SOL    HW232025   2.265   5.348   0.655
10376SOL     OW32026   2.460   5.022   3.666
10376SOL    HW132027   2.546   4.975   3.686
10376SOL    HW232028   2.388   4.955   3.651
10377SOL     OW32029   2.439   0.962   2.658
10377SOL    HW132030   2.430   0.898   2.734
10377SOL    HW232031   2.526   0.945   2.610
10378SOL     OW32032   0.623   6.050   5.065
10378SOL    HW132033   0.548   6.117   5.058
10378SOL    HW232034   0.673   6.048   4.979
10379SOL     OW32035   2.016   0.043   3.530
10379SOL    HW132036   1.959   0.026   3.449
10379SOL    HW232037   2.107   0.005   3.515
10380SOL     OW32038   3.503   1.374   4.007
10380SOL    HW132039   3.408   1.350   4.028
10380SOL    HW232040   3.560   1.293   4.019
10381SOL     OW32041   4.113   6.901   2.788
10381SOL    HW132042   4.074   6.849   2.712
10381SOL    HW232043   4.054   6.893   2.868
10382SOL     OW32044   4.335   5.350   1.969
10382SOL    HW132045   4.385   5.278   2.017
10382SOL    HW232046   4.280   5.402   2.034
10383SOL     OW32047   0.602   5.185   6.944
10383SOL    HW132048   0.551   5.211   6.863
10383SOL    HW232049   0.697   5.167   6.920
10384SOL     OW32050   4.890   5.692   1.303
10384SOL    HW132051   4.806   5.666   1.350
10384SOL    HW232052   4.966   5.637   1.336
10385SOL     OW32053   4.408   4.706   0.198
10385SOL    HW132054   4.447   4.797   0.212
10385SOL    HW232055   4.424   4.650   0.279
10386SOL     OW32056   6.991   0.574   1.199
10386SOL    HW132057   0.038   0.546   1.135
10386SOL    HW232058   6.947   0.657   1.165
10387SOL     OW32059   4.946   3.540   2.532
10387SOL    HW132060   5.034   3.574   2.566
10387SOL    HW232061   4.872   3.580   2.586
10388SOL     OW32062   1.693   0.142   4.841
10388SOL    HW132063   1.749   0.110   4.917
10388SOL    HW232064   1.619   0.077   4.824
10389SOL     OW32065   0.729   4.085   6.728
10389SOL    HW132066   0.776   4.161   6.772
10389SOL    HW232067   0.630   4.099   6.733
10390SOL     OW32068   1.886   2.658   1.961
10390SOL    HW132069   1.958   2.727   1.969
10390SOL    HW232070   1.900   2.604   1.878
10391SOL     OW32071   6.009   0.059   3.788
10391SOL    HW132072   6.029   6.987   3.770
10391SOL    HW232073   5.948   0.066   3.867
10392SOL     OW32074   6.650   4.411   4.341
10392SOL    HW132075   6.585   4.365   4.401
10392SOL    HW232076   6.627   4.508   4.333
10393SOL     OW32077   2.009   2.453   2.856
10393SOL    HW132078   2.011   2.410   2.766
10393SOL    HW232079   2.093   2.506   2.870
10394SOL     OW32080   3.369   0.049   4.148
10394SOL    HW132081   3.375   6.976   4.166
10394SOL    HW232082   3.283   0.085   4.187
10395SOL     OW32083   0.719   0.426   1.137
10395SOL    HW132084   0.636   0.370   1.144
10395SOL    HW232085   0.721   0.492   1.211
10396SOL     OW32086   3.242   2.068   4.900
10396SOL    HW132087   3.174   2.031   4.837
10396SOL    HW232088   3.206   2.151   4.943
10397SOL     OW32089   5.268   2.060   4.257
10397SOL    HW132090   5.323   2.045   4.174
10397SOL    HW232091   5.319   2.026   4.336
10398SOL     OW32092   5.893   2.549   2.519
10398SOL    HW132093   5.838   2.571   2.438
10398SOL    HW232094   5.970   2.613   2.524
10399SOL     OW32095   0.958   3.899   2.335
10399SOL    HW132096   1.039   3.875   2.281
10399SOL    HW232097   0.897   3.820   2.339
10400SOL     OW32098   2.205   6.235   0.779
10400SOL    HW132099   2.130   6.232   0.844
10400SOL    HW232100   2.286   6.191   0.818
10401SOL     OW32101   0.261   1.102   5.684
10401SOL    HW132102   0.212   1.015   5.698
10401SOL    HW232103   0.323   1.117   5.761
10402SOL     OW32104   6.833   3.409   5.293
10402SOL    HW132105   6.912   3.379   5.346
10402SOL    HW232106   6.760   3.341   5.300
10403SOL     OW32107   3.225   6.691   0.793
10403SOL    HW132108   3.282   6.767   0.824
10403SOL    HW232109   3.281   6.626   0.742
10404SOL     OW32110   6.441   6.733   6.078
10404SOL    HW132111   6.458   6.792   6.157
10404SOL    HW232112   6.418   6.790   5.999
10405SOL     OW32113   0.697   2.668   6.546
10405SOL    HW132114   0.701   2.602   6.471
10405SOL    HW232115   0.732   2.626   6.630
10406SOL     OW32116   1.802   4.940   1.431
10406SOL    HW132117   1.723   4.995   1.460
10406SOL    HW232118   1.777   4.889   1.348
10407SOL     OW32119   2.193   6.105   5.722
10407SOL    HW132120   2.165   6.017   5.684
10407SOL    HW232121   2.185   6.101   5.822
10408SOL     OW32122   4.141   1.388   0.178
10408SOL    HW132123   4.217   1.441   0.216
10408SOL    HW232124   4.082   1.357   0.252
10409SOL     OW32125   6.144   4.612   1.200
10409SOL    HW132126   6.208   4.638   1.128
10409SOL    HW232127   6.102   4.524   1.177
10410SOL     OW32128   4.691   0.191   0.578
10410SOL    HW132129   4.712   0.269   0.519
10410SOL    HW232130   4.728   0.208   0.670
10411SOL     OW32131   2.351   4.676   4.206
10411SOL    HW132132   2.418   4.750   4.213
10411SOL    HW232133   2.396   4.588   4.224
10412SOL     OW32134   5.409   7.003   0.822
10412SOL    HW132135   5.367   0.028   0.747
10412SOL    HW232136   5.507   7.025   0.825
10413SOL     OW32137   6.558   3.297   2.242
10413SOL    HW132138   6.528   3.392   2.235
10413SOL    HW232139   6.496   3.239   2.190
10414SOL     OW32140   4.857   2.566   4.192
10414SOL    HW132141   4.824   2.476   4.219
10414SOL    HW232142   4.791   2.635   4.223
10415SOL     OW32143   0.206   0.748   6.337
10415SOL    HW132144   0.296   0.784   6.315
10415SOL    HW232145   0.142   0.772   6.264
10416SOL     OW32146   5.564   3.456   4.069
10416SOL    HW132147   5.574   3.518   3.992
10416SOL    HW232148   5.485   3.397   4.055
10417SOL     OW32149   2.565   4.645   3.172
10417SOL    HW132150   2.603   4.723   3.221
10417SOL    HW232151   2.511   4.589   3.235
10418SOL     OW32152   1.841   5.417   5.894
10418SOL    HW132153   1.940   5.411   5.908
10418SOL    HW232154   1.815   5.362   5.815
10419SOL     OW32155   1.611   1.335   0.683
10419SOL    HW132156   1.559   1.403   0.733
10419SOL    HW232157   1.548   1.268   0.644
10420SOL     OW32158   0.489   3.298   3.413
10420SOL    HW132159   0.453   3.210   3.382
10420SOL    HW232160   0.520   3.351   3.335
10421SOL     OW32161   0.287   1.491   3.273
10421SOL    HW132162   0.313   1.466   3.367
10421SOL    HW232163   0.189   1.478   3.262
10422SOL     OW32164   5.514   3.662   5.857
10422SOL    HW132165   5.525   3.677   5.955
10422SOL    HW232166   5.529   3.566   5.835
10423SOL     OW32167   5.148   4.459   2.778
10423SOL    HW132168   5.213   4.471   2.703
10423SOL    HW232169   5.192   4.411   2.854
10424SOL     OW32170   4.914   1.607   6.481
10424SOL    HW132171   4.815   1.602   6.476
10424SOL    HW232172   4.954   1.535   6.425
10425SOL     OW32173   2.171   6.267   1.712
10425SOL    HW132174   2.124   6.348   1.748
10425SOL    HW232175   2.233   6.231   1.782
10426SOL     OW32176   6.428   3.705   0.401
10426SOL    HW132177   6.434   3.803   0.384
10426SOL    HW232178   6.333   3.679   0.415
10427SOL     OW32179   4.466   1.212   1.022
10427SOL    HW132180   4.440   1.294   0.971
10427SOL    HW232181   4.398   1.193   1.093
10428SOL     OW32182   4.626   1.091   4.185
10428SOL    HW132183   4.591   1.157   4.118
10428SOL    HW232184   4.560   1.080   4.258
10429SOL     OW32185   6.017   6.463   1.728
10429SOL    HW132186   5.949   6.408   1.679
10429SOL    HW232187   6.038   6.545   1.675
10430SOL     OW32188   3.925   6.268   3.187
10430SOL    HW132189   3.952   6.194   3.125
10430SOL    HW232190   3.949   6.356   3.147
10431SOL     OW32191   2.057   1.165   5.253
10431SOL    HW132192   2.103   1.099   5.194
10431SOL    HW232193   2.046   1.127   5.344
10432SOL     OW32194   5.033   1.306   5.024
10432SOL    HW132195   4.970   1.377   5.054
10432SOL    HW232196   5.028   1.228   5.086
10433SOL     OW32197   2.535   6.713   1.037
10433SOL    HW132198   2.512   6.652   0.961
10433SOL    HW232199   2.566   6.801   1.002
10434SOL     OW32200   2.328   2.162   4.224
10434SOL    HW132201   2.315   2.128   4.131
10434SOL    HW232202   2.401   2.110   4.268
10435SOL     OW32203   5.564   5.940   6.886
10435SOL    HW132204   5.565   5.984   6.796
10435SOL    HW232205   5.470   5.933   6.919
10436SOL     OW32206   0.857   0.043   2.116
10436SOL    HW132207   0.867   0.112   2.187
10436SOL    HW232208   0.906   0.072   2.033
10437SOL     OW32209   6.383   5.291   6.131
10437SOL    HW132210   6.379   5.260   6.036
10437SOL    HW232211   6.299   5.340   6.154
10438SOL     OW32212   3.710   6.884   6.256
10438SOL    HW132213   3.635   6.864   6.318
10438SOL    HW232214   3.789   6.915   6.308
10439SOL     OW32215   4.206   0.401   5.641
10439SOL    HW132216   4.209   0.335   5.717
10439SOL    HW232217   4.187   0.352   5.556
10440SOL     OW32218   2.425   6.182   0.535
10440SOL    HW132219   2.346   6.141   0.581
10440SOL    HW232220   2.395   6.228   0.452
10441SOL     OW32221   3.852   0.530   6.789
10441SOL    HW132222   3.899   0.514   6.875
10441SOL    HW232223   3.908   0.588   6.730
10442SOL     OW32224   4.315   6.071   5.692
10442SOL    HW132225   4.278   5.988   5.650
10442SOL    HW232226   4.241   6.131   5.721
10443SOL     OW32227   6.152   2.889   5.334
10443SOL    HW132228   6.173   2.951   5.409
10443SOL    HW232229   6.227   2.824   5.322
10444SOL     OW32230   3.583   4.982   4.164
10444SOL    HW132231   3.557   5.076   4.140
10444SOL    HW232232   3.502   4.928   4.182
10445SOL     OW32233   5.873   5.963   3.436
10445SOL    HW132234   5.817   5.881   3.427
10445SOL    HW232235   5.894   5.999   3.345
10446SOL     OW32236   0.722   6.339   6.683
10446SOL    HW132237   0.729   6.359   6.781
10446SOL    HW232238   0.814   6.339   6.643
10447SOL     OW32239   6.332   2.014   0.990
10447SOL    HW132240   6.393   2.012   0.911
10447SOL    HW232241   6.248   2.063   0.966
10448SOL     OW32242   3.270   4.021   2.241
10448SOL    HW132243   3.211   3.962   2.298
10448SOL    HW232244   3.294   3.973   2.157
10449SOL     OW32245   1.547   5.092   4.456
10449SOL    HW132246   1.468   5.132   4.503
10449SOL    HW232247   1.607   5.048   4.523
10450SOL     OW32248   6.965   2.968   0.382
10450SOL    HW132249   6.895   2.938   0.447
10450SOL    HW232250   7.008   2.889   0.340
10451SOL     OW32251   2.199   4.180   2.732
10451SOL    HW132252   2.279   4.233   2.704
10451SOL    HW232253   2.142   4.235   2.793
10452SOL     OW32254   0.985   3.727   4.577
10452SOL    HW132255   1.037   3.710   4.493
10452SOL    HW232256   0.933   3.812   4.566
10453SOL     OW32257   5.410   0.394   1.694
10453SOL    HW132258   5.510   0.394   1.684
10453SOL    HW232259   5.367   0.386   1.604
10454SOL     OW32260   4.859   3.561   2.797
10454SOL    HW132261   4.770   3.573   2.842
10454SOL    HW232262   4.900   3.475   2.827
10455SOL     OW32263   6.864   4.675   3.015
10455SOL    HW132264   6.806   4.610   3.065
10455SOL    HW232265   6.952   4.632   2.995
10456SOL     OW32266   3.754   6.253   1.332
10456SOL    HW132267   3.767   6.184   1.403
10456SOL    HW232268   3.665   6.297   1.344
10457SOL     OW32269   3.611   3.452   4.142
10457SOL    HW132270   3.662   3.473   4.059
10457SOL    HW232271   3.675   3.433   4.216
10458SOL     OW32272   6.703   6.792   1.631
10458SOL    HW132273   6.642   6.790   1.710
10458SOL    HW232274   6.670   6.860   1.565
10459SOL     OW32275   6.450   4.669   2.708
10459SOL    HW132276   6.400   4.709   2.631
10459SOL    HW232277   6.409   4.700   2.794
10460SOL     OW32278   2.053   5.139   2.007
10460SOL    HW132279   2.111   5.148   2.088
10460SOL    HW232280   2.081   5.205   1.938
10461SOL     OW32281   2.361   1.401   6.449
10461SOL    HW132282   2.336   1.476   6.510
10461SOL    HW232283   2.300   1.399   6.371
10462SOL     OW32284   5.095   0.047   1.391
10462SOL    HW132285   5.060   0.067   1.482
10462SOL    HW232286   5.137   0.129   1.353
10463SOL     OW32287   2.926   3.783   1.287
10463SOL    HW132288   2.913   3.832   1.373
10463SOL    HW232289   2.906   3.686   1.301
10464SOL     OW32290   5.376   0.082   1.431
10464SOL    HW132291   5.314   0.157   1.407
10464SOL    HW232292   5.322   0.005   1.465
10465SOL     OW32293   6.705   5.125   5.114
10465SOL    HW132294   6.713   5.119   5.014
10465SOL    HW232295   6.720   5.035   5.154
10466SOL     OW32296   4.816   6.343   6.594
10466SOL    HW132297   4.824   6.436   6.557
10466SOL    HW232298   4.895   6.289   6.565
10467SOL     OW32299   4.290   0.787   3.654
10467SOL    HW132300   4.381   0.755   3.680
10467SOL    HW232301   4.224   0.760   3.724
10468SOL     OW32302   3.508   5.897   3.013
10468SOL    HW132303   3.551   5.852   3.091
10468SOL    HW232304   3.501   5.833   2.937
10469SOL     OW32305   1.499   5.070   6.951
10469SOL    HW132306   1.463   5.150   6.998
10469SOL    HW232307   1.469   4.987   6.998
10470SOL     OW32308   2.875   1.621   4.163
10470SOL    HW132309   2.951   1.658   4.217
10470SOL    HW232310   2.907   1.597   4.072
10471SOL     OW32311   4.274   3.826   0.394
10471SOL    HW132312   4.295   3.730   0.373
10471SOL    HW232313   4.359   3.874   0.417
10472SOL     OW32314   4.715   1.544   3.301
10472SOL    HW132315   4.774   1.478   3.348
10472SOL    HW232316   4.725   1.533   3.202
10473SOL     OW32317   5.015   5.418   0.244
10473SOL    HW132318   4.979   5.333   0.205
10473SOL    HW232319   4.940   5.482   0.259
10474SOL     OW32320   5.342   1.179   4.399
10474SOL    HW132321   5.384   1.088   4.399
10474SOL    HW232322   5.406   1.246   4.360
10475SOL     OW32323   4.829   6.075   1.930
10475SOL    HW132324   4.840   6.144   1.859
10475SOL    HW232325   4.833   5.984   1.888
10476SOL     OW32326   0.264   4.665   0.189
10476SOL    HW132327   0.346   4.720   0.205
10476SOL    HW232328   0.209   4.661   0.273
10477SOL     OW32329   4.490   4.803   5.165
10477SOL    HW132330   4.508   4.896   5.198
10477SOL    HW232331   4.461   4.807   5.069
10478SOL     OW32332   0.655   6.290   2.541
10478SOL    HW132333   0.557   6.307   2.530
10478SOL    HW232334   0.705   6.333   2.466
10479SOL     OW32335   1.553   4.877   2.588
10479SOL    HW132336   1.569   4.844   2.681
10479SOL    HW232337   1.549   4.977   2.588
10480SOL     OW32338   5.777   0.218   2.110
10480SOL    HW132339   5.682   0.209   2.079
10480SOL    HW232340   5.788   0.169   2.196
10481SOL     OW32341   2.822   1.075   4.783
10481SOL    HW132342   2.897   1.124   4.827
10481SOL    HW232343   2.859   1.008   4.719
10482SOL     OW32344   0.957   5.572   5.772
10482SOL    HW132345   1.051   5.585   5.802
10482SOL    HW232346   0.898   5.560   5.852
10483SOL     OW32347   0.139   5.283   0.594
10483SOL    HW132348   0.049   5.243   0.610
10483SOL    HW232349   0.195   5.272   0.676
10484SOL     OW32350   5.850   1.825   1.374
10484SOL    HW132351   5.842   1.925   1.366
10484SOL    HW232352   5.927   1.802   1.433
10485SOL     OW32353   3.222   3.950   3.515
10485SOL    HW132354   3.206   3.929   3.611
10485SOL    HW232355   3.137   3.980   3.472
10486SOL     OW32356   5.721   5.318   5.328
10486SOL    HW132357   5.758   5.275   5.411
10486SOL    HW232358   5.736   5.258   5.250
10487SOL     OW32359   5.263   2.804   3.149
10487SOL    HW132360   5.165   2.823   3.143
10487SOL    HW232361   5.288   2.784   3.244
10488SOL     OW32362   0.247   2.484   5.292
10488SOL    HW132363   0.235   2.389   5.319
10488SOL    HW232364   0.231   2.493   5.194
10489SOL     OW32365   5.887   3.991   4.534
10489SOL    HW132366   5.881   3.893   4.514
10489SOL    HW232367   5.977   4.011   4.572
10490SOL     OW32368   5.754   6.728   6.576
10490SOL    HW132369   5.744   6.674   6.660
10490SOL    HW232370   5.786   6.669   6.502
10491SOL     OW32371   1.889   3.315   5.637
10491SOL    HW132372   1.937   3.338   5.552
10491SOL    HW232373   1.938   3.241   5.683
10492SOL     OW32374   3.215   5.670   0.457
10492SOL    HW132375   3.212   5.744   0.389
10492SOL    HW232376   3.151   5.690   0.531
10493SOL     OW32377   3.966   5.274   1.720
10493SOL    HW132378   3.883   5.234   1.760
10493SOL    HW232379   3.941   5.356   1.669
10494SOL     OW32380   0.582   4.676   4.144
10494SOL    HW132381   0.613   4.770   4.125
10494SOL    HW232382   0.614   4.649   4.235
10495SOL     OW32383   0.159   6.610   0.475
10495SOL    HW132384   0.234   6.618   0.540
10495SOL    HW232385   0.169   6.525   0.422
10496SOL     OW32386   0.084   4.780   6.203
10496SOL    HW132387   0.102   4.719   6.126
10496SOL    HW232388   0.156   4.849   6.208
10497SOL     OW32389   3.311   0.162   1.750
10497SOL    HW132390   3.361   0.091   1.801
10497SOL    HW232391   3.225   0.181   1.796
10498SOL     OW32392   4.170   3.551   6.756
10498SOL    HW132393   4.104   3.570   6.828
10498SOL    HW232394   4.124   3.553   6.667
10499SOL     OW32395   5.245   3.877   2.627
10499SOL    HW132396   5.325   3.882   2.567
10499SOL    HW232397   5.221   3.781   2.642
10500SOL     OW32398   1.442   3.184   5.056
10500SOL    HW132399   1.344   3.170   5.043
10500SOL    HW232400   1.458   3.224   5.146
10501SOL     OW32401   3.887   4.972   3.320
10501SOL    HW132402   3.836   5.020   3.249
10501SOL    HW232403   3.956   4.913   3.278
10502SOL     OW32404   3.216   3.358   2.591
10502SOL    HW132405   3.291   3.292   2.594
10502SOL    HW232406   3.175   3.367   2.682
10503SOL     OW32407   6.881   1.462   6.501
10503SOL    HW132408   6.894   1.506   6.590
10503SOL    HW232409   6.804   1.399   6.506
10504SOL     OW32410   1.081   4.022   5.757
10504SOL    HW132411   1.073   3.957   5.681
10504SOL    HW232412   1.173   4.017   5.795
10505SOL     OW32413   6.186   0.343   0.686
10505SOL    HW132414   6.153   0.400   0.610
10505SOL    HW232415   6.109   0.291   0.724
10506SOL     OW32416   1.560   4.285   5.635
10506SOL    HW132417   1.512   4.306   5.550
10506SOL    HW232418   1.557   4.365   5.695
10507SOL     OW32419   0.789   5.910   5.940
10507SOL    HW132420   0.888   5.919   5.929
10507SOL    HW232421   0.743   5.981   5.888
10508SOL     OW32422   1.651   5.846   6.548
10508SOL    HW132423   1.562   5.864   6.505
10508SOL    HW232424   1.699   5.776   6.495
10509SOL     OW32425   4.639   2.645   3.309
10509SOL    HW132426   4.665   2.693   3.392
10509SOL    HW232427   4.639   2.547   3.325
10510SOL     OW32428   5.503   5.891   3.547
10510SOL    HW132429   5.424   5.833   3.528
10510SOL    HW232430   5.578   5.834   3.581
10511SOL     OW32431   4.384   1.683   0.981
10511SOL    HW132432   4.296   1.718   0.948
10511SOL    HW232433   4.383   1.583   0.979
10512SOL     OW32434   3.951   1.780   5.774
10512SOL    HW132435   3.894   1.862   5.774
10512SOL    HW232436   3.945   1.734   5.863
10513SOL     OW32437   3.644   3.117   0.988
10513SOL    HW132438   3.625   3.019   0.984
10513SOL    HW232439   3.714   3.141   0.921
10514SOL     OW32440   1.642   5.053   1.648
10514SOL    HW132441   1.572   5.041   1.718
10514SOL    HW232442   1.695   5.136   1.667
10515SOL     OW32443   2.080   3.165   4.914
10515SOL    HW132444   1.995   3.160   4.966
10515SOL    HW232445   2.078   3.245   4.854
10516SOL     OW32446   5.110   2.005   2.086
10516SOL    HW132447   5.040   1.987   2.155
10516SOL    HW232448   5.149   2.096   2.101
10517SOL     OW32449   0.894   2.795   2.355
10517SOL    HW132450   0.969   2.755   2.302
10517SOL    HW232451   0.885   2.747   2.442
10518SOL     OW32452   0.796   5.719   2.371
10518SOL    HW132453   0.835   5.630   2.393
10518SOL    HW232454   0.865   5.790   2.387
10519SOL     OW32455   3.642   7.017   1.285
10519SOL    HW132456   3.607   0.080   1.252
10519SOL    HW232457   3.704   0.008   1.362
10520SOL     OW32458   1.862   2.531   6.293
10520SOL    HW132459   1.865   2.562   6.198
10520SOL    HW232460   1.920   2.450   6.302
10521SOL     OW32461   6.714   2.691   3.250
10521SOL    HW132462   6.778   2.732   3.186
10521SOL    HW232463   6.725   2.734   3.340
10522SOL     OW32464   5.661   1.436   3.859
10522SOL    HW132465   5.591   1.502   3.832
10522SOL    HW232466   5.663   1.427   3.958
10523SOL     OW32467   1.031   4.446   2.184
10523SOL    HW132468   0.980   4.515   2.133
10523SOL    HW232469   1.043   4.365   2.127
10524SOL     OW32470   6.608   5.823   4.567
10524SOL    HW132471   6.679   5.755   4.547
10524SOL    HW232472   6.550   5.835   4.486
10525SOL     OW32473   4.909   1.254   3.933
10525SOL    HW132474   4.907   1.213   4.024
10525SOL    HW232475   4.965   1.336   3.935
10526SOL     OW32476   1.386   5.528   6.297
10526SOL    HW132477   1.432   5.612   6.266
10526SOL    HW232478   1.334   5.548   6.381
10527SOL     OW32479   0.165   6.186   5.377
10527SOL    HW132480   0.264   6.198   5.365
10527SOL    HW232481   0.139   6.216   5.469
10528SOL     OW32482   2.182   4.974   5.117
10528SOL    HW132483   2.140   4.887   5.142
10528SOL    HW232484   2.280   4.962   5.102
10529SOL     OW32485   0.262   5.241   0.856
10529SOL    HW132486   0.227   5.163   0.908
10529SOL    HW232487   0.322   5.296   0.915
10530SOL     OW32488   6.957   6.608   1.250
10530SOL    HW132489   6.949   6.700   1.212
10530SOL    HW232490   6.896   6.599   1.328
10531SOL     OW32491   3.669   2.382   5.683
10531SOL    HW132492   3.602   2.313   5.709
10531SOL    HW232493   3.695   2.369   5.587
10532SOL     OW32494   4.631   5.971   5.903
10532SOL    HW132495   4.673   6.061   5.905
10532SOL    HW232496   4.574   5.963   5.821
10533SOL     OW32497   3.968   6.886   3.071
10533SOL    HW132498   3.937   6.810   3.129
10533SOL    HW232499   4.068   6.887   3.070
10534SOL     OW32500   1.617   5.935   3.963
10534SOL    HW132501   1.549   5.951   4.034
10534SOL    HW232502   1.617   6.011   3.899
10535SOL     OW32503   3.803   2.094   2.445
10535SOL    HW132504   3.846   2.107   2.356
10535SOL    HW232505   3.800   1.996   2.466
10536SOL     OW32506   5.516   3.792   5.132
10536SOL    HW132507   5.530   3.891   5.138
10536SOL    HW232508   5.503   3.766   5.036
10537SOL     OW32509   3.773   1.195   3.548
10537SOL    HW132510   3.678   1.183   3.519
10537SOL    HW232511   3.824   1.110   3.534
10538SOL     OW32512   6.979   2.782   3.280
10538SOL    HW132513   6.977   2.760   3.377
10538SOL    HW232514   0.033   2.738   3.237
10539SOL     OW32515   6.854   6.732   2.804
10539SOL    HW132516   6.785   6.664   2.780
10539SOL    HW232517   6.855   6.744   2.903
10540SOL     OW32518   1.834   4.133   0.142
10540SOL    HW132519   1.867   4.096   0.056
10540SOL    HW232520   1.735   4.147   0.138
10541SOL     OW32521   3.010   2.819   5.290
10541SOL    HW132522   2.950   2.898   5.278
10541SOL    HW232523   3.098   2.836   5.247
10542SOL     OW32524   5.022   6.248   2.927
10542SOL    HW132525   4.984   6.255   2.835
10542SOL    HW232526   5.084   6.325   2.943
10543SOL     OW32527   2.316   2.825   4.131
10543SOL    HW132528   2.220   2.806   4.151
10543SOL    HW232529   2.373   2.759   4.179
10544SOL     OW32530   3.199   1.275   2.356
10544SOL    HW132531   3.136   1.342   2.395
10544SOL    HW232532   3.203   1.287   2.257
10545SOL     OW32533   2.246   2.836   2.121
10545SOL    HW132534   2.317   2.781   2.166
10545SOL    HW232535   2.212   2.905   2.185
10546SOL     OW32536   2.536   6.604   6.864
10546SOL    HW132537   2.607   6.542   6.830
10546SOL    HW232538   2.455   6.551   6.890
10547SOL     OW32539   3.662   6.057   5.648
10547SOL    HW132540   3.613   6.108   5.718
10547SOL    HW232541   3.731   5.999   5.691
10548SOL     OW32542   0.541   6.382   3.438
10548SOL    HW132543   0.499   6.330   3.364
10548SOL    HW232544   0.620   6.433   3.403
10549SOL     OW32545   6.799   0.866   2.677
10549SOL    HW132546   6.746   0.827   2.602
10549SOL    HW232547   6.808   0.965   2.663
10550SOL     OW32548   4.981   5.431   3.187
10550SOL    HW132549   4.979   5.353   3.250
10550SOL    HW232550   4.890   5.447   3.150
10551SOL     OW32551   3.688   0.545   5.225
10551SOL    HW132552   3.625   0.507   5.157
10551SOL    HW232553   3.679   0.645   5.227
10552SOL     OW32554   3.210   0.043   3.469
10552SOL    HW132555   3.191   7.006   3.393
10552SOL    HW232556   3.127   0.054   3.524
10553SOL     OW32557   5.952   5.819   0.978
10553SOL    HW132558   5.977   5.825   1.074
10553SOL    HW232559   5.852   5.821   0.969
10554SOL     OW32560   6.203   6.565   1.923
10554SOL    HW132561   6.143   6.528   1.852
10554SOL    HW232562   6.299   6.547   1.898
10555SOL     OW32563   3.456   3.092   1.206
10555SOL    HW132564   3.441   2.994   1.199
10555SOL    HW232565   3.488   3.127   1.118
10556SOL     OW32566   2.623   1.723   1.990
10556SOL    HW132567   2.585   1.661   1.921
10556SOL    HW232568   2.706   1.682   2.029
10557SOL     OW32569   2.197   4.488   3.131
10557SOL    HW132570   2.128   4.548   3.171
10557SOL    HW232571   2.256   4.451   3.204
10558SOL     OW32572   3.878   4.954   4.803
10558SOL    HW132573   3.780   4.933   4.800
10558SOL    HW232574   3.904   4.974   4.898
10559SOL     OW32575   3.866   6.518   1.487
10559SOL    HW132576   3.799   6.444   1.488
10559SOL    HW232577   3.943   6.493   1.547
10560SOL     OW32578   5.512   6.660   3.299
10560SOL    HW132579   5.564   6.582   3.265
10560SOL    HW232580   5.535   6.742   3.246
10561SOL     OW32581   0.117   4.986   6.463
10561SOL    HW132582   0.099   4.891   6.488
10561SOL    HW232583   0.033   5.039   6.472
10562SOL     OW32584   4.029   6.144   2.239
10562SOL    HW132585   4.057   6.049   2.228
10562SOL    HW232586   4.096   6.204   2.196
10563SOL     OW32587   1.006   6.718   2.850
10563SOL    HW132588   1.021   6.672   2.938
10563SOL    HW232589   0.912   6.703   2.820
10564SOL     OW32590   5.019   4.531   3.070
10564SOL    HW132591   5.004   4.432   3.064
10564SOL    HW232592   5.113   4.550   3.097
10565SOL     OW32593   0.433   1.232   5.227
10565SOL    HW132594   0.420   1.181   5.312
10565SOL    HW232595   0.348   1.232   5.174
10566SOL     OW32596   3.450   1.549   0.720
10566SOL    HW132597   3.372   1.512   0.771
10566SOL    HW232598   3.522   1.479   0.716
10567SOL     OW32599   2.214   2.170   6.306
10567SOL    HW132600   2.300   2.167   6.356
10567SOL    HW232601   2.232   2.191   6.210
10568SOL     OW32602   4.943   1.921   5.897
10568SOL    HW132603   4.969   1.824   5.905
10568SOL    HW232604   4.939   1.962   5.988
10569SOL     OW32605   5.557   0.684   0.366
10569SOL    HW132606   5.632   0.724   0.314
10569SOL    HW232607   5.492   0.642   0.303
10570SOL     OW32608   1.616   3.461   3.343
10570SOL    HW132609   1.669   3.472   3.427
10570SOL    HW232610   1.679   3.449   3.266
10571SOL     OW32611   6.826   3.790   5.483
10571SOL    HW132612   6.736   3.776   5.442
10571SOL    HW232613   6.879   3.852   5.426
10572SOL     OW32614   6.634   4.271   0.813
10572SOL    HW132615   6.600   4.200   0.751
10572SOL    HW232616   6.557   4.311   0.862
10573SOL     OW32617   6.935   2.405   3.262
10573SOL    HW132618   6.838   2.419   3.283
10573SOL    HW232619   6.957   2.308   3.270
10574SOL     OW32620   6.250   2.314   2.741
10574SOL    HW132621   6.156   2.320   2.776
10574SOL    HW232622   6.300   2.244   2.791
10575SOL     OW32623   5.414   0.158   2.334
10575SOL    HW132624   5.452   0.178   2.424
10575SOL    HW232625   5.315   0.164   2.337
10576SOL     OW32626   1.301   3.834   4.677
10576SOL    HW132627   1.326   3.742   4.705
10576SOL    HW232628   1.364   3.866   4.607
10577SOL     OW32629   4.039   4.207   0.713
10577SOL    HW132630   3.962   4.271   0.706
10577SOL    HW232631   4.077   4.211   0.806
10578SOL     OW32632   0.573   3.714   2.371
10578SOL    HW132633   0.606   3.788   2.428
10578SOL    HW232634   0.575   3.628   2.423
10579SOL     OW32635   0.403   3.290   0.182
10579SOL    HW132636   0.455   3.373   0.161
10579SOL    HW232637   0.363   3.298   0.273
10580SOL     OW32638   5.428   0.071   6.526
10580SOL    HW132639   5.450   7.002   6.500
10580SOL    HW232640   5.506   0.130   6.507
10581SOL     OW32641   4.186   0.671   3.407
10581SOL    HW132642   4.238   0.730   3.469
10581SOL    HW232643   4.166   0.721   3.322
10582SOL     OW32644   6.418   3.215   6.350
10582SOL    HW132645   6.497   3.276   6.342
10582SOL    HW232646   6.440   3.139   6.412
10583SOL     OW32647   3.704   1.952   5.479
10583SOL    HW132648   3.803   1.952   5.488
10583SOL    HW232649   3.672   2.044   5.456
10584SOL     OW32650   0.734   0.306   3.177
10584SOL    HW132651   0.770   0.333   3.088
10584SOL    HW232652   0.697   0.213   3.171
10585SOL     OW32653   1.619   0.725   5.556
10585SOL    HW132654   1.643   0.747   5.462
10585SOL    HW232655   1.592   0.808   5.604
10586SOL     OW32656   4.444   4.168   5.534
10586SOL    HW132657   4.393   4.102   5.478
10586SOL    HW232658   4.395   4.183   5.620
10587SOL     OW32659   2.637   4.795   5.546
10587SOL    HW132660   2.692   4.756   5.473
10587SOL    HW232661   2.653   4.894   5.551
10588SOL     OW32662   1.505   3.876   3.735
10588SOL    HW132663   1.481   3.850   3.641
10588SOL    HW232664   1.585   3.823   3.764
10589SOL     OW32665   5.981   6.810   3.701
10589SOL    HW132666   5.973   6.778   3.795
10589SOL    HW232667   5.957   6.736   3.638
10590SOL     OW32668   0.867   5.070   2.613
10590SOL    HW132669   0.901   5.135   2.681
10590SOL    HW232670   0.919   4.985   2.619
10591SOL     OW32671   0.051   4.007   2.350
10591SOL    HW132672   0.058   3.908   2.344
10591SOL    HW232673   0.085   4.049   2.266
10592SOL     OW32674   0.362   2.493   4.727
10592SOL    HW132675   0.438   2.492   4.662
10592SOL    HW232676   0.282   2.451   4.686
10593SOL     OW32677   2.700   5.494   3.204
10593SOL    HW132678   2.749   5.581   3.208
10593SOL    HW232679   2.744   5.433   3.139
10594SOL     OW32680   3.276   5.752   3.595
10594SOL    HW132681   3.178   5.769   3.604
10594SOL    HW232682   3.316   5.824   3.538
10595SOL     OW32683   4.881   6.801   1.066
10595SOL    HW132684   4.799   6.824   1.013
10595SOL    HW232685   4.869   6.710   1.106
10596SOL     OW32686   5.055   3.703   0.188
10596SOL    HW132687   5.077   3.707   0.091
10596SOL    HW232688   4.968   3.654   0.200
10597SOL     OW32689   2.141   6.610   5.119
10597SOL    HW132690   2.173   6.664   5.196
10597SOL    HW232691   2.213   6.548   5.089
10598SOL     OW32692   3.392   0.572   0.021
10598SOL    HW132693   3.338   0.503   6.999
10598SOL    HW232694   3.488   0.543   0.024
10599SOL     OW32695   1.063   2.391   0.644
10599SOL    HW132696   1.045   2.297   0.674
10599SOL    HW232697   0.982   2.428   0.599
10600SOL     OW32698   3.934   1.182   1.661
10600SOL    HW132699   3.864   1.140   1.718
10600SOL    HW232700   4.020   1.132   1.672
10601SOL     OW32701   1.834   1.118   4.437
10601SOL    HW132702   1.846   1.174   4.519
10601SOL    HW232703   1.737   1.109   4.418
10602SOL     OW32704   6.214   0.395   1.426
10602SOL    HW132705   6.191   0.299   1.443
10602SOL    HW232706   6.131   0.450   1.430
10603SOL     OW32707   6.093   0.453   3.022
10603SOL    HW132708   6.117   0.402   2.939
10603SOL    HW232709   6.159   0.432   3.094
10604SOL     OW32710   4.964   1.619   4.945
10604SOL    HW132711   4.866   1.630   4.962
10604SOL    HW232712   4.978   1.560   4.866
10605SOL     OW32713   3.249   1.899   1.000
10605SOL    HW132714   3.221   1.920   0.906
10605SOL    HW232715   3.298   1.811   1.000
10606SOL     OW32716   6.874   1.149   0.124
10606SOL    HW132717   6.858   1.086   0.048
10606SOL    HW232718   6.952   1.207   0.103
10607SOL     OW32719   3.389   4.025   0.591
10607SOL    HW132720   3.452   3.947   0.592
10607SOL    HW232721   3.431   4.103   0.638
10608SOL     OW32722   5.545   4.239   3.769
10608SOL    HW132723   5.456   4.271   3.736
10608SOL    HW232724   5.533   4.151   3.815
10609SOL     OW32725   6.079   6.816   6.529
10609SOL    HW132726   6.157   6.865   6.489
10609SOL    HW232727   6.026   6.773   6.456
10610SOL     OW32728   0.767   1.731   3.297
10610SOL    HW132729   0.778   1.762   3.203
10610SOL    HW232730   0.708   1.650   3.299
10611SOL     OW32731   4.105   5.198   5.028
10611SOL    HW132732   4.149   5.183   4.940
10611SOL    HW232733   4.043   5.122   5.047
10612SOL     OW32734   6.273   2.601   3.795
10612SOL    HW132735   6.307   2.658   3.869
10612SOL    HW232736   6.346   2.585   3.728
10613SOL     OW32737   4.755   5.859   4.457
10613SOL    HW132738   4.824   5.874   4.387
10613SOL    HW232739   4.735   5.761   4.463
10614SOL     OW32740   4.122   2.542   5.884
10614SOL    HW132741   4.090   2.491   5.964
10614SOL    HW232742   4.123   2.640   5.904
10615SOL     OW32743   2.687   2.723   5.447
10615SOL    HW132744   2.770   2.693   5.401
10615SOL    HW232745   2.624   2.762   5.380
10616SOL     OW32746   1.760   5.917   0.483
10616SOL    HW132747   1.811   5.954   0.406
10616SOL    HW232748   1.727   5.825   0.461
10617SOL     OW32749   1.597   2.918   1.377
10617SOL    HW132750   1.632   3.011   1.375
10617SOL    HW232751   1.666   2.857   1.416
10618SOL     OW32752   1.117   4.984   4.385
10618SOL    HW132753   1.042   4.967   4.322
10618SOL    HW232754   1.089   4.955   4.477
10619SOL     OW32755   0.936   2.957   1.699
10619SOL    HW132756   0.954   2.926   1.793
10619SOL    HW232757   0.907   2.880   1.643
10620SOL     OW32758   3.395   0.620   5.989
10620SOL    HW132759   3.468   0.593   5.926
10620SOL    HW232760   3.429   0.693   6.049
10621SOL     OW32761   0.686   4.068   3.347
10621SOL    HW132762   0.732   4.153   3.372
10621SOL    HW232763   0.700   4.000   3.419
10622SOL     OW32764   4.529   2.364   0.117
10622SOL    HW132765   4.493   2.436   0.058
10622SOL    HW232766   4.618   2.334   0.084
10623SOL     OW32767   5.067   5.419   5.479
10623SOL    HW132768   5.040   5.514   5.467
10623SOL    HW232769   5.152   5.402   5.429
10624SOL     OW32770   0.142   2.047   6.702
10624SOL    HW132771   0.071   1.999   6.651
10624SOL    HW232772   0.100   2.115   6.763
10625SOL     OW32773   6.811   5.819   0.749
10625SOL    HW132774   6.764   5.789   0.666
10625SOL    HW232775   6.826   5.740   0.809
10626SOL     OW32776   5.589   2.907   1.814
10626SOL    HW132777   5.626   2.971   1.747
10626SOL    HW232778   5.542   2.833   1.766
10627SOL     OW32779   5.840   5.081   5.384
10627SOL    HW132780   5.777   5.015   5.343
10627SOL    HW232781   5.918   5.031   5.423
10628SOL     OW32782   2.929   6.398   0.336
10628SOL    HW132783   2.999   6.438   0.396
10628SOL    HW232784   2.838   6.425   0.367
10629SOL     OW32785   4.613   5.133   4.112
10629SOL    HW132786   4.702   5.178   4.097
10629SOL    HW232787   4.626   5.054   4.171
10630SOL     OW32788   4.259   1.039   1.379
10630SOL    HW132789   4.179   1.099   1.381
10630SOL    HW232790   4.245   0.963   1.443
10631SOL     OW32791   3.523   5.384   2.107
10631SOL    HW132792   3.494   5.291   2.133
10631SOL    HW232793   3.534   5.389   2.008
10632SOL     OW32794   5.638   6.558   4.367
10632SOL    HW132795   5.540   6.564   4.390
10632SOL    HW232796   5.689   6.531   4.449
10633SOL     OW32797   2.368   3.080   0.442
10633SOL    HW132798   2.467   3.071   0.430
10633SOL    HW232799   2.331   3.138   0.370
10634SOL     OW32800   0.027   4.721   6.526
10634SOL    HW132801   6.960   4.737   6.492
10634SOL    HW232802   0.066   4.640   6.482
10635SOL     OW32803   2.938   5.942   6.328
10635SOL    HW132804   3.006   6.014   6.345
10635SOL    HW232805   2.967   5.858   6.373
10636SOL     OW32806   6.218   2.834   0.316
10636SOL    HW132807   6.119   2.847   0.310
10636SOL    HW232808   6.264   2.923   0.306
10637SOL     OW32809   2.673   0.446   6.621
10637SOL    HW132810   2.725   0.441   6.707
10637SOL    HW232811   2.678   0.538   6.584
10638SOL     OW32812   4.974   5.228   0.799
10638SOL    HW132813   4.955   5.131   0.787
10638SOL    HW232814   4.954   5.254   0.894
10639SOL     OW32815   0.097   4.903   1.646
10639SOL    HW132816   0.029   4.832   1.631
10639SOL    HW232817   0.137   4.930   1.558
10640SOL     OW32818   4.098   6.262   3.718
10640SOL    HW132819   4.067   6.249   3.624
10640SOL    HW232820   4.022   6.296   3.774
10641SOL     OW32821   0.976   1.722   2.709
10641SOL    HW132822   0.946   1.816   2.724
10641SOL    HW232823   1.020   1.715   2.619
10642SOL     OW32824   6.774   2.689   6.305
10642SOL    HW132825   6.685   2.729   6.325
10642SOL    HW232826   6.792   2.612   6.366
10643SOL     OW32827   2.421   4.970   5.898
10643SOL    HW132828   2.477   4.950   5.979
10643SOL    HW232829   2.332   4.925   5.908
10644SOL     OW32830   7.007   3.324   3.170
10644SOL    HW132831   0.007   3.228   3.176
10644SOL    HW232832   0.017   3.363   3.085
10645SOL     OW32833   2.191   2.337   3.203
10645SOL    HW132834   2.276   2.317   3.252
10645SOL    HW232835   2.214   2.380   3.115
10646SOL     OW32836   5.520   6.991   3.766
10646SOL    HW132837   5.453   0.014   3.710
10646SOL    HW232838   5.605   6.979   3.714
10647SOL     OW32839   3.728   5.344   5.149
10647SOL    HW132840   3.692   5.437   5.140
10647SOL    HW232841   3.717   5.296   5.062
10648SOL     OW32842   4.653   4.296   5.705
10648SOL    HW132843   4.593   4.270   5.629
10648SOL    HW232844   4.684   4.390   5.692
10649SOL     OW32845   6.447   3.496   3.103
10649SOL    HW132846   6.526   3.548   3.070
10649SOL    HW232847   6.460   3.473   3.199
10650SOL     OW32848   0.468   0.298   2.916
10650SOL    HW132849   0.393   0.242   2.882
10650SOL    HW232850   0.457   0.392   2.882
10651SOL     OW32851   2.858   5.391   5.924
10651SOL    HW132852   2.866   5.447   6.007
10651SOL    HW232853   2.769   5.344   5.925
10652SOL     OW32854   1.803   0.155   6.790
10652SOL    HW132855   1.821   0.125   6.884
10652SOL    HW232856   1.826   0.252   6.780
10653SOL     OW32857   5.232   5.846   4.458
10653SOL    HW132858   5.244   5.889   4.368
10653SOL    HW232859   5.277   5.757   4.459
10654SOL     OW32860   6.600   2.121   3.853
10654SOL    HW132861   6.630   2.074   3.770
10654SOL    HW232862   6.535   2.193   3.830
10655SOL     OW32863   0.169   4.710   0.814
10655SOL    HW132864   0.095   4.645   0.834
10655SOL    HW232865   0.167   4.784   0.881
10656SOL     OW32866   5.285   2.087   4.729
10656SOL    HW132867   5.188   2.081   4.703
10656SOL    HW232868   5.317   2.181   4.718
10657SOL     OW32869   4.998   0.495   5.126
10657SOL    HW132870   4.928   0.436   5.087
10657SOL    HW232871   4.957   0.582   5.154
10658SOL     OW32872   1.144   1.671   5.661
10658SOL    HW132873   1.046   1.650   5.663
10658SOL    HW232874   1.196   1.585   5.658
10659SOL     OW32875   0.364   5.884   1.092
10659SOL    HW132876   0.325   5.795   1.065
10659SOL    HW232877   0.435   5.869   1.161
10660SOL     OW32878   5.571   2.990   5.987
10660SOL    HW132879   5.541   2.912   6.043
10660SOL    HW232880   5.658   3.024   6.023
10661SOL     OW32881   3.356   5.102   5.397
10661SOL    HW132882   3.325   5.039   5.326
10661SOL    HW232883   3.407   5.177   5.354
10662SOL     OW32884   3.047   1.126   1.458
10662SOL    HW132885   2.991   1.129   1.375
10662SOL    HW232886   3.085   1.216   1.476
10663SOL     OW32887   0.589   2.535   3.915
10663SOL    HW132888   0.616   2.450   3.870
10663SOL    HW232889   0.490   2.533   3.932
10664SOL     OW32890   1.338   5.272   4.638
10664SOL    HW132891   1.274   5.270   4.560
10664SOL    HW232892   1.408   5.341   4.621
10665SOL     OW32893   3.412   2.973   0.352
10665SOL    HW132894   3.369   3.036   0.417
10665SOL    HW232895   3.420   3.018   0.263
10666SOL     OW32896   3.696   3.601   1.337
10666SOL    HW132897   3.643   3.537   1.283
10666SOL    HW232898   3.788   3.566   1.351
10667SOL     OW32899   5.539   3.075   4.169
10667SOL    HW132900   5.579   3.134   4.238
10667SOL    HW232901   5.440   3.070   4.182
10668SOL     OW32902   3.517   2.813   5.880
10668SOL    HW132903   3.527   2.736   5.818
10668SOL    HW232904   3.444   2.873   5.848
10669SOL     OW32905   6.141   1.735   1.239
10669SOL    HW132906   6.235   1.753   1.208
10669SOL    HW232907   6.079   1.799   1.193
10670SOL     OW32908   4.789   3.967   4.397
10670SOL    HW132909   4.739   4.053   4.389
10670SOL    HW232910   4.820   3.955   4.492
10671SOL     OW32911   1.627   3.394   5.019
10671SOL    HW132912   1.665   3.477   5.061
10671SOL    HW232913   1.537   3.376   5.057
10672SOL     OW32914   6.261   3.994   2.353
10672SOL    HW132915   6.353   3.968   2.381
10672SOL    HW232916   6.200   3.996   2.432
10673SOL     OW32917   2.393   1.223   1.126
10673SOL    HW132918   2.444   1.143   1.156
10673SOL    HW232919   2.354   1.206   1.036
10674SOL     OW32920   3.440   3.674   4.124
10674SOL    HW132921   3.413   3.699   4.031
10674SOL    HW232922   3.493   3.589   4.122
10675SOL     OW32923   3.780   6.637   5.416
10675SOL    HW132924   3.722   6.556   5.411
10675SOL    HW232925   3.812   6.650   5.510
10676SOL     OW32926   1.200   0.184   5.657
10676SOL    HW132927   1.165   0.243   5.730
10676SOL    HW232928   1.130   0.174   5.586
10677SOL     OW32929   0.417   1.879   6.766
10677SOL    HW132930   0.515   1.900   6.767
10677SOL    HW232931   0.367   1.955   6.724
10678SOL     OW32932   4.202   5.593   2.436
10678SOL    HW132933   4.206   5.571   2.533
10678SOL    HW232934   4.123   5.547   2.395
10679SOL     OW32935   4.710   4.143   0.138
10679SOL    HW132936   4.661   4.206   0.077
10679SOL    HW232937   4.788   4.191   0.179
10680SOL     OW32938   3.988   1.451   5.536
10680SOL    HW132939   3.921   1.416   5.470
10680SOL    HW232940   4.032   1.532   5.499
10681SOL     OW32941   2.030   3.274   5.408
10681SOL    HW132942   2.109   3.215   5.394
10681SOL    HW232943   1.959   3.253   5.341
10682SOL     OW32944   4.853   3.679   6.609
10682SOL    HW132945   4.782   3.700   6.542
10682SOL    HW232946   4.900   3.596   6.583
10683SOL     OW32947   2.845   0.537   3.640
10683SOL    HW132948   2.822   0.627   3.604
10683SOL    HW232949   2.899   0.548   3.724
10684SOL     OW32950   4.637   4.500   1.710
10684SOL    HW132951   4.541   4.520   1.690
10684SOL    HW232952   4.651   4.503   1.809
10685SOL     OW32953   0.871   6.581   1.985
10685SOL    HW132954   0.927   6.656   2.018
10685SOL    HW232955   0.929   6.511   1.945
10686SOL     OW32956   2.514   0.713   6.550
10686SOL    HW132957   2.531   0.779   6.624
10686SOL    HW232958   2.571   0.737   6.471
10687SOL     OW32959   0.699   3.837   3.512
10687SOL    HW132960   0.744   3.853   3.600
10687SOL    HW232961   0.721   3.744   3.480
10688SOL     OW32962   5.063   0.788   2.970
10688SOL    HW132963   5.094   0.853   3.040
10688SOL    HW232964   4.974   0.818   2.934
10689SOL     OW32965   0.711   6.922   2.298
10689SOL    HW132966   0.768   6.948   2.220
10689SOL    HW232967   0.762   6.937   2.383
10690SOL     OW32968   0.914   6.482   4.247
10690SOL    HW132969   0.835   6.421   4.249
10690SOL    HW232970   0.883   6.577   4.239
10691SOL     OW32971   3.867   0.173   1.994
10691SOL    HW132972   3.768   0.178   1.985
10691SOL    HW232973   3.906   0.265   1.995
10692SOL     OW32974   2.443   1.373   4.530
10692SOL    HW132975   2.508   1.371   4.605
10692SOL    HW232976   2.478   1.431   4.456
10693SOL     OW32977   1.294   5.456   6.792
10693SOL    HW132978   1.214   5.407   6.828
10693SOL    HW232979   1.372   5.394   6.790
10694SOL     OW32980   4.688   0.595   4.860
10694SOL    HW132981   4.753   0.643   4.919
10694SOL    HW232982   4.643   0.661   4.799
10695SOL     OW32983   5.163   4.573   2.111
10695SOL    HW132984   5.079   4.586   2.165
10695SOL    HW232985   5.146   4.503   2.041
10696SOL     OW32986   6.263   4.725   4.135
10696SOL    HW132987   6.327   4.759   4.066
10696SOL    HW232988   6.204   4.800   4.165
10697SOL     OW32989   2.621   5.212   5.010
10697SOL    HW132990   2.695   5.279   5.021
10697SOL    HW232991   2.533   5.256   5.028
10698SOL     OW32992   3.518   3.445   0.299
10698SOL    HW132993   3.541   3.500   0.379
10698SOL    HW232994   3.587   3.460   0.228
10699SOL     OW32995   3.547   2.590   0.756
10699SOL    HW132996   3.625   2.527   0.751
10699SOL    HW232997   3.491   2.566   0.836
10700SOL     OW32998   4.831   0.720   1.367
10700SOL    HW132999   4.766   0.794   1.383
10700SOL    HW233000   4.896   0.715   1.443
10701SOL     OW33001   3.247   6.928   6.583
10701SOL    HW133002   3.315   6.979   6.531
10701SOL    HW233003   3.267   6.936   6.681
10702SOL     OW33004   5.825   2.329   1.587
10702SOL    HW133005   5.906   2.275   1.608
10702SOL    HW233006   5.749   2.268   1.565
10703SOL     OW33007   0.777   2.265   5.913
10703SOL    HW133008   0.875   2.244   5.912
10703SOL    HW233009   0.753   2.313   5.828
10704SOL     OW33010   4.882   6.728   1.999
10704SOL    HW133011   4.814   6.779   2.051
10704SOL    HW233012   4.968   6.779   1.999
10705SOL     OW33013   5.623   3.938   1.105
10705SOL    HW133014   5.664   3.942   1.196
10705SOL    HW233015   5.619   3.843   1.073
10706SOL     OW33016   3.864   0.281   1.110
10706SOL    HW133017   3.935   0.242   1.169
10706SOL    HW233018   3.832   0.367   1.149
10707SOL     OW33019   5.267   0.275   3.915
10707SOL    HW133020   5.211   0.212   3.861
10707SOL    HW233021   5.363   0.265   3.889
10708SOL     OW33022   4.078   1.762   2.231
10708SOL    HW133023   4.069   1.745   2.133
10708SOL    HW233024   4.004   1.717   2.280
10709SOL     OW33025   5.951   4.673   3.374
10709SOL    HW133026   5.884   4.663   3.302
10709SOL    HW233027   6.014   4.747   3.351
10710SOL     OW33028   5.112   1.782   3.837
10710SOL    HW133029   5.099   1.830   3.924
10710SOL    HW233030   5.130   1.686   3.854
10711SOL     OW33031   3.824   7.011   1.506
10711SOL    HW133032   3.824   6.912   1.522
10711SOL    HW233033   3.810   0.033   1.593
10712SOL     OW33034   5.604   0.177   3.008
10712SOL    HW133035   5.679   0.237   2.984
10712SOL    HW233036   5.613   0.148   3.104
10713SOL     OW33037   1.466   4.537   1.446
10713SOL    HW133038   1.520   4.464   1.404
10713SOL    HW233039   1.370   4.509   1.450
10714SOL     OW33040   3.043   4.055   5.199
10714SOL    HW133041   3.027   4.143   5.245
10714SOL    HW233042   2.965   3.995   5.214
10715SOL     OW33043   6.196   0.859   1.649
10715SOL    HW133044   6.226   0.889   1.740
10715SOL    HW233045   6.275   0.830   1.596
10716SOL     OW33046   5.320   1.538   3.564
10716SOL    HW133047   5.313   1.602   3.487
10716SOL    HW233048   5.332   1.445   3.529
10717SOL     OW33049   2.097   2.527   6.845
10717SOL    HW133050   2.091   2.526   6.945
10717SOL    HW233051   2.122   2.435   6.813
10718SOL     OW33052   2.087   5.151   5.272
10718SOL    HW133053   2.120   5.080   5.210
10718SOL    HW233054   2.104   5.124   5.367
10719SOL     OW33055   6.354   5.787   4.070
10719SOL    HW133056   6.431   5.783   4.134
10719SOL    HW233057   6.364   5.867   4.010
10720SOL     OW33058   6.991   5.106   3.668
10720SOL    HW133059   6.951   5.023   3.631
10720SOL    HW233060   6.921   5.177   3.675
10721SOL     OW33061   5.339   3.857   5.674
10721SOL    HW133062   5.285   3.794   5.619
10721SOL    HW233063   5.394   3.806   5.740
10722SOL     OW33064   6.669   3.973   5.690
10722SOL    HW133065   6.677   3.906   5.764
10722SOL    HW233066   6.613   3.935   5.617
10723SOL     OW33067   6.009   0.157   0.759
10723SOL    HW133068   6.040   0.064   0.742
10723SOL    HW233069   5.927   0.175   0.705
10724SOL     OW33070   6.699   6.322   6.829
10724SOL    HW133071   6.699   6.235   6.780
10724SOL    HW233072   6.780   6.328   6.886
10725SOL     OW33073   2.396   5.756   5.459
10725SOL    HW133074   2.364   5.824   5.393
10725SOL    HW233075   2.493   5.772   5.478
10726SOL     OW33076   5.113   1.497   4.219
10726SOL    HW133077   5.113   1.412   4.272
10726SOL    HW233078   5.039   1.494   4.151
10727SOL     OW33079   1.754   6.324   5.355
10727SOL    HW133080   1.710   6.270   5.283
10727SOL    HW233081   1.847   6.346   5.326
10728SOL     OW33082   5.793   6.565   0.638
10728SOL    HW133083   5.720   6.632   0.628
10728SOL    HW233084   5.774   6.505   0.715
10729SOL     OW33085   6.734   3.004   1.506
10729SOL    HW133086   6.767   3.095   1.532
10729SOL    HW233087   6.658   2.978   1.565
10730SOL     OW33088   4.849   7.021   2.413
10730SOL    HW133089   4.884   0.030   2.326
10730SOL    HW233090   4.759   0.035   2.431
10731SOL     OW33091   4.804   0.394   0.975
10731SOL    HW133092   4.832   0.321   1.037
10731SOL    HW233093   4.817   0.483   1.020
10732SOL     OW33094   0.731   4.757   5.245
10732SOL    HW133095   0.656   4.801   5.195
10732SOL    HW233096   0.736   4.794   5.338
10733SOL     OW33097   6.547   2.636   0.151
10733SOL    HW133098   6.451   2.610   0.137
10733SOL    HW233099   6.553   2.696   0.231
10734SOL     OW33100   6.753   2.487   1.537
10734SOL    HW133101   6.771   2.412   1.600
10734SOL    HW233102   6.809   2.566   1.563
10735SOL     OW33103   0.572   4.071   2.817
10735SOL    HW133104   0.668   4.095   2.830
10735SOL    HW233105   0.540   4.109   2.731
10736SOL     OW33106   2.486   0.305   3.430
10736SOL    HW133107   2.421   0.256   3.373
10736SOL    HW233108   2.437   0.352   3.504
10737SOL     OW33109   6.994   2.039   1.576
10737SOL    HW133110   0.046   2.006   1.522
10737SOL    HW233111   6.910   2.031   1.523
10738SOL     OW33112   4.314   0.415   3.394
10738SOL    HW133113   4.413   0.401   3.392
10738SOL    HW233114   4.294   0.513   3.393
10739SOL     OW33115   2.076   2.041   1.572
10739SOL    HW133116   2.128   2.105   1.629
10739SOL    HW233117   2.047   1.963   1.626
10740SOL     OW33118   5.336   4.789   2.982
10740SOL    HW133119   5.323   4.750   3.073
10740SOL    HW233120   5.266   4.753   2.920
10741SOL     OW33121   3.730   0.327   2.848
10741SOL    HW133122   3.825   0.297   2.849
10741SOL    HW233123   3.674   0.262   2.899
10742SOL     OW33124   6.887   5.577   0.862
10742SOL    HW133125   6.826   5.497   0.853
10742SOL    HW233126   6.924   5.580   0.954
10743SOL     OW33127   2.316   1.585   4.779
10743SOL    HW133128   2.352   1.558   4.869
10743SOL    HW233129   2.368   1.662   4.744
10744SOL     OW33130   4.069   1.800   1.161
10744SOL    HW133131   4.075   1.794   1.061
10744SOL    HW233132   4.125   1.728   1.202
10745SOL     OW33133   6.844   5.718   6.043
10745SOL    HW133134   6.885   5.808   6.030
10745SOL    HW233135   6.883   5.653   5.977
10746SOL     OW33136   0.432   4.263   5.930
10746SOL    HW133137   0.522   4.251   5.974
10746SOL    HW233138   0.361   4.235   5.995
10747SOL     OW33139   3.441   1.425   4.449
10747SOL    HW133140   3.387   1.482   4.511
10747SOL    HW233141   3.538   1.441   4.465
10748SOL     OW33142   5.314   1.412   2.564
10748SOL    HW133143   5.227   1.460   2.548
10748SOL    HW233144   5.323   1.337   2.498
10749SOL     OW33145   2.532   6.857   6.226
10749SOL    HW133146   2.515   6.758   6.235
10749SOL    HW233147   2.493   6.888   6.139
10750SOL     OW33148   3.978   0.666   6.577
10750SOL    HW133149   4.045   0.633   6.510
10750SOL    HW233150   3.904   0.714   6.530
10751SOL     OW33151   2.761   4.943   4.121
10751SOL    HW133152   2.774   4.853   4.079
10751SOL    HW233153   2.663   4.963   4.128
10752SOL     OW33154   4.888   5.219   4.044
10752SOL    HW133155   4.945   5.137   4.039
10752SOL    HW233156   4.936   5.290   4.097
10753SOL     OW33157   6.902   3.306   4.649
10753SOL    HW133158   6.931   3.212   4.668
10753SOL    HW233159   6.833   3.334   4.715
10754SOL     OW33160   1.905   0.084   2.239
10754SOL    HW133161   1.940   7.022   2.273
10754SOL    HW233162   1.943   0.102   2.148
10755SOL     OW33163   6.425   5.898   1.923
10755SOL    HW133164   6.483   5.968   1.964
10755SOL    HW233165   6.395   5.928   1.833
10756SOL     OW33166   0.162   6.678   5.312
10756SOL    HW133167   0.216   6.677   5.227
10756SOL    HW233168   0.212   6.628   5.383
10757SOL     OW33169   2.529   3.163   1.212
10757SOL    HW133170   2.481   3.244   1.244
10757SOL    HW233171   2.626   3.184   1.199
10758SOL     OW33172   0.366   5.561   4.405
10758SOL    HW133173   0.448   5.587   4.354
10758SOL    HW233174   0.346   5.631   4.473
10759SOL     OW33175   0.226   3.053   6.679
10759SOL    HW133176   0.165   3.020   6.750
10759SOL    HW233177   0.195   3.019   6.590
10760SOL     OW33178   6.247   0.903   3.588
10760SOL    HW133179   6.179   0.914   3.660
10760SOL    HW233180   6.238   0.812   3.547
10761SOL     OW33181   2.915   4.974   5.347
10761SOL    HW133182   2.992   5.004   5.403
10761SOL    HW233183   2.855   5.052   5.329
10762SOL     OW33184   3.388   0.645   4.655
10762SOL    HW133185   3.350   0.558   4.688
10762SOL    HW233186   3.331   0.680   4.581
10763SOL     OW33187   4.300   6.519   3.459
10763SOL    HW133188   4.245   6.499   3.378
10763SOL    HW233189   4.377   6.455   3.463
10764SOL     OW33190   5.916   0.176   4.529
10764SOL    HW133191   5.991   0.239   4.551
10764SOL    HW233192   5.946   0.113   4.457
10765SOL     OW33193   5.648   3.643   1.217
10765SOL    HW133194   5.672   3.661   1.122
10765SOL    HW233195   5.618   3.549   1.227
10766SOL     OW33196   3.921   2.766   1.705
10766SOL    HW133197   3.880   2.803   1.622
10766SOL    HW233198   3.870   2.685   1.735
10767SOL     OW33199   3.783   1.014   1.809
10767SOL    HW133200   3.728   0.934   1.789
10767SOL    HW233201   3.724   1.094   1.818
10768SOL     OW33202   6.946   5.298   0.171
10768SOL    HW133203   6.935   5.378   0.230
10768SOL    HW233204   6.979   5.221   0.226
10769SOL     OW33205   1.746   3.976   6.072
10769SOL    HW133206   1.835   3.968   6.116
10769SOL    HW233207   1.718   4.072   6.070
10770SOL     OW33208   4.418   6.252   3.149
10770SOL    HW133209   4.504   6.226   3.193
10770SOL    HW233210   4.411   6.351   3.144
10771SOL     OW33211   2.571   1.307   3.452
10771SOL    HW133212   2.492   1.254   3.422
10771SOL    HW233213   2.585   1.294   3.550
10772SOL     OW33214   5.434   5.165   3.528
10772SOL    HW133215   5.484   5.208   3.603
10772SOL    HW233216   5.338   5.155   3.553
10773SOL     OW33217   5.110   4.992   3.924
10773SOL    HW133218   5.175   5.064   3.947
10773SOL    HW233219   5.124   4.963   3.829
10774SOL     OW33220   1.128   1.103   3.835
10774SOL    HW133221   1.133   1.141   3.742
10774SOL    HW233222   1.114   1.004   3.829
10775SOL     OW33223   0.695   4.046   2.220
10775SOL    HW133224   0.777   4.039   2.163
10775SOL    HW233225   0.680   4.142   2.245
10776SOL     OW33226   1.477   0.215   6.263
10776SOL    HW133227   1.550   0.150   6.287
10776SOL    HW233228   1.469   0.221   6.164
10777SOL     OW33229   3.169   6.076   1.392
10777SOL    HW133230   3.084   6.058   1.341
10777SOL    HW233231   3.147   6.113   1.482
10778SOL     OW33232   6.279   5.535   2.793
10778SOL    HW133233   6.254   5.632   2.788
10778SOL    HW233234   6.223   5.483   2.729
10779SOL     OW33235   5.535   2.479   3.480
10779SOL    HW133236   5.560   2.392   3.523
10779SOL    HW233237   5.617   2.532   3.462
10780SOL     OW33238   0.456   1.097   3.018
10780SOL    HW133239   0.522   1.130   3.085
10780SOL    HW233240   0.363   1.118   3.049
10781SOL     OW33241   3.680   0.238   4.186
10781SOL    HW133242   3.740   0.267   4.111
10781SOL    HW233243   3.619   0.313   4.211
10782SOL     OW33244   6.581   5.417   3.840
10782SOL    HW133245   6.645   5.431   3.915
10782SOL    HW233246   6.488   5.413   3.876
10783SOL     OW33247   6.734   2.302   2.841
10783SOL    HW133248   6.701   2.380   2.894
10783SOL    HW233249   6.677   2.292   2.759
10784SOL     OW33250   2.734   1.061   4.415
10784SOL    HW133251   2.645   1.015   4.413
10784SOL    HW233252   2.722   1.158   4.393
10785SOL     OW33253   0.840   3.929   6.565
10785SOL    HW133254   0.788   3.982   6.632
10785SOL    HW233255   0.814   3.957   6.473
10786SOL     OW33256   0.418   5.238   3.063
10786SOL    HW133257   0.441   5.235   2.965
10786SOL    HW233258   0.338   5.179   3.080
10787SOL     OW33259   1.802   2.581   5.703
10787SOL    HW133260   1.837   2.597   5.610
10787SOL    HW233261   1.728   2.645   5.722
10788SOL     OW33262   6.074   3.973   6.638
10788SOL    HW133263   6.159   4.021   6.616
10788SOL    HW233264   6.002   4.040   6.657
10789SOL     OW33265   6.706   1.338   0.192
10789SOL    HW133266   6.732   1.390   0.273
10789SOL    HW233267   6.770   1.261   0.181
10790SOL     OW33268   0.061   6.353   2.724
10790SOL    HW133269   6.991   6.327   2.737
10790SOL    HW233270   0.066   6.440   2.675
10791SOL     OW33271   0.432   6.249   2.963
10791SOL    HW133272   0.507   6.299   2.920
10791SOL    HW233273   0.367   6.220   2.892
10792SOL     OW33274   3.788   4.100   5.339
10792SOL    HW133275   3.846   4.179   5.357
10792SOL    HW233276   3.710   4.100   5.401
10793SOL     OW33277   5.509   3.421   4.949
10793SOL    HW133278   5.562   3.431   5.033
10793SOL    HW233279   5.443   3.347   4.959
10794SOL     OW33280   3.355   3.313   3.584
10794SOL    HW133281   3.278   3.377   3.590
10794SOL    HW233282   3.352   3.250   3.662
10795SOL     OW33283   0.776   4.653   3.456
10795SOL    HW133284   0.867   4.634   3.494
10795SOL    HW233285   0.777   4.741   3.408
10796SOL     OW33286   1.930   6.268   4.878
10796SOL    HW133287   2.005   6.219   4.832
10796SOL    HW233288   1.897   6.341   4.818
10797SOL     OW33289   3.960   2.559   0.411
10797SOL    HW133290   4.017   2.547   0.493
10797SOL    HW233291   3.997   2.503   0.337
10798SOL     OW33292   7.013   1.910   0.174
10798SOL    HW133293   6.994   2.007   0.192
10798SOL    HW233294   0.058   1.902   0.103
10799SOL     OW33295   3.981   1.492   1.809
10799SOL    HW133296   4.000   1.503   1.712
10799SOL    HW233297   4.026   1.409   1.843
10800SOL     OW33298   1.096   0.133   1.535
10800SOL    HW133299   1.179   0.151   1.482
10800SOL    HW233300   1.120   0.094   1.624
10801SOL     OW33301   1.435   0.592   0.826
10801SOL    HW133302   1.522   0.639   0.810
10801SOL    HW233303   1.359   0.653   0.804
10802SOL     OW33304   6.535   0.236   3.426
10802SOL    HW133305   6.628   0.257   3.457
10802SOL    HW233306   6.490   0.321   3.397
10803SOL     OW33307   2.457   5.137   6.222
10803SOL    HW133308   2.556   5.128   6.212
10803SOL    HW233309   2.428   5.092   6.306
10804SOL     OW33310   7.002   3.986   4.382
10804SOL    HW133311   6.990   3.984   4.283
10804SOL    HW233312   0.064   4.030   4.404
10805SOL     OW33313   6.736   1.380   5.583
10805SOL    HW133314   6.759   1.303   5.524
10805SOL    HW233315   6.783   1.369   5.671
10806SOL     OW33316   2.019   4.336   6.935
10806SOL    HW133317   1.976   4.340   6.844
10806SOL    HW233318   2.095   4.272   6.933
10807SOL     OW33319   3.481   6.764   4.617
10807SOL    HW133320   3.522   6.809   4.538
10807SOL    HW233321   3.547   6.760   4.692
10808SOL     OW33322   0.637   3.557   6.273
10808SOL    HW133323   0.544   3.528   6.250
10808SOL    HW233324   0.657   3.644   6.227
10809SOL     OW33325   2.164   6.516   4.801
10809SOL    HW133326   2.223   6.474   4.870
10809SOL    HW233327   2.071   6.520   4.835
10810SOL     OW33328   0.199   0.247   4.714
10810SOL    HW133329   0.122   0.269   4.774
10810SOL    HW233330   0.183   0.159   4.669
10811SOL     OW33331   4.900   4.724   5.037
10811SOL    HW133332   4.929   4.699   5.129
10811SOL    HW233333   4.931   4.817   5.016
10812SOL     OW33334   5.900   2.814   0.328
10812SOL    HW133335   5.852   2.861   0.253
10812SOL    HW233336   5.863   2.721   0.336
10813SOL     OW33337   0.187   4.614   5.978
10813SOL    HW133338   0.243   4.627   5.896
10813SOL    HW233339   0.104   4.564   5.954
10814SOL     OW33340   2.994   0.570   1.417
10814SOL    HW133341   2.977   0.662   1.452
10814SOL    HW233342   2.940   0.556   1.334
10815SOL     OW33343   5.474   0.996   4.722
10815SOL    HW133344   5.447   0.951   4.636
10815SOL    HW233345   5.476   0.929   4.796
10816SOL     OW33346   4.042   3.295   3.882
10816SOL    HW133347   4.084   3.306   3.792
10816SOL    HW233348   3.982   3.214   3.880
10817SOL     OW33349   2.096   6.266   3.443
10817SOL    HW133350   2.178   6.210   3.455
10817SOL    HW233351   2.048   6.274   3.531
10818SOL     OW33352   4.174   4.781   6.653
10818SOL    HW133353   4.273   4.794   6.650
10818SOL    HW233354   4.150   4.729   6.735
10819SOL     OW33355   6.550   6.022   5.973
10819SOL    HW133356   6.452   6.033   5.985
10819SOL    HW233357   6.569   5.987   5.881
10820SOL     OW33358   2.450   4.064   6.121
10820SOL    HW133359   2.410   4.125   6.190
10820SOL    HW233360   2.549   4.063   6.132
10821SOL     OW33361   4.746   5.519   3.087
10821SOL    HW133362   4.732   5.613   3.058
10821SOL    HW233363   4.687   5.498   3.165
10822SOL     OW33364   5.066   1.834   2.456
10822SOL    HW133365   4.998   1.831   2.382
10822SOL    HW233366   5.120   1.750   2.454
10823SOL     OW33367   5.807   6.829   1.954
10823SOL    HW133368   5.795   6.730   1.949
10823SOL    HW233369   5.843   6.854   2.043
10824SOL     OW33370   0.647   2.792   3.760
10824SOL    HW133371   0.664   2.718   3.826
10824SOL    HW233372   0.731   2.812   3.710
10825SOL     OW33373   0.544   2.337   0.350
10825SOL    HW133374   0.589   2.254   0.381
10825SOL    HW233375   0.471   2.314   0.286
10826SOL     OW33376   0.502   2.759   3.330
10826SOL    HW133377   0.456   2.671   3.342
10826SOL    HW233378   0.437   2.833   3.343
10827SOL     OW33379   6.673   3.409   4.780
10827SOL    HW133380   6.656   3.495   4.830
10827SOL    HW233381   6.636   3.417   4.687
10828SOL     OW33382   6.219   5.231   5.387
10828SOL    HW133383   6.190   5.152   5.440
10828SOL    HW233384   6.311   5.214   5.350
10829SOL     OW33385   4.087   3.147   5.189
10829SOL    HW133386   4.180   3.123   5.161
10829SOL    HW233387   4.071   3.113   5.282
10830SOL     OW33388   3.652   1.817   3.582
10830SOL    HW133389   3.567   1.869   3.587
10830SOL    HW233390   3.631   1.719   3.574
10831SOL     OW33391   3.954   0.673   3.580
10831SOL    HW133392   4.023   0.654   3.510
10831SOL    HW233393   3.863   0.669   3.539
10832SOL     OW33394   6.616   3.604   0.588
10832SOL    HW133395   6.567   3.653   0.516
10832SOL    HW233396   6.627   3.664   0.667
10833SOL     OW33397   0.494   1.021   6.700
10833SOL    HW133398   0.499   0.924   6.676
10833SOL    HW233399   0.539   1.036   6.788
10834SOL     OW33400   6.963   0.015   1.474
10834SOL    HW133401   7.024   0.003   1.395
10834SOL    HW233402   6.873   7.002   1.453
10835SOL     OW33403   0.130   2.278   5.822
10835SOL    HW133404   0.216   2.326   5.807
10835SOL    HW233405   0.145   2.179   5.815
10836SOL     OW33406   6.911   1.212   4.090
10836SOL    HW133407   6.924   1.297   4.142
10836SOL    HW233408   6.983   1.147   4.114
10837SOL     OW33409   0.574   3.186   2.650
10837SOL    HW133410   0.631   3.248   2.595
10837SOL    HW233411   0.551   3.231   2.736
10838SOL     OW33412   0.366   5.397   2.262
10838SOL    HW133413   0.352   5.300   2.241
10838SOL    HW233414   0.463   5.419   2.255
10839SOL     OW33415   5.116   2.355   1.477
10839SOL    HW133416   5.080   2.272   1.519
10839SOL    HW233417   5.045   2.400   1.423
10840SOL     OW33418   2.745   0.271   1.315
10840SOL    HW133419   2.841   0.291   1.299
10840SOL    HW233420   2.692   0.290   1.233
10841SOL     OW33421   2.084   5.408   4.939
10841SOL    HW133422   2.021   5.481   4.967
10841SOL    HW233423   2.041   5.319   4.954
10842SOL     OW33424   5.151   4.230   1.031
10842SOL    HW133425   5.244   4.254   1.001
10842SOL    HW233426   5.089   4.236   0.953
10843SOL     OW33427   2.421   1.871   1.499
10843SOL    HW133428   2.408   1.799   1.568
10843SOL    HW233429   2.519   1.883   1.482
10844SOL     OW33430   1.795   5.163   4.752
10844SOL    HW133431   1.886   5.140   4.717
10844SOL    HW233432   1.732   5.087   4.733
10845SOL     OW33433   4.268   0.124   4.823
10845SOL    HW133434   4.193   0.099   4.884
10845SOL    HW233435   4.240   0.110   4.728
10846SOL     OW33436   5.505   0.329   6.732
10846SOL    HW133437   5.547   0.307   6.821
10846SOL    HW233438   5.544   0.270   6.662
10847SOL     OW33439   2.412   1.070   6.302
10847SOL    HW133440   2.480   1.024   6.244
10847SOL    HW233441   2.451   1.156   6.336
10848SOL     OW33442   1.593   4.955   2.169
10848SOL    HW133443   1.511   4.997   2.207
10848SOL    HW233444   1.655   5.026   2.136
10849SOL     OW33445   2.029   6.886   4.238
10849SOL    HW133446   2.004   6.930   4.325
10849SOL    HW233447   2.028   6.955   4.165
10850SOL     OW33448   3.359   4.886   0.668
10850SOL    HW133449   3.455   4.911   0.683
10850SOL    HW233450   3.300   4.947   0.722
10851SOL     OW33451   1.906   4.757   0.522
10851SOL    HW133452   1.981   4.692   0.530
10851SOL    HW233453   1.863   4.747   0.432
10852SOL     OW33454   2.210   0.974   2.014
10852SOL    HW133455   2.247   0.923   2.092
10852SOL    HW233456   2.131   1.028   2.044
10853SOL     OW33457   2.769   1.676   6.075
10853SOL    HW133458   2.856   1.645   6.037
10853SOL    HW233459   2.771   1.665   6.175
10854SOL     OW33460   3.224   6.413   5.175
10854SOL    HW133461   3.139   6.411   5.227
10854SOL    HW233462   3.204   6.433   5.079
10855SOL     OW33463   3.466   1.201   6.650
10855SOL    HW133464   3.543   1.234   6.705
10855SOL    HW233465   3.498   1.180   6.557
10856SOL     OW33466   0.316   0.908   0.441
10856SOL    HW133467   0.289   0.944   0.352
10856SOL    HW233468   0.359   0.818   0.429
10857SOL     OW33469   6.581   2.104   2.315
10857SOL    HW133470   6.609   2.107   2.411
10857SOL    HW233471   6.515   2.178   2.298
10858SOL     OW33472   2.660   6.207   1.815
10858SOL    HW133473   2.589   6.205   1.746
10858SOL    HW233474   2.727   6.135   1.797
10859SOL     OW33475   1.755   5.481   3.666
10859SOL    HW133476   1.684   5.415   3.687
10859SOL    HW233477   1.816   5.492   3.745
10860SOL     OW33478   0.074   3.055   3.256
10860SOL    HW133479   0.077   2.997   3.175
10860SOL    HW233480   7.016   3.036   3.308
10861SOL     OW33481   4.016   3.359   5.017
10861SOL    HW133482   4.030   3.284   5.081
10861SOL    HW233483   4.001   3.323   4.925
10862SOL     OW33484   0.918   0.922   4.451
10862SOL    HW133485   0.943   0.870   4.369
10862SOL    HW233486   0.826   0.960   4.438
10863SOL     OW33487   2.976   6.063   4.551
10863SOL    HW133488   3.064   6.097   4.519
10863SOL    HW233489   2.987   5.969   4.584
10864SOL     OW33490   3.846   5.806   2.924
10864SOL    HW133491   3.847   5.887   2.984
10864SOL    HW233492   3.935   5.795   2.881
10865SOL     OW33493   6.164   1.897   6.071
10865SOL    HW133494   6.137   1.894   5.975
10865SOL    HW233495   6.119   1.822   6.120
10866SOL     OW33496   5.336   5.055   0.937
10866SOL    HW133497   5.429   5.028   0.914
10866SOL    HW233498   5.323   5.152   0.915
10867SOL     OW33499   3.363   2.048   0.312
10867SOL    HW133500   3.404   2.137   0.291
10867SOL    HW233501   3.419   2.001   0.382
10868SOL     OW33502   2.336   2.120   2.508
10868SOL    HW133503   2.323   2.197   2.445
10868SOL    HW233504   2.256   2.061   2.505
10869NA      NA33505   6.583   2.437   5.972
10870NA      NA33506   4.429   4.575   5.266
10871NA      NA33507   2.352   3.424   1.639
10872NA      NA33508   4.942   3.624   5.206
10873NA      NA33509   4.364   2.375   5.191
10874NA      NA33510   3.682   4.722   1.661
10875NA      NA33511   6.585   6.039   4.938
10876NA      NA33512   3.818   3.935   5.166
10877NA      NA33513   4.621   6.843   6.947
10878NA      NA33514   3.462   0.083   5.002
10879NA      NA33515   0.048   5.314   2.766
10880NA      NA33516   2.842   0.675   2.873
10881NA      NA33517   3.441   3.824   1.050
10882NA      NA33518   3.532   3.370   2.967
   7.02519   7.02519   7.02519
